<event>
 8    1  0.1021894E-011  0.9118800E+02  0.7816164E-02  0.1184000E+00
        -11   -1    0    0    0    0  0.00000000000E+00  0.00000000000E+00  0.45593999997E+02  0.45594000000E+02  0.51100000000E-03 0. -1.
         11   -1    0    0    0    0 -0.00000000000E+00 -0.00000000000E+00 -0.45593999997E+02  0.45594000000E+02  0.51100000000E-03 0.  1.
         23    2    1    2    0    0  0.00000000000E+00  0.00000000000E+00 -0.35527136788E-14  0.91188000000E+02  0.91188000000E+02 0.  0.
    9900012    2    3    3    0    0 -0.25201371795E+02  0.88293146437E+01  0.30661037279E+02  0.50528866408E+02  0.30000019934E+02 0.  0.
        -12    1    3    3    0    0  0.25201371795E+02 -0.88293146437E+01 -0.30661037279E+02  0.40659133592E+02  0.00000000000E+00 0.  1.
         11    1    4    4    0    0 -0.13599816645E+02  0.54995081158E+01  0.13882021660E+02  0.20196785089E+02  0.51100000000E-03 0. -1.
        -11    1    4    4    0    0 -0.28893016620E+01 -0.93818417756E+01  0.56910938989E+01  0.11347051125E+02  0.51100000000E-03 0.  1.
        -12    1    4    4    0    0 -0.87122534878E+01  0.12711648304E+02  0.11087921720E+02  0.18985030195E+02  0.00000000000E+00 0.  1.
</event>
<event>
 8    1  0.1021894E-011  0.9118800E+02  0.7816164E-02  0.1184000E+00
        -11   -1    0    0    0    0  0.00000000000E+00  0.00000000000E+00  0.45593999997E+02  0.45594000000E+02  0.51100000000E-03 0. -1.
         11   -1    0    0    0    0 -0.00000000000E+00 -0.00000000000E+00 -0.45593999997E+02  0.45594000000E+02  0.51100000000E-03 0.  1.
         23    2    1    2    0    0 -0.35527136788E-14  0.00000000000E+00 -0.35527136788E-14  0.91188000000E+02  0.91188000000E+02 0.  0.
    9900012    2    3    3    0    0 -0.19865728884E+02 -0.18736651286E+02 -0.30124018858E+02  0.50528858375E+02  0.29999995518E+02 0.  0.
         12    1    3    3    0    0  0.19865728884E+02  0.18736651286E+02  0.30124018858E+02  0.40659141625E+02  0.00000000000E+00 0. -1.
         11    1    4    4    0    0 -0.12174088825E+01  0.43381387855E+01  0.13999159748E+01  0.47181879474E+01  0.51100000000E-03 0. -1.
        -11    1    4    4    0    0 -0.10629201119E+02 -0.13380936027E+02 -0.27901280231E+02  0.32718661406E+02  0.51100000000E-03 0.  1.
        -12    1    4    4    0    0 -0.80191188819E+01 -0.96938540446E+01 -0.36226546017E+01  0.13092009022E+02  0.00000000000E+00 0.  1.
</event>
<event>
 8    1  0.1021894E-011  0.9118800E+02  0.7816164E-02  0.1184000E+00
        -11   -1    0    0    0    0  0.00000000000E+00  0.00000000000E+00  0.45593999997E+02  0.45594000000E+02  0.51100000000E-03 0. -1.
         11   -1    0    0    0    0 -0.00000000000E+00 -0.00000000000E+00 -0.45593999997E+02  0.45594000000E+02  0.51100000000E-03 0.  1.
         23    2    1    2    0    0  0.17763568394E-14  0.00000000000E+00  0.00000000000E+00  0.91188000000E+02  0.91188000000E+02 0.  0.
    9900012    2    3    3    0    0 -0.13058872814E+01 -0.30843632420E+02  0.26459993769E+02  0.50528852534E+02  0.29999977761E+02 0.  0.
        -12    1    3    3    0    0  0.13058872814E+01  0.30843632420E+02 -0.26459993769E+02  0.40659147466E+02  0.00000000000E+00 0.  1.
         11    1    4    4    0    0  0.75204366983E+01 -0.45807208803E+01 -0.81575963874E+00  0.88433837396E+01  0.51100000000E-03 0. -1.
        -11    1    4    4    0    0 -0.88829401589E+01 -0.25833408921E+02  0.29039475218E+02  0.39869321082E+02  0.51100000000E-03 0.  1.
         12    1    4    4    0    0  0.56616179204E-01 -0.42950261863E+00 -0.17637218096E+01  0.18161477123E+01  0.00000000000E+00 0. -1.
</event>
<event>
 8    1  0.1021894E-011  0.9118800E+02  0.7816164E-02  0.1184000E+00
        -11   -1    0    0    0    0  0.00000000000E+00  0.00000000000E+00  0.45593999997E+02  0.45594000000E+02  0.51100000000E-03 0. -1.
         11   -1    0    0    0    0 -0.00000000000E+00 -0.00000000000E+00 -0.45593999997E+02  0.45594000000E+02  0.51100000000E-03 0.  1.
         23    2    1    2    0    0  0.00000000000E+00  0.00000000000E+00  0.00000000000E+00  0.91188000000E+02  0.91188000000E+02 0.  0.
    9900012    2    3    3    0    0  0.34851790473E+02  0.19389297900E+02  0.79103129851E+01  0.50528865432E+02  0.30000016968E+02 0.  0.
        -12    1    3    3    0    0 -0.34851790473E+02 -0.19389297900E+02 -0.79103129851E+01  0.40659134568E+02  0.00000000000E+00 0.  1.
         11    1    4    4    0    0  0.33449624369E+02  0.22497841503E+02  0.13414036589E+02  0.42484898736E+02  0.51100000000E-03 0. -1.
        -11    1    4    4    0    0 -0.74372366357E+00  0.99105247373E+00 -0.11753969181E+01  0.17078840914E+01  0.51100000000E-03 0.  1.
         12    1    4    4    0    0  0.21458897679E+01 -0.40995960761E+01 -0.43283266856E+01  0.63360826052E+01  0.00000000000E+00 0. -1.
</event>
<event>
 8    1  0.1021894E-011  0.9118800E+02  0.7816164E-02  0.1184000E+00
        -11   -1    0    0    0    0  0.00000000000E+00  0.00000000000E+00  0.45593999997E+02  0.45594000000E+02  0.51100000000E-03 0. -1.
         11   -1    0    0    0    0 -0.00000000000E+00 -0.00000000000E+00 -0.45593999997E+02  0.45594000000E+02  0.51100000000E-03 0.  1.
         23    2    1    2    0    0 -0.88817841970E-15  0.00000000000E+00  0.00000000000E+00  0.91188000000E+02  0.91188000000E+02 0.  0.
    9900012    2    3    3    0    0 -0.64023521211E+01 -0.36523613966E+02  0.16679392018E+02  0.50528848411E+02  0.29999965230E+02 0.  0.
        -12    1    3    3    0    0  0.64023521211E+01  0.36523613966E+02 -0.16679392018E+02  0.40659151589E+02  0.00000000000E+00 0.  1.
         11    1    4    4    0    0  0.40384595173E+00  0.22686128693E+01  0.48469342789E+00  0.23547025043E+01  0.51100000000E-03 0. -1.
        -11    1    4    4    0    0 -0.54886103792E+01 -0.41033244112E+02  0.17859905875E+02  0.45086896149E+02  0.51100000000E-03 0.  1.
        -12    1    4    4    0    0 -0.13175876936E+01  0.22410172761E+01 -0.16652072850E+01  0.30872497574E+01  0.00000000000E+00 0.  1.
</event>
<event>
 8    1  0.1694100E-011  0.9118800E+02  0.7816164E-02  0.1184000E+00
        -11   -1    0    0    0    0  0.00000000000E+00  0.00000000000E+00  0.45593999997E+02  0.45594000000E+02  0.51100000000E-03 0. -1.
         11   -1    0    0    0    0 -0.00000000000E+00 -0.00000000000E+00 -0.45593999997E+02  0.45594000000E+02  0.51100000000E-03 0.  1.
         23    2    1    2    0    0  0.44408920985E-15  0.00000000000E+00  0.71054273576E-14  0.91188000000E+02  0.91188000000E+02 0.  0.
    9900012    2    3    3    0    0  0.22905582368E+01  0.18984047409E+02 -0.35882099890E+02  0.50528858278E+02  0.29999995222E+02 0.  0.
         12    1    3    3    0    0 -0.22905582368E+01 -0.18984047409E+02  0.35882099890E+02  0.40659141722E+02  0.00000000000E+00 0. -1.
         11    1    4    4    0    0 -0.94440320189E+01  0.81119928158E+01 -0.21690838262E+01  0.12637210654E+02  0.51100000000E-03 0. -1.
        -11    1    4    4    0    0  0.17089715839E+01  0.55737632928E+01 -0.13710230924E+02  0.14898250011E+02  0.51100000000E-03 0.  1.
         12    1    4    4    0    0  0.10025618672E+02  0.52982913000E+01 -0.20002785140E+02  0.22993397613E+02  0.00000000000E+00 0. -1.
</event>
<event>
 8    1  0.1021894E-011  0.9118800E+02  0.7816164E-02  0.1184000E+00
        -11   -1    0    0    0    0  0.00000000000E+00  0.00000000000E+00  0.45593999997E+02  0.45594000000E+02  0.51100000000E-03 0. -1.
         11   -1    0    0    0    0 -0.00000000000E+00 -0.00000000000E+00 -0.45593999997E+02  0.45594000000E+02  0.51100000000E-03 0.  1.
         23    2    1    2    0    0 -0.71054273576E-14  0.17763568394E-14  0.00000000000E+00  0.91188000000E+02  0.91188000000E+02 0.  0.
    9900012    2    3    3    0    0  0.39344307202E+02 -0.91403393271E+01  0.46524777270E+01  0.50528857593E+02  0.29999993141E+02 0.  0.
        -12    1    3    3    0    0 -0.39344307202E+02  0.91403393271E+01 -0.46524777270E+01  0.40659142407E+02  0.00000000000E+00 0.  1.
         11    1    4    4    0    0  0.18199187368E+02 -0.93978748409E+01  0.22079648412E+01  0.20601106315E+02  0.51100000000E-03 0. -1.
        -11    1    4    4    0    0  0.18005966811E+02  0.92816245959E+01  0.21154714877E+01  0.20367587383E+02  0.51100000000E-03 0.  1.
        -12    1    4    4    0    0  0.31391530225E+01 -0.90240890821E+01  0.32904139810E+00  0.95601638952E+01  0.00000000000E+00 0.  1.
</event>
<event>
 8    1  0.1021894E-011  0.9118800E+02  0.7816164E-02  0.1184000E+00
        -11   -1    0    0    0    0  0.00000000000E+00  0.00000000000E+00  0.45593999997E+02  0.45594000000E+02  0.51100000000E-03 0. -1.
         11   -1    0    0    0    0 -0.00000000000E+00 -0.00000000000E+00 -0.45593999997E+02  0.45594000000E+02  0.51100000000E-03 0.  1.
         23    2    1    2    0    0  0.00000000000E+00  0.00000000000E+00  0.35527136788E-14  0.91188000000E+02  0.91188000000E+02 0.  0.
    9900012    2    3    3    0    0 -0.29851203820E+02 -0.21401367387E+02  0.17437117799E+02  0.50528856223E+02  0.29999988976E+02 0.  0.
        -12    1    3    3    0    0  0.29851203820E+02  0.21401367387E+02 -0.17437117799E+02  0.40659143777E+02  0.00000000000E+00 0.  1.
         11    1    4    4    0    0 -0.26869742855E+02 -0.17690285904E+02  0.17151880617E+02  0.36457047404E+02  0.51100000000E-03 0. -1.
        -11    1    4    4    0    0 -0.27810512353E+01 -0.46809233511E+01 -0.57716115247E+01  0.79345314445E+01  0.51100000000E-03 0.  1.
         12    1    4    4    0    0 -0.20040972960E+00  0.96984186805E+00  0.60568487075E+01  0.61372773747E+01  0.00000000000E+00 0. -1.
</event>
<event>
 8    1  0.1021894E-011  0.9118800E+02  0.7816164E-02  0.1184000E+00
        -11   -1    0    0    0    0  0.00000000000E+00  0.00000000000E+00  0.45593999997E+02  0.45594000000E+02  0.51100000000E-03 0. -1.
         11   -1    0    0    0    0 -0.00000000000E+00 -0.00000000000E+00 -0.45593999997E+02  0.45594000000E+02  0.51100000000E-03 0.  1.
         23    2    1    2    0    0  0.00000000000E+00  0.00000000000E+00  0.35527136788E-14  0.91188000000E+02  0.91188000000E+02 0.  0.
    9900012    2    3    3    0    0 -0.20171312738E+02 -0.26626530897E+02 -0.23180024562E+02  0.50528836901E+02  0.29999930245E+02 0.  0.
         12    1    3    3    0    0  0.20171312738E+02  0.26626530897E+02  0.23180024562E+02  0.40659163099E+02  0.00000000000E+00 0. -1.
         11    1    4    4    0    0 -0.75920515468E+01 -0.59589893948E+00  0.10192731639E+00  0.76160837492E+01  0.51100000000E-03 0. -1.
        -11    1    4    4    0    0 -0.67156324337E+01 -0.25711677254E+02 -0.25311506752E+02  0.36699624529E+02  0.51100000000E-03 0.  1.
        -12    1    4    4    0    0 -0.58636287576E+01 -0.31895470316E+00  0.20295548737E+01  0.62131286237E+01  0.00000000000E+00 0.  1.
</event>
<event>
 8    1  0.1021894E-011  0.9118800E+02  0.7816164E-02  0.1184000E+00
        -11   -1    0    0    0    0  0.00000000000E+00  0.00000000000E+00  0.45593999997E+02  0.45594000000E+02  0.51100000000E-03 0. -1.
         11   -1    0    0    0    0 -0.00000000000E+00 -0.00000000000E+00 -0.45593999997E+02  0.45594000000E+02  0.51100000000E-03 0.  1.
         23    2    1    2    0    0  0.35527136788E-14  0.35527136788E-14  0.35527136788E-14  0.91188000000E+02  0.91188000000E+02 0.  0.
    9900012    2    3    3    0    0 -0.19646408035E+02 -0.21679330702E+02 -0.28234575446E+02  0.50528856146E+02  0.29999988741E+02 0.  0.
         12    1    3    3    0    0  0.19646408035E+02  0.21679330702E+02  0.28234575446E+02  0.40659143854E+02  0.00000000000E+00 0. -1.
         11    1    4    4    0    0 -0.11767232904E+02 -0.77085733965E+01 -0.68274843296E+01  0.15636636997E+02  0.51100000000E-03 0. -1.
        -11    1    4    4    0    0  0.70583701601E+01 -0.62561922630E+01 -0.13093541671E+02  0.16136956488E+02  0.51100000000E-03 0.  1.
        -12    1    4    4    0    0 -0.14937545290E+02 -0.77145650422E+01 -0.83135494452E+01  0.18755262661E+02  0.00000000000E+00 0.  1.
</event>
<event>
 8    1  0.1021894E-011  0.9118800E+02  0.7816164E-02  0.1184000E+00
        -11   -1    0    0    0    0  0.00000000000E+00  0.00000000000E+00  0.45593999997E+02  0.45594000000E+02  0.51100000000E-03 0. -1.
         11   -1    0    0    0    0 -0.00000000000E+00 -0.00000000000E+00 -0.45593999997E+02  0.45594000000E+02  0.51100000000E-03 0.  1.
         23    2    1    2    0    0 -0.35527136788E-14  0.00000000000E+00  0.71054273576E-14  0.91188000000E+02  0.91188000000E+02 0.  0.
    9900012    2    3    3    0    0 -0.19643113123E+02 -0.96152301882E+01  0.34276244820E+02  0.50528861990E+02  0.30000006505E+02 0.  0.
        -12    1    3    3    0    0  0.19643113123E+02  0.96152301882E+01 -0.34276244820E+02  0.40659138010E+02  0.00000000000E+00 0.  1.
         11    1    4    4    0    0  0.25062147608E+01 -0.27602625684E+01 -0.40840043703E+01  0.55298511582E+01  0.51100000000E-03 0.  1.
        -11    1    4    4    0    0 -0.83340918483E+01 -0.44528394076E+01  0.13980123114E+02  0.16873906136E+02  0.51100000000E-03 0. -1.
        -12    1    4    4    0    0 -0.13815236036E+02 -0.24021282122E+01  0.24380126076E+02  0.28125104696E+02  0.00000000000E+00 0.  1.
</event>
<event>
 8    1  0.1021894E-011  0.9118800E+02  0.7816164E-02  0.1184000E+00
        -11   -1    0    0    0    0  0.00000000000E+00  0.00000000000E+00  0.45593999997E+02  0.45594000000E+02  0.51100000000E-03 0. -1.
         11   -1    0    0    0    0 -0.00000000000E+00 -0.00000000000E+00 -0.45593999997E+02  0.45594000000E+02  0.51100000000E-03 0.  1.
         23    2    1    2    0    0  0.00000000000E+00 -0.17763568394E-14 -0.35527136788E-14  0.91188000000E+02  0.91188000000E+02 0.  0.
    9900012    2    3    3    0    0 -0.32246754586E+02  0.14904050304E+02  0.19778286430E+02  0.50528874199E+02  0.30000043615E+02 0.  0.
        -12    1    3    3    0    0  0.32246754586E+02 -0.14904050304E+02 -0.19778286430E+02  0.40659125801E+02  0.00000000000E+00 0.  1.
         11    1    4    4    0    0 -0.23393092201E+02 -0.94925703242E+00  0.11161012489E+02  0.25936577486E+02  0.51100000000E-03 0. -1.
        -11    1    4    4    0    0 -0.24406980857E+01  0.10441338112E+02 -0.21551474813E+01  0.10937239580E+02  0.51100000000E-03 0.  1.
        -12    1    4    4    0    0 -0.64129642991E+01  0.54119692242E+01  0.10772421423E+02  0.13655057133E+02  0.00000000000E+00 0.  1.
</event>
<event>
 8    1  0.1021894E-011  0.9118800E+02  0.7816164E-02  0.1184000E+00
        -11   -1    0    0    0    0  0.00000000000E+00  0.00000000000E+00  0.45593999997E+02  0.45594000000E+02  0.51100000000E-03 0.  1.
         11   -1    0    0    0    0 -0.00000000000E+00 -0.00000000000E+00 -0.45593999997E+02  0.45594000000E+02  0.51100000000E-03 0. -1.
         23    2    1    2    0    0  0.00000000000E+00  0.00000000000E+00  0.88817841970E-15  0.91188000000E+02  0.91188000000E+02 0.  0.
    9900012    2    3    3    0    0 -0.30614988252E+02 -0.26362645402E+02 -0.45716322279E+01  0.50528850974E+02  0.29999973022E+02 0.  0.
        -12    1    3    3    0    0  0.30614988252E+02  0.26362645402E+02  0.45716322279E+01  0.40659149026E+02  0.00000000000E+00 0.  1.
         11    1    4    4    0    0 -0.16735222320E+01 -0.19652326786E+02 -0.28234193930E+01  0.19924515605E+02  0.51100000000E-03 0.  1.
        -11    1    4    4    0    0 -0.21000022952E+02 -0.39114563883E+01  0.18632626931E+01  0.21442299391E+02  0.51100000000E-03 0. -1.
        -12    1    4    4    0    0 -0.79414430685E+01 -0.27988622272E+01 -0.36114755280E+01  0.91620359782E+01  0.00000000000E+00 0.  1.
</event>
<event>
 8    1  0.1021894E-011  0.9118800E+02  0.7816164E-02  0.1184000E+00
        -11   -1    0    0    0    0  0.00000000000E+00  0.00000000000E+00  0.45593999997E+02  0.45594000000E+02  0.51100000000E-03 0.  1.
         11   -1    0    0    0    0 -0.00000000000E+00 -0.00000000000E+00 -0.45593999997E+02  0.45594000000E+02  0.51100000000E-03 0. -1.
         23    2    1    2    0    0  0.00000000000E+00  0.35527136788E-14  0.88817841970E-15  0.91188000000E+02  0.91188000000E+02 0.  0.
    9900012    2    3    3    0    0 -0.29044206046E+02 -0.28033596216E+02  0.48700306457E+01  0.50528860558E+02  0.30000002153E+02 0.  0.
        -12    1    3    3    0    0  0.29044206046E+02  0.28033596216E+02 -0.48700306457E+01  0.40659139442E+02  0.00000000000E+00 0.  1.
         11    1    4    4    0    0 -0.18403156861E+02 -0.22627055985E+02  0.12376082432E+02  0.31683233131E+02  0.51100000000E-03 0.  1.
        -11    1    4    4    0    0 -0.11253769501E+02 -0.77229476687E+01 -0.86823825708E+01  0.16176372153E+02  0.51100000000E-03 0. -1.
        -12    1    4    4    0    0  0.61272031605E+00  0.23164074378E+01  0.11763307840E+01  0.26692552739E+01  0.00000000000E+00 0.  1.
</event>
<event>
 8    1  0.1021894E-011  0.9118800E+02  0.7816164E-02  0.1184000E+00
        -11   -1    0    0    0    0  0.00000000000E+00  0.00000000000E+00  0.45593999997E+02  0.45594000000E+02  0.51100000000E-03 0. -1.
         11   -1    0    0    0    0 -0.00000000000E+00 -0.00000000000E+00 -0.45593999997E+02  0.45594000000E+02  0.51100000000E-03 0.  1.
         23    2    1    2    0    0  0.00000000000E+00  0.17763568394E-14  0.35527136788E-14  0.91188000000E+02  0.91188000000E+02 0.  0.
    9900012    2    3    3    0    0  0.35567779268E+02  0.11478227630E+02 -0.16010787806E+02  0.50528905596E+02  0.30000139049E+02 0.  0.
         12    1    3    3    0    0 -0.35567779268E+02 -0.11478227630E+02  0.16010787806E+02  0.40659094404E+02  0.00000000000E+00 0. -1.
         11    1    4    4    0    0  0.15153855154E+02  0.90156446916E+01 -0.15149656286E+02  0.23247220502E+02  0.51100000000E-03 0.  1.
        -11    1    4    4    0    0  0.12067216287E+02 -0.49345493162E+01  0.58238672039E+01  0.14278827520E+02  0.51100000000E-03 0. -1.
         12    1    4    4    0    0  0.83467078270E+01  0.73971322545E+01 -0.66849987239E+01  0.13002857574E+02  0.00000000000E+00 0. -1.
</event>
<event>
 8    1  0.1021894E-011  0.9118800E+02  0.7816164E-02  0.1184000E+00
        -11   -1    0    0    0    0  0.00000000000E+00  0.00000000000E+00  0.45593999997E+02  0.45594000000E+02  0.51100000000E-03 0. -1.
         11   -1    0    0    0    0 -0.00000000000E+00 -0.00000000000E+00 -0.45593999997E+02  0.45594000000E+02  0.51100000000E-03 0.  1.
         23    2    1    2    0    0  0.00000000000E+00  0.35527136788E-14  0.00000000000E+00  0.91188000000E+02  0.91188000000E+02 0.  0.
    9900012    2    3    3    0    0  0.34099094124E+02  0.21626479474E+02  0.47657976489E+01  0.50528860047E+02  0.30000000599E+02 0.  0.
        -12    1    3    3    0    0 -0.34099094124E+02 -0.21626479474E+02 -0.47657976489E+01  0.40659139953E+02  0.00000000000E+00 0.  1.
         11    1    4    4    0    0  0.17932397138E+02  0.14731965945E+02  0.13368830424E+01  0.23246267318E+02  0.51100000000E-03 0. -1.
        -11    1    4    4    0    0  0.57959942535E+01 -0.22870687264E+01 -0.74194968611E+01  0.96888165778E+01  0.51100000000E-03 0.  1.
        -12    1    4    4    0    0  0.10370702733E+02  0.91815822549E+01  0.10848411468E+02  0.17593776151E+02  0.00000000000E+00 0.  1.
</event>
<event>
 8    1  0.1021894E-011  0.9118800E+02  0.7816164E-02  0.1184000E+00
        -11   -1    0    0    0    0  0.00000000000E+00  0.00000000000E+00  0.45593999997E+02  0.45594000000E+02  0.51100000000E-03 0. -1.
         11   -1    0    0    0    0 -0.00000000000E+00 -0.00000000000E+00 -0.45593999997E+02  0.45594000000E+02  0.51100000000E-03 0.  1.
         23    2    1    2    0    0  0.35527136788E-14  0.00000000000E+00  0.00000000000E+00  0.91188000000E+02  0.91188000000E+02 0.  0.
    9900012    2    3    3    0    0  0.17379670511E+02  0.11924568487E+02  0.34769479002E+02  0.50528868790E+02  0.30000027174E+02 0.  0.
        -12    1    3    3    0    0 -0.17379670511E+02 -0.11924568487E+02 -0.34769479002E+02  0.40659131210E+02  0.00000000000E+00 0.  1.
         11    1    4    4    0    0  0.17710895920E+02  0.41862409559E+01  0.86057275072E+01  0.20131045522E+02  0.51100000000E-03 0. -1.
        -11    1    4    4    0    0 -0.66842046086E+01  0.22318839196E+01  0.12724580153E+02  0.14545612308E+02  0.51100000000E-03 0.  1.
         12    1    4    4    0    0  0.63529791997E+01  0.55064436112E+01  0.13439171342E+02  0.15852210960E+02  0.00000000000E+00 0. -1.
</event>
<event>
 8    1  0.1021894E-011  0.9118800E+02  0.7816164E-02  0.1184000E+00
        -11   -1    0    0    0    0  0.00000000000E+00  0.00000000000E+00  0.45593999997E+02  0.45594000000E+02  0.51100000000E-03 0. -1.
         11   -1    0    0    0    0 -0.00000000000E+00 -0.00000000000E+00 -0.45593999997E+02  0.45594000000E+02  0.51100000000E-03 0.  1.
         23    2    1    2    0    0 -0.35527136788E-14 -0.22204460493E-15  0.00000000000E+00  0.91188000000E+02  0.91188000000E+02 0.  0.
    9900012    2    3    3    0    0 -0.16876477905E+02  0.64395187211E+00 -0.36985621613E+02  0.50528851133E+02  0.29999973503E+02 0.  0.
         12    1    3    3    0    0  0.16876477905E+02 -0.64395187211E+00  0.36985621613E+02  0.40659148867E+02  0.00000000000E+00 0. -1.
         11    1    4    4    0    0 -0.54765242878E+01 -0.72779737960E+01 -0.31513112991E+02  0.32803010708E+02  0.51100000000E-03 0. -1.
        -11    1    4    4    0    0 -0.11558376055E+02  0.30328668164E+01 -0.35020645458E+01  0.12452260618E+02  0.51100000000E-03 0.  1.
         12    1    4    4    0    0  0.15842243781E+00  0.48890588516E+01 -0.19704440766E+01  0.52735798072E+01  0.00000000000E+00 0. -1.
</event>
<event>
 8    1  0.1021894E-011  0.9118800E+02  0.7816164E-02  0.1184000E+00
        -11   -1    0    0    0    0  0.00000000000E+00  0.00000000000E+00  0.45593999997E+02  0.45594000000E+02  0.51100000000E-03 0. -1.
         11   -1    0    0    0    0 -0.00000000000E+00 -0.00000000000E+00 -0.45593999997E+02  0.45594000000E+02  0.51100000000E-03 0.  1.
         23    2    1    2    0    0  0.00000000000E+00  0.00000000000E+00  0.17763568394E-14  0.91188000000E+02  0.91188000000E+02 0.  0.
    9900012    2    3    3    0    0  0.17393117170E+02  0.36190964775E+02 -0.63921011473E+01  0.50528863102E+02  0.30000009884E+02 0.  0.
         12    1    3    3    0    0 -0.17393117170E+02 -0.36190964775E+02  0.63921011473E+01  0.40659136898E+02  0.00000000000E+00 0. -1.
         11    1    4    4    0    0  0.98611447461E+01  0.72450544565E+00  0.48050292315E+01  0.10993424854E+02  0.51100000000E-03 0. -1.
        -11    1    4    4    0    0  0.71207214783E+01  0.17026069507E+02 -0.10533114739E+01  0.18485161145E+02  0.51100000000E-03 0.  1.
         12    1    4    4    0    0  0.41125094553E+00  0.18440389822E+02 -0.10143818905E+02  0.21050277103E+02  0.00000000000E+00 0. -1.
</event>
<event>
 8    1  0.1021894E-011  0.9118800E+02  0.7816164E-02  0.1184000E+00
        -11   -1    0    0    0    0  0.00000000000E+00  0.00000000000E+00  0.45593999997E+02  0.45594000000E+02  0.51100000000E-03 0. -1.
         11   -1    0    0    0    0 -0.00000000000E+00 -0.00000000000E+00 -0.45593999997E+02  0.45594000000E+02  0.51100000000E-03 0.  1.
         23    2    1    2    0    0  0.00000000000E+00  0.00000000000E+00  0.00000000000E+00  0.91188000000E+02  0.91188000000E+02 0.  0.
    9900012    2    3    3    0    0 -0.20424730726E+02 -0.93802313146E+01  0.33882262973E+02  0.50528854548E+02  0.29999983883E+02 0.  0.
        -12    1    3    3    0    0  0.20424730726E+02  0.93802313146E+01 -0.33882262973E+02  0.40659145452E+02  0.00000000000E+00 0.  1.
         11    1    4    4    0    0 -0.84321639050E+01 -0.12305701902E+02  0.27696796262E+02  0.31458611077E+02  0.51100000000E-03 0. -1.
        -11    1    4    4    0    0  0.79666017987E+00 -0.18059974344E+01 -0.22831979219E+01  0.30181595695E+01  0.51100000000E-03 0.  1.
         12    1    4    4    0    0 -0.12789227000E+02  0.47314680222E+01  0.84686646331E+01  0.16052083902E+02  0.00000000000E+00 0. -1.
</event>
<event>
 8    1  0.1021894E-011  0.9118800E+02  0.7816164E-02  0.1184000E+00
        -11   -1    0    0    0    0  0.00000000000E+00  0.00000000000E+00  0.45593999997E+02  0.45594000000E+02  0.51100000000E-03 0. -1.
         11   -1    0    0    0    0 -0.00000000000E+00 -0.00000000000E+00 -0.45593999997E+02  0.45594000000E+02  0.51100000000E-03 0.  1.
         23    2    1    2    0    0  0.00000000000E+00 -0.71054273576E-14  0.00000000000E+00  0.91188000000E+02  0.91188000000E+02 0.  0.
    9900012    2    3    3    0    0 -0.68435856211E+01  0.36194750299E+02 -0.17212514185E+02  0.50528865013E+02  0.30000015693E+02 0.  0.
         12    1    3    3    0    0  0.68435856211E+01 -0.36194750299E+02  0.17212514185E+02  0.40659134987E+02  0.00000000000E+00 0. -1.
         11    1    4    4    0    0 -0.15946793012E+02  0.22175643111E+02 -0.60630195924E+01  0.27978912802E+02  0.51100000000E-03 0. -1.
        -11    1    4    4    0    0  0.82394047811E+01  0.40022238399E+01 -0.75516978732E+01  0.11871551198E+02  0.51100000000E-03 0.  1.
         12    1    4    4    0    0  0.86380260989E+00  0.10016883348E+02 -0.35977967198E+01  0.10678401013E+02  0.00000000000E+00 0. -1.
</event>
<event>
 8    1  0.1021894E-011  0.9118800E+02  0.7816164E-02  0.1184000E+00
        -11   -1    0    0    0    0  0.00000000000E+00  0.00000000000E+00  0.45593999997E+02  0.45594000000E+02  0.51100000000E-03 0. -1.
         11   -1    0    0    0    0 -0.00000000000E+00 -0.00000000000E+00 -0.45593999997E+02  0.45594000000E+02  0.51100000000E-03 0.  1.
         23    2    1    2    0    0  0.00000000000E+00  0.00000000000E+00  0.00000000000E+00  0.91188000000E+02  0.91188000000E+02 0.  0.
    9900012    2    3    3    0    0 -0.32098588953E+01 -0.24806925153E+01 -0.40456260957E+02  0.50528854902E+02  0.29999984961E+02 0.  0.
         12    1    3    3    0    0  0.32098588953E+01  0.24806925153E+01  0.40456260957E+02  0.40659145098E+02  0.00000000000E+00 0. -1.
         11    1    4    4    0    0  0.49198289361E+01 -0.76170106063E+01 -0.16049694169E+02  0.18434105634E+02  0.51100000000E-03 0. -1.
        -11    1    4    4    0    0 -0.11433628245E+01  0.11388532682E+02 -0.14128469731E+02  0.18182948397E+02  0.51100000000E-03 0.  1.
        -12    1    4    4    0    0 -0.69863250068E+01 -0.62522145906E+01 -0.10278097056E+02  0.13911800871E+02  0.00000000000E+00 0.  1.
</event>
<event>
 8    1  0.1021894E-011  0.9118800E+02  0.7816164E-02  0.1184000E+00
        -11   -1    0    0    0    0  0.00000000000E+00  0.00000000000E+00  0.45593999997E+02  0.45594000000E+02  0.51100000000E-03 0. -1.
         11   -1    0    0    0    0 -0.00000000000E+00 -0.00000000000E+00 -0.45593999997E+02  0.45594000000E+02  0.51100000000E-03 0.  1.
         23    2    1    2    0    0  0.00000000000E+00  0.00000000000E+00  0.00000000000E+00  0.91188000000E+02  0.91188000000E+02 0.  0.
    9900012    2    3    3    0    0  0.34114113145E+02 -0.87345449127E+01  0.20324883272E+02  0.50528857479E+02  0.29999992794E+02 0.  0.
        -12    1    3    3    0    0 -0.34114113145E+02  0.87345449127E+01 -0.20324883272E+02  0.40659142521E+02  0.00000000000E+00 0.  1.
         11    1    4    4    0    0  0.25412607510E+02 -0.14117462304E+02  0.51214719664E+01  0.29518347476E+02  0.51100000000E-03 0. -1.
        -11    1    4    4    0    0 -0.16278204419E+01  0.36222804073E+01  0.49981638963E+01  0.63837573055E+01  0.51100000000E-03 0.  1.
         12    1    4    4    0    0  0.10329326077E+02  0.17606369840E+01  0.10205247410E+02  0.14626752698E+02  0.00000000000E+00 0. -1.
</event>
<event>
 8    1  0.1339304E-011  0.9118800E+02  0.7816164E-02  0.1184000E+00
        -11   -1    0    0    0    0  0.00000000000E+00  0.00000000000E+00  0.45593999997E+02  0.45594000000E+02  0.51100000000E-03 0. -1.
         11   -1    0    0    0    0 -0.00000000000E+00 -0.00000000000E+00 -0.45593999997E+02  0.45594000000E+02  0.51100000000E-03 0.  1.
         23    2    1    2    0    0  0.00000000000E+00  0.00000000000E+00 -0.35527136788E-14  0.91188000000E+02  0.91188000000E+02 0.  0.
    9900012    2    3    3    0    0  0.28427191803E+02  0.17650362329E+02 -0.23098158455E+02  0.50528862673E+02  0.30000008580E+02 0.  0.
         12    1    3    3    0    0 -0.28427191803E+02 -0.17650362329E+02  0.23098158455E+02  0.40659137327E+02  0.00000000000E+00 0. -1.
         11    1    4    4    0    0 -0.40031095167E+01  0.23598527161E+01 -0.97149284103E+00  0.47473770911E+01  0.51100000000E-03 0. -1.
        -11    1    4    4    0    0  0.25162000951E+02  0.14868508112E+02 -0.24485956436E+02  0.38128216430E+02  0.51100000000E-03 0.  1.
         12    1    4    4    0    0  0.72683003689E+01  0.42200150166E+00  0.23592908213E+01  0.76532691511E+01  0.00000000000E+00 0. -1.
</event>
<event>
 8    1  0.1089731E-011  0.9118800E+02  0.7816164E-02  0.1184000E+00
        -11   -1    0    0    0    0  0.00000000000E+00  0.00000000000E+00  0.45593999997E+02  0.45594000000E+02  0.51100000000E-03 0. -1.
         11   -1    0    0    0    0 -0.00000000000E+00 -0.00000000000E+00 -0.45593999997E+02  0.45594000000E+02  0.51100000000E-03 0.  1.
         23    2    1    2    0    0 -0.88817841970E-15 -0.35527136788E-14 -0.35527136788E-14  0.91188000000E+02  0.91188000000E+02 0.  0.
    9900012    2    3    3    0    0 -0.54506456716E+01 -0.27864080467E+02 -0.29104091585E+02  0.50528872298E+02  0.30000037836E+02 0.  0.
         12    1    3    3    0    0  0.54506456716E+01  0.27864080467E+02  0.29104091585E+02  0.40659127702E+02  0.00000000000E+00 0. -1.
         11    1    4    4    0    0 -0.81977985307E+01 -0.74037578107E+00 -0.10202761827E+02  0.13109096316E+02  0.51100000000E-03 0. -1.
        -11    1    4    4    0    0 -0.11362232380E+01 -0.27943494427E+02 -0.14531582629E+02  0.31516611144E+02  0.51100000000E-03 0.  1.
         12    1    4    4    0    0  0.38833760972E+01  0.81978974092E+00 -0.43697471286E+01  0.59031648375E+01  0.00000000000E+00 0. -1.
</event>
<event>
 8    1  0.1021894E-011  0.9118800E+02  0.7816164E-02  0.1184000E+00
        -11   -1    0    0    0    0  0.00000000000E+00  0.00000000000E+00  0.45593999997E+02  0.45594000000E+02  0.51100000000E-03 0.  1.
         11   -1    0    0    0    0 -0.00000000000E+00 -0.00000000000E+00 -0.45593999997E+02  0.45594000000E+02  0.51100000000E-03 0. -1.
         23    2    1    2    0    0  0.35527136788E-14 -0.35527136788E-14 -0.35527136788E-14  0.91188000000E+02  0.91188000000E+02 0.  0.
    9900012    2    3    3    0    0  0.22393453675E+02 -0.31254410099E+02 -0.13223833304E+02  0.50528749080E+02  0.29999663301E+02 0.  0.
        -12    1    3    3    0    0 -0.22393453675E+02  0.31254410099E+02  0.13223833304E+02  0.40659250920E+02  0.00000000000E+00 0.  1.
         11    1    4    4    0    0  0.68916425908E+01 -0.17607116569E+02 -0.20810222889E+02  0.28117088549E+02  0.51100000000E-03 0. -1.
        -11    1    4    4    0    0  0.71525628800E+01 -0.54490025242E+01  0.54571805116E+01  0.10518155906E+02  0.51100000000E-03 0.  1.
         12    1    4    4    0    0  0.83492482044E+01 -0.81982910055E+01  0.21292090735E+01  0.11893504625E+02  0.00000000000E+00 0. -1.
</event>
<event>
 8    1  0.1021894E-011  0.9118800E+02  0.7816164E-02  0.1184000E+00
        -11   -1    0    0    0    0  0.00000000000E+00  0.00000000000E+00  0.45593999997E+02  0.45594000000E+02  0.51100000000E-03 0. -1.
         11   -1    0    0    0    0 -0.00000000000E+00 -0.00000000000E+00 -0.45593999997E+02  0.45594000000E+02  0.51100000000E-03 0.  1.
         23    2    1    2    0    0 -0.35527136788E-14  0.44408920985E-15 -0.35527136788E-14  0.91188000000E+02  0.91188000000E+02 0.  0.
    9900012    2    3    3    0    0  0.28950351007E+02 -0.27630977012E+01  0.28414931262E+02  0.50528857720E+02  0.29999993526E+02 0.  0.
        -12    1    3    3    0    0 -0.28950351007E+02  0.27630977012E+01 -0.28414931262E+02  0.40659142280E+02  0.00000000000E+00 0.  1.
         11    1    4    4    0    0  0.25867071957E+02 -0.97680658264E+00  0.84961603219E+01  0.27244160901E+02  0.51100000000E-03 0. -1.
        -11    1    4    4    0    0 -0.23136250155E+01  0.26226848428E+01  0.19329338873E+01  0.39959442152E+01  0.51100000000E-03 0.  1.
         12    1    4    4    0    0  0.53969040655E+01 -0.44089759613E+01  0.17985837052E+02  0.19288752603E+02  0.00000000000E+00 0. -1.
</event>
<event>
 8    1  0.1021894E-011  0.9118800E+02  0.7816164E-02  0.1184000E+00
        -11   -1    0    0    0    0  0.00000000000E+00  0.00000000000E+00  0.45593999997E+02  0.45594000000E+02  0.51100000000E-03 0. -1.
         11   -1    0    0    0    0 -0.00000000000E+00 -0.00000000000E+00 -0.45593999997E+02  0.45594000000E+02  0.51100000000E-03 0.  1.
         23    2    1    2    0    0  0.00000000000E+00 -0.11102230246E-15  0.00000000000E+00  0.91188000000E+02  0.91188000000E+02 0.  0.
    9900012    2    3    3    0    0  0.19280577091E+02  0.86911735505E+00  0.35786399436E+02  0.50528900127E+02  0.30000122425E+02 0.  0.
        -12    1    3    3    0    0 -0.19280577091E+02 -0.86911735505E+00 -0.35786399436E+02  0.40659099873E+02  0.00000000000E+00 0.  1.
         11    1    4    4    0    0  0.14183449081E+02 -0.50180759358E+01  0.62752671646E+01  0.16301235909E+02  0.51100000000E-03 0. -1.
        -11    1    4    4    0    0  0.91037732295E+01  0.81235638595E+01  0.24866989544E+02  0.27699063992E+02  0.51100000000E-03 0.  1.
         12    1    4    4    0    0 -0.40066452192E+01 -0.22363705687E+01  0.46441427273E+01  0.65286002255E+01  0.00000000000E+00 0. -1.
</event>
<event>
 8    1  0.1021894E-011  0.9118800E+02  0.7816164E-02  0.1184000E+00
        -11   -1    0    0    0    0  0.00000000000E+00  0.00000000000E+00  0.45593999997E+02  0.45594000000E+02  0.51100000000E-03 0. -1.
         11   -1    0    0    0    0 -0.00000000000E+00 -0.00000000000E+00 -0.45593999997E+02  0.45594000000E+02  0.51100000000E-03 0.  1.
         23    2    1    2    0    0  0.00000000000E+00 -0.26645352591E-14  0.00000000000E+00  0.91188000000E+02  0.91188000000E+02 0.  0.
    9900012    2    3    3    0    0  0.26846693529E+02 -0.64117560749E+01  0.29854824508E+02  0.50528854463E+02  0.29999983625E+02 0.  0.
        -12    1    3    3    0    0 -0.26846693529E+02  0.64117560749E+01 -0.29854824508E+02  0.40659145537E+02  0.00000000000E+00 0.  1.
         11    1    4    4    0    0  0.38922159017E+01  0.25862208941E+01  0.44854704146E+01  0.64774476640E+01  0.51100000000E-03 0. -1.
        -11    1    4    4    0    0  0.22018450320E+02 -0.16856826281E+02  0.16969769927E+02  0.32510580407E+02  0.51100000000E-03 0.  1.
        -12    1    4    4    0    0  0.93602730708E+00  0.78588493120E+01  0.83995841671E+01  0.11540826392E+02  0.00000000000E+00 0.  1.
</event>
<event>
 8    1  0.1021894E-011  0.9118800E+02  0.7816164E-02  0.1184000E+00
        -11   -1    0    0    0    0  0.00000000000E+00  0.00000000000E+00  0.45593999997E+02  0.45594000000E+02  0.51100000000E-03 0. -1.
         11   -1    0    0    0    0 -0.00000000000E+00 -0.00000000000E+00 -0.45593999997E+02  0.45594000000E+02  0.51100000000E-03 0.  1.
         23    2    1    2    0    0 -0.17763568394E-14  0.66613381478E-15  0.00000000000E+00  0.91188000000E+02  0.91188000000E+02 0.  0.
    9900012    2    3    3    0    0 -0.55174638421E+01 -0.10061870499E+01  0.40270457257E+02  0.50528873752E+02  0.30000042255E+02 0.  0.
        -12    1    3    3    0    0  0.55174638421E+01  0.10061870499E+01 -0.40270457257E+02  0.40659126248E+02  0.00000000000E+00 0.  1.
         11    1    4    4    0    0  0.43990640640E+01 -0.76113376428E+01  0.78045099572E+01  0.11755619987E+02  0.51100000000E-03 0. -1.
        -11    1    4    4    0    0 -0.71893985815E+01  0.67982362101E+01  0.48446657402E+01  0.11016998408E+02  0.51100000000E-03 0.  1.
         12    1    4    4    0    0 -0.27271293246E+01 -0.19308561716E+00  0.27621281559E+02  0.27756255356E+02  0.00000000000E+00 0. -1.
</event>
<event>
 8    1  0.1021894E-011  0.9118800E+02  0.7816164E-02  0.1184000E+00
        -11   -1    0    0    0    0  0.00000000000E+00  0.00000000000E+00  0.45593999997E+02  0.45594000000E+02  0.51100000000E-03 0. -1.
         11   -1    0    0    0    0 -0.00000000000E+00 -0.00000000000E+00 -0.45593999997E+02  0.45594000000E+02  0.51100000000E-03 0.  1.
         23    2    1    2    0    0  0.00000000000E+00  0.00000000000E+00  0.00000000000E+00  0.91188000000E+02  0.91188000000E+02 0.  0.
    9900012    2    3    3    0    0 -0.17425694910E+02  0.30452119615E+02 -0.20547000077E+02  0.50528860261E+02  0.30000001250E+02 0.  0.
         12    1    3    3    0    0  0.17425694910E+02 -0.30452119615E+02  0.20547000077E+02  0.40659139739E+02  0.00000000000E+00 0. -1.
         11    1    4    4    0    0 -0.19758925272E+01  0.26471551519E+02 -0.11323331546E+02  0.28859401045E+02  0.51100000000E-03 0. -1.
        -11    1    4    4    0    0 -0.99050121110E+01  0.65508494864E+01 -0.99790211387E+01  0.15511407320E+02  0.51100000000E-03 0.  1.
         12    1    4    4    0    0 -0.55447902719E+01 -0.25702813907E+01  0.75535260811E+00  0.61580518957E+01  0.00000000000E+00 0. -1.
</event>
<event>
 8    1  0.1021894E-011  0.9118800E+02  0.7816164E-02  0.1184000E+00
        -11   -1    0    0    0    0  0.00000000000E+00  0.00000000000E+00  0.45593999997E+02  0.45594000000E+02  0.51100000000E-03 0. -1.
         11   -1    0    0    0    0 -0.00000000000E+00 -0.00000000000E+00 -0.45593999997E+02  0.45594000000E+02  0.51100000000E-03 0.  1.
         23    2    1    2    0    0  0.00000000000E+00  0.00000000000E+00  0.00000000000E+00  0.91188000000E+02  0.91188000000E+02 0.  0.
    9900012    2    3    3    0    0  0.17580673135E+02  0.19300143840E+02  0.31170337306E+02  0.50528861446E+02  0.30000004853E+02 0.  0.
        -12    1    3    3    0    0 -0.17580673135E+02 -0.19300143840E+02 -0.31170337306E+02  0.40659138554E+02  0.00000000000E+00 0.  1.
         11    1    4    4    0    0 -0.84187103675E+00  0.18139321424E+02  0.18813504947E+02  0.26147498872E+02  0.51100000000E-03 0. -1.
        -11    1    4    4    0    0  0.75683271956E+01 -0.44655200939E+01  0.54243492255E+01  0.10326858720E+02  0.51100000000E-03 0.  1.
         12    1    4    4    0    0  0.10854216976E+02  0.56263425099E+01  0.69324831333E+01  0.14054503854E+02  0.00000000000E+00 0. -1.
</event>
<event>
 8    1  0.1021894E-011  0.9118800E+02  0.7816164E-02  0.1184000E+00
        -11   -1    0    0    0    0  0.00000000000E+00  0.00000000000E+00  0.45593999997E+02  0.45594000000E+02  0.51100000000E-03 0. -1.
         11   -1    0    0    0    0 -0.00000000000E+00 -0.00000000000E+00 -0.45593999997E+02  0.45594000000E+02  0.51100000000E-03 0.  1.
         23    2    1    2    0    0  0.00000000000E+00 -0.35527136788E-14  0.71054273576E-14  0.91188000000E+02  0.91188000000E+02 0.  0.
    9900012    2    3    3    0    0 -0.33779530004E+01 -0.22985454577E+02  0.33368003005E+02  0.50528864333E+02  0.30000013628E+02 0.  0.
        -12    1    3    3    0    0  0.33779530004E+01  0.22985454577E+02 -0.33368003005E+02  0.40659135667E+02  0.00000000000E+00 0.  1.
         11    1    4    4    0    0 -0.13871752265E+01 -0.45017167357E+01  0.12614720382E+02  0.13465544150E+02  0.51100000000E-03 0. -1.
        -11    1    4    4    0    0  0.14449159922E+01 -0.17578573196E+02  0.17428833006E+01  0.17723759767E+02  0.51100000000E-03 0.  1.
        -12    1    4    4    0    0 -0.34356937661E+01 -0.90516464589E+00  0.19010399322E+02  0.19339560416E+02  0.00000000000E+00 0.  1.
</event>
<event>
 8    1  0.1021894E-011  0.9118800E+02  0.7816164E-02  0.1184000E+00
        -11   -1    0    0    0    0  0.00000000000E+00  0.00000000000E+00  0.45593999997E+02  0.45594000000E+02  0.51100000000E-03 0.  1.
         11   -1    0    0    0    0 -0.00000000000E+00 -0.00000000000E+00 -0.45593999997E+02  0.45594000000E+02  0.51100000000E-03 0. -1.
         23    2    1    2    0    0 -0.44408920985E-15  0.17763568394E-14  0.00000000000E+00  0.91188000000E+02  0.91188000000E+02 0.  0.
    9900012    2    3    3    0    0  0.33580582128E+01  0.10576716461E+02 -0.39115488853E+02  0.50528868747E+02  0.30000027043E+02 0.  0.
         12    1    3    3    0    0 -0.33580582128E+01 -0.10576716461E+02  0.39115488853E+02  0.40659131253E+02  0.00000000000E+00 0. -1.
         11    1    4    4    0    0 -0.13193443116E+01  0.10141438634E+02 -0.27764846165E+02  0.29588445884E+02  0.51100000000E-03 0. -1.
        -11    1    4    4    0    0  0.86936512259E+01  0.48010626953E+00  0.20225322600E+00  0.87092468271E+01  0.51100000000E-03 0.  1.
        -12    1    4    4    0    0 -0.40162487015E+01 -0.44828442935E-01 -0.11552895914E+02  0.12231176036E+02  0.00000000000E+00 0.  1.
</event>
<event>
 8    1  0.1021894E-011  0.9118800E+02  0.7816164E-02  0.1184000E+00
        -11   -1    0    0    0    0  0.00000000000E+00  0.00000000000E+00  0.45593999997E+02  0.45594000000E+02  0.51100000000E-03 0. -1.
         11   -1    0    0    0    0 -0.00000000000E+00 -0.00000000000E+00 -0.45593999997E+02  0.45594000000E+02  0.51100000000E-03 0.  1.
         23    2    1    2    0    0  0.88817841970E-15 -0.17763568394E-14  0.00000000000E+00  0.91188000000E+02  0.91188000000E+02 0.  0.
    9900012    2    3    3    0    0  0.79218462927E+01  0.14451965948E+02  0.37169203022E+02  0.50528872836E+02  0.30000039472E+02 0.  0.
        -12    1    3    3    0    0 -0.79218462927E+01 -0.14451965948E+02 -0.37169203022E+02  0.40659127164E+02  0.00000000000E+00 0.  1.
         11    1    4    4    0    0  0.13313457637E+02  0.20647384587E+01  0.17566254394E+02  0.22137854296E+02  0.51100000000E-03 0. -1.
        -11    1    4    4    0    0 -0.45488679068E+01  0.50357906487E+01 -0.66108053004E+00  0.68182412996E+01  0.51100000000E-03 0.  1.
         12    1    4    4    0    0 -0.84274343735E+00  0.73514368402E+01  0.20264029159E+02  0.21572777240E+02  0.00000000000E+00 0. -1.
</event>
<event>
 8    1  0.1021894E-011  0.9118800E+02  0.7816164E-02  0.1184000E+00
        -11   -1    0    0    0    0  0.00000000000E+00  0.00000000000E+00  0.45593999997E+02  0.45594000000E+02  0.51100000000E-03 0. -1.
         11   -1    0    0    0    0 -0.00000000000E+00 -0.00000000000E+00 -0.45593999997E+02  0.45594000000E+02  0.51100000000E-03 0.  1.
         23    2    1    2    0    0  0.00000000000E+00  0.00000000000E+00  0.17763568394E-14  0.91188000000E+02  0.91188000000E+02 0.  0.
    9900012    2    3    3    0    0  0.33067729729E+02 -0.20161428797E+02 -0.12377709068E+02  0.50528860286E+02  0.30000001324E+02 0.  0.
         12    1    3    3    0    0 -0.33067729729E+02  0.20161428797E+02  0.12377709068E+02  0.40659139714E+02  0.00000000000E+00 0. -1.
         11    1    4    4    0    0  0.18696445268E+01  0.72609256750E+00  0.60859150099E+01  0.64078969126E+01  0.51100000000E-03 0. -1.
        -11    1    4    4    0    0  0.17663028545E+02 -0.85483532640E+01 -0.16615687791E+02  0.25712603951E+02  0.51100000000E-03 0.  1.
        -12    1    4    4    0    0  0.13535056656E+02 -0.12339168100E+02 -0.18479362878E+01  0.18408359422E+02  0.00000000000E+00 0.  1.
</event>
<event>
 8    1  0.1021894E-011  0.9118800E+02  0.7816164E-02  0.1184000E+00
        -11   -1    0    0    0    0  0.00000000000E+00  0.00000000000E+00  0.45593999997E+02  0.45594000000E+02  0.51100000000E-03 0. -1.
         11   -1    0    0    0    0 -0.00000000000E+00 -0.00000000000E+00 -0.45593999997E+02  0.45594000000E+02  0.51100000000E-03 0.  1.
         23    2    1    2    0    0  0.22204460493E-15  0.00000000000E+00  0.71054273576E-14  0.91188000000E+02  0.91188000000E+02 0.  0.
    9900012    2    3    3    0    0  0.15893297837E+01 -0.16523912225E+01  0.40594442373E+02  0.50528866739E+02  0.30000020940E+02 0.  0.
        -12    1    3    3    0    0 -0.15893297837E+01  0.16523912225E+01 -0.40594442373E+02  0.40659133261E+02  0.00000000000E+00 0.  1.
         11    1    4    4    0    0 -0.22446921255E+01 -0.36977492259E+00  0.34750219494E+02  0.34824605258E+02  0.51100000000E-03 0. -1.
        -11    1    4    4    0    0 -0.27696204012E+01  0.20358872812E+01 -0.27262788251E+01  0.43872805566E+01  0.51100000000E-03 0.  1.
         12    1    4    4    0    0  0.66036423104E+01 -0.33185035812E+01  0.85705017049E+01  0.11316980925E+02  0.00000000000E+00 0. -1.
</event>
<event>
 8    1  0.1021894E-011  0.9118800E+02  0.7816164E-02  0.1184000E+00
        -11   -1    0    0    0    0  0.00000000000E+00  0.00000000000E+00  0.45593999997E+02  0.45594000000E+02  0.51100000000E-03 0. -1.
         11   -1    0    0    0    0 -0.00000000000E+00 -0.00000000000E+00 -0.45593999997E+02  0.45594000000E+02  0.51100000000E-03 0.  1.
         23    2    1    2    0    0  0.00000000000E+00  0.00000000000E+00  0.00000000000E+00  0.91188000000E+02  0.91188000000E+02 0.  0.
    9900012    2    3    3    0    0 -0.36073231591E+02 -0.16077320882E+02 -0.96647387788E+01  0.50528862529E+02  0.30000008144E+02 0.  0.
         12    1    3    3    0    0  0.36073231591E+02  0.16077320882E+02  0.96647387788E+01  0.40659137471E+02  0.00000000000E+00 0. -1.
         11    1    4    4    0    0 -0.22788792826E+02 -0.60907698272E+00 -0.16822024628E+02  0.28331617781E+02  0.51100000000E-03 0. -1.
        -11    1    4    4    0    0 -0.39112490175E+01 -0.62327658227E+01  0.31295747452E+00  0.73649970345E+01  0.51100000000E-03 0.  1.
         12    1    4    4    0    0 -0.93731897480E+01 -0.92354780766E+01  0.68443283744E+01  0.14832247714E+02  0.00000000000E+00 0. -1.
</event>
<event>
 8    1  0.1021894E-011  0.9118800E+02  0.7816164E-02  0.1184000E+00
        -11   -1    0    0    0    0  0.00000000000E+00  0.00000000000E+00  0.45593999997E+02  0.45594000000E+02  0.51100000000E-03 0. -1.
         11   -1    0    0    0    0 -0.00000000000E+00 -0.00000000000E+00 -0.45593999997E+02  0.45594000000E+02  0.51100000000E-03 0.  1.
         23    2    1    2    0    0  0.00000000000E+00 -0.17763568394E-14  0.00000000000E+00  0.91188000000E+02  0.91188000000E+02 0.  0.
    9900012    2    3    3    0    0 -0.24631472505E+02 -0.13668241450E+02 -0.29319555146E+02  0.50528848803E+02  0.29999966421E+02 0.  0.
         12    1    3    3    0    0  0.24631472505E+02  0.13668241450E+02  0.29319555146E+02  0.40659151197E+02  0.00000000000E+00 0. -1.
         11    1    4    4    0    0 -0.10119949203E+01 -0.62037988075E+00 -0.83759458197E+01  0.84596379089E+01  0.51100000000E-03 0. -1.
        -11    1    4    4    0    0 -0.27200666852E+02 -0.57966121871E+01 -0.12881518159E+02  0.30649804247E+02  0.51100000000E-03 0.  1.
        -12    1    4    4    0    0  0.35811892672E+01 -0.72512493817E+01 -0.80620911680E+01  0.11419406647E+02  0.00000000000E+00 0.  1.
</event>
<event>
 8    1  0.1021894E-011  0.9118800E+02  0.7816164E-02  0.1184000E+00
        -11   -1    0    0    0    0  0.00000000000E+00  0.00000000000E+00  0.45593999997E+02  0.45594000000E+02  0.51100000000E-03 0.  1.
         11   -1    0    0    0    0 -0.00000000000E+00 -0.00000000000E+00 -0.45593999997E+02  0.45594000000E+02  0.51100000000E-03 0. -1.
         23    2    1    2    0    0  0.00000000000E+00  0.00000000000E+00  0.00000000000E+00  0.91188000000E+02  0.91188000000E+02 0.  0.
    9900012    2    3    3    0    0  0.16985707632E+02 -0.32922565942E+02  0.16755717395E+02  0.50528884449E+02  0.30000074771E+02 0.  0.
        -12    1    3    3    0    0 -0.16985707632E+02  0.32922565942E+02 -0.16755717395E+02  0.40659115551E+02  0.00000000000E+00 0.  1.
         11    1    4    4    0    0  0.13030376087E+02 -0.10350020979E+02 -0.48669699284E+01  0.17337849687E+02  0.51100000000E-03 0. -1.
        -11    1    4    4    0    0  0.31235045847E+01 -0.20392468273E+02  0.22653869576E+02  0.30639955127E+02  0.51100000000E-03 0.  1.
        -12    1    4    4    0    0  0.83182696045E+00 -0.21800766902E+01 -0.10311822523E+01  0.25510796351E+01  0.00000000000E+00 0.  1.
</event>
<event>
 8    1  0.1021894E-011  0.9118800E+02  0.7816164E-02  0.1184000E+00
        -11   -1    0    0    0    0  0.00000000000E+00  0.00000000000E+00  0.45593999997E+02  0.45594000000E+02  0.51100000000E-03 0. -1.
         11   -1    0    0    0    0 -0.00000000000E+00 -0.00000000000E+00 -0.45593999997E+02  0.45594000000E+02  0.51100000000E-03 0.  1.
         23    2    1    2    0    0 -0.13322676296E-14  0.00000000000E+00  0.00000000000E+00  0.91188000000E+02  0.91188000000E+02 0.  0.
    9900012    2    3    3    0    0 -0.25623008747E+01 -0.16654657016E+02 -0.37002983048E+02  0.50528883672E+02  0.30000072410E+02 0.  0.
         12    1    3    3    0    0  0.25623008747E+01  0.16654657016E+02  0.37002983048E+02  0.40659116328E+02  0.00000000000E+00 0. -1.
         11    1    4    4    0    0 -0.27884567259E+01 -0.36378053135E+01  0.13763574137E+01  0.47857578713E+01  0.51100000000E-03 0. -1.
        -11    1    4    4    0    0  0.84656320282E+01 -0.13979535549E+02 -0.28394304262E+02  0.32761728504E+02  0.51100000000E-03 0.  1.
        -12    1    4    4    0    0 -0.82394761771E+01  0.96268384703E+00 -0.99850362003E+01  0.12981397297E+02  0.00000000000E+00 0.  1.
</event>
<event>
 8    1  0.1021894E-011  0.9118800E+02  0.7816164E-02  0.1184000E+00
        -11   -1    0    0    0    0  0.00000000000E+00  0.00000000000E+00  0.45593999997E+02  0.45594000000E+02  0.51100000000E-03 0. -1.
         11   -1    0    0    0    0 -0.00000000000E+00 -0.00000000000E+00 -0.45593999997E+02  0.45594000000E+02  0.51100000000E-03 0.  1.
         23    2    1    2    0    0  0.00000000000E+00  0.66613381478E-15  0.00000000000E+00  0.91188000000E+02  0.91188000000E+02 0.  0.
    9900012    2    3    3    0    0 -0.24492959684E+02 -0.19243025057E+01  0.32396872797E+02  0.50528863496E+02  0.30000011082E+02 0.  0.
        -12    1    3    3    0    0  0.24492959684E+02  0.19243025057E+01 -0.32396872797E+02  0.40659136504E+02  0.00000000000E+00 0.  1.
         11    1    4    4    0    0 -0.23981140080E+02 -0.76697513608E+01  0.21070902826E+02  0.32831434809E+02  0.51100000000E-03 0. -1.
        -11    1    4    4    0    0 -0.41955057125E+01  0.79691793612E+01  0.58755033782E+01  0.10753214779E+02  0.51100000000E-03 0.  1.
         12    1    4    4    0    0  0.36836861083E+01 -0.22237305061E+01  0.54504665936E+01  0.69442139077E+01  0.00000000000E+00 0. -1.
</event>
<event>
 8    1  0.1021894E-011  0.9118800E+02  0.7816164E-02  0.1184000E+00
        -11   -1    0    0    0    0  0.00000000000E+00  0.00000000000E+00  0.45593999997E+02  0.45594000000E+02  0.51100000000E-03 0. -1.
         11   -1    0    0    0    0 -0.00000000000E+00 -0.00000000000E+00 -0.45593999997E+02  0.45594000000E+02  0.51100000000E-03 0.  1.
         23    2    1    2    0    0  0.35527136788E-14  0.00000000000E+00 -0.35527136788E-14  0.91188000000E+02  0.91188000000E+02 0.  0.
    9900012    2    3    3    0    0 -0.19164750078E+02 -0.22611277497E+02  0.27831807145E+02  0.50528843533E+02  0.29999950404E+02 0.  0.
        -12    1    3    3    0    0  0.19164750078E+02  0.22611277497E+02 -0.27831807145E+02  0.40659156467E+02  0.00000000000E+00 0.  1.
         11    1    4    4    0    0 -0.14354247764E+02 -0.12295428123E+02  0.31110961730E+02  0.36402114247E+02  0.51100000000E-03 0. -1.
        -11    1    4    4    0    0  0.28493076875E+00 -0.34845605122E+01 -0.43017019277E+01  0.55432830743E+01  0.51100000000E-03 0.  1.
         12    1    4    4    0    0 -0.50954330829E+01 -0.68312888616E+01  0.10225473427E+01  0.85834462124E+01  0.00000000000E+00 0. -1.
</event>
<event>
 8    1  0.1021894E-011  0.9118800E+02  0.7816164E-02  0.1184000E+00
        -11   -1    0    0    0    0  0.00000000000E+00  0.00000000000E+00  0.45593999997E+02  0.45594000000E+02  0.51100000000E-03 0. -1.
         11   -1    0    0    0    0 -0.00000000000E+00 -0.00000000000E+00 -0.45593999997E+02  0.45594000000E+02  0.51100000000E-03 0.  1.
         23    2    1    2    0    0  0.00000000000E+00  0.00000000000E+00  0.00000000000E+00  0.91188000000E+02  0.91188000000E+02 0.  0.
    9900012    2    3    3    0    0  0.25590476367E+02 -0.13414981136E+02 -0.28606489280E+02  0.50528862915E+02  0.30000009315E+02 0.  0.
         12    1    3    3    0    0 -0.25590476367E+02  0.13414981136E+02  0.28606489280E+02  0.40659137085E+02  0.00000000000E+00 0. -1.
         11    1    4    4    0    0 -0.15983116708E+01  0.53792348387E+01  0.11660158428E+01  0.57315234322E+01  0.51100000000E-03 0. -1.
        -11    1    4    4    0    0  0.18262075654E+02 -0.13785583937E+02 -0.17436200616E+02  0.28767461199E+02  0.51100000000E-03 0.  1.
         12    1    4    4    0    0  0.89267123841E+01 -0.50086320384E+01 -0.12336304507E+02  0.16029878284E+02  0.00000000000E+00 0. -1.
</event>
<event>
 8    1  0.1021894E-011  0.9118800E+02  0.7816164E-02  0.1184000E+00
        -11   -1    0    0    0    0  0.00000000000E+00  0.00000000000E+00  0.45593999997E+02  0.45594000000E+02  0.51100000000E-03 0. -1.
         11   -1    0    0    0    0 -0.00000000000E+00 -0.00000000000E+00 -0.45593999997E+02  0.45594000000E+02  0.51100000000E-03 0.  1.
         23    2    1    2    0    0  0.35527136788E-14  0.00000000000E+00  0.35527136788E-14  0.91188000000E+02  0.91188000000E+02 0.  0.
    9900012    2    3    3    0    0 -0.27964691221E+02  0.22165958923E+02 -0.19488802368E+02  0.50528842264E+02  0.29999946545E+02 0.  0.
         12    1    3    3    0    0  0.27964691221E+02 -0.22165958923E+02  0.19488802368E+02  0.40659157736E+02  0.00000000000E+00 0. -1.
         11    1    4    4    0    0  0.24947683750E+01  0.27742220195E+01  0.50282662641E+01  0.62612809346E+01  0.51100000000E-03 0. -1.
        -11    1    4    4    0    0 -0.16418150240E+02  0.63530877971E+01 -0.10178512445E+02  0.20335178822E+02  0.51100000000E-03 0.  1.
         12    1    4    4    0    0 -0.14041309356E+02  0.13038649106E+02 -0.14338556187E+02  0.23932382507E+02  0.00000000000E+00 0. -1.
</event>
<event>
 8    1  0.1021894E-011  0.9118800E+02  0.7816164E-02  0.1184000E+00
        -11   -1    0    0    0    0  0.00000000000E+00  0.00000000000E+00  0.45593999997E+02  0.45594000000E+02  0.51100000000E-03 0. -1.
         11   -1    0    0    0    0 -0.00000000000E+00 -0.00000000000E+00 -0.45593999997E+02  0.45594000000E+02  0.51100000000E-03 0.  1.
         23    2    1    2    0    0  0.00000000000E+00  0.00000000000E+00  0.00000000000E+00  0.91188000000E+02  0.91188000000E+02 0.  0.
    9900012    2    3    3    0    0  0.22324598217E+02 -0.91905237358E+01  0.32715629338E+02  0.50528858161E+02  0.29999994867E+02 0.  0.
        -12    1    3    3    0    0 -0.22324598217E+02  0.91905237358E+01 -0.32715629338E+02  0.40659141839E+02  0.00000000000E+00 0.  1.
         11    1    4    4    0    0 -0.78624558969E+00 -0.52579835999E+01  0.66440344410E+00  0.53577986022E+01  0.51100000000E-03 0. -1.
        -11    1    4    4    0    0  0.25638949238E+02 -0.37473040496E+01  0.19666328162E+02  0.32529409299E+02  0.51100000000E-03 0.  1.
        -12    1    4    4    0    0 -0.25281054318E+01 -0.18523608632E+00  0.12384897732E+02  0.12641650261E+02  0.00000000000E+00 0.  1.
</event>
<event>
 8    1  0.1021894E-011  0.9118800E+02  0.7816164E-02  0.1184000E+00
        -11   -1    0    0    0    0  0.00000000000E+00  0.00000000000E+00  0.45593999997E+02  0.45594000000E+02  0.51100000000E-03 0.  1.
         11   -1    0    0    0    0 -0.00000000000E+00 -0.00000000000E+00 -0.45593999997E+02  0.45594000000E+02  0.51100000000E-03 0. -1.
         23    2    1    2    0    0  0.00000000000E+00  0.00000000000E+00  0.00000000000E+00  0.91188000000E+02  0.91188000000E+02 0.  0.
    9900012    2    3    3    0    0  0.18601516155E+02 -0.69535852512E+01 -0.35479540813E+02  0.50528848910E+02  0.29999966746E+02 0.  0.
         12    1    3    3    0    0 -0.18601516155E+02  0.69535852512E+01  0.35479540813E+02  0.40659151090E+02  0.00000000000E+00 0. -1.
         11    1    4    4    0    0  0.10777724530E+02  0.13626456566E+01 -0.20441920240E+02  0.23149260303E+02  0.51100000000E-03 0. -1.
        -11    1    4    4    0    0 -0.21391313805E+01 -0.11566251495E+02 -0.11134700906E+02  0.16196778112E+02  0.51100000000E-03 0.  1.
        -12    1    4    4    0    0  0.99629230054E+01  0.32500205867E+01 -0.39029196673E+01  0.11182810494E+02  0.00000000000E+00 0.  1.
</event>
<event>
 8    1  0.1021894E-011  0.9118800E+02  0.7816164E-02  0.1184000E+00
        -11   -1    0    0    0    0  0.00000000000E+00  0.00000000000E+00  0.45593999997E+02  0.45594000000E+02  0.51100000000E-03 0. -1.
         11   -1    0    0    0    0 -0.00000000000E+00 -0.00000000000E+00 -0.45593999997E+02  0.45594000000E+02  0.51100000000E-03 0.  1.
         23    2    1    2    0    0 -0.17763568394E-14 -0.88817841970E-15  0.71054273576E-14  0.91188000000E+02  0.91188000000E+02 0.  0.
    9900012    2    3    3    0    0 -0.94991073006E+01 -0.63605072377E+01  0.39018928151E+02  0.50528857783E+02  0.29999993716E+02 0.  0.
        -12    1    3    3    0    0  0.94991073006E+01  0.63605072377E+01 -0.39018928151E+02  0.40659142217E+02  0.00000000000E+00 0.  1.
         11    1    4    4    0    0 -0.74991761811E+01 -0.14844976528E+02  0.31684968405E+02  0.35784748073E+02  0.51100000000E-03 0. -1.
        -11    1    4    4    0    0  0.11001363278E+01  0.49969103750E+01  0.85120469457E+01  0.99314831069E+01  0.51100000000E-03 0.  1.
         12    1    4    4    0    0 -0.31000674472E+01  0.34875589158E+01 -0.11780872002E+01  0.48126266029E+01  0.00000000000E+00 0. -1.
</event>
<event>
 8    1  0.1021894E-011  0.9118800E+02  0.7816164E-02  0.1184000E+00
        -11   -1    0    0    0    0  0.00000000000E+00  0.00000000000E+00  0.45593999997E+02  0.45594000000E+02  0.51100000000E-03 0. -1.
         11   -1    0    0    0    0 -0.00000000000E+00 -0.00000000000E+00 -0.45593999997E+02  0.45594000000E+02  0.51100000000E-03 0.  1.
         23    2    1    2    0    0  0.00000000000E+00  0.00000000000E+00  0.00000000000E+00  0.91188000000E+02  0.91188000000E+02 0.  0.
    9900012    2    3    3    0    0  0.59699098293E+01  0.35199177429E+02  0.19456207456E+02  0.50528856826E+02  0.29999990808E+02 0.  0.
        -12    1    3    3    0    0 -0.59699098293E+01 -0.35199177429E+02 -0.19456207456E+02  0.40659143174E+02  0.00000000000E+00 0.  1.
         11    1    4    4    0    0  0.18043575910E+01  0.73026706744E+01 -0.46350379830E+01  0.88356257650E+01  0.51100000000E-03 0. -1.
        -11    1    4    4    0    0 -0.40732820018E+01  0.81470048484E+01  0.16756306339E+02  0.19071945801E+02  0.51100000000E-03 0.  1.
        -12    1    4    4    0    0  0.82388342401E+01  0.19749501907E+02  0.73349390997E+01  0.22621285260E+02  0.00000000000E+00 0.  1.
</event>
<event>
 8    1  0.1021894E-011  0.9118800E+02  0.7816164E-02  0.1184000E+00
        -11   -1    0    0    0    0  0.00000000000E+00  0.00000000000E+00  0.45593999997E+02  0.45594000000E+02  0.51100000000E-03 0. -1.
         11   -1    0    0    0    0 -0.00000000000E+00 -0.00000000000E+00 -0.45593999997E+02  0.45594000000E+02  0.51100000000E-03 0.  1.
         23    2    1    2    0    0  0.00000000000E+00  0.00000000000E+00  0.00000000000E+00  0.91188000000E+02  0.91188000000E+02 0.  0.
    9900012    2    3    3    0    0  0.16945759704E+01  0.70166261305E+01 -0.40013258742E+02  0.50528861972E+02  0.30000006451E+02 0.  0.
         12    1    3    3    0    0 -0.16945759704E+01 -0.70166261305E+01  0.40013258742E+02  0.40659138028E+02  0.00000000000E+00 0. -1.
         11    1    4    4    0    0  0.38833477257E+01  0.47147267088E+01  0.66771262527E+00  0.61444998094E+01  0.51100000000E-03 0. -1.
        -11    1    4    4    0    0 -0.55404477551E+01 -0.41860937793E+01 -0.33243950437E+02  0.33961451432E+02  0.51100000000E-03 0.  1.
        -12    1    4    4    0    0  0.33516759998E+01  0.64879932010E+01 -0.74370209306E+01  0.10422910731E+02  0.00000000000E+00 0.  1.
</event>
<event>
 8    1  0.1021894E-011  0.9118800E+02  0.7816164E-02  0.1184000E+00
        -11   -1    0    0    0    0  0.00000000000E+00  0.00000000000E+00  0.45593999997E+02  0.45594000000E+02  0.51100000000E-03 0. -1.
         11   -1    0    0    0    0 -0.00000000000E+00 -0.00000000000E+00 -0.45593999997E+02  0.45594000000E+02  0.51100000000E-03 0.  1.
         23    2    1    2    0    0 -0.35527136788E-14 -0.35527136788E-14 -0.53290705182E-14  0.91188000000E+02  0.91188000000E+02 0.  0.
    9900012    2    3    3    0    0  0.30515579462E+02  0.22263425924E+02  0.15043445615E+02  0.50528856136E+02  0.29999988711E+02 0.  0.
        -12    1    3    3    0    0 -0.30515579462E+02 -0.22263425924E+02 -0.15043445615E+02  0.40659143864E+02  0.00000000000E+00 0.  1.
         11    1    4    4    0    0  0.47477686257E+01  0.12923750833E+02  0.14572902271E+02  0.20048294775E+02  0.51100000000E-03 0. -1.
        -11    1    4    4    0    0  0.23314838567E+02  0.71015093209E+01  0.49844253275E+01  0.24876849241E+02  0.51100000000E-03 0.  1.
        -12    1    4    4    0    0  0.24529722692E+01  0.22381657699E+01 -0.45138819832E+01  0.56037121201E+01  0.00000000000E+00 0.  1.
</event>
<event>
 8    1  0.1021894E-011  0.9118800E+02  0.7816164E-02  0.1184000E+00
        -11   -1    0    0    0    0  0.00000000000E+00  0.00000000000E+00  0.45593999997E+02  0.45594000000E+02  0.51100000000E-03 0. -1.
         11   -1    0    0    0    0 -0.00000000000E+00 -0.00000000000E+00 -0.45593999997E+02  0.45594000000E+02  0.51100000000E-03 0.  1.
         23    2    1    2    0    0  0.00000000000E+00  0.94368957093E-15  0.00000000000E+00  0.91188000000E+02  0.91188000000E+02 0.  0.
    9900012    2    3    3    0    0  0.83364768753E+01 -0.36457761976E+00  0.39793660701E+02  0.50528865780E+02  0.30000018024E+02 0.  0.
        -12    1    3    3    0    0 -0.83364768753E+01  0.36457761976E+00 -0.39793660701E+02  0.40659134220E+02  0.00000000000E+00 0.  1.
         11    1    4    4    0    0  0.33760949105E+01  0.54290465798E+01  0.19398092648E+02  0.20424459901E+02  0.51100000000E-03 0. -1.
        -11    1    4    4    0    0  0.10060843839E+02 -0.46685515736E+01  0.23756857479E+01  0.11342831903E+02  0.51100000000E-03 0.  1.
        -12    1    4    4    0    0 -0.51004618742E+01 -0.11250726259E+01  0.18019882305E+02  0.18761573975E+02  0.00000000000E+00 0.  1.
</event>
<event>
 8    1  0.1021894E-011  0.9118800E+02  0.7816164E-02  0.1184000E+00
        -11   -1    0    0    0    0  0.00000000000E+00  0.00000000000E+00  0.45593999997E+02  0.45594000000E+02  0.51100000000E-03 0. -1.
         11   -1    0    0    0    0 -0.00000000000E+00 -0.00000000000E+00 -0.45593999997E+02  0.45594000000E+02  0.51100000000E-03 0.  1.
         23    2    1    2    0    0  0.00000000000E+00 -0.35527136788E-14  0.00000000000E+00  0.91188000000E+02  0.91188000000E+02 0.  0.
    9900012    2    3    3    0    0 -0.16119395457E+02 -0.17808253804E+02  0.32805452799E+02  0.50528849162E+02  0.29999967514E+02 0.  0.
        -12    1    3    3    0    0  0.16119395457E+02  0.17808253804E+02 -0.32805452799E+02  0.40659150838E+02  0.00000000000E+00 0.  1.
         11    1    4    4    0    0 -0.26622937802E+01 -0.15223856709E+02  0.11991957537E+01  0.15501344845E+02  0.51100000000E-03 0. -1.
        -11    1    4    4    0    0 -0.13879979807E+02 -0.25553205202E+01  0.31594562620E+02  0.34603466442E+02  0.51100000000E-03 0.  1.
        -12    1    4    4    0    0  0.42287813010E+00 -0.29076575100E-01  0.11694425393E-01  0.42403787534E+00  0.00000000000E+00 0.  1.
</event>
<event>
 8    1  0.1021894E-011  0.9118800E+02  0.7816164E-02  0.1184000E+00
        -11   -1    0    0    0    0  0.00000000000E+00  0.00000000000E+00  0.45593999997E+02  0.45594000000E+02  0.51100000000E-03 0. -1.
         11   -1    0    0    0    0 -0.00000000000E+00 -0.00000000000E+00 -0.45593999997E+02  0.45594000000E+02  0.51100000000E-03 0.  1.
         23    2    1    2    0    0  0.00000000000E+00  0.17763568394E-14  0.00000000000E+00  0.91188000000E+02  0.91188000000E+02 0.  0.
    9900012    2    3    3    0    0  0.32748613707E+02  0.13376555052E+02  0.20044009816E+02  0.50528852760E+02  0.29999978449E+02 0.  0.
        -12    1    3    3    0    0 -0.32748613707E+02 -0.13376555052E+02 -0.20044009816E+02  0.40659147240E+02  0.00000000000E+00 0.  1.
         11    1    4    4    0    0  0.27591065568E+02  0.94236378650E+01  0.15112172826E+02  0.32839756661E+02  0.51100000000E-03 0. -1.
        -11    1    4    4    0    0 -0.81280184720E+00  0.33302329273E+01 -0.50130309442E+01  0.60730204760E+01  0.51100000000E-03 0.  1.
        -12    1    4    4    0    0  0.59703499862E+01  0.62268426006E+00  0.99448679347E+01  0.11616075623E+02  0.00000000000E+00 0.  1.
</event>
<event>
 8    1  0.1021894E-011  0.9118800E+02  0.7816164E-02  0.1184000E+00
        -11   -1    0    0    0    0  0.00000000000E+00  0.00000000000E+00  0.45593999997E+02  0.45594000000E+02  0.51100000000E-03 0. -1.
         11   -1    0    0    0    0 -0.00000000000E+00 -0.00000000000E+00 -0.45593999997E+02  0.45594000000E+02  0.51100000000E-03 0.  1.
         23    2    1    2    0    0  0.35527136788E-14  0.35527136788E-14 -0.17763568394E-14  0.91188000000E+02  0.91188000000E+02 0.  0.
    9900012    2    3    3    0    0  0.30607043677E+02  0.24331082590E+02 -0.11152270591E+02  0.50528857831E+02  0.29999993862E+02 0.  0.
         12    1    3    3    0    0 -0.30607043677E+02 -0.24331082590E+02  0.11152270591E+02  0.40659142169E+02  0.00000000000E+00 0. -1.
         11    1    4    4    0    0 -0.40477182201E+01  0.72246871898E+01 -0.43674171191E+01  0.93623960786E+01  0.51100000000E-03 0. -1.
        -11    1    4    4    0    0  0.25540631915E+02  0.72454503140E+01 -0.78823427443E+01  0.27693893845E+02  0.51100000000E-03 0.  1.
         12    1    4    4    0    0  0.91141299813E+01  0.98609450862E+01  0.10974892723E+01  0.13472567907E+02  0.00000000000E+00 0. -1.
</event>
<event>
 8    1  0.1021894E-011  0.9118800E+02  0.7816164E-02  0.1184000E+00
        -11   -1    0    0    0    0  0.00000000000E+00  0.00000000000E+00  0.45593999997E+02  0.45594000000E+02  0.51100000000E-03 0. -1.
         11   -1    0    0    0    0 -0.00000000000E+00 -0.00000000000E+00 -0.45593999997E+02  0.45594000000E+02  0.51100000000E-03 0.  1.
         23    2    1    2    0    0  0.00000000000E+00  0.35527136788E-14 -0.35527136788E-14  0.91188000000E+02  0.91188000000E+02 0.  0.
    9900012    2    3    3    0    0  0.12866349484E+02  0.26411974293E+02  0.28107492523E+02  0.50528850095E+02  0.29999970349E+02 0.  0.
        -12    1    3    3    0    0 -0.12866349484E+02 -0.26411974293E+02 -0.28107492523E+02  0.40659149905E+02  0.00000000000E+00 0.  1.
         11    1    4    4    0    0  0.68946265791E+01  0.82117042868E+01  0.16799725519E+02  0.19929845477E+02  0.51100000000E-03 0. -1.
        -11    1    4    4    0    0  0.30474551951E+01  0.98880538908E+01 -0.54286739125E+01  0.11684652054E+02  0.51100000000E-03 0.  1.
        -12    1    4    4    0    0  0.29242677100E+01  0.83122161151E+01  0.16736440916E+02  0.18914352564E+02  0.00000000000E+00 0.  1.
</event>
<event>
 8    1  0.1021894E-011  0.9118800E+02  0.7816164E-02  0.1184000E+00
        -11   -1    0    0    0    0  0.00000000000E+00  0.00000000000E+00  0.45593999997E+02  0.45594000000E+02  0.51100000000E-03 0. -1.
         11   -1    0    0    0    0 -0.00000000000E+00 -0.00000000000E+00 -0.45593999997E+02  0.45594000000E+02  0.51100000000E-03 0.  1.
         23    2    1    2    0    0  0.22204460493E-15  0.35527136788E-14  0.00000000000E+00  0.91188000000E+02  0.91188000000E+02 0.  0.
    9900012    2    3    3    0    0 -0.14575044898E+01  0.15790057921E+02 -0.37439486810E+02  0.50528863006E+02  0.30000009595E+02 0.  0.
         12    1    3    3    0    0  0.14575044898E+01 -0.15790057921E+02  0.37439486810E+02  0.40659136994E+02  0.00000000000E+00 0. -1.
         11    1    4    4    0    0  0.47704556354E+00  0.20874895214E+02 -0.31666246259E+02  0.37930726002E+02  0.51100000000E-03 0. -1.
        -11    1    4    4    0    0 -0.51387476082E+01 -0.60580455543E-01 -0.18423018146E+01  0.54593473245E+01  0.51100000000E-03 0.  1.
         12    1    4    4    0    0  0.32041975549E+01 -0.50242568377E+01 -0.39309387363E+01  0.71387896797E+01  0.00000000000E+00 0. -1.
</event>
<event>
 8    1  0.1021894E-011  0.9118800E+02  0.7816164E-02  0.1184000E+00
        -11   -1    0    0    0    0  0.00000000000E+00  0.00000000000E+00  0.45593999997E+02  0.45594000000E+02  0.51100000000E-03 0. -1.
         11   -1    0    0    0    0 -0.00000000000E+00 -0.00000000000E+00 -0.45593999997E+02  0.45594000000E+02  0.51100000000E-03 0.  1.
         23    2    1    2    0    0  0.00000000000E+00 -0.17763568394E-14  0.71054273576E-14  0.91188000000E+02  0.91188000000E+02 0.  0.
    9900012    2    3    3    0    0 -0.23612932398E+02  0.90339427752E+01 -0.31842957841E+02  0.50528970713E+02  0.30000336976E+02 0.  0.
         12    1    3    3    0    0  0.23612932398E+02 -0.90339427752E+01  0.31842957841E+02  0.40659029287E+02  0.00000000000E+00 0. -1.
         11    1    4    4    0    0 -0.10336751724E+02 -0.40266657587E+01  0.14494698812E+01  0.11187646604E+02  0.51100000000E-03 0. -1.
        -11    1    4    4    0    0 -0.38363612668E+01  0.70416220307E+01 -0.65636418810E+01  0.10362601198E+02  0.51100000000E-03 0.  1.
         12    1    4    4    0    0 -0.94398194075E+01  0.60189865033E+01 -0.26728785842E+02  0.28978722911E+02  0.00000000000E+00 0. -1.
</event>
<event>
 8    1  0.1021894E-011  0.9118800E+02  0.7816164E-02  0.1184000E+00
        -11   -1    0    0    0    0  0.00000000000E+00  0.00000000000E+00  0.45593999997E+02  0.45594000000E+02  0.51100000000E-03 0.  1.
         11   -1    0    0    0    0 -0.00000000000E+00 -0.00000000000E+00 -0.45593999997E+02  0.45594000000E+02  0.51100000000E-03 0. -1.
         23    2    1    2    0    0  0.35527136788E-14  0.33306690739E-15  0.00000000000E+00  0.91188000000E+02  0.91188000000E+02 0.  0.
    9900012    2    3    3    0    0 -0.29790518865E+02 -0.58648840353E+00  0.27664900278E+02  0.50528859696E+02  0.29999999532E+02 0.  0.
        -12    1    3    3    0    0  0.29790518865E+02  0.58648840353E+00 -0.27664900278E+02  0.40659140304E+02  0.00000000000E+00 0.  1.
         11    1    4    4    0    0  0.24271401053E+01  0.62620685225E+01  0.63025533839E+00  0.67454972629E+01  0.51100000000E-03 0. -1.
        -11    1    4    4    0    0 -0.26530867134E+02 -0.23868320451E+01  0.24295742080E+02  0.36053667797E+02  0.51100000000E-03 0.  1.
        -12    1    4    4    0    0 -0.56867918360E+01 -0.44617248809E+01  0.27389028593E+01  0.77296946364E+01  0.00000000000E+00 0.  1.
</event>
<event>
 8    1  0.1021894E-011  0.9118800E+02  0.7816164E-02  0.1184000E+00
        -11   -1    0    0    0    0  0.00000000000E+00  0.00000000000E+00  0.45593999997E+02  0.45594000000E+02  0.51100000000E-03 0. -1.
         11   -1    0    0    0    0 -0.00000000000E+00 -0.00000000000E+00 -0.45593999997E+02  0.45594000000E+02  0.51100000000E-03 0.  1.
         23    2    1    2    0    0  0.17763568394E-14  0.00000000000E+00  0.00000000000E+00  0.91188000000E+02  0.91188000000E+02 0.  0.
    9900012    2    3    3    0    0 -0.15601061296E+02  0.35902987340E+02  0.10988542771E+02  0.50528859751E+02  0.29999999700E+02 0.  0.
        -12    1    3    3    0    0  0.15601061296E+02 -0.35902987340E+02 -0.10988542771E+02  0.40659140249E+02  0.00000000000E+00 0.  1.
         11    1    4    4    0    0 -0.90836233643E+01  0.11441403622E+02  0.59195947605E+00  0.14620818942E+02  0.51100000000E-03 0. -1.
        -11    1    4    4    0    0  0.73008438434E+01  0.14572770918E+02  0.95583040717E+01  0.18895215004E+02  0.51100000000E-03 0.  1.
        -12    1    4    4    0    0 -0.13818281775E+02  0.98888128009E+01  0.83827922302E+00  0.17012825805E+02  0.00000000000E+00 0.  1.
</event>
<event>
 8    1  0.1021894E-011  0.9118800E+02  0.7816164E-02  0.1184000E+00
        -11   -1    0    0    0    0  0.00000000000E+00  0.00000000000E+00  0.45593999997E+02  0.45594000000E+02  0.51100000000E-03 0.  1.
         11   -1    0    0    0    0 -0.00000000000E+00 -0.00000000000E+00 -0.45593999997E+02  0.45594000000E+02  0.51100000000E-03 0. -1.
         23    2    1    2    0    0  0.00000000000E+00  0.00000000000E+00  0.88817841970E-15  0.91188000000E+02  0.91188000000E+02 0.  0.
    9900012    2    3    3    0    0 -0.33495029224E+02 -0.22401078513E+02 -0.54256116881E+01  0.50528898148E+02  0.30000116411E+02 0.  0.
         12    1    3    3    0    0  0.33495029224E+02  0.22401078513E+02  0.54256116881E+01  0.40659101852E+02  0.00000000000E+00 0. -1.
         11    1    4    4    0    0 -0.24453726487E+02 -0.22343829609E+02 -0.12818317288E+02  0.35518174490E+02  0.51100000000E-03 0. -1.
        -11    1    4    4    0    0 -0.28178302569E+01  0.45095111916E+01  0.34949266255E+01  0.63632044539E+01  0.51100000000E-03 0.  1.
        -12    1    4    4    0    0 -0.62234724794E+01 -0.45667600947E+01  0.38977789739E+01  0.86475192046E+01  0.00000000000E+00 0.  1.
</event>
<event>
 8    1  0.1021894E-011  0.9118800E+02  0.7816164E-02  0.1184000E+00
        -11   -1    0    0    0    0  0.00000000000E+00  0.00000000000E+00  0.45593999997E+02  0.45594000000E+02  0.51100000000E-03 0. -1.
         11   -1    0    0    0    0 -0.00000000000E+00 -0.00000000000E+00 -0.45593999997E+02  0.45594000000E+02  0.51100000000E-03 0.  1.
         23    2    1    2    0    0  0.21094237468E-14  0.00000000000E+00  0.00000000000E+00  0.91188000000E+02  0.91188000000E+02 0.  0.
    9900012    2    3    3    0    0 -0.97177398097E+00  0.11009924930E+02  0.39128028823E+02  0.50528862881E+02  0.30000009214E+02 0.  0.
        -12    1    3    3    0    0  0.97177398097E+00 -0.11009924930E+02 -0.39128028823E+02  0.40659137119E+02  0.00000000000E+00 0.  1.
         11    1    4    4    0    0  0.75172769589E+01 -0.73478462582E-01  0.12608703523E+01  0.76226403738E+01  0.51100000000E-03 0. -1.
        -11    1    4    4    0    0 -0.52664334975E+01 -0.61789852005E+00  0.23537455839E+02  0.24127348549E+02  0.51100000000E-03 0.  1.
         12    1    4    4    0    0 -0.32226174425E+01  0.11701301913E+02  0.14329702632E+02  0.18778873959E+02  0.00000000000E+00 0. -1.
</event>
<event>
 8    1  0.1021894E-011  0.9118800E+02  0.7816164E-02  0.1184000E+00
        -11   -1    0    0    0    0  0.00000000000E+00  0.00000000000E+00  0.45593999997E+02  0.45594000000E+02  0.51100000000E-03 0. -1.
         11   -1    0    0    0    0 -0.00000000000E+00 -0.00000000000E+00 -0.45593999997E+02  0.45594000000E+02  0.51100000000E-03 0.  1.
         23    2    1    2    0    0  0.00000000000E+00 -0.88817841970E-15  0.35527136788E-14  0.91188000000E+02  0.91188000000E+02 0.  0.
    9900012    2    3    3    0    0  0.26740588457E+02  0.34405681131E+01  0.30434669970E+02  0.50528859378E+02  0.29999998565E+02 0.  0.
        -12    1    3    3    0    0 -0.26740588457E+02 -0.34405681131E+01 -0.30434669970E+02  0.40659140622E+02  0.00000000000E+00 0.  1.
         11    1    4    4    0    0  0.17724269635E+02 -0.57537599952E+01  0.32005775452E+02  0.37035458020E+02  0.51100000000E-03 0. -1.
        -11    1    4    4    0    0  0.85036005330E+01  0.73221721278E+01 -0.40497099698E+00  0.11228954914E+02  0.51100000000E-03 0.  1.
         12    1    4    4    0    0  0.51271828868E+00  0.18721559805E+01 -0.11661344853E+01  0.22644464437E+01  0.00000000000E+00 0. -1.
</event>
<event>
 8    1  0.1021894E-011  0.9118800E+02  0.7816164E-02  0.1184000E+00
        -11   -1    0    0    0    0  0.00000000000E+00  0.00000000000E+00  0.45593999997E+02  0.45594000000E+02  0.51100000000E-03 0. -1.
         11   -1    0    0    0    0 -0.00000000000E+00 -0.00000000000E+00 -0.45593999997E+02  0.45594000000E+02  0.51100000000E-03 0.  1.
         23    2    1    2    0    0  0.17763568394E-14 -0.35527136788E-14  0.00000000000E+00  0.91188000000E+02  0.91188000000E+02 0.  0.
    9900012    2    3    3    0    0  0.14264257397E+02 -0.24443835354E+02  0.29192384928E+02  0.50528862482E+02  0.30000008002E+02 0.  0.
        -12    1    3    3    0    0 -0.14264257397E+02  0.24443835354E+02 -0.29192384928E+02  0.40659137518E+02  0.00000000000E+00 0.  1.
         11    1    4    4    0    0  0.12875616821E+02 -0.26913579256E+02  0.15789859832E+02  0.33755620727E+02  0.51100000000E-03 0. -1.
        -11    1    4    4    0    0  0.38707051999E+00  0.32978241715E+01  0.12686760667E-01  0.33204862699E+01  0.51100000000E-03 0.  1.
         12    1    4    4    0    0  0.10015700561E+01 -0.82808026930E+00  0.13389838335E+02  0.13452755485E+02  0.00000000000E+00 0. -1.
</event>
<event>
 8    1  0.1021894E-011  0.9118800E+02  0.7816164E-02  0.1184000E+00
        -11   -1    0    0    0    0  0.00000000000E+00  0.00000000000E+00  0.45593999997E+02  0.45594000000E+02  0.51100000000E-03 0. -1.
         11   -1    0    0    0    0 -0.00000000000E+00 -0.00000000000E+00 -0.45593999997E+02  0.45594000000E+02  0.51100000000E-03 0.  1.
         23    2    1    2    0    0 -0.22204460493E-15  0.17763568394E-14  0.00000000000E+00  0.91188000000E+02  0.91188000000E+02 0.  0.
    9900012    2    3    3    0    0  0.13943473566E+01  0.14061850645E+02 -0.38124487450E+02  0.50528974047E+02  0.30000347110E+02 0.  0.
         12    1    3    3    0    0 -0.13943473566E+01 -0.14061850645E+02  0.38124487450E+02  0.40659025953E+02  0.00000000000E+00 0. -1.
         11    1    4    4    0    0  0.41236095218E+01 -0.67575101420E+01 -0.61732303546E+01  0.10038768454E+02  0.51100000000E-03 0. -1.
        -11    1    4    4    0    0 -0.19757857220E+00  0.13138302446E+02 -0.84155261501E+01  0.15603688958E+02  0.51100000000E-03 0.  1.
         12    1    4    4    0    0 -0.25316835930E+01  0.76810583417E+01 -0.23535730945E+02  0.24886516635E+02  0.00000000000E+00 0. -1.
</event>
<event>
 8    1  0.1021894E-011  0.9118800E+02  0.7816164E-02  0.1184000E+00
        -11   -1    0    0    0    0  0.00000000000E+00  0.00000000000E+00  0.45593999997E+02  0.45594000000E+02  0.51100000000E-03 0. -1.
         11   -1    0    0    0    0 -0.00000000000E+00 -0.00000000000E+00 -0.45593999997E+02  0.45594000000E+02  0.51100000000E-03 0.  1.
         23    2    1    2    0    0  0.00000000000E+00  0.00000000000E+00  0.00000000000E+00  0.91188000000E+02  0.91188000000E+02 0.  0.
    9900012    2    3    3    0    0 -0.12499102747E+02 -0.37750976975E+02 -0.84735439682E+01  0.50528870897E+02  0.30000033579E+02 0.  0.
         12    1    3    3    0    0  0.12499102747E+02  0.37750976975E+02  0.84735439682E+01  0.40659129103E+02  0.00000000000E+00 0. -1.
         11    1    4    4    0    0 -0.12626997955E+02 -0.25301115662E+01  0.24916983755E+01  0.13116825186E+02  0.51100000000E-03 0. -1.
        -11    1    4    4    0    0  0.27625609898E+01 -0.25161282996E+02 -0.67996584349E+01  0.26209869522E+02  0.51100000000E-03 0.  1.
         12    1    4    4    0    0 -0.26346657817E+01 -0.10059582412E+02 -0.41655839088E+01  0.11202176190E+02  0.00000000000E+00 0. -1.
</event>
<event>
 8    1  0.1147494E-011  0.9118800E+02  0.7816164E-02  0.1184000E+00
        -11   -1    0    0    0    0  0.00000000000E+00  0.00000000000E+00  0.45593999997E+02  0.45594000000E+02  0.51100000000E-03 0. -1.
         11   -1    0    0    0    0 -0.00000000000E+00 -0.00000000000E+00 -0.45593999997E+02  0.45594000000E+02  0.51100000000E-03 0.  1.
         23    2    1    2    0    0  0.00000000000E+00  0.00000000000E+00 -0.35527136788E-14  0.91188000000E+02  0.91188000000E+02 0.  0.
    9900012    2    3    3    0    0  0.10428252593E+02  0.33456513247E+02 -0.20617494453E+02  0.50528833650E+02  0.29999920362E+02 0.  0.
         12    1    3    3    0    0 -0.10428252593E+02 -0.33456513247E+02  0.20617494453E+02  0.40659166350E+02  0.00000000000E+00 0. -1.
         11    1    4    4    0    0  0.29163853374E+01 -0.45842170330E+01 -0.39278726387E+01  0.67043667091E+01  0.51100000000E-03 0. -1.
        -11    1    4    4    0    0  0.97330716967E+01  0.26565763879E+02 -0.14975322504E+02  0.32011447632E+02  0.51100000000E-03 0.  1.
         12    1    4    4    0    0 -0.22212044416E+01  0.11474966401E+02 -0.17142993103E+01  0.11813019309E+02  0.00000000000E+00 0. -1.
</event>
<event>
 8    1  0.1021894E-011  0.9118800E+02  0.7816164E-02  0.1184000E+00
        -11   -1    0    0    0    0  0.00000000000E+00  0.00000000000E+00  0.45593999997E+02  0.45594000000E+02  0.51100000000E-03 0. -1.
         11   -1    0    0    0    0 -0.00000000000E+00 -0.00000000000E+00 -0.45593999997E+02  0.45594000000E+02  0.51100000000E-03 0.  1.
         23    2    1    2    0    0 -0.35527136788E-14 -0.44408920985E-15  0.00000000000E+00  0.91188000000E+02  0.91188000000E+02 0.  0.
    9900012    2    3    3    0    0  0.27851537630E+02  0.30015544339E+01 -0.29469445878E+02  0.50528859359E+02  0.29999998506E+02 0.  0.
         12    1    3    3    0    0 -0.27851537630E+02 -0.30015544339E+01  0.29469445878E+02  0.40659140641E+02  0.00000000000E+00 0. -1.
         11    1    4    4    0    0  0.21388003071E+01  0.70065455231E+01 -0.51960647463E+01  0.89813827460E+01  0.51100000000E-03 0. -1.
        -11    1    4    4    0    0  0.26871741337E+02 -0.58325033114E+01 -0.26678189589E+02  0.38312326702E+02  0.51100000000E-03 0.  1.
        -12    1    4    4    0    0 -0.11590040140E+01  0.18275122222E+01  0.24048084573E+01  0.32351499104E+01  0.00000000000E+00 0.  1.
</event>
<event>
 8    1  0.1021894E-011  0.9118800E+02  0.7816164E-02  0.1184000E+00
        -11   -1    0    0    0    0  0.00000000000E+00  0.00000000000E+00  0.45593999997E+02  0.45594000000E+02  0.51100000000E-03 0.  1.
         11   -1    0    0    0    0 -0.00000000000E+00 -0.00000000000E+00 -0.45593999997E+02  0.45594000000E+02  0.51100000000E-03 0. -1.
         23    2    1    2    0    0 -0.17763568394E-14  0.00000000000E+00  0.44408920985E-15  0.91188000000E+02  0.91188000000E+02 0.  0.
    9900012    2    3    3    0    0  0.86529533328E+01  0.39567384032E+02 -0.35655631180E+01  0.50528871617E+02  0.30000035768E+02 0.  0.
         12    1    3    3    0    0 -0.86529533328E+01 -0.39567384032E+02  0.35655631180E+01  0.40659128383E+02  0.00000000000E+00 0. -1.
         11    1    4    4    0    0 -0.47938182681E+01  0.15611835112E+02 -0.12992718537E+01  0.16382862899E+02  0.51100000000E-03 0. -1.
        -11    1    4    4    0    0  0.18674796295E+01 -0.35058221429E+01 -0.17451759679E+01  0.43386528421E+01  0.51100000000E-03 0.  1.
        -12    1    4    4    0    0  0.11579291971E+02  0.27461371062E+02 -0.52111529632E+00  0.29807355876E+02  0.00000000000E+00 0.  1.
</event>
<event>
 8    1  0.1021894E-011  0.9118800E+02  0.7816164E-02  0.1184000E+00
        -11   -1    0    0    0    0  0.00000000000E+00  0.00000000000E+00  0.45593999997E+02  0.45594000000E+02  0.51100000000E-03 0. -1.
         11   -1    0    0    0    0 -0.00000000000E+00 -0.00000000000E+00 -0.45593999997E+02  0.45594000000E+02  0.51100000000E-03 0.  1.
         23    2    1    2    0    0 -0.17763568394E-14 -0.35527136788E-14  0.00000000000E+00  0.91188000000E+02  0.91188000000E+02 0.  0.
    9900012    2    3    3    0    0 -0.11854188598E+02  0.18086595054E+02 -0.34431356234E+02  0.50528868184E+02  0.30000025331E+02 0.  0.
         12    1    3    3    0    0  0.11854188598E+02 -0.18086595054E+02  0.34431356234E+02  0.40659131816E+02  0.00000000000E+00 0. -1.
         11    1    4    4    0    0  0.96852308212E+01  0.42088194469E+01 -0.71441261145E+01  0.12749760602E+02  0.51100000000E-03 0. -1.
        -11    1    4    4    0    0 -0.10757126710E+02  0.59737762252E+01 -0.95929828089E+01  0.15602150393E+02  0.51100000000E-03 0.  1.
         12    1    4    4    0    0 -0.10782292710E+02  0.79039993818E+01 -0.17694247310E+02  0.22176957189E+02  0.00000000000E+00 0. -1.
</event>
<event>
 8    1  0.1021894E-011  0.9118800E+02  0.7816164E-02  0.1184000E+00
        -11   -1    0    0    0    0  0.00000000000E+00  0.00000000000E+00  0.45593999997E+02  0.45594000000E+02  0.51100000000E-03 0. -1.
         11   -1    0    0    0    0 -0.00000000000E+00 -0.00000000000E+00 -0.45593999997E+02  0.45594000000E+02  0.51100000000E-03 0.  1.
         23    2    1    2    0    0  0.00000000000E+00  0.00000000000E+00  0.00000000000E+00  0.91188000000E+02  0.91188000000E+02 0.  0.
    9900012    2    3    3    0    0  0.60604293626E+01  0.15069270952E+02 -0.37274053593E+02  0.50528846020E+02  0.29999957964E+02 0.  0.
         12    1    3    3    0    0 -0.60604293626E+01 -0.15069270952E+02  0.37274053593E+02  0.40659153980E+02  0.00000000000E+00 0. -1.
         11    1    4    4    0    0 -0.87748276277E+01  0.10865450940E+02 -0.16843996859E+02  0.21880947294E+02  0.51100000000E-03 0. -1.
        -11    1    4    4    0    0  0.13301115378E+02  0.58375553846E+01 -0.91948200052E+01  0.17191318692E+02  0.51100000000E-03 0.  1.
         12    1    4    4    0    0  0.15341416123E+01 -0.16337353723E+01 -0.11235236729E+02  0.11456580035E+02  0.00000000000E+00 0. -1.
</event>
<event>
 8    1  0.1021894E-011  0.9118800E+02  0.7816164E-02  0.1184000E+00
        -11   -1    0    0    0    0  0.00000000000E+00  0.00000000000E+00  0.45593999997E+02  0.45594000000E+02  0.51100000000E-03 0. -1.
         11   -1    0    0    0    0 -0.00000000000E+00 -0.00000000000E+00 -0.45593999997E+02  0.45594000000E+02  0.51100000000E-03 0.  1.
         23    2    1    2    0    0  0.17763568394E-14  0.44408920985E-15 -0.71054273576E-14  0.91188000000E+02  0.91188000000E+02 0.  0.
    9900012    2    3    3    0    0 -0.15280429316E+02 -0.25472499740E+01  0.37592364346E+02  0.50528857613E+02  0.29999993200E+02 0.  0.
        -12    1    3    3    0    0  0.15280429316E+02  0.25472499740E+01 -0.37592364346E+02  0.40659142387E+02  0.00000000000E+00 0.  1.
         11    1    4    4    0    0 -0.11374596635E+02  0.97706827635E+01  0.18587946174E+02  0.23882199093E+02  0.51100000000E-03 0. -1.
        -11    1    4    4    0    0 -0.14963711641E-01 -0.12016062954E+02  0.19297849153E+02  0.22733081071E+02  0.51100000000E-03 0.  1.
        -12    1    4    4    0    0 -0.38908689692E+01 -0.30186978386E+00 -0.29343098083E+00  0.39135774481E+01  0.00000000000E+00 0.  1.
</event>
<event>
 8    1  0.1021894E-011  0.9118800E+02  0.7816164E-02  0.1184000E+00
        -11   -1    0    0    0    0  0.00000000000E+00  0.00000000000E+00  0.45593999997E+02  0.45594000000E+02  0.51100000000E-03 0. -1.
         11   -1    0    0    0    0 -0.00000000000E+00 -0.00000000000E+00 -0.45593999997E+02  0.45594000000E+02  0.51100000000E-03 0.  1.
         23    2    1    2    0    0  0.00000000000E+00  0.88817841970E-15  0.35527136788E-14  0.91188000000E+02  0.91188000000E+02 0.  0.
    9900012    2    3    3    0    0  0.27961283063E+02  0.67528075810E+00  0.29510617435E+02  0.50528857166E+02  0.29999991840E+02 0.  0.
        -12    1    3    3    0    0 -0.27961283063E+02 -0.67528075810E+00 -0.29510617435E+02  0.40659142834E+02  0.00000000000E+00 0.  1.
         11    1    4    4    0    0  0.13861567113E+02  0.12283266817E+02  0.16924241600E+02  0.25088874836E+02  0.51100000000E-03 0. -1.
        -11    1    4    4    0    0  0.26953001960E+01 -0.10230911594E+02  0.68093510363E+01  0.12581870171E+02  0.51100000000E-03 0.  1.
        -12    1    4    4    0    0  0.11404415753E+02 -0.13770744648E+01  0.57770247988E+01  0.12858112159E+02  0.00000000000E+00 0.  1.
</event>
<event>
 8    1  0.1021894E-011  0.9118800E+02  0.7816164E-02  0.1184000E+00
        -11   -1    0    0    0    0  0.00000000000E+00  0.00000000000E+00  0.45593999997E+02  0.45594000000E+02  0.51100000000E-03 0. -1.
         11   -1    0    0    0    0 -0.00000000000E+00 -0.00000000000E+00 -0.45593999997E+02  0.45594000000E+02  0.51100000000E-03 0.  1.
         23    2    1    2    0    0  0.22204460493E-15  0.88817841970E-15 -0.71054273576E-14  0.91188000000E+02  0.91188000000E+02 0.  0.
    9900012    2    3    3    0    0  0.17695312588E+01 -0.46455583918E+01  0.40354044588E+02  0.50528912845E+02  0.30000161083E+02 0.  0.
        -12    1    3    3    0    0 -0.17695312588E+01  0.46455583918E+01 -0.40354044588E+02  0.40659087155E+02  0.00000000000E+00 0.  1.
         11    1    4    4    0    0  0.42791116157E+01  0.23148907075E+01  0.92892726125E+01  0.10486186206E+02  0.51100000000E-03 0. -1.
        -11    1    4    4    0    0 -0.11119564665E+02 -0.37169432037E+01  0.56518110024E+01  0.13015504331E+02  0.51100000000E-03 0.  1.
        -12    1    4    4    0    0  0.86099843082E+01 -0.32435058956E+01  0.25412960973E+02  0.27027222308E+02  0.00000000000E+00 0.  1.
</event>
<event>
 8    1  0.1021894E-011  0.9118800E+02  0.7816164E-02  0.1184000E+00
        -11   -1    0    0    0    0  0.00000000000E+00  0.00000000000E+00  0.45593999997E+02  0.45594000000E+02  0.51100000000E-03 0. -1.
         11   -1    0    0    0    0 -0.00000000000E+00 -0.00000000000E+00 -0.45593999997E+02  0.45594000000E+02  0.51100000000E-03 0.  1.
         23    2    1    2    0    0  0.00000000000E+00  0.00000000000E+00  0.35527136788E-14  0.91188000000E+02  0.91188000000E+02 0.  0.
    9900012    2    3    3    0    0  0.23812727221E+02 -0.11275153099E+02 -0.30967755226E+02  0.50528721614E+02  0.29999579815E+02 0.  0.
         12    1    3    3    0    0 -0.23812727221E+02  0.11275153099E+02  0.30967755226E+02  0.40659278386E+02  0.00000000000E+00 0. -1.
         11    1    4    4    0    0  0.12824384559E+02  0.60995003426E+01 -0.16200412748E+02  0.21543493617E+02  0.51100000000E-03 0. -1.
        -11    1    4    4    0    0  0.40417216121E+01 -0.17115840892E+02 -0.81333206537E+01  0.19376233590E+02  0.51100000000E-03 0.  1.
        -12    1    4    4    0    0  0.69466210494E+01 -0.25881254937E+00 -0.66340218246E+01  0.96089944067E+01  0.00000000000E+00 0.  1.
</event>
<event>
 8    1  0.1021894E-011  0.9118800E+02  0.7816164E-02  0.1184000E+00
        -11   -1    0    0    0    0  0.00000000000E+00  0.00000000000E+00  0.45593999997E+02  0.45594000000E+02  0.51100000000E-03 0. -1.
         11   -1    0    0    0    0 -0.00000000000E+00 -0.00000000000E+00 -0.45593999997E+02  0.45594000000E+02  0.51100000000E-03 0.  1.
         23    2    1    2    0    0  0.00000000000E+00 -0.35527136788E-14  0.00000000000E+00  0.91188000000E+02  0.91188000000E+02 0.  0.
    9900012    2    3    3    0    0 -0.13698322984E+02 -0.14600611834E+02  0.35388469338E+02  0.50528859815E+02  0.29999999894E+02 0.  0.
        -12    1    3    3    0    0  0.13698322984E+02  0.14600611834E+02 -0.35388469338E+02  0.40659140185E+02  0.00000000000E+00 0.  1.
         11    1    4    4    0    0 -0.63395092394E+01  0.61284183243E+01  0.11951377004E+02  0.14852013369E+02  0.51100000000E-03 0. -1.
        -11    1    4    4    0    0 -0.21591429303E+01 -0.21045047704E+02  0.21375785953E+02  0.30074576580E+02  0.51100000000E-03 0.  1.
        -12    1    4    4    0    0 -0.51996708140E+01  0.31601754579E+00  0.20613063798E+01  0.56022698663E+01  0.00000000000E+00 0.  1.
</event>
<event>
 8    1  0.1021894E-011  0.9118800E+02  0.7816164E-02  0.1184000E+00
        -11   -1    0    0    0    0  0.00000000000E+00  0.00000000000E+00  0.45593999997E+02  0.45594000000E+02  0.51100000000E-03 0.  1.
         11   -1    0    0    0    0 -0.00000000000E+00 -0.00000000000E+00 -0.45593999997E+02  0.45594000000E+02  0.51100000000E-03 0. -1.
         23    2    1    2    0    0  0.00000000000E+00  0.00000000000E+00 -0.17763568394E-14  0.91188000000E+02  0.91188000000E+02 0.  0.
    9900012    2    3    3    0    0 -0.32138745913E+02 -0.21792420217E+02  0.12056423714E+02  0.50528856864E+02  0.29999990925E+02 0.  0.
        -12    1    3    3    0    0  0.32138745913E+02  0.21792420217E+02 -0.12056423714E+02  0.40659143136E+02  0.00000000000E+00 0.  1.
         11    1    4    4    0    0 -0.29122175090E+02 -0.28097816740E+02  0.12652780992E+02  0.42399071389E+02  0.51100000000E-03 0. -1.
        -11    1    4    4    0    0  0.73084491253E+00  0.30717219484E+01 -0.18057576458E+00  0.31626283187E+01  0.51100000000E-03 0.  1.
         12    1    4    4    0    0 -0.37474157356E+01  0.32336745752E+01 -0.41578151344E+00  0.49671571569E+01  0.00000000000E+00 0. -1.
</event>
<event>
 8    1  0.1021894E-011  0.9118800E+02  0.7816164E-02  0.1184000E+00
        -11   -1    0    0    0    0  0.00000000000E+00  0.00000000000E+00  0.45593999997E+02  0.45594000000E+02  0.51100000000E-03 0. -1.
         11   -1    0    0    0    0 -0.00000000000E+00 -0.00000000000E+00 -0.45593999997E+02  0.45594000000E+02  0.51100000000E-03 0.  1.
         23    2    1    2    0    0  0.00000000000E+00  0.00000000000E+00  0.00000000000E+00  0.91188000000E+02  0.91188000000E+02 0.  0.
    9900012    2    3    3    0    0 -0.20765265791E+01 -0.31366862971E+02 -0.25787115852E+02  0.50528838680E+02  0.29999935652E+02 0.  0.
         12    1    3    3    0    0  0.20765265791E+01  0.31366862971E+02  0.25787115852E+02  0.40659161320E+02  0.00000000000E+00 0. -1.
         11    1    4    4    0    0 -0.10748510219E+01 -0.27973670922E+02 -0.67336674163E+01  0.28792774210E+02  0.51100000000E-03 0. -1.
        -11    1    4    4    0    0 -0.40167260538E+01  0.17114075524E+01 -0.62202207747E+01  0.75996151711E+01  0.51100000000E-03 0.  1.
         12    1    4    4    0    0  0.30150504966E+01 -0.51045996020E+01 -0.12833227661E+02  0.14136449299E+02  0.00000000000E+00 0. -1.
</event>
<event>
 8    1  0.1021894E-011  0.9118800E+02  0.7816164E-02  0.1184000E+00
        -11   -1    0    0    0    0  0.00000000000E+00  0.00000000000E+00  0.45593999997E+02  0.45594000000E+02  0.51100000000E-03 0. -1.
         11   -1    0    0    0    0 -0.00000000000E+00 -0.00000000000E+00 -0.45593999997E+02  0.45594000000E+02  0.51100000000E-03 0.  1.
         23    2    1    2    0    0  0.00000000000E+00  0.00000000000E+00 -0.35527136788E-14  0.91188000000E+02  0.91188000000E+02 0.  0.
    9900012    2    3    3    0    0 -0.19016003727E+02 -0.18477926710E+02  0.30824036066E+02  0.50528888197E+02  0.30000086162E+02 0.  0.
        -12    1    3    3    0    0  0.19016003727E+02  0.18477926710E+02 -0.30824036066E+02  0.40659111803E+02  0.00000000000E+00 0.  1.
         11    1    4    4    0    0 -0.90563230669E+00 -0.42616976107E+01  0.15802969372E+02  0.16392561656E+02  0.51100000000E-03 0. -1.
        -11    1    4    4    0    0 -0.14089998923E+02 -0.18660129008E+02  0.75756677255E+01  0.24578836953E+02  0.51100000000E-03 0.  1.
        -12    1    4    4    0    0 -0.40203724970E+01  0.44438999084E+01  0.74453989689E+01  0.95574895876E+01  0.00000000000E+00 0.  1.
</event>
<event>
 8    1  0.1021894E-011  0.9118800E+02  0.7816164E-02  0.1184000E+00
        -11   -1    0    0    0    0  0.00000000000E+00  0.00000000000E+00  0.45593999997E+02  0.45594000000E+02  0.51100000000E-03 0. -1.
         11   -1    0    0    0    0 -0.00000000000E+00 -0.00000000000E+00 -0.45593999997E+02  0.45594000000E+02  0.51100000000E-03 0.  1.
         23    2    1    2    0    0  0.88817841970E-15  0.00000000000E+00  0.35527136788E-14  0.91188000000E+02  0.91188000000E+02 0.  0.
    9900012    2    3    3    0    0  0.42607952114E+01 -0.32935999797E+02  0.23457008446E+02  0.50528859531E+02  0.29999999029E+02 0.  0.
        -12    1    3    3    0    0 -0.42607952114E+01  0.32935999797E+02 -0.23457008446E+02  0.40659140469E+02  0.00000000000E+00 0.  1.
         11    1    4    4    0    0  0.92108459625E+01 -0.92690517929E+01  0.20600263239E+02  0.24395201378E+02  0.51100000000E-03 0. -1.
        -11    1    4    4    0    0 -0.67326110796E+01 -0.22026227208E+02  0.41256092470E+01  0.23398790330E+02  0.51100000000E-03 0.  1.
        -12    1    4    4    0    0  0.17825603286E+01 -0.16407207960E+01 -0.12688640401E+01  0.27348678228E+01  0.00000000000E+00 0.  1.
</event>
<event>
 8    1  0.1021894E-011  0.9118800E+02  0.7816164E-02  0.1184000E+00
        -11   -1    0    0    0    0  0.00000000000E+00  0.00000000000E+00  0.45593999997E+02  0.45594000000E+02  0.51100000000E-03 0. -1.
         11   -1    0    0    0    0 -0.00000000000E+00 -0.00000000000E+00 -0.45593999997E+02  0.45594000000E+02  0.51100000000E-03 0.  1.
         23    2    1    2    0    0  0.00000000000E+00 -0.17763568394E-14  0.00000000000E+00  0.91188000000E+02  0.91188000000E+02 0.  0.
    9900012    2    3    3    0    0  0.19339214604E+02  0.12706330427E+02 -0.33432161677E+02  0.50528862174E+02  0.30000007063E+02 0.  0.
         12    1    3    3    0    0 -0.19339214604E+02 -0.12706330427E+02  0.33432161677E+02  0.40659137826E+02  0.00000000000E+00 0. -1.
         11    1    4    4    0    0  0.49803838067E+01  0.18251894494E+02 -0.89071315385E+01  0.20911070465E+02  0.51100000000E-03 0. -1.
        -11    1    4    4    0    0  0.12136536215E+02 -0.18817431729E+01 -0.19038941962E+02  0.22656517384E+02  0.51100000000E-03 0.  1.
         12    1    4    4    0    0  0.22222945818E+01 -0.36638208937E+01 -0.54860881760E+01  0.69612743248E+01  0.00000000000E+00 0. -1.
</event>
<event>
 8    1  0.1021894E-011  0.9118800E+02  0.7816164E-02  0.1184000E+00
        -11   -1    0    0    0    0  0.00000000000E+00  0.00000000000E+00  0.45593999997E+02  0.45594000000E+02  0.51100000000E-03 0. -1.
         11   -1    0    0    0    0 -0.00000000000E+00 -0.00000000000E+00 -0.45593999997E+02  0.45594000000E+02  0.51100000000E-03 0.  1.
         23    2    1    2    0    0  0.00000000000E+00  0.00000000000E+00  0.00000000000E+00  0.91188000000E+02  0.91188000000E+02 0.  0.
    9900012    2    3    3    0    0  0.17685828116E+02  0.81737401473E+01  0.35687070687E+02  0.50528861318E+02  0.30000004461E+02 0.  0.
        -12    1    3    3    0    0 -0.17685828116E+02 -0.81737401473E+01 -0.35687070687E+02  0.40659138682E+02  0.00000000000E+00 0.  1.
         11    1    4    4    0    0 -0.17641462160E+01 -0.14769769746E+01  0.24298037546E+02  0.24406726567E+02  0.51100000000E-03 0. -1.
        -11    1    4    4    0    0  0.86601650391E+01  0.92745923015E+01  0.67288401750E+01  0.14362931846E+02  0.51100000000E-03 0.  1.
         12    1    4    4    0    0  0.10789809293E+02  0.37612482047E+00  0.46601929659E+01  0.11759202904E+02  0.00000000000E+00 0. -1.
</event>
<event>
 8    1  0.1021894E-011  0.9118800E+02  0.7816164E-02  0.1184000E+00
        -11   -1    0    0    0    0  0.00000000000E+00  0.00000000000E+00  0.45593999997E+02  0.45594000000E+02  0.51100000000E-03 0. -1.
         11   -1    0    0    0    0 -0.00000000000E+00 -0.00000000000E+00 -0.45593999997E+02  0.45594000000E+02  0.51100000000E-03 0.  1.
         23    2    1    2    0    0 -0.88817841970E-15  0.00000000000E+00  0.00000000000E+00  0.91188000000E+02  0.91188000000E+02 0.  0.
    9900012    2    3    3    0    0  0.58657286529E+01  0.19398408805E+02  0.35248557441E+02  0.50528857873E+02  0.29999993992E+02 0.  0.
        -12    1    3    3    0    0 -0.58657286529E+01 -0.19398408805E+02 -0.35248557441E+02  0.40659142127E+02  0.00000000000E+00 0.  1.
         11    1    4    4    0    0  0.16338106197E+02  0.11403168398E+02  0.11920113584E+02  0.23217559556E+02  0.51100000000E-03 0. -1.
        -11    1    4    4    0    0 -0.64030164463E+01  0.47164557313E+01  0.18737300573E+02  0.20355097821E+02  0.51100000000E-03 0.  1.
         12    1    4    4    0    0 -0.40693610978E+01  0.32787846755E+01  0.45911432842E+01  0.69562004966E+01  0.00000000000E+00 0. -1.
</event>
<event>
 8    1  0.1021894E-011  0.9118800E+02  0.7816164E-02  0.1184000E+00
        -11   -1    0    0    0    0  0.00000000000E+00  0.00000000000E+00  0.45593999997E+02  0.45594000000E+02  0.51100000000E-03 0. -1.
         11   -1    0    0    0    0 -0.00000000000E+00 -0.00000000000E+00 -0.45593999997E+02  0.45594000000E+02  0.51100000000E-03 0.  1.
         23    2    1    2    0    0 -0.83266726847E-16  0.00000000000E+00  0.00000000000E+00  0.91188000000E+02  0.91188000000E+02 0.  0.
    9900012    2    3    3    0    0 -0.83806946638E-01  0.32481627983E+02  0.24456188233E+02  0.50528827321E+02  0.29999901126E+02 0.  0.
        -12    1    3    3    0    0  0.83806946638E-01 -0.32481627983E+02 -0.24456188233E+02  0.40659172679E+02  0.00000000000E+00 0.  1.
         11    1    4    4    0    0  0.16731552757E+01  0.79476014516E+01  0.23434280171E+02  0.24801800435E+02  0.51100000000E-03 0. -1.
        -11    1    4    4    0    0 -0.38834231410E+01  0.99019246590E+01  0.23134821004E+01  0.10884910975E+02  0.51100000000E-03 0.  1.
         12    1    4    4    0    0  0.21264609187E+01  0.14632101872E+02 -0.12915740384E+01  0.14842115912E+02  0.00000000000E+00 0. -1.
</event>
<event>
 8    1  0.1021894E-011  0.9118800E+02  0.7816164E-02  0.1184000E+00
        -11   -1    0    0    0    0  0.00000000000E+00  0.00000000000E+00  0.45593999997E+02  0.45594000000E+02  0.51100000000E-03 0. -1.
         11   -1    0    0    0    0 -0.00000000000E+00 -0.00000000000E+00 -0.45593999997E+02  0.45594000000E+02  0.51100000000E-03 0.  1.
         23    2    1    2    0    0  0.00000000000E+00  0.00000000000E+00  0.35527136788E-14  0.91188000000E+02  0.91188000000E+02 0.  0.
    9900012    2    3    3    0    0  0.16203915737E+02 -0.21025809218E+02 -0.30797938172E+02  0.50528873913E+02  0.30000042746E+02 0.  0.
         12    1    3    3    0    0 -0.16203915737E+02  0.21025809218E+02  0.30797938172E+02  0.40659126087E+02  0.00000000000E+00 0. -1.
         11    1    4    4    0    0  0.92762995142E+01 -0.22910941686E+02 -0.79064659180E+01  0.25951361914E+02  0.51100000000E-03 0. -1.
        -11    1    4    4    0    0  0.54727198492E+01 -0.34269574896E+00 -0.19558858032E+02  0.20312976904E+02  0.51100000000E-03 0.  1.
         12    1    4    4    0    0  0.14548963738E+01  0.22278282167E+01 -0.33326142219E+01  0.42645350947E+01  0.00000000000E+00 0. -1.
</event>
<event>
 8    1  0.1404675E-011  0.9118800E+02  0.7816164E-02  0.1184000E+00
        -11   -1    0    0    0    0  0.00000000000E+00  0.00000000000E+00  0.45593999997E+02  0.45594000000E+02  0.51100000000E-03 0. -1.
         11   -1    0    0    0    0 -0.00000000000E+00 -0.00000000000E+00 -0.45593999997E+02  0.45594000000E+02  0.51100000000E-03 0.  1.
         23    2    1    2    0    0  0.35527136788E-14  0.26645352591E-14  0.71054273576E-14  0.91188000000E+02  0.91188000000E+02 0.  0.
    9900012    2    3    3    0    0 -0.20172931043E+02 -0.64111892228E+01 -0.34714769794E+02  0.50528859134E+02  0.29999997824E+02 0.  0.
         12    1    3    3    0    0  0.20172931043E+02  0.64111892228E+01  0.34714769794E+02  0.40659140866E+02  0.00000000000E+00 0. -1.
         11    1    4    4    0    0 -0.66279539097E+01  0.18393333878E+00  0.44753609150E+01  0.79995287413E+01  0.51100000000E-03 0. -1.
        -11    1    4    4    0    0 -0.28408739276E+01 -0.45730362923E+01 -0.16573696859E+02  0.17426148554E+02  0.51100000000E-03 0.  1.
         12    1    4    4    0    0 -0.10704103205E+02 -0.20220862692E+01 -0.22616433850E+02  0.25103181838E+02  0.00000000000E+00 0. -1.
</event>
<event>
 8    1  0.1021894E-011  0.9118800E+02  0.7816164E-02  0.1184000E+00
        -11   -1    0    0    0    0  0.00000000000E+00  0.00000000000E+00  0.45593999997E+02  0.45594000000E+02  0.51100000000E-03 0. -1.
         11   -1    0    0    0    0 -0.00000000000E+00 -0.00000000000E+00 -0.45593999997E+02  0.45594000000E+02  0.51100000000E-03 0.  1.
         23    2    1    2    0    0  0.17763568394E-14 -0.71054273576E-14  0.35527136788E-14  0.91188000000E+02  0.91188000000E+02 0.  0.
    9900012    2    3    3    0    0 -0.15725378305E+02 -0.32032552203E+02  0.19488331817E+02  0.50528843583E+02  0.29999950556E+02 0.  0.
        -12    1    3    3    0    0  0.15725378305E+02  0.32032552203E+02 -0.19488331817E+02  0.40659156417E+02  0.00000000000E+00 0.  1.
         11    1    4    4    0    0 -0.11796483662E+02 -0.18127216031E+02  0.13627508470E+02  0.25562902323E+02  0.51100000000E-03 0. -1.
        -11    1    4    4    0    0  0.61010278292E+01 -0.10772424995E+02 -0.99388875945E+00  0.12419963606E+02  0.51100000000E-03 0.  1.
        -12    1    4    4    0    0 -0.10029922472E+02 -0.31329111779E+01  0.68547121063E+01  0.12545977655E+02  0.00000000000E+00 0.  1.
</event>
<event>
 8    1  0.1126836E-011  0.9118800E+02  0.7816164E-02  0.1184000E+00
        -11   -1    0    0    0    0  0.00000000000E+00  0.00000000000E+00  0.45593999997E+02  0.45594000000E+02  0.51100000000E-03 0. -1.
         11   -1    0    0    0    0 -0.00000000000E+00 -0.00000000000E+00 -0.45593999997E+02  0.45594000000E+02  0.51100000000E-03 0.  1.
         23    2    1    2    0    0  0.88817841970E-15  0.00000000000E+00 -0.71054273576E-14  0.91188000000E+02  0.91188000000E+02 0.  0.
    9900012    2    3    3    0    0 -0.78318734640E+01  0.21029265914E+02 -0.33905717419E+02  0.50528856618E+02  0.29999990177E+02 0.  0.
         12    1    3    3    0    0  0.78318734640E+01 -0.21029265914E+02  0.33905717419E+02  0.40659143382E+02  0.00000000000E+00 0. -1.
         11    1    4    4    0    0 -0.47733794590E+01 -0.67244171941E+01 -0.77053294663E+01  0.11286055135E+02  0.51100000000E-03 0. -1.
        -11    1    4    4    0    0 -0.58146149977E+01  0.14149854664E+02 -0.14723343649E+02  0.21232168590E+02  0.51100000000E-03 0.  1.
         12    1    4    4    0    0  0.27561209926E+01  0.13603828445E+02 -0.11477044303E+02  0.18010632893E+02  0.00000000000E+00 0. -1.
</event>
<event>
 8    1  0.1021894E-011  0.9118800E+02  0.7816164E-02  0.1184000E+00
        -11   -1    0    0    0    0  0.00000000000E+00  0.00000000000E+00  0.45593999997E+02  0.45594000000E+02  0.51100000000E-03 0. -1.
         11   -1    0    0    0    0 -0.00000000000E+00 -0.00000000000E+00 -0.45593999997E+02  0.45594000000E+02  0.51100000000E-03 0.  1.
         23    2    1    2    0    0  0.00000000000E+00  0.00000000000E+00 -0.71054273576E-14  0.91188000000E+02  0.91188000000E+02 0.  0.
    9900012    2    3    3    0    0 -0.10456593127E+02  0.10063330434E+02 -0.37980974161E+02  0.50528863789E+02  0.30000011972E+02 0.  0.
         12    1    3    3    0    0  0.10456593127E+02 -0.10063330434E+02  0.37980974161E+02  0.40659136211E+02  0.00000000000E+00 0. -1.
         11    1    4    4    0    0  0.17968797855E+01  0.13203780224E+01  0.21662586478E+01  0.31088344883E+01  0.51100000000E-03 0. -1.
        -11    1    4    4    0    0 -0.29249493015E+01  0.80052103285E-01 -0.32369694993E+02  0.32501675202E+02  0.51100000000E-03 0.  1.
        -12    1    4    4    0    0 -0.93285236111E+01  0.86629003087E+01 -0.77775378160E+01  0.14918354098E+02  0.00000000000E+00 0.  1.
</event>
<event>
 8    1  0.1021894E-011  0.9118800E+02  0.7816164E-02  0.1184000E+00
        -11   -1    0    0    0    0  0.00000000000E+00  0.00000000000E+00  0.45593999997E+02  0.45594000000E+02  0.51100000000E-03 0. -1.
         11   -1    0    0    0    0 -0.00000000000E+00 -0.00000000000E+00 -0.45593999997E+02  0.45594000000E+02  0.51100000000E-03 0.  1.
         23    2    1    2    0    0  0.44408920985E-15  0.00000000000E+00  0.00000000000E+00  0.91188000000E+02  0.91188000000E+02 0.  0.
    9900012    2    3    3    0    0  0.33375506945E+01  0.96847947735E+01 -0.39347585863E+02  0.50528843495E+02  0.29999950288E+02 0.  0.
         12    1    3    3    0    0 -0.33375506945E+01 -0.96847947735E+01  0.39347585863E+02  0.40659156505E+02  0.00000000000E+00 0. -1.
         11    1    4    4    0    0 -0.89404547858E+01  0.66764446312E+01 -0.28013006414E+02  0.30153526714E+02  0.51100000000E-03 0. -1.
        -11    1    4    4    0    0  0.73042188867E+01  0.66926573733E+01 -0.99331511820E+01  0.14028926150E+02  0.51100000000E-03 0.  1.
         12    1    4    4    0    0  0.49737865936E+01 -0.36843072309E+01 -0.14014282671E+01  0.63463906308E+01  0.00000000000E+00 0. -1.
</event>
<event>
 8    1  0.1021894E-011  0.9118800E+02  0.7816164E-02  0.1184000E+00
        -11   -1    0    0    0    0  0.00000000000E+00  0.00000000000E+00  0.45593999997E+02  0.45594000000E+02  0.51100000000E-03 0. -1.
         11   -1    0    0    0    0 -0.00000000000E+00 -0.00000000000E+00 -0.45593999997E+02  0.45594000000E+02  0.51100000000E-03 0.  1.
         23    2    1    2    0    0  0.00000000000E+00  0.00000000000E+00  0.00000000000E+00  0.91188000000E+02  0.91188000000E+02 0.  0.
    9900012    2    3    3    0    0 -0.13000460862E+02  0.17149886337E+01 -0.38486526817E+02  0.50528856932E+02  0.29999991130E+02 0.  0.
         12    1    3    3    0    0  0.13000460862E+02 -0.17149886337E+01  0.38486526817E+02  0.40659143068E+02  0.00000000000E+00 0. -1.
         11    1    4    4    0    0 -0.59022804077E+01  0.35453189788E+01  0.32197931390E+01  0.76008728967E+01  0.51100000000E-03 0. -1.
        -11    1    4    4    0    0  0.38366008940E+00  0.18004284658E+01 -0.83643663808E+01  0.85645410231E+01  0.51100000000E-03 0.  1.
         12    1    4    4    0    0 -0.74818405433E+01 -0.36307588109E+01 -0.33341953575E+02  0.34363443012E+02  0.00000000000E+00 0. -1.
</event>
<event>
 8    1  0.1021894E-011  0.9118800E+02  0.7816164E-02  0.1184000E+00
        -11   -1    0    0    0    0  0.00000000000E+00  0.00000000000E+00  0.45593999997E+02  0.45594000000E+02  0.51100000000E-03 0. -1.
         11   -1    0    0    0    0 -0.00000000000E+00 -0.00000000000E+00 -0.45593999997E+02  0.45594000000E+02  0.51100000000E-03 0.  1.
         23    2    1    2    0    0 -0.17763568394E-14  0.00000000000E+00  0.00000000000E+00  0.91188000000E+02  0.91188000000E+02 0.  0.
    9900012    2    3    3    0    0  0.85163344982E+01 -0.14747825923E+02 -0.36920715356E+02  0.50528861480E+02  0.30000004956E+02 0.  0.
         12    1    3    3    0    0 -0.85163344982E+01  0.14747825923E+02  0.36920715356E+02  0.40659138520E+02  0.00000000000E+00 0. -1.
         11    1    4    4    0    0 -0.42693672986E+01  0.13143226571E+01 -0.48494711857E+01  0.65933536398E+01  0.51100000000E-03 0. -1.
        -11    1    4    4    0    0  0.16190727872E+02 -0.32904679669E+01 -0.14756330611E+02  0.22152113710E+02  0.51100000000E-03 0.  1.
        -12    1    4    4    0    0 -0.34050260752E+01 -0.12771680613E+02 -0.17314913560E+02  0.21783394130E+02  0.00000000000E+00 0.  1.
</event>
<event>
 8    1  0.1021894E-011  0.9118800E+02  0.7816164E-02  0.1184000E+00
        -11   -1    0    0    0    0  0.00000000000E+00  0.00000000000E+00  0.45593999997E+02  0.45594000000E+02  0.51100000000E-03 0. -1.
         11   -1    0    0    0    0 -0.00000000000E+00 -0.00000000000E+00 -0.45593999997E+02  0.45594000000E+02  0.51100000000E-03 0.  1.
         23    2    1    2    0    0  0.00000000000E+00  0.00000000000E+00  0.00000000000E+00  0.91188000000E+02  0.91188000000E+02 0.  0.
    9900012    2    3    3    0    0  0.87858271785E+01  0.31528141549E+02  0.24123698514E+02  0.50528839916E+02  0.29999939408E+02 0.  0.
        -12    1    3    3    0    0 -0.87858271785E+01 -0.31528141549E+02 -0.24123698514E+02  0.40659160084E+02  0.00000000000E+00 0.  1.
         11    1    4    4    0    0  0.17230782574E+02  0.17757107343E+02  0.14749636367E+02  0.28805667888E+02  0.51100000000E-03 0. -1.
        -11    1    4    4    0    0 -0.16538870226E+01 -0.17003925788E+01 -0.57524042533E-01  0.23727592549E+01  0.51100000000E-03 0.  1.
         12    1    4    4    0    0 -0.67910683725E+01  0.15471426786E+02  0.94315861897E+01  0.19350412773E+02  0.00000000000E+00 0. -1.
</event>
<event>
 8    1  0.1021894E-011  0.9118800E+02  0.7816164E-02  0.1184000E+00
        -11   -1    0    0    0    0  0.00000000000E+00  0.00000000000E+00  0.45593999997E+02  0.45594000000E+02  0.51100000000E-03 0.  1.
         11   -1    0    0    0    0 -0.00000000000E+00 -0.00000000000E+00 -0.45593999997E+02  0.45594000000E+02  0.51100000000E-03 0. -1.
         23    2    1    2    0    0  0.00000000000E+00 -0.17763568394E-14  0.00000000000E+00  0.91188000000E+02  0.91188000000E+02 0.  0.
    9900012    2    3    3    0    0 -0.37134098747E+02 -0.14399264463E+02  0.81783931634E+01  0.50528853163E+02  0.29999979673E+02 0.  0.
         12    1    3    3    0    0  0.37134098747E+02  0.14399264463E+02 -0.81783931634E+01  0.40659146837E+02  0.00000000000E+00 0. -1.
         11    1    4    4    0    0 -0.30467649895E+00 -0.96190832149E+00  0.90332592045E+01  0.90894371391E+01  0.51100000000E-03 0. -1.
        -11    1    4    4    0    0 -0.23256138986E+02 -0.14005096509E+02  0.30132991332E+01  0.27314294805E+02  0.51100000000E-03 0.  1.
         12    1    4    4    0    0 -0.13573283262E+02  0.56774036719E+00 -0.38681651743E+01  0.14125121219E+02  0.00000000000E+00 0. -1.
</event>
<event>
 8    1  0.1021894E-011  0.9118800E+02  0.7816164E-02  0.1184000E+00
        -11   -1    0    0    0    0  0.00000000000E+00  0.00000000000E+00  0.45593999997E+02  0.45594000000E+02  0.51100000000E-03 0. -1.
         11   -1    0    0    0    0 -0.00000000000E+00 -0.00000000000E+00 -0.45593999997E+02  0.45594000000E+02  0.51100000000E-03 0.  1.
         23    2    1    2    0    0  0.35527136788E-14 -0.17763568394E-14  0.35527136788E-14  0.91188000000E+02  0.91188000000E+02 0.  0.
    9900012    2    3    3    0    0  0.22853638151E+02 -0.11252660670E+02  0.31689973400E+02  0.50528861262E+02  0.30000004292E+02 0.  0.
        -12    1    3    3    0    0 -0.22853638151E+02  0.11252660670E+02 -0.31689973400E+02  0.40659138738E+02  0.00000000000E+00 0.  1.
         11    1    4    4    0    0  0.20295681544E+01 -0.71910073634E+01  0.84049304398E+01  0.11246003279E+02  0.51100000000E-03 0. -1.
        -11    1    4    4    0    0  0.18552982392E+02 -0.25208053084E+01  0.31802615509E+01  0.18991621279E+02  0.51100000000E-03 0.  1.
        -12    1    4    4    0    0  0.22710876046E+01 -0.15408479978E+01  0.20104781409E+02  0.20291236704E+02  0.00000000000E+00 0.  1.
</event>
<event>
 8    1  0.1021894E-011  0.9118800E+02  0.7816164E-02  0.1184000E+00
        -11   -1    0    0    0    0  0.00000000000E+00  0.00000000000E+00  0.45593999997E+02  0.45594000000E+02  0.51100000000E-03 0. -1.
         11   -1    0    0    0    0 -0.00000000000E+00 -0.00000000000E+00 -0.45593999997E+02  0.45594000000E+02  0.51100000000E-03 0.  1.
         23    2    1    2    0    0 -0.17763568394E-14  0.00000000000E+00  0.17763568394E-14  0.91188000000E+02  0.91188000000E+02 0.  0.
    9900012    2    3    3    0    0  0.13235156858E+02  0.35569008134E+02 -0.14589133434E+02  0.50528849356E+02  0.29999968103E+02 0.  0.
         12    1    3    3    0    0 -0.13235156858E+02 -0.35569008134E+02  0.14589133434E+02  0.40659150644E+02  0.00000000000E+00 0. -1.
         11    1    4    4    0    0  0.22269041117E+01  0.37544444412E-01 -0.10982802707E+02  0.11206358332E+02  0.51100000000E-03 0. -1.
        -11    1    4    4    0    0  0.12713301635E+02  0.23633879741E+02 -0.47336133984E+01  0.27250603776E+02  0.51100000000E-03 0.  1.
         12    1    4    4    0    0 -0.17050488883E+01  0.11897583949E+02  0.11272826708E+01  0.12071887249E+02  0.00000000000E+00 0. -1.
</event>
<event>
 8    1  0.1021894E-011  0.9118800E+02  0.7816164E-02  0.1184000E+00
        -11   -1    0    0    0    0  0.00000000000E+00  0.00000000000E+00  0.45593999997E+02  0.45594000000E+02  0.51100000000E-03 0.  1.
         11   -1    0    0    0    0 -0.00000000000E+00 -0.00000000000E+00 -0.45593999997E+02  0.45594000000E+02  0.51100000000E-03 0. -1.
         23    2    1    2    0    0  0.35527136788E-14  0.00000000000E+00  0.00000000000E+00  0.91188000000E+02  0.91188000000E+02 0.  0.
    9900012    2    3    3    0    0  0.25723473594E+02 -0.28213302515E+02 -0.13981357469E+02  0.50528857250E+02  0.29999992096E+02 0.  0.
         12    1    3    3    0    0 -0.25723473594E+02  0.28213302515E+02  0.13981357469E+02  0.40659142750E+02  0.00000000000E+00 0. -1.
         11    1    4    4    0    0  0.89145678614E+01 -0.22150719005E+02 -0.16688717494E+02  0.29131377662E+02  0.51100000000E-03 0. -1.
        -11    1    4    4    0    0  0.91791595211E+01 -0.91056648599E+01  0.25685337383E+01  0.13182088904E+02  0.51100000000E-03 0.  1.
         12    1    4    4    0    0  0.76297462111E+01  0.30430813502E+01  0.13882628656E+00  0.82153906838E+01  0.00000000000E+00 0. -1.
</event>
<event>
 8    1  0.1021894E-011  0.9118800E+02  0.7816164E-02  0.1184000E+00
        -11   -1    0    0    0    0  0.00000000000E+00  0.00000000000E+00  0.45593999997E+02  0.45594000000E+02  0.51100000000E-03 0. -1.
         11   -1    0    0    0    0 -0.00000000000E+00 -0.00000000000E+00 -0.45593999997E+02  0.45594000000E+02  0.51100000000E-03 0.  1.
         23    2    1    2    0    0  0.00000000000E+00 -0.53290705182E-14  0.00000000000E+00  0.91188000000E+02  0.91188000000E+02 0.  0.
    9900012    2    3    3    0    0 -0.28479052894E+02 -0.11830985556E+02 -0.26497888259E+02  0.50528846601E+02  0.29999959727E+02 0.  0.
         12    1    3    3    0    0  0.28479052894E+02  0.11830985556E+02  0.26497888259E+02  0.40659153399E+02  0.00000000000E+00 0. -1.
         11    1    4    4    0    0 -0.15064080047E+02  0.69724632923E+01 -0.18752427368E+02  0.25043867203E+02  0.51100000000E-03 0. -1.
        -11    1    4    4    0    0 -0.19370213345E+01 -0.74991219317E+00 -0.28706299111E+01  0.35432945539E+01  0.51100000000E-03 0.  1.
         12    1    4    4    0    0 -0.11477951513E+02 -0.18053536656E+02 -0.48748309790E+01  0.21941684844E+02  0.00000000000E+00 0. -1.
</event>
<event>
 8    1  0.1021894E-011  0.9118800E+02  0.7816164E-02  0.1184000E+00
        -11   -1    0    0    0    0  0.00000000000E+00  0.00000000000E+00  0.45593999997E+02  0.45594000000E+02  0.51100000000E-03 0. -1.
         11   -1    0    0    0    0 -0.00000000000E+00 -0.00000000000E+00 -0.45593999997E+02  0.45594000000E+02  0.51100000000E-03 0.  1.
         23    2    1    2    0    0  0.35527136788E-14  0.71054273576E-14 -0.44408920985E-15  0.91188000000E+02  0.91188000000E+02 0.  0.
    9900012    2    3    3    0    0 -0.19469557004E+02 -0.35634456913E+02  0.20705152930E+01  0.50528865688E+02  0.30000017745E+02 0.  0.
        -12    1    3    3    0    0  0.19469557004E+02  0.35634456913E+02 -0.20705152930E+01  0.40659134312E+02  0.00000000000E+00 0.  1.
         11    1    4    4    0    0  0.43069575859E+01 -0.12057430807E+02 -0.92027073138E+00  0.12836604683E+02  0.51100000000E-03 0. -1.
        -11    1    4    4    0    0 -0.86598197892E+01  0.99446847629E+00  0.10131846673E+01  0.87754196346E+01  0.51100000000E-03 0.  1.
         12    1    4    4    0    0 -0.15116694800E+02 -0.24571494583E+02  0.19776013571E+01  0.28916841371E+02  0.00000000000E+00 0. -1.
</event>
<event>
 8    1  0.1021894E-011  0.9118800E+02  0.7816164E-02  0.1184000E+00
        -11   -1    0    0    0    0  0.00000000000E+00  0.00000000000E+00  0.45593999997E+02  0.45594000000E+02  0.51100000000E-03 0. -1.
         11   -1    0    0    0    0 -0.00000000000E+00 -0.00000000000E+00 -0.45593999997E+02  0.45594000000E+02  0.51100000000E-03 0.  1.
         23    2    1    2    0    0  0.00000000000E+00 -0.35527136788E-14  0.35527136788E-14  0.91188000000E+02  0.91188000000E+02 0.  0.
    9900012    2    3    3    0    0 -0.17236361242E+02 -0.29856877801E+02  0.21555525947E+02  0.50528855890E+02  0.29999987964E+02 0.  0.
        -12    1    3    3    0    0  0.17236361242E+02  0.29856877801E+02 -0.21555525947E+02  0.40659144110E+02  0.00000000000E+00 0.  1.
         11    1    4    4    0    0 -0.15803028199E+02 -0.23951214960E+02  0.14806469008E+02  0.32289749505E+02  0.51100000000E-03 0. -1.
        -11    1    4    4    0    0  0.59102685896E+01 -0.71860681463E+01  0.24003782252E+01  0.96089888172E+01  0.51100000000E-03 0.  1.
        -12    1    4    4    0    0 -0.73436016329E+01  0.12804053055E+01  0.43486787136E+01  0.86301175684E+01  0.00000000000E+00 0.  1.
</event>
<event>
 8    1  0.1021894E-011  0.9118800E+02  0.7816164E-02  0.1184000E+00
        -11   -1    0    0    0    0  0.00000000000E+00  0.00000000000E+00  0.45593999997E+02  0.45594000000E+02  0.51100000000E-03 0. -1.
         11   -1    0    0    0    0 -0.00000000000E+00 -0.00000000000E+00 -0.45593999997E+02  0.45594000000E+02  0.51100000000E-03 0.  1.
         23    2    1    2    0    0  0.00000000000E+00  0.17763568394E-14  0.00000000000E+00  0.91188000000E+02  0.91188000000E+02 0.  0.
    9900012    2    3    3    0    0 -0.13755223455E+01 -0.21025259165E+01  0.40581452900E+02  0.50528843633E+02  0.29999950708E+02 0.  0.
        -12    1    3    3    0    0  0.13755223455E+01  0.21025259165E+01 -0.40581452900E+02  0.40659156367E+02  0.00000000000E+00 0.  1.
         11    1    4    4    0    0 -0.22379743854E+01 -0.14207654351E+02  0.22743731804E+02  0.26909910965E+02  0.51100000000E-03 0. -1.
        -11    1    4    4    0    0 -0.10948416659E+01  0.18873956704E+00 -0.82926179203E+00  0.13863535907E+01  0.51100000000E-03 0.  1.
         12    1    4    4    0    0  0.19572937058E+01  0.11916388867E+02  0.18666982888E+02  0.22232579078E+02  0.00000000000E+00 0. -1.
</event>
<event>
 8    1  0.1021894E-011  0.9118800E+02  0.7816164E-02  0.1184000E+00
        -11   -1    0    0    0    0  0.00000000000E+00  0.00000000000E+00  0.45593999997E+02  0.45594000000E+02  0.51100000000E-03 0. -1.
         11   -1    0    0    0    0 -0.00000000000E+00 -0.00000000000E+00 -0.45593999997E+02  0.45594000000E+02  0.51100000000E-03 0.  1.
         23    2    1    2    0    0  0.00000000000E+00  0.35527136788E-14  0.35527136788E-14  0.91188000000E+02  0.91188000000E+02 0.  0.
    9900012    2    3    3    0    0  0.21703814941E+02  0.18816775589E+02  0.28775665883E+02  0.50528861131E+02  0.30000003893E+02 0.  0.
        -12    1    3    3    0    0 -0.21703814941E+02 -0.18816775589E+02 -0.28775665883E+02  0.40659138869E+02  0.00000000000E+00 0.  1.
         11    1    4    4    0    0  0.16068765690E+01 -0.40483634040E+01  0.17076104223E+02  0.17622844102E+02  0.51100000000E-03 0. -1.
        -11    1    4    4    0    0  0.89928917913E+01  0.13538550965E+02  0.63487555015E+01  0.17449102031E+02  0.51100000000E-03 0.  1.
         12    1    4    4    0    0  0.11104046581E+02  0.93265880273E+01  0.53508061591E+01  0.15456914998E+02  0.00000000000E+00 0. -1.
</event>
<event>
 8    1  0.1021894E-011  0.9118800E+02  0.7816164E-02  0.1184000E+00
        -11   -1    0    0    0    0  0.00000000000E+00  0.00000000000E+00  0.45593999997E+02  0.45594000000E+02  0.51100000000E-03 0. -1.
         11   -1    0    0    0    0 -0.00000000000E+00 -0.00000000000E+00 -0.45593999997E+02  0.45594000000E+02  0.51100000000E-03 0.  1.
         23    2    1    2    0    0 -0.44408920985E-15  0.71054273576E-14 -0.35527136788E-14  0.91188000000E+02  0.91188000000E+02 0.  0.
    9900012    2    3    3    0    0  0.23864744599E+01 -0.30993883138E+02  0.26207814010E+02  0.50528861205E+02  0.30000004120E+02 0.  0.
        -12    1    3    3    0    0 -0.23864744599E+01  0.30993883138E+02 -0.26207814010E+02  0.40659138795E+02  0.00000000000E+00 0.  1.
         11    1    4    4    0    0  0.15923710967E+01 -0.33316816302E+02  0.25324194887E+02  0.41879120587E+02  0.51100000000E-03 0. -1.
        -11    1    4    4    0    0  0.27137048913E+01 -0.58049519345E+00 -0.25440076002E+01  0.37647236071E+01  0.51100000000E-03 0.  1.
         12    1    4    4    0    0 -0.19196015280E+01  0.29034283568E+01  0.34276267229E+01  0.48850170114E+01  0.00000000000E+00 0. -1.
</event>
<event>
 8    1  0.1021894E-011  0.9118800E+02  0.7816164E-02  0.1184000E+00
        -11   -1    0    0    0    0  0.00000000000E+00  0.00000000000E+00  0.45593999997E+02  0.45594000000E+02  0.51100000000E-03 0.  1.
         11   -1    0    0    0    0 -0.00000000000E+00 -0.00000000000E+00 -0.45593999997E+02  0.45594000000E+02  0.51100000000E-03 0. -1.
         23    2    1    2    0    0 -0.35527136788E-14  0.00000000000E+00 -0.88817841970E-15  0.91188000000E+02  0.91188000000E+02 0.  0.
    9900012    2    3    3    0    0  0.30029161333E+02 -0.26745004392E+02  0.60101016321E+01  0.50528842213E+02  0.29999946391E+02 0.  0.
        -12    1    3    3    0    0 -0.30029161333E+02  0.26745004392E+02 -0.60101016321E+01  0.40659157787E+02  0.00000000000E+00 0.  1.
         11    1    4    4    0    0  0.27359732045E+02 -0.28674835202E+02 -0.90743242017E+00  0.39643720124E+02  0.51100000000E-03 0. -1.
        -11    1    4    4    0    0  0.20888528838E+01  0.48664370262E+01  0.35298706849E+01  0.63643933735E+01  0.51100000000E-03 0.  1.
         12    1    4    4    0    0  0.58057640491E+00 -0.29366062162E+01  0.33876633674E+01  0.45207287158E+01  0.00000000000E+00 0. -1.
</event>
<event>
 8    1  0.1021894E-011  0.9118800E+02  0.7816164E-02  0.1184000E+00
        -11   -1    0    0    0    0  0.00000000000E+00  0.00000000000E+00  0.45593999997E+02  0.45594000000E+02  0.51100000000E-03 0. -1.
         11   -1    0    0    0    0 -0.00000000000E+00 -0.00000000000E+00 -0.45593999997E+02  0.45594000000E+02  0.51100000000E-03 0.  1.
         23    2    1    2    0    0  0.35527136788E-14  0.00000000000E+00 -0.17763568394E-14  0.91188000000E+02  0.91188000000E+02 0.  0.
    9900012    2    3    3    0    0 -0.27533854188E+02  0.29784073327E+02  0.28220463001E+01  0.50528830115E+02  0.29999909618E+02 0.  0.
        -12    1    3    3    0    0  0.27533854188E+02 -0.29784073327E+02 -0.28220463001E+01  0.40659169885E+02  0.00000000000E+00 0.  1.
         11    1    4    4    0    0 -0.29842995888E+02  0.28864316099E+02  0.89083771540E+01  0.42463070205E+02  0.51100000000E-03 0. -1.
        -11    1    4    4    0    0 -0.11772610136E-01 -0.89735078623E+00 -0.47417759829E+01  0.48259524201E+01  0.51100000000E-03 0.  1.
         12    1    4    4    0    0  0.23209143102E+01  0.18171080143E+01 -0.13445548711E+01  0.32398074900E+01  0.00000000000E+00 0. -1.
</event>
<event>
 8    1  0.1021894E-011  0.9118800E+02  0.7816164E-02  0.1184000E+00
        -11   -1    0    0    0    0  0.00000000000E+00  0.00000000000E+00  0.45593999997E+02  0.45594000000E+02  0.51100000000E-03 0. -1.
         11   -1    0    0    0    0 -0.00000000000E+00 -0.00000000000E+00 -0.45593999997E+02  0.45594000000E+02  0.51100000000E-03 0.  1.
         23    2    1    2    0    0  0.35527136788E-14  0.17763568394E-14  0.71054273576E-14  0.91188000000E+02  0.91188000000E+02 0.  0.
    9900012    2    3    3    0    0  0.14672941483E+02  0.10976176685E+02  0.36295927793E+02  0.50528855386E+02  0.29999986431E+02 0.  0.
        -12    1    3    3    0    0 -0.14672941483E+02 -0.10976176685E+02 -0.36295927793E+02  0.40659144614E+02  0.00000000000E+00 0.  1.
         11    1    4    4    0    0  0.18565130599E+02  0.12822956617E+02  0.17921505313E+02  0.28814451991E+02  0.51100000000E-03 0.  1.
        -11    1    4    4    0    0 -0.30456258084E+01  0.42963395344E+01  0.70052594119E+01  0.87640190352E+01  0.51100000000E-03 0. -1.
         12    1    4    4    0    0 -0.84656330785E+00 -0.61431194661E+01  0.11369163068E+02  0.12950384360E+02  0.00000000000E+00 0. -1.
</event>
<event>
 8    1  0.1021894E-011  0.9118800E+02  0.7816164E-02  0.1184000E+00
        -11   -1    0    0    0    0  0.00000000000E+00  0.00000000000E+00  0.45593999997E+02  0.45594000000E+02  0.51100000000E-03 0.  1.
         11   -1    0    0    0    0 -0.00000000000E+00 -0.00000000000E+00 -0.45593999997E+02  0.45594000000E+02  0.51100000000E-03 0. -1.
         23    2    1    2    0    0  0.71054273576E-14 -0.17763568394E-14  0.17763568394E-14  0.91188000000E+02  0.91188000000E+02 0.  0.
    9900012    2    3    3    0    0  0.36394628624E+02 -0.14771444798E+02 -0.10507176863E+02  0.50528864007E+02  0.30000012635E+02 0.  0.
         12    1    3    3    0    0 -0.36394628624E+02  0.14771444798E+02  0.10507176863E+02  0.40659135993E+02  0.00000000000E+00 0. -1.
         11    1    4    4    0    0  0.14335581424E+02 -0.75844439769E+00  0.78579726233E+01  0.16365569550E+02  0.51100000000E-03 0. -1.
        -11    1    4    4    0    0  0.19688634846E+02 -0.10846818709E+02 -0.94011510889E+01  0.24365497332E+02  0.51100000000E-03 0.  1.
         12    1    4    4    0    0  0.23704123539E+01 -0.31661816909E+01 -0.89639983977E+01  0.97977971250E+01  0.00000000000E+00 0. -1.
</event>
<event>
 8    1  0.1021894E-011  0.9118800E+02  0.7816164E-02  0.1184000E+00
        -11   -1    0    0    0    0  0.00000000000E+00  0.00000000000E+00  0.45593999997E+02  0.45594000000E+02  0.51100000000E-03 0. -1.
         11   -1    0    0    0    0 -0.00000000000E+00 -0.00000000000E+00 -0.45593999997E+02  0.45594000000E+02  0.51100000000E-03 0.  1.
         23    2    1    2    0    0  0.35527136788E-14  0.17763568394E-14  0.71054273576E-14  0.91188000000E+02  0.91188000000E+02 0.  0.
    9900012    2    3    3    0    0  0.25866893735E+02  0.10069089198E+02  0.29709961612E+02  0.50528873500E+02  0.30000041490E+02 0.  0.
        -12    1    3    3    0    0 -0.25866893735E+02 -0.10069089198E+02 -0.29709961612E+02  0.40659126500E+02  0.00000000000E+00 0.  1.
         11    1    4    4    0    0  0.61387254810E+01  0.13005410259E+02  0.91171285648E+01  0.17027820766E+02  0.51100000000E-03 0. -1.
        -11    1    4    4    0    0  0.14605077116E+02 -0.83137772020E+01  0.19892237701E+02  0.26040896489E+02  0.51100000000E-03 0.  1.
         12    1    4    4    0    0  0.51230911375E+01  0.53774561413E+01  0.70059534679E+00  0.74601562447E+01  0.00000000000E+00 0. -1.
</event>
<event>
 8    1  0.1021894E-011  0.9118800E+02  0.7816164E-02  0.1184000E+00
        -11   -1    0    0    0    0  0.00000000000E+00  0.00000000000E+00  0.45593999997E+02  0.45594000000E+02  0.51100000000E-03 0. -1.
         11   -1    0    0    0    0 -0.00000000000E+00 -0.00000000000E+00 -0.45593999997E+02  0.45594000000E+02  0.51100000000E-03 0.  1.
         23    2    1    2    0    0  0.00000000000E+00  0.44408920985E-15  0.00000000000E+00  0.91188000000E+02  0.91188000000E+02 0.  0.
    9900012    2    3    3    0    0  0.30551290892E+02 -0.32959962704E+00  0.26826795860E+02  0.50528843747E+02  0.29999951053E+02 0.  0.
        -12    1    3    3    0    0 -0.30551290892E+02  0.32959962704E+00 -0.26826795860E+02  0.40659156253E+02  0.00000000000E+00 0.  1.
         11    1    4    4    0    0  0.31148842219E+02  0.21353360439E+01  0.11054421074E+02  0.33121145167E+02  0.51100000000E-03 0. -1.
        -11    1    4    4    0    0 -0.67235038309E+00 -0.48378573426E+01  0.91402364171E+01  0.10363437689E+02  0.51100000000E-03 0.  1.
         12    1    4    4    0    0  0.74799055690E-01  0.23729216717E+01  0.66321383693E+01  0.70442608916E+01  0.00000000000E+00 0. -1.
</event>
<event>
 8    1  0.1021894E-011  0.9118800E+02  0.7816164E-02  0.1184000E+00
        -11   -1    0    0    0    0  0.00000000000E+00  0.00000000000E+00  0.45593999997E+02  0.45594000000E+02  0.51100000000E-03 0. -1.
         11   -1    0    0    0    0 -0.00000000000E+00 -0.00000000000E+00 -0.45593999997E+02  0.45594000000E+02  0.51100000000E-03 0.  1.
         23    2    1    2    0    0  0.00000000000E+00  0.00000000000E+00 -0.35527136788E-14  0.91188000000E+02  0.91188000000E+02 0.  0.
    9900012    2    3    3    0    0  0.31979922835E+02 -0.18469791409E+02  0.17009314019E+02  0.50528862988E+02  0.30000009538E+02 0.  0.
        -12    1    3    3    0    0 -0.31979922835E+02  0.18469791409E+02 -0.17009314019E+02  0.40659137012E+02  0.00000000000E+00 0.  1.
         11    1    4    4    0    0  0.74619330067E+01 -0.53610716127E+01  0.19553076381E+02  0.21604266459E+02  0.51100000000E-03 0. -1.
        -11    1    4    4    0    0  0.37046709627E+01 -0.46329147789E+01 -0.25367761859E+01  0.64516447492E+01  0.51100000000E-03 0.  1.
         12    1    4    4    0    0  0.20813318865E+02 -0.84758050172E+01 -0.69861758780E-02  0.22472951779E+02  0.00000000000E+00 0. -1.
</event>
<event>
 8    1  0.1021894E-011  0.9118800E+02  0.7816164E-02  0.1184000E+00
        -11   -1    0    0    0    0  0.00000000000E+00  0.00000000000E+00  0.45593999997E+02  0.45594000000E+02  0.51100000000E-03 0. -1.
         11   -1    0    0    0    0 -0.00000000000E+00 -0.00000000000E+00 -0.45593999997E+02  0.45594000000E+02  0.51100000000E-03 0.  1.
         23    2    1    2    0    0 -0.17763568394E-14  0.00000000000E+00  0.71054273576E-14  0.91188000000E+02  0.91188000000E+02 0.  0.
    9900012    2    3    3    0    0  0.88603404692E+01  0.16748224625E+02 -0.35974397888E+02  0.50528856320E+02  0.29999989271E+02 0.  0.
         12    1    3    3    0    0 -0.88603404692E+01 -0.16748224625E+02  0.35974397888E+02  0.40659143680E+02  0.00000000000E+00 0. -1.
         11    1    4    4    0    0  0.95154448881E+01  0.17818888359E+02 -0.90664473276E+01  0.22141746570E+02  0.51100000000E-03 0. -1.
        -11    1    4    4    0    0  0.22726445782E+01 -0.13644937991E+01 -0.24333319456E+02  0.24477279112E+02  0.51100000000E-03 0.  1.
         12    1    4    4    0    0 -0.29277489971E+01  0.29383006565E+00 -0.25746311049E+01  0.39098306388E+01  0.00000000000E+00 0. -1.
</event>
<event>
 8    1  0.1021894E-011  0.9118800E+02  0.7816164E-02  0.1184000E+00
        -11   -1    0    0    0    0  0.00000000000E+00  0.00000000000E+00  0.45593999997E+02  0.45594000000E+02  0.51100000000E-03 0. -1.
         11   -1    0    0    0    0 -0.00000000000E+00 -0.00000000000E+00 -0.45593999997E+02  0.45594000000E+02  0.51100000000E-03 0.  1.
         23    2    1    2    0    0  0.00000000000E+00  0.00000000000E+00  0.00000000000E+00  0.91188000000E+02  0.91188000000E+02 0.  0.
    9900012    2    3    3    0    0 -0.13885266471E+02  0.11553958318E+02 -0.36426248531E+02  0.50528853922E+02  0.29999981980E+02 0.  0.
         12    1    3    3    0    0  0.13885266471E+02 -0.11553958318E+02  0.36426248531E+02  0.40659146078E+02  0.00000000000E+00 0. -1.
         11    1    4    4    0    0  0.60164489535E+01 -0.15647664544E+01 -0.68482935227E+01  0.92490689532E+01  0.51100000000E-03 0. -1.
        -11    1    4    4    0    0 -0.85497198891E+01  0.75545777226E+01 -0.25598571779E+02  0.28025992081E+02  0.51100000000E-03 0.  1.
        -12    1    4    4    0    0 -0.11351995535E+02  0.55641470496E+01 -0.39793832300E+01  0.13253792888E+02  0.00000000000E+00 0.  1.
</event>
<event>
 8    1  0.1021894E-011  0.9118800E+02  0.7816164E-02  0.1184000E+00
        -11   -1    0    0    0    0  0.00000000000E+00  0.00000000000E+00  0.45593999997E+02  0.45594000000E+02  0.51100000000E-03 0. -1.
         11   -1    0    0    0    0 -0.00000000000E+00 -0.00000000000E+00 -0.45593999997E+02  0.45594000000E+02  0.51100000000E-03 0.  1.
         23    2    1    2    0    0  0.00000000000E+00  0.00000000000E+00  0.00000000000E+00  0.91188000000E+02  0.91188000000E+02 0.  0.
    9900012    2    3    3    0    0 -0.22356690481E+02  0.16126544611E+02 -0.29887770663E+02  0.50528857294E+02  0.29999992232E+02 0.  0.
         12    1    3    3    0    0  0.22356690481E+02 -0.16126544611E+02  0.29887770663E+02  0.40659142706E+02  0.00000000000E+00 0. -1.
         11    1    4    4    0    0 -0.13065982719E+02  0.71830701108E+00 -0.25908088273E+02  0.29025246038E+02  0.51100000000E-03 0.  1.
        -11    1    4    4    0    0 -0.69519654316E+01  0.23910193986E+01  0.89988650204E+00  0.74065236855E+01  0.51100000000E-03 0. -1.
         12    1    4    4    0    0 -0.23387423304E+01  0.13017218201E+02 -0.48795688926E+01  0.14097087570E+02  0.00000000000E+00 0. -1.
</event>
<event>
 8    1  0.1021894E-011  0.9118800E+02  0.7816164E-02  0.1184000E+00
        -11   -1    0    0    0    0  0.00000000000E+00  0.00000000000E+00  0.45593999997E+02  0.45594000000E+02  0.51100000000E-03 0. -1.
         11   -1    0    0    0    0 -0.00000000000E+00 -0.00000000000E+00 -0.45593999997E+02  0.45594000000E+02  0.51100000000E-03 0.  1.
         23    2    1    2    0    0  0.53290705182E-14 -0.22204460493E-15  0.00000000000E+00  0.91188000000E+02  0.91188000000E+02 0.  0.
    9900012    2    3    3    0    0  0.14199525014E+02 -0.35626126023E+00  0.38097396057E+02  0.50528867951E+02  0.30000024622E+02 0.  0.
        -12    1    3    3    0    0 -0.14199525014E+02  0.35626126023E+00 -0.38097396057E+02  0.40659132049E+02  0.00000000000E+00 0.  1.
         11    1    4    4    0    0 -0.60176187576E+01  0.86924244837E+01  0.13283588659E+02  0.16977152495E+02  0.51100000000E-03 0. -1.
        -11    1    4    4    0    0  0.14593840918E+02 -0.59320988682E+01  0.20303137586E+02  0.25698003538E+02  0.51100000000E-03 0.  1.
         12    1    4    4    0    0  0.56233028534E+01 -0.31165868758E+01  0.45106698114E+01  0.78537119174E+01  0.00000000000E+00 0. -1.
</event>
<event>
 8    1  0.1021894E-011  0.9118800E+02  0.7816164E-02  0.1184000E+00
        -11   -1    0    0    0    0  0.00000000000E+00  0.00000000000E+00  0.45593999997E+02  0.45594000000E+02  0.51100000000E-03 0. -1.
         11   -1    0    0    0    0 -0.00000000000E+00 -0.00000000000E+00 -0.45593999997E+02  0.45594000000E+02  0.51100000000E-03 0.  1.
         23    2    1    2    0    0  0.17763568394E-14  0.00000000000E+00  0.00000000000E+00  0.91188000000E+02  0.91188000000E+02 0.  0.
    9900012    2    3    3    0    0  0.13911447862E+02 -0.24312312680E+02 -0.29471126976E+02  0.50528877349E+02  0.30000053191E+02 0.  0.
         12    1    3    3    0    0 -0.13911447862E+02  0.24312312680E+02  0.29471126976E+02  0.40659122651E+02  0.00000000000E+00 0. -1.
         11    1    4    4    0    0  0.13291926735E+02 -0.16625385039E+02 -0.11983656888E+02  0.24427172916E+02  0.51100000000E-03 0. -1.
        -11    1    4    4    0    0 -0.59826519710E+01 -0.97652547910E+01 -0.14713185640E+02  0.18644842656E+02  0.51100000000E-03 0.  1.
         12    1    4    4    0    0  0.66021730980E+01  0.20783271501E+01 -0.27742844489E+01  0.74568617770E+01  0.00000000000E+00 0. -1.
</event>
<event>
 8    1  0.1021894E-011  0.9118800E+02  0.7816164E-02  0.1184000E+00
        -11   -1    0    0    0    0  0.00000000000E+00  0.00000000000E+00  0.45593999997E+02  0.45594000000E+02  0.51100000000E-03 0.  1.
         11   -1    0    0    0    0 -0.00000000000E+00 -0.00000000000E+00 -0.45593999997E+02  0.45594000000E+02  0.51100000000E-03 0. -1.
         23    2    1    2    0    0  0.35527136788E-14 -0.71054273576E-14  0.00000000000E+00  0.91188000000E+02  0.91188000000E+02 0.  0.
    9900012    2    3    3    0    0  0.21489963565E+02  0.33825196760E+02  0.68704769369E+01  0.50528856832E+02  0.29999990825E+02 0.  0.
        -12    1    3    3    0    0 -0.21489963565E+02 -0.33825196760E+02 -0.68704769369E+01  0.40659143168E+02  0.00000000000E+00 0.  1.
         11    1    4    4    0    0  0.98754357374E+01  0.38774219484E+01 -0.35760707969E+01  0.11195843629E+02  0.51100000000E-03 0. -1.
        -11    1    4    4    0    0 -0.41483722270E+01  0.15274566168E+02  0.11280677385E+01  0.15868015025E+02  0.51100000000E-03 0.  1.
        -12    1    4    4    0    0  0.15762900055E+02  0.14673208643E+02  0.93184799954E+01  0.23464998177E+02  0.00000000000E+00 0.  1.
</event>
<event>
 8    1  0.1021894E-011  0.9118800E+02  0.7816164E-02  0.1184000E+00
        -11   -1    0    0    0    0  0.00000000000E+00  0.00000000000E+00  0.45593999997E+02  0.45594000000E+02  0.51100000000E-03 0. -1.
         11   -1    0    0    0    0 -0.00000000000E+00 -0.00000000000E+00 -0.45593999997E+02  0.45594000000E+02  0.51100000000E-03 0.  1.
         23    2    1    2    0    0 -0.33306690739E-15 -0.71054273576E-14  0.00000000000E+00  0.91188000000E+02  0.91188000000E+02 0.  0.
    9900012    2    3    3    0    0  0.41719508031E+00 -0.33367965917E+02  0.23228658508E+02  0.50528858627E+02  0.29999996282E+02 0.  0.
        -12    1    3    3    0    0 -0.41719508031E+00  0.33367965917E+02 -0.23228658508E+02  0.40659141373E+02  0.00000000000E+00 0.  1.
         11    1    4    4    0    0  0.32942674696E+01 -0.20277519177E+02  0.16099967385E+02  0.26100554250E+02  0.51100000000E-03 0. -1.
        -11    1    4    4    0    0 -0.57372559671E+01  0.22322625885E+01  0.63157673893E+01  0.88197517127E+01  0.51100000000E-03 0.  1.
        -12    1    4    4    0    0  0.28601835778E+01 -0.15322709328E+02  0.81292373364E+00  0.15608552664E+02  0.00000000000E+00 0.  1.
</event>
<event>
 8    1  0.1021894E-011  0.9118800E+02  0.7816164E-02  0.1184000E+00
        -11   -1    0    0    0    0  0.00000000000E+00  0.00000000000E+00  0.45593999997E+02  0.45594000000E+02  0.51100000000E-03 0. -1.
         11   -1    0    0    0    0 -0.00000000000E+00 -0.00000000000E+00 -0.45593999997E+02  0.45594000000E+02  0.51100000000E-03 0.  1.
         23    2    1    2    0    0  0.88817841970E-15  0.00000000000E+00 -0.71054273576E-14  0.91188000000E+02  0.91188000000E+02 0.  0.
    9900012    2    3    3    0    0  0.36449867295E+01  0.16449102501E+02  0.37004121870E+02  0.50528881260E+02  0.30000065079E+02 0.  0.
        -12    1    3    3    0    0 -0.36449867295E+01 -0.16449102501E+02 -0.37004121870E+02  0.40659118740E+02  0.00000000000E+00 0.  1.
         11    1    4    4    0    0  0.71337732869E+01  0.21735222032E+02  0.22573987412E+02  0.32138691728E+02  0.51100000000E-03 0. -1.
        -11    1    4    4    0    0  0.19905500080E+00 -0.71756254873E+01  0.10159756928E+02  0.12439850687E+02  0.51100000000E-03 0.  1.
        -12    1    4    4    0    0 -0.36878415582E+01  0.18895059567E+01  0.42703775303E+01  0.59503388450E+01  0.00000000000E+00 0.  1.
</event>
<event>
 8    1  0.1021894E-011  0.9118800E+02  0.7816164E-02  0.1184000E+00
        -11   -1    0    0    0    0  0.00000000000E+00  0.00000000000E+00  0.45593999997E+02  0.45594000000E+02  0.51100000000E-03 0. -1.
         11   -1    0    0    0    0 -0.00000000000E+00 -0.00000000000E+00 -0.45593999997E+02  0.45594000000E+02  0.51100000000E-03 0.  1.
         23    2    1    2    0    0  0.00000000000E+00  0.00000000000E+00  0.00000000000E+00  0.91188000000E+02  0.91188000000E+02 0.  0.
    9900012    2    3    3    0    0  0.83845798524E+01 -0.11959269253E+02  0.37945103017E+02  0.50528977098E+02  0.30000356386E+02 0.  0.
        -12    1    3    3    0    0 -0.83845798524E+01  0.11959269253E+02 -0.37945103017E+02  0.40659022902E+02  0.00000000000E+00 0.  1.
         11    1    4    4    0    0  0.15057630169E+02 -0.16529417544E+02  0.33326284125E+02  0.40132220029E+02  0.51100000000E-03 0. -1.
        -11    1    4    4    0    0 -0.31042446200E+01  0.23542998276E+01  0.48120996654E+01  0.61915560072E+01  0.51100000000E-03 0.  1.
         12    1    4    4    0    0 -0.35688056968E+01  0.22158484636E+01 -0.19328077331E+00  0.42052010620E+01  0.00000000000E+00 0. -1.
</event>
<event>
 8    1  0.1021894E-011  0.9118800E+02  0.7816164E-02  0.1184000E+00
        -11   -1    0    0    0    0  0.00000000000E+00  0.00000000000E+00  0.45593999997E+02  0.45594000000E+02  0.51100000000E-03 0.  1.
         11   -1    0    0    0    0 -0.00000000000E+00 -0.00000000000E+00 -0.45593999997E+02  0.45594000000E+02  0.51100000000E-03 0. -1.
         23    2    1    2    0    0 -0.35527136788E-14  0.00000000000E+00  0.00000000000E+00  0.91188000000E+02  0.91188000000E+02 0.  0.
    9900012    2    3    3    0    0 -0.31466233957E+02  0.79408845678E+01  0.24494581280E+02  0.50528855405E+02  0.29999986489E+02 0.  0.
        -12    1    3    3    0    0  0.31466233957E+02 -0.79408845678E+01 -0.24494581280E+02  0.40659144595E+02  0.00000000000E+00 0.  1.
         11    1    4    4    0    0 -0.23944186630E+02  0.63052868766E+01  0.20131080074E+01  0.24842168184E+02  0.51100000000E-03 0. -1.
        -11    1    4    4    0    0  0.65001225589E+00 -0.28596901080E+01  0.73266469917E+01  0.78917741889E+01  0.51100000000E-03 0.  1.
         12    1    4    4    0    0 -0.81720595824E+01  0.44952877992E+01  0.15154826281E+02  0.17794913032E+02  0.00000000000E+00 0. -1.
</event>
<event>
 8    1  0.1021894E-011  0.9118800E+02  0.7816164E-02  0.1184000E+00
        -11   -1    0    0    0    0  0.00000000000E+00  0.00000000000E+00  0.45593999997E+02  0.45594000000E+02  0.51100000000E-03 0. -1.
         11   -1    0    0    0    0 -0.00000000000E+00 -0.00000000000E+00 -0.45593999997E+02  0.45594000000E+02  0.51100000000E-03 0.  1.
         23    2    1    2    0    0  0.00000000000E+00  0.00000000000E+00  0.00000000000E+00  0.91188000000E+02  0.91188000000E+02 0.  0.
    9900012    2    3    3    0    0  0.71735124056E+00 -0.14370398334E+02 -0.38028183418E+02  0.50528859882E+02  0.30000000098E+02 0.  0.
         12    1    3    3    0    0 -0.71735124056E+00  0.14370398334E+02  0.38028183418E+02  0.40659140118E+02  0.00000000000E+00 0. -1.
         11    1    4    4    0    0 -0.16450647385E+01  0.10056066035E-01 -0.37854531845E+00  0.16880864722E+01  0.51100000000E-03 0. -1.
        -11    1    4    4    0    0  0.87978652480E+01  0.41727053567E+01 -0.55420707634E+01  0.11203948033E+02  0.51100000000E-03 0.  1.
        -12    1    4    4    0    0 -0.64354492690E+01 -0.18553159757E+02 -0.32107567336E+02  0.37636825377E+02  0.00000000000E+00 0.  1.
</event>
<event>
 8    1  0.1021894E-011  0.9118800E+02  0.7816164E-02  0.1184000E+00
        -11   -1    0    0    0    0  0.00000000000E+00  0.00000000000E+00  0.45593999997E+02  0.45594000000E+02  0.51100000000E-03 0. -1.
         11   -1    0    0    0    0 -0.00000000000E+00 -0.00000000000E+00 -0.45593999997E+02  0.45594000000E+02  0.51100000000E-03 0.  1.
         23    2    1    2    0    0  0.00000000000E+00  0.71054273576E-14  0.17763568394E-14  0.91188000000E+02  0.91188000000E+02 0.  0.
    9900012    2    3    3    0    0 -0.66505202146E+01  0.37654395105E+02  0.13823271325E+02  0.50528859331E+02  0.29999998421E+02 0.  0.
        -12    1    3    3    0    0  0.66505202146E+01 -0.37654395105E+02 -0.13823271325E+02  0.40659140669E+02  0.00000000000E+00 0.  1.
         11    1    4    4    0    0 -0.16797091710E+01  0.21549252796E+02  0.98388161582E+01  0.23748558327E+02  0.51100000000E-03 0. -1.
        -11    1    4    4    0    0 -0.56085222281E+01  0.59916987569E+01 -0.77416430147E+01  0.11282243235E+02  0.51100000000E-03 0.  1.
        -12    1    4    4    0    0  0.63771118444E+00  0.10113443552E+02  0.11726098182E+02  0.15498057769E+02  0.00000000000E+00 0.  1.
</event>
<event>
 8    1  0.1021894E-011  0.9118800E+02  0.7816164E-02  0.1184000E+00
        -11   -1    0    0    0    0  0.00000000000E+00  0.00000000000E+00  0.45593999997E+02  0.45594000000E+02  0.51100000000E-03 0. -1.
         11   -1    0    0    0    0 -0.00000000000E+00 -0.00000000000E+00 -0.45593999997E+02  0.45594000000E+02  0.51100000000E-03 0.  1.
         23    2    1    2    0    0  0.00000000000E+00  0.00000000000E+00  0.00000000000E+00  0.91188000000E+02  0.91188000000E+02 0.  0.
    9900012    2    3    3    0    0 -0.17148304672E+02  0.24266983613E+02 -0.27752741701E+02  0.50528861805E+02  0.30000005944E+02 0.  0.
         12    1    3    3    0    0  0.17148304672E+02 -0.24266983613E+02  0.27752741701E+02  0.40659138195E+02  0.00000000000E+00 0. -1.
         11    1    4    4    0    0 -0.23276099965E+02  0.18524325746E+02 -0.11656279407E+02  0.31949903346E+02  0.51100000000E-03 0. -1.
        -11    1    4    4    0    0  0.19991978760E+01  0.42827111566E+01 -0.65619168939E+01  0.80868510918E+01  0.51100000000E-03 0.  1.
         12    1    4    4    0    0  0.41285974167E+01  0.14599467101E+01 -0.95345454003E+01  0.10492107368E+02  0.00000000000E+00 0. -1.
</event>
<event>
 8    1  0.1021894E-011  0.9118800E+02  0.7816164E-02  0.1184000E+00
        -11   -1    0    0    0    0  0.00000000000E+00  0.00000000000E+00  0.45593999997E+02  0.45594000000E+02  0.51100000000E-03 0. -1.
         11   -1    0    0    0    0 -0.00000000000E+00 -0.00000000000E+00 -0.45593999997E+02  0.45594000000E+02  0.51100000000E-03 0.  1.
         23    2    1    2    0    0  0.00000000000E+00  0.00000000000E+00  0.00000000000E+00  0.91188000000E+02  0.91188000000E+02 0.  0.
    9900012    2    3    3    0    0  0.20887432582E+02 -0.32102637345E+02 -0.13649267429E+02  0.50528847701E+02  0.29999963071E+02 0.  0.
         12    1    3    3    0    0 -0.20887432582E+02  0.32102637345E+02  0.13649267429E+02  0.40659152299E+02  0.00000000000E+00 0. -1.
         11    1    4    4    0    0  0.92472701649E+01 -0.32673496242E+01 -0.69620379206E+01  0.12027366767E+02  0.51100000000E-03 0. -1.
        -11    1    4    4    0    0 -0.15805903027E+01 -0.20019633019E+02 -0.97419374178E+01  0.22320154947E+02  0.51100000000E-03 0.  1.
        -12    1    4    4    0    0  0.13220752720E+02 -0.88156547008E+01  0.30547079093E+01  0.16181325987E+02  0.00000000000E+00 0.  1.
</event>
<event>
 8    1  0.1788320E-011  0.9118800E+02  0.7816164E-02  0.1184000E+00
        -11   -1    0    0    0    0  0.00000000000E+00  0.00000000000E+00  0.45593999997E+02  0.45594000000E+02  0.51100000000E-03 0. -1.
         11   -1    0    0    0    0 -0.00000000000E+00 -0.00000000000E+00 -0.45593999997E+02  0.45594000000E+02  0.51100000000E-03 0.  1.
         23    2    1    2    0    0 -0.88817841970E-15  0.00000000000E+00  0.00000000000E+00  0.91188000000E+02  0.91188000000E+02 0.  0.
    9900012    2    3    3    0    0  0.69362616092E+01 -0.11372661694E+02 -0.38415052820E+02  0.50528862745E+02  0.30000008800E+02 0.  0.
         12    1    3    3    0    0 -0.69362616092E+01  0.11372661694E+02  0.38415052820E+02  0.40659137255E+02  0.00000000000E+00 0. -1.
         11    1    4    4    0    0  0.10272831381E+02 -0.33515220870E+01 -0.39881390945E+01  0.11518203792E+02  0.51100000000E-03 0. -1.
        -11    1    4    4    0    0  0.41705133521E+01 -0.66336891782E+01 -0.27858937735E+02  0.28939927881E+02  0.51100000000E-03 0.  1.
         12    1    4    4    0    0 -0.75070831243E+01 -0.13874504288E+01 -0.65679759904E+01  0.10070731073E+02  0.00000000000E+00 0. -1.
</event>
<event>
 8    1  0.1021894E-011  0.9118800E+02  0.7816164E-02  0.1184000E+00
        -11   -1    0    0    0    0  0.00000000000E+00  0.00000000000E+00  0.45593999997E+02  0.45594000000E+02  0.51100000000E-03 0. -1.
         11   -1    0    0    0    0 -0.00000000000E+00 -0.00000000000E+00 -0.45593999997E+02  0.45594000000E+02  0.51100000000E-03 0.  1.
         23    2    1    2    0    0  0.00000000000E+00  0.00000000000E+00  0.00000000000E+00  0.91188000000E+02  0.91188000000E+02 0.  0.
    9900012    2    3    3    0    0  0.23651910772E+02 -0.18812904967E+02  0.27199771917E+02  0.50528857501E+02  0.29999992860E+02 0.  0.
        -12    1    3    3    0    0 -0.23651910772E+02  0.18812904967E+02 -0.27199771917E+02  0.40659142499E+02  0.00000000000E+00 0.  1.
         11    1    4    4    0    0  0.14067368562E+02 -0.20986904039E+02  0.23405751920E+02  0.34440822037E+02  0.51100000000E-03 0. -1.
        -11    1    4    4    0    0 -0.75982705142E+00 -0.26000412415E+01 -0.19416759078E+01  0.33328152060E+01  0.51100000000E-03 0.  1.
         12    1    4    4    0    0  0.10344369261E+02  0.47740403138E+01  0.57356959048E+01  0.12755220258E+02  0.00000000000E+00 0. -1.
</event>
<event>
 8    1  0.1021894E-011  0.9118800E+02  0.7816164E-02  0.1184000E+00
        -11   -1    0    0    0    0  0.00000000000E+00  0.00000000000E+00  0.45593999997E+02  0.45594000000E+02  0.51100000000E-03 0. -1.
         11   -1    0    0    0    0 -0.00000000000E+00 -0.00000000000E+00 -0.45593999997E+02  0.45594000000E+02  0.51100000000E-03 0.  1.
         23    2    1    2    0    0 -0.44408920985E-15 -0.17763568394E-14  0.00000000000E+00  0.91188000000E+02  0.91188000000E+02 0.  0.
    9900012    2    3    3    0    0  0.30780567597E+01 -0.14583236360E+02  0.37828829882E+02  0.50528860974E+02  0.30000003415E+02 0.  0.
        -12    1    3    3    0    0 -0.30780567597E+01  0.14583236360E+02 -0.37828829882E+02  0.40659139026E+02  0.00000000000E+00 0.  1.
         11    1    4    4    0    0 -0.69057835108E+01  0.12966776020E+01  0.85560336007E+00  0.70783667658E+01  0.51100000000E-03 0. -1.
        -11    1    4    4    0    0  0.82479112539E+01 -0.10323921407E+02  0.12139728051E+02  0.17943923503E+02  0.51100000000E-03 0.  1.
         12    1    4    4    0    0  0.17359290165E+01 -0.55559925550E+01  0.24833498471E+02  0.25506570705E+02  0.00000000000E+00 0. -1.
</event>
<event>
 8    1  0.1021894E-011  0.9118800E+02  0.7816164E-02  0.1184000E+00
        -11   -1    0    0    0    0  0.00000000000E+00  0.00000000000E+00  0.45593999997E+02  0.45594000000E+02  0.51100000000E-03 0. -1.
         11   -1    0    0    0    0 -0.00000000000E+00 -0.00000000000E+00 -0.45593999997E+02  0.45594000000E+02  0.51100000000E-03 0.  1.
         23    2    1    2    0    0 -0.44408920985E-15  0.35527136788E-14 -0.35527136788E-14  0.91188000000E+02  0.91188000000E+02 0.  0.
    9900012    2    3    3    0    0 -0.21673834857E+01 -0.29558145362E+02  0.27834906353E+02  0.50528886383E+02  0.30000080651E+02 0.  0.
        -12    1    3    3    0    0  0.21673834857E+01  0.29558145362E+02 -0.27834906353E+02  0.40659113617E+02  0.00000000000E+00 0.  1.
         11    1    4    4    0    0 -0.73288317954E+01  0.72719672951E+00  0.48878839649E+01  0.88392307631E+01  0.51100000000E-03 0. -1.
        -11    1    4    4    0    0  0.96710167185E+01 -0.11208036776E+02  0.13028005491E+02  0.19719979211E+02  0.51100000000E-03 0.  1.
         12    1    4    4    0    0 -0.45095684087E+01 -0.19077305315E+02  0.99190168966E+01  0.21969676409E+02  0.00000000000E+00 0. -1.
</event>
<event>
 8    1  0.1021894E-011  0.9118800E+02  0.7816164E-02  0.1184000E+00
        -11   -1    0    0    0    0  0.00000000000E+00  0.00000000000E+00  0.45593999997E+02  0.45594000000E+02  0.51100000000E-03 0. -1.
         11   -1    0    0    0    0 -0.00000000000E+00 -0.00000000000E+00 -0.45593999997E+02  0.45594000000E+02  0.51100000000E-03 0.  1.
         23    2    1    2    0    0  0.00000000000E+00  0.00000000000E+00  0.00000000000E+00  0.91188000000E+02  0.91188000000E+02 0.  0.
    9900012    2    3    3    0    0  0.22153883761E+02 -0.19281019763E+02 -0.28117865692E+02  0.50528847772E+02  0.29999963288E+02 0.  0.
         12    1    3    3    0    0 -0.22153883761E+02  0.19281019763E+02  0.28117865692E+02  0.40659152228E+02  0.00000000000E+00 0. -1.
         11    1    4    4    0    0  0.78083956584E+01 -0.14062847225E+02 -0.22319117455E+01  0.16239339431E+02  0.51100000000E-03 0. -1.
        -11    1    4    4    0    0  0.14943056990E+02 -0.91496072112E+00 -0.25933673980E+02  0.29944741637E+02  0.51100000000E-03 0.  1.
        -12    1    4    4    0    0 -0.59756888726E+00 -0.43032118165E+01  0.47720033464E-01  0.43447667042E+01  0.00000000000E+00 0.  1.
</event>
<event>
 8    1  0.1021894E-011  0.9118800E+02  0.7816164E-02  0.1184000E+00
        -11   -1    0    0    0    0  0.00000000000E+00  0.00000000000E+00  0.45593999997E+02  0.45594000000E+02  0.51100000000E-03 0. -1.
         11   -1    0    0    0    0 -0.00000000000E+00 -0.00000000000E+00 -0.45593999997E+02  0.45594000000E+02  0.51100000000E-03 0.  1.
         23    2    1    2    0    0  0.17763568394E-14  0.00000000000E+00  0.00000000000E+00  0.91188000000E+02  0.91188000000E+02 0.  0.
    9900012    2    3    3    0    0 -0.90560266091E+01 -0.21886329059E+02  0.33047570455E+02  0.50528869038E+02  0.30000027927E+02 0.  0.
        -12    1    3    3    0    0  0.90560266091E+01  0.21886329059E+02 -0.33047570455E+02  0.40659130962E+02  0.00000000000E+00 0.  1.
         11    1    4    4    0    0 -0.29018042732E+01 -0.20424538514E+02  0.24572106277E+02  0.32083806643E+02  0.51100000000E-03 0. -1.
        -11    1    4    4    0    0  0.34370870862E+01  0.36712229082E+01  0.70915429807E+00  0.50788133810E+01  0.51100000000E-03 0.  1.
        -12    1    4    4    0    0 -0.95913094221E+01 -0.51330134528E+01  0.77663098800E+01  0.13366249013E+02  0.00000000000E+00 0.  1.
</event>
<event>
 8    1  0.1021894E-011  0.9118800E+02  0.7816164E-02  0.1184000E+00
        -11   -1    0    0    0    0  0.00000000000E+00  0.00000000000E+00  0.45593999997E+02  0.45594000000E+02  0.51100000000E-03 0. -1.
         11   -1    0    0    0    0 -0.00000000000E+00 -0.00000000000E+00 -0.45593999997E+02  0.45594000000E+02  0.51100000000E-03 0.  1.
         23    2    1    2    0    0  0.00000000000E+00 -0.35527136788E-14  0.00000000000E+00  0.91188000000E+02  0.91188000000E+02 0.  0.
    9900012    2    3    3    0    0 -0.77578928945E+01 -0.16497247980E+02 -0.36343107169E+02  0.50528861645E+02  0.30000005455E+02 0.  0.
         12    1    3    3    0    0  0.77578928945E+01  0.16497247980E+02  0.36343107169E+02  0.40659138355E+02  0.00000000000E+00 0. -1.
         11    1    4    4    0    0 -0.27178544441E+01  0.36051867470E+01  0.76239918130E+00  0.45787942771E+01  0.51100000000E-03 0. -1.
        -11    1    4    4    0    0  0.23059240627E+01 -0.12772801062E+02 -0.84858325514E+01  0.15507130202E+02  0.51100000000E-03 0.  1.
        -12    1    4    4    0    0 -0.73459625132E+01 -0.73296336655E+01 -0.28619673799E+02  0.30442937166E+02  0.00000000000E+00 0.  1.
</event>
<event>
 8    1  0.1021894E-011  0.9118800E+02  0.7816164E-02  0.1184000E+00
        -11   -1    0    0    0    0  0.00000000000E+00  0.00000000000E+00  0.45593999997E+02  0.45594000000E+02  0.51100000000E-03 0. -1.
         11   -1    0    0    0    0 -0.00000000000E+00 -0.00000000000E+00 -0.45593999997E+02  0.45594000000E+02  0.51100000000E-03 0.  1.
         23    2    1    2    0    0  0.00000000000E+00  0.00000000000E+00  0.35527136788E-14  0.91188000000E+02  0.91188000000E+02 0.  0.
    9900012    2    3    3    0    0 -0.19369482595E+02  0.16589246342E+02  0.31666799538E+02  0.50528854126E+02  0.29999982602E+02 0.  0.
        -12    1    3    3    0    0  0.19369482595E+02 -0.16589246342E+02 -0.31666799538E+02  0.40659145874E+02  0.00000000000E+00 0.  1.
         11    1    4    4    0    0 -0.14956756451E+02  0.16262800135E+02  0.18222017810E+02  0.28639573410E+02  0.51100000000E-03 0. -1.
        -11    1    4    4    0    0 -0.85031897289E+01 -0.51081875400E+01  0.51970699610E+01  0.11198542403E+02  0.51100000000E-03 0.  1.
        -12    1    4    4    0    0  0.40904635846E+01  0.54346337469E+01  0.82477117667E+01  0.10690738313E+02  0.00000000000E+00 0.  1.
</event>
<event>
 8    1  0.1021894E-011  0.9118800E+02  0.7816164E-02  0.1184000E+00
        -11   -1    0    0    0    0  0.00000000000E+00  0.00000000000E+00  0.45593999997E+02  0.45594000000E+02  0.51100000000E-03 0. -1.
         11   -1    0    0    0    0 -0.00000000000E+00 -0.00000000000E+00 -0.45593999997E+02  0.45594000000E+02  0.51100000000E-03 0.  1.
         23    2    1    2    0    0 -0.88817841970E-15  0.00000000000E+00  0.00000000000E+00  0.91188000000E+02  0.91188000000E+02 0.  0.
    9900012    2    3    3    0    0 -0.64442444356E+01  0.16939264500E+02  0.36396409063E+02  0.50528861288E+02  0.30000004370E+02 0.  0.
        -12    1    3    3    0    0  0.64442444356E+01 -0.16939264500E+02 -0.36396409063E+02  0.40659138712E+02  0.00000000000E+00 0.  1.
         11    1    4    4    0    0 -0.88217237927E+01  0.10189286278E+02  0.15622264805E+02  0.20632487088E+02  0.51100000000E-03 0. -1.
        -11    1    4    4    0    0  0.41843953672E+00 -0.32152370485E+01 -0.27640794802E+01  0.42606310047E+01  0.51100000000E-03 0.  1.
        -12    1    4    4    0    0  0.19590398203E+01  0.99652152700E+01  0.23538223739E+02  0.25635743195E+02  0.00000000000E+00 0.  1.
</event>
<event>
 8    1  0.1021894E-011  0.9118800E+02  0.7816164E-02  0.1184000E+00
        -11   -1    0    0    0    0  0.00000000000E+00  0.00000000000E+00  0.45593999997E+02  0.45594000000E+02  0.51100000000E-03 0. -1.
         11   -1    0    0    0    0 -0.00000000000E+00 -0.00000000000E+00 -0.45593999997E+02  0.45594000000E+02  0.51100000000E-03 0.  1.
         23    2    1    2    0    0  0.17763568394E-14  0.11102230246E-15 -0.71054273576E-14  0.91188000000E+02  0.91188000000E+02 0.  0.
    9900012    2    3    3    0    0  0.68948680762E+01  0.58351264810E+00 -0.40066019270E+02  0.50528860893E+02  0.30000003169E+02 0.  0.
         12    1    3    3    0    0 -0.68948680762E+01 -0.58351264810E+00  0.40066019270E+02  0.40659139107E+02  0.00000000000E+00 0. -1.
         11    1    4    4    0    0 -0.68571750326E+01  0.37887904189E+01 -0.15472240977E+02  0.17342607168E+02  0.51100000000E-03 0. -1.
        -11    1    4    4    0    0  0.14712357524E+02 -0.50030153839E-01 -0.89987008606E+01  0.17246233918E+02  0.51100000000E-03 0.  1.
         12    1    4    4    0    0 -0.96031441486E+00 -0.31552476170E+01 -0.15595077432E+02  0.15940019806E+02  0.00000000000E+00 0. -1.
</event>
<event>
 8    1  0.1021894E-011  0.9118800E+02  0.7816164E-02  0.1184000E+00
        -11   -1    0    0    0    0  0.00000000000E+00  0.00000000000E+00  0.45593999997E+02  0.45594000000E+02  0.51100000000E-03 0. -1.
         11   -1    0    0    0    0 -0.00000000000E+00 -0.00000000000E+00 -0.45593999997E+02  0.45594000000E+02  0.51100000000E-03 0.  1.
         23    2    1    2    0    0  0.00000000000E+00  0.17763568394E-14  0.71054273576E-14  0.91188000000E+02  0.91188000000E+02 0.  0.
    9900012    2    3    3    0    0 -0.30657400514E+01 -0.12764824727E+02 -0.38481513799E+02  0.50528850763E+02  0.29999972380E+02 0.  0.
         12    1    3    3    0    0  0.30657400514E+01  0.12764824727E+02  0.38481513799E+02  0.40659149237E+02  0.00000000000E+00 0. -1.
         11    1    4    4    0    0 -0.17982868704E+01 -0.24827555663E+01  0.90284559670E+00  0.31957849275E+01  0.51100000000E-03 0. -1.
        -11    1    4    4    0    0  0.38583533155E+01  0.23967125265E+01 -0.30915637801E+02  0.31247524416E+02  0.51100000000E-03 0.  1.
        -12    1    4    4    0    0 -0.51258064965E+01 -0.12678781687E+02 -0.84687215949E+01  0.16085541420E+02  0.00000000000E+00 0.  1.
</event>
<event>
 8    1  0.1021894E-011  0.9118800E+02  0.7816164E-02  0.1184000E+00
        -11   -1    0    0    0    0  0.00000000000E+00  0.00000000000E+00  0.45593999997E+02  0.45594000000E+02  0.51100000000E-03 0. -1.
         11   -1    0    0    0    0 -0.00000000000E+00 -0.00000000000E+00 -0.45593999997E+02  0.45594000000E+02  0.51100000000E-03 0.  1.
         23    2    1    2    0    0  0.00000000000E+00  0.00000000000E+00  0.00000000000E+00  0.91188000000E+02  0.91188000000E+02 0.  0.
    9900012    2    3    3    0    0  0.33275648244E+02  0.52206805260E+01  0.22773707822E+02  0.50528855405E+02  0.29999986489E+02 0.  0.
        -12    1    3    3    0    0 -0.33275648244E+02 -0.52206805260E+01 -0.22773707822E+02  0.40659144595E+02  0.00000000000E+00 0.  1.
         11    1    4    4    0    0  0.13785516492E+02 -0.11191258197E+01 -0.31432850458E+01  0.14183552048E+02  0.51100000000E-03 0. -1.
        -11    1    4    4    0    0  0.16516184770E+02  0.11014344591E+02  0.21465862334E+02  0.29238389014E+02  0.51100000000E-03 0.  1.
         12    1    4    4    0    0  0.29739469824E+01 -0.46745382450E+01  0.44511305333E+01  0.71069143432E+01  0.00000000000E+00 0. -1.
</event>
<event>
 8    1  0.1021894E-011  0.9118800E+02  0.7816164E-02  0.1184000E+00
        -11   -1    0    0    0    0  0.00000000000E+00  0.00000000000E+00  0.45593999997E+02  0.45594000000E+02  0.51100000000E-03 0. -1.
         11   -1    0    0    0    0 -0.00000000000E+00 -0.00000000000E+00 -0.45593999997E+02  0.45594000000E+02  0.51100000000E-03 0.  1.
         23    2    1    2    0    0  0.00000000000E+00  0.17763568394E-14  0.35527136788E-14  0.91188000000E+02  0.91188000000E+02 0.  0.
    9900012    2    3    3    0    0 -0.22115186893E+02 -0.13855554813E+02 -0.31178651366E+02  0.50528853532E+02  0.29999980796E+02 0.  0.
         12    1    3    3    0    0  0.22115186893E+02  0.13855554813E+02  0.31178651366E+02  0.40659146468E+02  0.00000000000E+00 0. -1.
         11    1    4    4    0    0 -0.38229797125E+01  0.64907897269E+01 -0.17335633704E+01  0.77298620545E+01  0.51100000000E-03 0. -1.
        -11    1    4    4    0    0 -0.16720838496E+02 -0.22420390180E+02 -0.24373780189E+02  0.37099076765E+02  0.51100000000E-03 0.  1.
        -12    1    4    4    0    0 -0.15713686851E+01  0.20740456402E+01 -0.50713078063E+01  0.56999147124E+01  0.00000000000E+00 0.  1.
</event>
<event>
 8    1  0.1021894E-011  0.9118800E+02  0.7816164E-02  0.1184000E+00
        -11   -1    0    0    0    0  0.00000000000E+00  0.00000000000E+00  0.45593999997E+02  0.45594000000E+02  0.51100000000E-03 0. -1.
         11   -1    0    0    0    0 -0.00000000000E+00 -0.00000000000E+00 -0.45593999997E+02  0.45594000000E+02  0.51100000000E-03 0.  1.
         23    2    1    2    0    0 -0.35527136788E-14  0.17763568394E-14  0.00000000000E+00  0.91188000000E+02  0.91188000000E+02 0.  0.
    9900012    2    3    3    0    0  0.10052042615E+02  0.94910302981E+01 -0.38236664377E+02  0.50528859336E+02  0.29999998439E+02 0.  0.
         12    1    3    3    0    0 -0.10052042615E+02 -0.94910302981E+01  0.38236664377E+02  0.40659140664E+02  0.00000000000E+00 0. -1.
         11    1    4    4    0    0  0.18120783030E+01  0.17711043268E+02 -0.21460539941E+02  0.27884035867E+02  0.51100000000E-03 0. -1.
        -11    1    4    4    0    0  0.87624773238E+01 -0.50007138372E+01 -0.68450386050E+01  0.12191911314E+02  0.51100000000E-03 0.  1.
         12    1    4    4    0    0 -0.52251301228E+00 -0.32192991323E+01 -0.99310858303E+01  0.10452912155E+02  0.00000000000E+00 0. -1.
</event>
<event>
 8    1  0.1021894E-011  0.9118800E+02  0.7816164E-02  0.1184000E+00
        -11   -1    0    0    0    0  0.00000000000E+00  0.00000000000E+00  0.45593999997E+02  0.45594000000E+02  0.51100000000E-03 0. -1.
         11   -1    0    0    0    0 -0.00000000000E+00 -0.00000000000E+00 -0.45593999997E+02  0.45594000000E+02  0.51100000000E-03 0.  1.
         23    2    1    2    0    0  0.35527136788E-14  0.35527136788E-14  0.35527136788E-14  0.91188000000E+02  0.91188000000E+02 0.  0.
    9900012    2    3    3    0    0  0.26282065905E+02  0.19687487642E+02  0.23975433377E+02  0.50528861255E+02  0.30000004270E+02 0.  0.
        -12    1    3    3    0    0 -0.26282065905E+02 -0.19687487642E+02 -0.23975433377E+02  0.40659138745E+02  0.00000000000E+00 0.  1.
         11    1    4    4    0    0  0.13045343532E+02  0.19743667629E+02  0.13402289101E+01  0.23702101449E+02  0.51100000000E-03 0. -1.
        -11    1    4    4    0    0  0.10065238838E+02  0.15341124018E+01  0.12701715213E+02  0.16278700910E+02  0.51100000000E-03 0.  1.
         12    1    4    4    0    0  0.31714835346E+01 -0.15902923883E+01  0.99334892545E+01  0.10548058895E+02  0.00000000000E+00 0. -1.
</event>
<event>
 8    1  0.1021894E-011  0.9118800E+02  0.7816164E-02  0.1184000E+00
        -11   -1    0    0    0    0  0.00000000000E+00  0.00000000000E+00  0.45593999997E+02  0.45594000000E+02  0.51100000000E-03 0. -1.
         11   -1    0    0    0    0 -0.00000000000E+00 -0.00000000000E+00 -0.45593999997E+02  0.45594000000E+02  0.51100000000E-03 0.  1.
         23    2    1    2    0    0 -0.71054273576E-14  0.00000000000E+00  0.00000000000E+00  0.91188000000E+02  0.91188000000E+02 0.  0.
    9900012    2    3    3    0    0 -0.29363833366E+02 -0.25493730671E+02 -0.11874215403E+02  0.50528905016E+02  0.30000137287E+02 0.  0.
         12    1    3    3    0    0  0.29363833366E+02  0.25493730671E+02  0.11874215403E+02  0.40659094984E+02  0.00000000000E+00 0. -1.
         11    1    4    4    0    0 -0.10222147807E+00 -0.67215809157E-01 -0.58606563534E+01  0.58619331581E+01  0.51100000000E-03 0. -1.
        -11    1    4    4    0    0 -0.30482401282E+02 -0.15721804657E+02 -0.29849785584E+01  0.34427634639E+02  0.51100000000E-03 0.  1.
        -12    1    4    4    0    0  0.12207893937E+01 -0.97047102047E+01 -0.30285804907E+01  0.10239337219E+02  0.00000000000E+00 0.  1.
</event>
<event>
 8    1  0.1021894E-011  0.9118800E+02  0.7816164E-02  0.1184000E+00
        -11   -1    0    0    0    0  0.00000000000E+00  0.00000000000E+00  0.45593999997E+02  0.45594000000E+02  0.51100000000E-03 0. -1.
         11   -1    0    0    0    0 -0.00000000000E+00 -0.00000000000E+00 -0.45593999997E+02  0.45594000000E+02  0.51100000000E-03 0.  1.
         23    2    1    2    0    0  0.00000000000E+00  0.00000000000E+00  0.00000000000E+00  0.91188000000E+02  0.91188000000E+02 0.  0.
    9900012    2    3    3    0    0  0.34106604131E+02  0.71946033386E+01  0.20931868818E+02  0.50528857181E+02  0.29999991889E+02 0.  0.
        -12    1    3    3    0    0 -0.34106604131E+02 -0.71946033386E+01 -0.20931868818E+02  0.40659142819E+02  0.00000000000E+00 0.  1.
         11    1    4    4    0    0  0.16581954622E+02  0.17302205545E+02  0.61028899029E+01  0.24729998003E+02  0.51100000000E-03 0. -1.
        -11    1    4    4    0    0  0.76036284520E+01 -0.63016611991E+01  0.40828428097E+01  0.10686239057E+02  0.51100000000E-03 0.  1.
         12    1    4    4    0    0  0.99210210562E+01 -0.38059410069E+01  0.10746136105E+02  0.15112620122E+02  0.00000000000E+00 0. -1.
</event>
<event>
 8    1  0.1021894E-011  0.9118800E+02  0.7816164E-02  0.1184000E+00
        -11   -1    0    0    0    0  0.00000000000E+00  0.00000000000E+00  0.45593999997E+02  0.45594000000E+02  0.51100000000E-03 0. -1.
         11   -1    0    0    0    0 -0.00000000000E+00 -0.00000000000E+00 -0.45593999997E+02  0.45594000000E+02  0.51100000000E-03 0.  1.
         23    2    1    2    0    0  0.00000000000E+00  0.00000000000E+00  0.00000000000E+00  0.91188000000E+02  0.91188000000E+02 0.  0.
    9900012    2    3    3    0    0 -0.65609718422E+01 -0.31960658698E+02 -0.24261812095E+02  0.50528861026E+02  0.30000003576E+02 0.  0.
         12    1    3    3    0    0  0.65609718422E+01  0.31960658698E+02  0.24261812095E+02  0.40659138974E+02  0.00000000000E+00 0. -1.
         11    1    4    4    0    0 -0.68317252360E+01 -0.23919321521E+02 -0.18707865975E+00  0.24876523279E+02  0.51100000000E-03 0. -1.
        -11    1    4    4    0    0 -0.14680613172E+01 -0.43129858461E+01 -0.10005000231E+02  0.10993501754E+02  0.51100000000E-03 0.  1.
         12    1    4    4    0    0  0.17388147109E+01 -0.37283513306E+01 -0.14069733204E+02  0.14658835994E+02  0.00000000000E+00 0. -1.
</event>
<event>
 8    1  0.1021894E-011  0.9118800E+02  0.7816164E-02  0.1184000E+00
        -11   -1    0    0    0    0  0.00000000000E+00  0.00000000000E+00  0.45593999997E+02  0.45594000000E+02  0.51100000000E-03 0.  1.
         11   -1    0    0    0    0 -0.00000000000E+00 -0.00000000000E+00 -0.45593999997E+02  0.45594000000E+02  0.51100000000E-03 0. -1.
         23    2    1    2    0    0  0.00000000000E+00  0.00000000000E+00 -0.66613381478E-15  0.91188000000E+02  0.91188000000E+02 0.  0.
    9900012    2    3    3    0    0 -0.35305354543E+02  0.20147171030E+02 -0.88839125058E+00  0.50528858360E+02  0.29999995471E+02 0.  0.
         12    1    3    3    0    0  0.35305354543E+02 -0.20147171030E+02  0.88839125058E+00  0.40659141640E+02  0.00000000000E+00 0. -1.
         11    1    4    4    0    0 -0.11166385088E+02 -0.53638688222E+01 -0.52071534854E+01  0.13437771108E+02  0.51100000000E-03 0. -1.
        -11    1    4    4    0    0 -0.18184022237E+02  0.12795293760E+02  0.57816397674E+01  0.22974019365E+02  0.51100000000E-03 0.  1.
        -12    1    4    4    0    0 -0.59549472173E+01  0.12715746092E+02 -0.14628775326E+01  0.14117067887E+02  0.00000000000E+00 0.  1.
</event>
<event>
 8    1  0.1021894E-011  0.9118800E+02  0.7816164E-02  0.1184000E+00
        -11   -1    0    0    0    0  0.00000000000E+00  0.00000000000E+00  0.45593999997E+02  0.45594000000E+02  0.51100000000E-03 0. -1.
         11   -1    0    0    0    0 -0.00000000000E+00 -0.00000000000E+00 -0.45593999997E+02  0.45594000000E+02  0.51100000000E-03 0.  1.
         23    2    1    2    0    0  0.00000000000E+00  0.00000000000E+00  0.00000000000E+00  0.91188000000E+02  0.91188000000E+02 0.  0.
    9900012    2    3    3    0    0 -0.35932550054E+02 -0.14481153433E+02 -0.12341641034E+02  0.50528830535E+02  0.29999910895E+02 0.  0.
         12    1    3    3    0    0  0.35932550054E+02  0.14481153433E+02  0.12341641034E+02  0.40659169465E+02  0.00000000000E+00 0. -1.
         11    1    4    4    0    0 -0.30700041347E+01 -0.11397061760E+02 -0.54870635403E+00  0.11816049301E+02  0.51100000000E-03 0. -1.
        -11    1    4    4    0    0 -0.30289853821E+02 -0.25314463080E+01 -0.15537230250E+02  0.34136329460E+02  0.51100000000E-03 0.  1.
        -12    1    4    4    0    0 -0.25726920986E+01 -0.55264536484E+00  0.37442955699E+01  0.45764517749E+01  0.00000000000E+00 0.  1.
</event>
<event>
 8    1  0.1021894E-011  0.9118800E+02  0.7816164E-02  0.1184000E+00
        -11   -1    0    0    0    0  0.00000000000E+00  0.00000000000E+00  0.45593999997E+02  0.45594000000E+02  0.51100000000E-03 0.  1.
         11   -1    0    0    0    0 -0.00000000000E+00 -0.00000000000E+00 -0.45593999997E+02  0.45594000000E+02  0.51100000000E-03 0. -1.
         23    2    1    2    0    0  0.71054273576E-14 -0.88817841970E-15  0.00000000000E+00  0.91188000000E+02  0.91188000000E+02 0.  0.
    9900012    2    3    3    0    0  0.37947755556E+02 -0.49444709647E+01  0.13736180298E+02  0.50528897771E+02  0.30000115265E+02 0.  0.
        -12    1    3    3    0    0 -0.37947755556E+02  0.49444709647E+01 -0.13736180298E+02  0.40659102229E+02  0.00000000000E+00 0.  1.
         11    1    4    4    0    0  0.10949579556E+01 -0.63235573647E+01 -0.35760823666E+01  0.73467459479E+01  0.51100000000E-03 0. -1.
        -11    1    4    4    0    0  0.35342111604E+02 -0.78317479892E+00  0.18917617135E+02  0.40094319470E+02  0.51100000000E-03 0.  1.
        -12    1    4    4    0    0  0.15106859961E+01  0.21622611989E+01 -0.16053544698E+01  0.30878323537E+01  0.00000000000E+00 0.  1.
</event>
<event>
 8    1  0.1021894E-011  0.9118800E+02  0.7816164E-02  0.1184000E+00
        -11   -1    0    0    0    0  0.00000000000E+00  0.00000000000E+00  0.45593999997E+02  0.45594000000E+02  0.51100000000E-03 0. -1.
         11   -1    0    0    0    0 -0.00000000000E+00 -0.00000000000E+00 -0.45593999997E+02  0.45594000000E+02  0.51100000000E-03 0.  1.
         23    2    1    2    0    0  0.00000000000E+00  0.00000000000E+00 -0.71054273576E-14  0.91188000000E+02  0.91188000000E+02 0.  0.
    9900012    2    3    3    0    0  0.21903616731E+02 -0.20719761589E+02  0.27277949585E+02  0.50528886879E+02  0.30000082157E+02 0.  0.
        -12    1    3    3    0    0 -0.21903616731E+02  0.20719761589E+02 -0.27277949585E+02  0.40659113121E+02  0.00000000000E+00 0.  1.
         11    1    4    4    0    0  0.17311821367E+02  0.75897810081E+00  0.29614042136E+01  0.17579679234E+02  0.51100000000E-03 0. -1.
        -11    1    4    4    0    0 -0.32137014408E+00 -0.56541990238E+01  0.60530361741E+01  0.82892998833E+01  0.51100000000E-03 0.  1.
         12    1    4    4    0    0  0.49131655085E+01 -0.15824540666E+02  0.18263509197E+02  0.24659907762E+02  0.00000000000E+00 0. -1.
</event>
<event>
 8    1  0.1021894E-011  0.9118800E+02  0.7816164E-02  0.1184000E+00
        -11   -1    0    0    0    0  0.00000000000E+00  0.00000000000E+00  0.45593999997E+02  0.45594000000E+02  0.51100000000E-03 0. -1.
         11   -1    0    0    0    0 -0.00000000000E+00 -0.00000000000E+00 -0.45593999997E+02  0.45594000000E+02  0.51100000000E-03 0.  1.
         23    2    1    2    0    0  0.17763568394E-14  0.00000000000E+00  0.00000000000E+00  0.91188000000E+02  0.91188000000E+02 0.  0.
    9900012    2    3    3    0    0  0.56864811178E+01  0.12899508931E+02  0.38137021960E+02  0.50528857829E+02  0.29999993856E+02 0.  0.
        -12    1    3    3    0    0 -0.56864811178E+01 -0.12899508931E+02 -0.38137021960E+02  0.40659142171E+02  0.00000000000E+00 0.  1.
         11    1    4    4    0    0  0.13409009946E+02  0.70689350335E+01  0.57362316116E+01  0.16207274404E+02  0.51100000000E-03 0.  1.
        -11    1    4    4    0    0 -0.49912773149E+01  0.56332114543E+00  0.19245448302E+02  0.19890134755E+02  0.51100000000E-03 0. -1.
        -12    1    4    4    0    0 -0.27312515128E+01  0.52672527523E+01  0.13155342046E+02  0.14431448670E+02  0.00000000000E+00 0.  1.
</event>
<event>
 8    1  0.1021894E-011  0.9118800E+02  0.7816164E-02  0.1184000E+00
        -11   -1    0    0    0    0  0.00000000000E+00  0.00000000000E+00  0.45593999997E+02  0.45594000000E+02  0.51100000000E-03 0. -1.
         11   -1    0    0    0    0 -0.00000000000E+00 -0.00000000000E+00 -0.45593999997E+02  0.45594000000E+02  0.51100000000E-03 0.  1.
         23    2    1    2    0    0  0.00000000000E+00 -0.44408920985E-15  0.00000000000E+00  0.91188000000E+02  0.91188000000E+02 0.  0.
    9900012    2    3    3    0    0 -0.20349196875E+02  0.33192312018E+01  0.35043681893E+02  0.50528846666E+02  0.29999959926E+02 0.  0.
        -12    1    3    3    0    0  0.20349196875E+02 -0.33192312018E+01 -0.35043681893E+02  0.40659153334E+02  0.00000000000E+00 0.  1.
         11    1    4    4    0    0 -0.24572277006E+02  0.70180664814E+01  0.26339087216E+02  0.36698740715E+02  0.51100000000E-03 0. -1.
        -11    1    4    4    0    0  0.30254369481E+01 -0.62916713869E+01  0.33102507600E+01  0.77263288775E+01  0.51100000000E-03 0.  1.
         12    1    4    4    0    0  0.11976431827E+01  0.25928361074E+01  0.53943439169E+01  0.61037770738E+01  0.00000000000E+00 0. -1.
</event>
<event>
 8    1  0.1021894E-011  0.9118800E+02  0.7816164E-02  0.1184000E+00
        -11   -1    0    0    0    0  0.00000000000E+00  0.00000000000E+00  0.45593999997E+02  0.45594000000E+02  0.51100000000E-03 0. -1.
         11   -1    0    0    0    0 -0.00000000000E+00 -0.00000000000E+00 -0.45593999997E+02  0.45594000000E+02  0.51100000000E-03 0.  1.
         23    2    1    2    0    0  0.00000000000E+00  0.00000000000E+00  0.88817841970E-15  0.91188000000E+02  0.91188000000E+02 0.  0.
    9900012    2    3    3    0    0 -0.26251651457E+01 -0.40178615359E+02 -0.56529092341E+01  0.50528831206E+02  0.29999912932E+02 0.  0.
         12    1    3    3    0    0  0.26251651457E+01  0.40178615359E+02  0.56529092341E+01  0.40659168794E+02  0.00000000000E+00 0. -1.
         11    1    4    4    0    0  0.29842086051E+01 -0.10297609906E+02  0.40424127080E+01  0.11458070149E+02  0.51100000000E-03 0. -1.
        -11    1    4    4    0    0 -0.11642633942E+02 -0.27072178416E+02 -0.29856535550E+01  0.29620396633E+02  0.51100000000E-03 0.  1.
        -12    1    4    4    0    0  0.60332601916E+01 -0.28088270371E+01 -0.67096683870E+01  0.94503644230E+01  0.00000000000E+00 0.  1.
</event>
<event>
 8    1  0.1021894E-011  0.9118800E+02  0.7816164E-02  0.1184000E+00
        -11   -1    0    0    0    0  0.00000000000E+00  0.00000000000E+00  0.45593999997E+02  0.45594000000E+02  0.51100000000E-03 0.  1.
         11   -1    0    0    0    0 -0.00000000000E+00 -0.00000000000E+00 -0.45593999997E+02  0.45594000000E+02  0.51100000000E-03 0. -1.
         23    2    1    2    0    0 -0.71054273576E-14  0.66613381478E-15  0.00000000000E+00  0.91188000000E+02  0.91188000000E+02 0.  0.
    9900012    2    3    3    0    0  0.40547358811E+02  0.18388065258E+01  0.23865631925E+01  0.50528865727E+02  0.30000017863E+02 0.  0.
        -12    1    3    3    0    0 -0.40547358811E+02 -0.18388065258E+01 -0.23865631925E+01  0.40659134273E+02  0.00000000000E+00 0.  1.
         11    1    4    4    0    0  0.27756632608E+02  0.71497358796E+01 -0.11215408620E+01  0.28684616627E+02  0.51100000000E-03 0. -1.
        -11    1    4    4    0    0  0.85053809961E+01 -0.11269893240E+02  0.33086097620E+01  0.14501686052E+02  0.51100000000E-03 0.  1.
        -12    1    4    4    0    0  0.42853452071E+01  0.59589638863E+01  0.19949429255E+00  0.73425630481E+01  0.00000000000E+00 0.  1.
</event>
<event>
 8    1  0.1021894E-011  0.9118800E+02  0.7816164E-02  0.1184000E+00
        -11   -1    0    0    0    0  0.00000000000E+00  0.00000000000E+00  0.45593999997E+02  0.45594000000E+02  0.51100000000E-03 0. -1.
         11   -1    0    0    0    0 -0.00000000000E+00 -0.00000000000E+00 -0.45593999997E+02  0.45594000000E+02  0.51100000000E-03 0.  1.
         23    2    1    2    0    0  0.88817841970E-15 -0.17763568394E-14 -0.71054273576E-14  0.91188000000E+02  0.91188000000E+02 0.  0.
    9900012    2    3    3    0    0 -0.77996293064E+01  0.99162738489E+01  0.38652280989E+02  0.50528861667E+02  0.30000005523E+02 0.  0.
        -12    1    3    3    0    0  0.77996293064E+01 -0.99162738489E+01 -0.38652280989E+02  0.40659138333E+02  0.00000000000E+00 0.  1.
         11    1    4    4    0    0 -0.96402697215E-01 -0.14444595186E+01  0.16303199112E+02  0.16367347321E+02  0.51100000000E-03 0. -1.
        -11    1    4    4    0    0 -0.67901666920E+01 -0.12455497495E+01 -0.15958172215E+01  0.70855056806E+01  0.51100000000E-03 0.  1.
        -12    1    4    4    0    0 -0.91305991717E+00  0.12606283117E+02  0.23944899098E+02  0.27076008666E+02  0.00000000000E+00 0.  1.
</event>
<event>
 8    1  0.1021894E-011  0.9118800E+02  0.7816164E-02  0.1184000E+00
        -11   -1    0    0    0    0  0.00000000000E+00  0.00000000000E+00  0.45593999997E+02  0.45594000000E+02  0.51100000000E-03 0. -1.
         11   -1    0    0    0    0 -0.00000000000E+00 -0.00000000000E+00 -0.45593999997E+02  0.45594000000E+02  0.51100000000E-03 0.  1.
         23    2    1    2    0    0 -0.35527136788E-14  0.00000000000E+00  0.35527136788E-14  0.91188000000E+02  0.91188000000E+02 0.  0.
    9900012    2    3    3    0    0  0.28601556759E+02  0.67621290610E+01 -0.28096066058E+02  0.50528875976E+02  0.30000049016E+02 0.  0.
         12    1    3    3    0    0 -0.28601556759E+02 -0.67621290610E+01  0.28096066058E+02  0.40659124024E+02  0.00000000000E+00 0. -1.
         11    1    4    4    0    0  0.16056385128E+02  0.14589421342E+01  0.25806008000E+01  0.16327752946E+02  0.51100000000E-03 0. -1.
        -11    1    4    4    0    0  0.69396874146E+01  0.62791219920E+01 -0.20668911517E+02  0.22688995966E+02  0.51100000000E-03 0.  1.
        -12    1    4    4    0    0  0.56054842169E+01 -0.97593506516E+00 -0.10007755341E+02  0.11512127064E+02  0.00000000000E+00 0.  1.
</event>
<event>
 8    1  0.1021894E-011  0.9118800E+02  0.7816164E-02  0.1184000E+00
        -11   -1    0    0    0    0  0.00000000000E+00  0.00000000000E+00  0.45593999997E+02  0.45594000000E+02  0.51100000000E-03 0. -1.
         11   -1    0    0    0    0 -0.00000000000E+00 -0.00000000000E+00 -0.45593999997E+02  0.45594000000E+02  0.51100000000E-03 0.  1.
         23    2    1    2    0    0  0.00000000000E+00  0.88817841970E-15  0.00000000000E+00  0.91188000000E+02  0.91188000000E+02 0.  0.
    9900012    2    3    3    0    0  0.11424514147E+02  0.64901300776E+01 -0.38477570449E+02  0.50528871387E+02  0.30000035067E+02 0.  0.
         12    1    3    3    0    0 -0.11424514147E+02 -0.64901300776E+01  0.38477570449E+02  0.40659128613E+02  0.00000000000E+00 0. -1.
         11    1    4    4    0    0 -0.11329705839E+01  0.39504710695E+01 -0.20437781704E+01  0.45898663908E+01  0.51100000000E-03 0. -1.
        -11    1    4    4    0    0 -0.72297734871E+00 -0.87850188519E+01 -0.20465249996E+02  0.22282856867E+02  0.51100000000E-03 0.  1.
        -12    1    4    4    0    0  0.13280462080E+02  0.11324677860E+02 -0.15968542282E+02  0.23656148129E+02  0.00000000000E+00 0.  1.
</event>
<event>
 8    1  0.1021894E-011  0.9118800E+02  0.7816164E-02  0.1184000E+00
        -11   -1    0    0    0    0  0.00000000000E+00  0.00000000000E+00  0.45593999997E+02  0.45594000000E+02  0.51100000000E-03 0. -1.
         11   -1    0    0    0    0 -0.00000000000E+00 -0.00000000000E+00 -0.45593999997E+02  0.45594000000E+02  0.51100000000E-03 0.  1.
         23    2    1    2    0    0  0.00000000000E+00  0.00000000000E+00  0.00000000000E+00  0.91188000000E+02  0.91188000000E+02 0.  0.
    9900012    2    3    3    0    0 -0.35487473093E+02  0.10709297874E+02  0.16706803760E+02  0.50528842368E+02  0.29999946861E+02 0.  0.
        -12    1    3    3    0    0  0.35487473093E+02 -0.10709297874E+02 -0.16706803760E+02  0.40659157632E+02  0.00000000000E+00 0.  1.
         11    1    4    4    0    0 -0.31496975770E+02  0.19195594223E+02  0.12171344845E+02  0.38841626586E+02  0.51100000000E-03 0. -1.
        -11    1    4    4    0    0 -0.49378852223E+01 -0.67585690414E+01  0.22455118018E+01  0.86662154063E+01  0.51100000000E-03 0.  1.
         12    1    4    4    0    0  0.94738789937E+00 -0.17277273082E+01  0.22899471139E+01  0.30210003754E+01  0.00000000000E+00 0. -1.
</event>
<event>
 8    1  0.1021894E-011  0.9118800E+02  0.7816164E-02  0.1184000E+00
        -11   -1    0    0    0    0  0.00000000000E+00  0.00000000000E+00  0.45593999997E+02  0.45594000000E+02  0.51100000000E-03 0. -1.
         11   -1    0    0    0    0 -0.00000000000E+00 -0.00000000000E+00 -0.45593999997E+02  0.45594000000E+02  0.51100000000E-03 0.  1.
         23    2    1    2    0    0  0.00000000000E+00  0.17763568394E-14  0.00000000000E+00  0.91188000000E+02  0.91188000000E+02 0.  0.
    9900012    2    3    3    0    0 -0.36469450024E+02 -0.15257875788E+02 -0.95048195700E+01  0.50528866295E+02  0.30000019590E+02 0.  0.
         12    1    3    3    0    0  0.36469450024E+02  0.15257875788E+02  0.95048195700E+01  0.40659133705E+02  0.00000000000E+00 0. -1.
         11    1    4    4    0    0 -0.13973383671E+02 -0.24623961312E+01  0.78023259249E+01  0.16192440706E+02  0.51100000000E-03 0. -1.
        -11    1    4    4    0    0 -0.99158749375E+01 -0.13842003418E+02 -0.96353829248E+01  0.19564412558E+02  0.51100000000E-03 0.  1.
        -12    1    4    4    0    0 -0.12580191416E+02  0.10465237612E+01 -0.76717625700E+01  0.14772013030E+02  0.00000000000E+00 0.  1.
</event>
<event>
 8    1  0.1021894E-011  0.9118800E+02  0.7816164E-02  0.1184000E+00
        -11   -1    0    0    0    0  0.00000000000E+00  0.00000000000E+00  0.45593999997E+02  0.45594000000E+02  0.51100000000E-03 0. -1.
         11   -1    0    0    0    0 -0.00000000000E+00 -0.00000000000E+00 -0.45593999997E+02  0.45594000000E+02  0.51100000000E-03 0.  1.
         23    2    1    2    0    0 -0.35527136788E-14  0.00000000000E+00  0.00000000000E+00  0.91188000000E+02  0.91188000000E+02 0.  0.
    9900012    2    3    3    0    0  0.22615362560E+02 -0.18296074374E+02 -0.28407149661E+02  0.50528842199E+02  0.29999946347E+02 0.  0.
         12    1    3    3    0    0 -0.22615362560E+02  0.18296074374E+02  0.28407149661E+02  0.40659157801E+02  0.00000000000E+00 0. -1.
         11    1    4    4    0    0  0.64181880195E+01 -0.18550591107E+02 -0.40352947961E+01  0.20039989327E+02  0.51100000000E-03 0. -1.
        -11    1    4    4    0    0  0.97689418695E+01  0.42670400035E+01 -0.15638515003E+02  0.18926251805E+02  0.51100000000E-03 0.  1.
        -12    1    4    4    0    0  0.64282326714E+01 -0.40125232706E+01 -0.87333398628E+01  0.11562601067E+02  0.00000000000E+00 0.  1.
</event>
<event>
 8    1  0.1021894E-011  0.9118800E+02  0.7816164E-02  0.1184000E+00
        -11   -1    0    0    0    0  0.00000000000E+00  0.00000000000E+00  0.45593999997E+02  0.45594000000E+02  0.51100000000E-03 0. -1.
         11   -1    0    0    0    0 -0.00000000000E+00 -0.00000000000E+00 -0.45593999997E+02  0.45594000000E+02  0.51100000000E-03 0.  1.
         23    2    1    2    0    0  0.00000000000E+00  0.00000000000E+00 -0.35527136788E-14  0.91188000000E+02  0.91188000000E+02 0.  0.
    9900012    2    3    3    0    0  0.97193614632E+01 -0.26427262571E+02 -0.29330862153E+02  0.50528859959E+02  0.30000000330E+02 0.  0.
         12    1    3    3    0    0 -0.97193614632E+01  0.26427262571E+02  0.29330862153E+02  0.40659140041E+02  0.00000000000E+00 0. -1.
         11    1    4    4    0    0 -0.99183451072E+01 -0.62260134622E+01 -0.59948817120E+01  0.13155813175E+02  0.51100000000E-03 0. -1.
        -11    1    4    4    0    0  0.16889256264E+02 -0.12496162282E+02 -0.16603317026E+02  0.26778184880E+02  0.51100000000E-03 0.  1.
         12    1    4    4    0    0  0.27484503060E+01 -0.77050868272E+01 -0.67326634149E+01  0.10594861904E+02  0.00000000000E+00 0. -1.
</event>
<event>
 8    1  0.1021894E-011  0.9118800E+02  0.7816164E-02  0.1184000E+00
        -11   -1    0    0    0    0  0.00000000000E+00  0.00000000000E+00  0.45593999997E+02  0.45594000000E+02  0.51100000000E-03 0. -1.
         11   -1    0    0    0    0 -0.00000000000E+00 -0.00000000000E+00 -0.45593999997E+02  0.45594000000E+02  0.51100000000E-03 0.  1.
         23    2    1    2    0    0  0.17763568394E-14  0.00000000000E+00  0.00000000000E+00  0.91188000000E+02  0.91188000000E+02 0.  0.
    9900012    2    3    3    0    0 -0.10499481489E+02 -0.15820156872E+02 -0.35953418945E+02  0.50528870535E+02  0.30000032478E+02 0.  0.
         12    1    3    3    0    0  0.10499481489E+02  0.15820156872E+02  0.35953418945E+02  0.40659129465E+02  0.00000000000E+00 0. -1.
         11    1    4    4    0    0  0.22488290156E+01 -0.15801648687E+02 -0.29721608362E+02  0.33736083605E+02  0.51100000000E-03 0. -1.
        -11    1    4    4    0    0 -0.55937841652E+01 -0.44494874620E+01 -0.33865220275E+01  0.79092914768E+01  0.51100000000E-03 0.  1.
         12    1    4    4    0    0 -0.71545263396E+01  0.44309792764E+01 -0.28452885562E+01  0.88834954528E+01  0.00000000000E+00 0. -1.
</event>
<event>
 8    1  0.1021894E-011  0.9118800E+02  0.7816164E-02  0.1184000E+00
        -11   -1    0    0    0    0  0.00000000000E+00  0.00000000000E+00  0.45593999997E+02  0.45594000000E+02  0.51100000000E-03 0. -1.
         11   -1    0    0    0    0 -0.00000000000E+00 -0.00000000000E+00 -0.45593999997E+02  0.45594000000E+02  0.51100000000E-03 0.  1.
         23    2    1    2    0    0 -0.17763568394E-14 -0.88817841970E-15 -0.71054273576E-14  0.91188000000E+02  0.91188000000E+02 0.  0.
    9900012    2    3    3    0    0 -0.84486289669E+01 -0.35075358527E+01 -0.39616712535E+02  0.50528855257E+02  0.29999986039E+02 0.  0.
         12    1    3    3    0    0  0.84486289669E+01  0.35075358527E+01  0.39616712535E+02  0.40659144743E+02  0.00000000000E+00 0. -1.
         11    1    4    4    0    0 -0.51944520358E+01 -0.78321270276E+01 -0.15140762185E+01  0.95192947630E+01  0.51100000000E-03 0. -1.
        -11    1    4    4    0    0 -0.70147496633E+01  0.74796144840E+01 -0.26058154204E+02  0.28003191719E+02  0.51100000000E-03 0.  1.
        -12    1    4    4    0    0  0.37605727323E+01 -0.31550233091E+01 -0.12044482112E+02  0.13006368775E+02  0.00000000000E+00 0.  1.
</event>
<event>
 8    1  0.1021894E-011  0.9118800E+02  0.7816164E-02  0.1184000E+00
        -11   -1    0    0    0    0  0.00000000000E+00  0.00000000000E+00  0.45593999997E+02  0.45594000000E+02  0.51100000000E-03 0. -1.
         11   -1    0    0    0    0 -0.00000000000E+00 -0.00000000000E+00 -0.45593999997E+02  0.45594000000E+02  0.51100000000E-03 0.  1.
         23    2    1    2    0    0 -0.17763568394E-14 -0.35527136788E-14  0.71054273576E-14  0.91188000000E+02  0.91188000000E+02 0.  0.
    9900012    2    3    3    0    0 -0.53546365990E+01 -0.20615694012E+02  0.34633601961E+02  0.50528863788E+02  0.30000011970E+02 0.  0.
        -12    1    3    3    0    0  0.53546365990E+01  0.20615694012E+02 -0.34633601961E+02  0.40659136212E+02  0.00000000000E+00 0.  1.
         11    1    4    4    0    0 -0.94216171998E+01 -0.17546541669E+02  0.76091842804E+01  0.21320123848E+02  0.51100000000E-03 0.  1.
        -11    1    4    4    0    0  0.15346176864E+01 -0.32709917251E+01  0.26327800444E+02  0.26574565185E+02  0.51100000000E-03 0. -1.
        -12    1    4    4    0    0  0.25323629144E+01  0.20183938225E+00  0.69661723750E+00  0.26341747554E+01  0.00000000000E+00 0.  1.
</event>
<event>
 8    1  0.1021894E-011  0.9118800E+02  0.7816164E-02  0.1184000E+00
        -11   -1    0    0    0    0  0.00000000000E+00  0.00000000000E+00  0.45593999997E+02  0.45594000000E+02  0.51100000000E-03 0. -1.
         11   -1    0    0    0    0 -0.00000000000E+00 -0.00000000000E+00 -0.45593999997E+02  0.45594000000E+02  0.51100000000E-03 0.  1.
         23    2    1    2    0    0  0.00000000000E+00  0.00000000000E+00  0.00000000000E+00  0.91188000000E+02  0.91188000000E+02 0.  0.
    9900012    2    3    3    0    0 -0.56837052358E+01  0.14655035987E+02  0.37497884259E+02  0.50528857008E+02  0.29999991361E+02 0.  0.
        -12    1    3    3    0    0  0.56837052358E+01 -0.14655035987E+02 -0.37497884259E+02  0.40659142992E+02  0.00000000000E+00 0.  1.
         11    1    4    4    0    0  0.76205468904E+01  0.32763780615E+01  0.21404802976E+02  0.22955892029E+02  0.51100000000E-03 0. -1.
        -11    1    4    4    0    0 -0.14672605832E+02  0.81382688486E+01  0.76769426702E+01  0.18451347668E+02  0.51100000000E-03 0.  1.
        -12    1    4    4    0    0  0.13683537055E+01  0.32403890770E+01  0.84161386120E+01  0.91216173111E+01  0.00000000000E+00 0.  1.
</event>
<event>
 8    1  0.1021894E-011  0.9118800E+02  0.7816164E-02  0.1184000E+00
        -11   -1    0    0    0    0  0.00000000000E+00  0.00000000000E+00  0.45593999997E+02  0.45594000000E+02  0.51100000000E-03 0. -1.
         11   -1    0    0    0    0 -0.00000000000E+00 -0.00000000000E+00 -0.45593999997E+02  0.45594000000E+02  0.51100000000E-03 0.  1.
         23    2    1    2    0    0 -0.71054273576E-14  0.35527136788E-14  0.17763568394E-14  0.91188000000E+02  0.91188000000E+02 0.  0.
    9900012    2    3    3    0    0 -0.33941829453E+02  0.19486738921E+02  0.11017485042E+02  0.50528858875E+02  0.29999997037E+02 0.  0.
        -12    1    3    3    0    0  0.33941829453E+02 -0.19486738921E+02 -0.11017485042E+02  0.40659141125E+02  0.00000000000E+00 0.  1.
         11    1    4    4    0    0 -0.29791938295E+02  0.80018153659E+01  0.15470662360E+02  0.34509854109E+02  0.51100000000E-03 0. -1.
        -11    1    4    4    0    0  0.29943245589E+01  0.32765857970E+01 -0.19760669896E+01  0.48586865568E+01  0.51100000000E-03 0.  1.
         12    1    4    4    0    0 -0.71442157168E+01  0.82083377577E+01 -0.24771103280E+01  0.11160318209E+02  0.00000000000E+00 0. -1.
</event>
<event>
 8    1  0.1021894E-011  0.9118800E+02  0.7816164E-02  0.1184000E+00
        -11   -1    0    0    0    0  0.00000000000E+00  0.00000000000E+00  0.45593999997E+02  0.45594000000E+02  0.51100000000E-03 0. -1.
         11   -1    0    0    0    0 -0.00000000000E+00 -0.00000000000E+00 -0.45593999997E+02  0.45594000000E+02  0.51100000000E-03 0.  1.
         23    2    1    2    0    0  0.00000000000E+00  0.00000000000E+00  0.00000000000E+00  0.91188000000E+02  0.91188000000E+02 0.  0.
    9900012    2    3    3    0    0  0.95073270793E+01  0.33809695347E+01  0.39387123051E+02  0.50528859755E+02  0.29999999712E+02 0.  0.
        -12    1    3    3    0    0 -0.95073270793E+01 -0.33809695347E+01 -0.39387123051E+02  0.40659140245E+02  0.00000000000E+00 0.  1.
         11    1    4    4    0    0 -0.18028169410E+01 -0.27364093958E+01  0.13444823388E+02  0.13838401696E+02  0.51100000000E-03 0. -1.
        -11    1    4    4    0    0  0.18202659519E+02  0.39250908044E+01  0.20031487110E+02  0.27349654980E+02  0.51100000000E-03 0.  1.
        -12    1    4    4    0    0 -0.68925154991E+01  0.21922881261E+01  0.59108125533E+01  0.93408030797E+01  0.00000000000E+00 0.  1.
</event>
<event>
 8    1  0.1021894E-011  0.9118800E+02  0.7816164E-02  0.1184000E+00
        -11   -1    0    0    0    0  0.00000000000E+00  0.00000000000E+00  0.45593999997E+02  0.45594000000E+02  0.51100000000E-03 0. -1.
         11   -1    0    0    0    0 -0.00000000000E+00 -0.00000000000E+00 -0.45593999997E+02  0.45594000000E+02  0.51100000000E-03 0.  1.
         23    2    1    2    0    0  0.16653345369E-15  0.17763568394E-14  0.00000000000E+00  0.91188000000E+02  0.91188000000E+02 0.  0.
    9900012    2    3    3    0    0 -0.41395111980E+00 -0.73233115294E+01 -0.39992043288E+02  0.50528858671E+02  0.29999996415E+02 0.  0.
         12    1    3    3    0    0  0.41395111980E+00  0.73233115294E+01  0.39992043288E+02  0.40659141329E+02  0.00000000000E+00 0. -1.
         11    1    4    4    0    0 -0.34533384413E+01 -0.19758467172E+01  0.28489204594E+01  0.48934512039E+01  0.51100000000E-03 0. -1.
        -11    1    4    4    0    0  0.21306798422E+01  0.29688898285E+01 -0.30548158820E+02  0.30765957014E+02  0.51100000000E-03 0.  1.
         12    1    4    4    0    0  0.90870747934E+00 -0.83163546408E+01 -0.12292804927E+02  0.14869450453E+02  0.00000000000E+00 0. -1.
</event>
<event>
 8    1  0.1021894E-011  0.9118800E+02  0.7816164E-02  0.1184000E+00
        -11   -1    0    0    0    0  0.00000000000E+00  0.00000000000E+00  0.45593999997E+02  0.45594000000E+02  0.51100000000E-03 0. -1.
         11   -1    0    0    0    0 -0.00000000000E+00 -0.00000000000E+00 -0.45593999997E+02  0.45594000000E+02  0.51100000000E-03 0.  1.
         23    2    1    2    0    0  0.00000000000E+00  0.00000000000E+00  0.00000000000E+00  0.91188000000E+02  0.91188000000E+02 0.  0.
    9900012    2    3    3    0    0  0.43937415665E+01 -0.31175370913E+02 -0.25728510369E+02  0.50528868647E+02  0.30000026741E+02 0.  0.
         12    1    3    3    0    0 -0.43937415665E+01  0.31175370913E+02  0.25728510369E+02  0.40659131353E+02  0.00000000000E+00 0. -1.
         11    1    4    4    0    0  0.51302565147E+01  0.20638463140E+01 -0.10647975223E+02  0.11998265297E+02  0.51100000000E-03 0. -1.
        -11    1    4    4    0    0 -0.50595687573E+01 -0.27540995905E+02 -0.99054941142E+01  0.29702264314E+02  0.51100000000E-03 0.  1.
         12    1    4    4    0    0  0.43230538091E+01 -0.56982213221E+01 -0.51750410318E+01  0.88283390370E+01  0.00000000000E+00 0. -1.
</event>
<event>
 8    1  0.1021894E-011  0.9118800E+02  0.7816164E-02  0.1184000E+00
        -11   -1    0    0    0    0  0.00000000000E+00  0.00000000000E+00  0.45593999997E+02  0.45594000000E+02  0.51100000000E-03 0. -1.
         11   -1    0    0    0    0 -0.00000000000E+00 -0.00000000000E+00 -0.45593999997E+02  0.45594000000E+02  0.51100000000E-03 0.  1.
         23    2    1    2    0    0  0.00000000000E+00  0.00000000000E+00  0.00000000000E+00  0.91188000000E+02  0.91188000000E+02 0.  0.
    9900012    2    3    3    0    0  0.34025159987E+02 -0.40965718715E+01  0.21878578626E+02  0.50528860610E+02  0.30000002310E+02 0.  0.
        -12    1    3    3    0    0 -0.34025159987E+02  0.40965718715E+01 -0.21878578626E+02  0.40659139390E+02  0.00000000000E+00 0.  1.
         11    1    4    4    0    0  0.25682834672E+02 -0.63811952038E+01  0.15272005472E+02  0.30554243575E+02  0.51100000000E-03 0. -1.
        -11    1    4    4    0    0 -0.47873591776E+01 -0.22486796333E+00  0.42408318999E+01  0.63995334956E+01  0.51100000000E-03 0.  1.
        -12    1    4    4    0    0  0.13129684492E+02  0.25094912957E+01  0.23657412543E+01  0.13575083540E+02  0.00000000000E+00 0.  1.
</event>
<event>
 8    1  0.1021894E-011  0.9118800E+02  0.7816164E-02  0.1184000E+00
        -11   -1    0    0    0    0  0.00000000000E+00  0.00000000000E+00  0.45593999997E+02  0.45594000000E+02  0.51100000000E-03 0. -1.
         11   -1    0    0    0    0 -0.00000000000E+00 -0.00000000000E+00 -0.45593999997E+02  0.45594000000E+02  0.51100000000E-03 0.  1.
         23    2    1    2    0    0 -0.71054273576E-14  0.00000000000E+00  0.00000000000E+00  0.91188000000E+02  0.91188000000E+02 0.  0.
    9900012    2    3    3    0    0  0.34593363254E+02  0.19395576371E+02 -0.89597201038E+01  0.50528858982E+02  0.29999997360E+02 0.  0.
         12    1    3    3    0    0 -0.34593363254E+02 -0.19395576371E+02  0.89597201038E+01  0.40659141018E+02  0.00000000000E+00 0. -1.
         11    1    4    4    0    0  0.37759195767E+01  0.77289217733E+01 -0.75665879631E+01  0.11456310667E+02  0.51100000000E-03 0. -1.
        -11    1    4    4    0    0  0.82219078557E+01 -0.53775529257E+01  0.33397394263E+01  0.10376497673E+02  0.51100000000E-03 0.  1.
        -12    1    4    4    0    0  0.22595535822E+02  0.17044207523E+02 -0.47328715669E+01  0.28696050642E+02  0.00000000000E+00 0.  1.
</event>
<event>
 8    1  0.1021894E-011  0.9118800E+02  0.7816164E-02  0.1184000E+00
        -11   -1    0    0    0    0  0.00000000000E+00  0.00000000000E+00  0.45593999997E+02  0.45594000000E+02  0.51100000000E-03 0. -1.
         11   -1    0    0    0    0 -0.00000000000E+00 -0.00000000000E+00 -0.45593999997E+02  0.45594000000E+02  0.51100000000E-03 0.  1.
         23    2    1    2    0    0  0.00000000000E+00  0.00000000000E+00 -0.71054273576E-14  0.91188000000E+02  0.91188000000E+02 0.  0.
    9900012    2    3    3    0    0  0.15389296025E+01  0.31534992691E+01  0.40507436344E+02  0.50528864973E+02  0.30000015573E+02 0.  0.
        -12    1    3    3    0    0 -0.15389296025E+01 -0.31534992691E+01 -0.40507436344E+02  0.40659135027E+02  0.00000000000E+00 0.  1.
         11    1    4    4    0    0  0.62998953162E+01 -0.22045988473E+01  0.23470457723E+02  0.24401051679E+02  0.51100000000E-03 0. -1.
        -11    1    4    4    0    0 -0.98969645026E+01  0.55313102499E+01  0.38479142983E+01  0.11972958872E+02  0.51100000000E-03 0.  1.
        -12    1    4    4    0    0  0.51359987889E+01 -0.17321213348E+00  0.13189064323E+02  0.14154854422E+02  0.00000000000E+00 0.  1.
</event>
<event>
 8    1  0.1021894E-011  0.9118800E+02  0.7816164E-02  0.1184000E+00
        -11   -1    0    0    0    0  0.00000000000E+00  0.00000000000E+00  0.45593999997E+02  0.45594000000E+02  0.51100000000E-03 0.  1.
         11   -1    0    0    0    0 -0.00000000000E+00 -0.00000000000E+00 -0.45593999997E+02  0.45594000000E+02  0.51100000000E-03 0. -1.
         23    2    1    2    0    0  0.35527136788E-14  0.00000000000E+00 -0.17763568394E-14  0.91188000000E+02  0.91188000000E+02 0.  0.
    9900012    2    3    3    0    0 -0.26612731702E+02 -0.29063926420E+02  0.10010791605E+02  0.50528865034E+02  0.30000015757E+02 0.  0.
        -12    1    3    3    0    0  0.26612731702E+02  0.29063926420E+02 -0.10010791605E+02  0.40659134966E+02  0.00000000000E+00 0.  1.
         11    1    4    4    0    0  0.18060929981E+01 -0.32096674119E+01 -0.33702817410E+01  0.49922676298E+01  0.51100000000E-03 0. -1.
        -11    1    4    4    0    0 -0.14594271810E+02 -0.20344222925E+02  0.16946253253E+02  0.30233353696E+02  0.51100000000E-03 0.  1.
        -12    1    4    4    0    0 -0.13824552890E+02 -0.55100360832E+01 -0.35651799065E+01  0.15303243709E+02  0.00000000000E+00 0.  1.
</event>
<event>
 8    1  0.1021894E-011  0.9118800E+02  0.7816164E-02  0.1184000E+00
        -11   -1    0    0    0    0  0.00000000000E+00  0.00000000000E+00  0.45593999997E+02  0.45594000000E+02  0.51100000000E-03 0. -1.
         11   -1    0    0    0    0 -0.00000000000E+00 -0.00000000000E+00 -0.45593999997E+02  0.45594000000E+02  0.51100000000E-03 0.  1.
         23    2    1    2    0    0 -0.88817841970E-15  0.00000000000E+00  0.71054273576E-14  0.91188000000E+02  0.91188000000E+02 0.  0.
    9900012    2    3    3    0    0 -0.53334095293E+01  0.23804656966E+02  0.32527831030E+02  0.50528846762E+02  0.29999960218E+02 0.  0.
        -12    1    3    3    0    0  0.53334095293E+01 -0.23804656966E+02 -0.32527831030E+02  0.40659153238E+02  0.00000000000E+00 0.  1.
         11    1    4    4    0    0  0.13713255892E+01  0.22573556056E+02  0.15189703726E+02  0.27242853493E+02  0.51100000000E-03 0. -1.
        -11    1    4    4    0    0 -0.27355498618E+01  0.21984910692E+01 -0.16395276474E+01  0.38735832501E+01  0.51100000000E-03 0.  1.
         12    1    4    4    0    0 -0.39691852566E+01 -0.96739015846E+00  0.18977654951E+02  0.19412410019E+02  0.00000000000E+00 0. -1.
</event>
<event>
 8    1  0.1021894E-011  0.9118800E+02  0.7816164E-02  0.1184000E+00
        -11   -1    0    0    0    0  0.00000000000E+00  0.00000000000E+00  0.45593999997E+02  0.45594000000E+02  0.51100000000E-03 0. -1.
         11   -1    0    0    0    0 -0.00000000000E+00 -0.00000000000E+00 -0.45593999997E+02  0.45594000000E+02  0.51100000000E-03 0.  1.
         23    2    1    2    0    0  0.00000000000E+00  0.00000000000E+00  0.00000000000E+00  0.91188000000E+02  0.91188000000E+02 0.  0.
    9900012    2    3    3    0    0  0.91808795511E+01 -0.25302399326E+02 -0.30473993493E+02  0.50528877525E+02  0.30000053726E+02 0.  0.
         12    1    3    3    0    0 -0.91808795511E+01  0.25302399326E+02  0.30473993493E+02  0.40659122475E+02  0.00000000000E+00 0. -1.
         11    1    4    4    0    0  0.12010170011E+02 -0.26883182522E+02 -0.29343676269E+02  0.41569231692E+02  0.51100000000E-03 0. -1.
        -11    1    4    4    0    0  0.58551501357E+00  0.22596843650E+01 -0.38766638145E+01  0.45252098131E+01  0.51100000000E-03 0.  1.
         12    1    4    4    0    0 -0.34148054739E+01 -0.67890116876E+00  0.27463465905E+01  0.44344360201E+01  0.00000000000E+00 0. -1.
</event>
<event>
 8    1  0.1080694E-011  0.9118800E+02  0.7816164E-02  0.1184000E+00
        -11   -1    0    0    0    0  0.00000000000E+00  0.00000000000E+00  0.45593999997E+02  0.45594000000E+02  0.51100000000E-03 0. -1.
         11   -1    0    0    0    0 -0.00000000000E+00 -0.00000000000E+00 -0.45593999997E+02  0.45594000000E+02  0.51100000000E-03 0.  1.
         23    2    1    2    0    0  0.00000000000E+00  0.71054273576E-14  0.71054273576E-14  0.91188000000E+02  0.91188000000E+02 0.  0.
    9900012    2    3    3    0    0  0.93500439870E+01 -0.32467860342E+02 -0.22618144893E+02  0.50528858886E+02  0.29999997070E+02 0.  0.
         12    1    3    3    0    0 -0.93500439870E+01  0.32467860342E+02  0.22618144893E+02  0.40659141114E+02  0.00000000000E+00 0. -1.
         11    1    4    4    0    0  0.10311958822E+02 -0.80312240166E+01  0.48851402410E+00  0.13079590979E+02  0.51100000000E-03 0. -1.
        -11    1    4    4    0    0  0.36115373697E+01 -0.11221012045E+02 -0.19856603031E+02  0.23091968251E+02  0.51100000000E-03 0.  1.
         12    1    4    4    0    0 -0.45734522048E+01 -0.13215624280E+02 -0.32500558861E+01  0.14357299657E+02  0.00000000000E+00 0. -1.
</event>
<event>
 8    1  0.1196646E-011  0.9118800E+02  0.7816164E-02  0.1184000E+00
        -11   -1    0    0    0    0  0.00000000000E+00  0.00000000000E+00  0.45593999997E+02  0.45594000000E+02  0.51100000000E-03 0. -1.
         11   -1    0    0    0    0 -0.00000000000E+00 -0.00000000000E+00 -0.45593999997E+02  0.45594000000E+02  0.51100000000E-03 0.  1.
         23    2    1    2    0    0 -0.17763568394E-14 -0.16028844918E-14  0.00000000000E+00  0.91188000000E+02  0.91188000000E+02 0.  0.
    9900012    2    3    3    0    0 -0.84352333956E+01 -0.47714031586E-01 -0.39774519346E+02  0.50528833405E+02  0.29999919616E+02 0.  0.
         12    1    3    3    0    0  0.84352333956E+01  0.47714031586E-01  0.39774519346E+02  0.40659166595E+02  0.00000000000E+00 0. -1.
         11    1    4    4    0    0 -0.32379802336E+01 -0.40277079655E+01 -0.16338982684E+00  0.51704587751E+01  0.51100000000E-03 0. -1.
        -11    1    4    4    0    0 -0.94669875363E+01  0.10600421431E+02 -0.26070868148E+02  0.29693146579E+02  0.51100000000E-03 0.  1.
        -12    1    4    4    0    0  0.42697343743E+01 -0.66204274973E+01 -0.13540261371E+02  0.15665228050E+02  0.00000000000E+00 0.  1.
</event>
<event>
 8    1  0.1021894E-011  0.9118800E+02  0.7816164E-02  0.1184000E+00
        -11   -1    0    0    0    0  0.00000000000E+00  0.00000000000E+00  0.45593999997E+02  0.45594000000E+02  0.51100000000E-03 0. -1.
         11   -1    0    0    0    0 -0.00000000000E+00 -0.00000000000E+00 -0.45593999997E+02  0.45594000000E+02  0.51100000000E-03 0.  1.
         23    2    1    2    0    0  0.22204460493E-15  0.35527136788E-14  0.00000000000E+00  0.91188000000E+02  0.91188000000E+02 0.  0.
    9900012    2    3    3    0    0 -0.14560175712E+01 -0.19257299103E+02  0.35779913519E+02  0.50528858748E+02  0.29999996652E+02 0.  0.
        -12    1    3    3    0    0  0.14560175712E+01  0.19257299103E+02 -0.35779913519E+02  0.40659141252E+02  0.00000000000E+00 0.  1.
         11    1    4    4    0    0  0.49909358567E+01 -0.10680337735E+02  0.10025390132E+01  0.11831489323E+02  0.51100000000E-03 0. -1.
        -11    1    4    4    0    0 -0.80577015390E+01 -0.10744479764E+02  0.23178774094E+02  0.26788541734E+02  0.51100000000E-03 0.  1.
        -12    1    4    4    0    0  0.16107481111E+01  0.21675183963E+01  0.11598600411E+02  0.11908827691E+02  0.00000000000E+00 0.  1.
</event>
<event>
 8    1  0.1021894E-011  0.9118800E+02  0.7816164E-02  0.1184000E+00
        -11   -1    0    0    0    0  0.00000000000E+00  0.00000000000E+00  0.45593999997E+02  0.45594000000E+02  0.51100000000E-03 0.  1.
         11   -1    0    0    0    0 -0.00000000000E+00 -0.00000000000E+00 -0.45593999997E+02  0.45594000000E+02  0.51100000000E-03 0. -1.
         23    2    1    2    0    0  0.00000000000E+00 -0.35527136788E-14  0.00000000000E+00  0.91188000000E+02  0.91188000000E+02 0.  0.
    9900012    2    3    3    0    0 -0.32739278919E+02 -0.21098090968E+02 -0.11669434263E+02  0.50528861757E+02  0.30000005796E+02 0.  0.
         12    1    3    3    0    0  0.32739278919E+02  0.21098090968E+02  0.11669434263E+02  0.40659138243E+02  0.00000000000E+00 0. -1.
         11    1    4    4    0    0  0.32544093563E+01 -0.27986148351E+01 -0.72038693111E+00  0.43522847845E+01  0.51100000000E-03 0. -1.
        -11    1    4    4    0    0 -0.29988878134E+02 -0.16097534593E+02 -0.16392421951E+02  0.37777968836E+02  0.51100000000E-03 0.  1.
        -12    1    4    4    0    0 -0.60048101414E+01 -0.22019415397E+01  0.54433746189E+01  0.83986081359E+01  0.00000000000E+00 0.  1.
</event>
<event>
 8    1  0.1021894E-011  0.9118800E+02  0.7816164E-02  0.1184000E+00
        -11   -1    0    0    0    0  0.00000000000E+00  0.00000000000E+00  0.45593999997E+02  0.45594000000E+02  0.51100000000E-03 0. -1.
         11   -1    0    0    0    0 -0.00000000000E+00 -0.00000000000E+00 -0.45593999997E+02  0.45594000000E+02  0.51100000000E-03 0.  1.
         23    2    1    2    0    0  0.00000000000E+00  0.00000000000E+00  0.88817841970E-15  0.91188000000E+02  0.91188000000E+02 0.  0.
    9900012    2    3    3    0    0 -0.39474640874E+02 -0.95276226925E+01  0.20354076615E+01  0.50528858953E+02  0.29999997275E+02 0.  0.
         12    1    3    3    0    0  0.39474640874E+02  0.95276226925E+01 -0.20354076615E+01  0.40659141047E+02  0.00000000000E+00 0. -1.
         11    1    4    4    0    0 -0.16509144166E+02 -0.37899515205E+01  0.12515664646E+02  0.21060803295E+02  0.51100000000E-03 0. -1.
        -11    1    4    4    0    0 -0.24824382796E+02 -0.58792161623E+01 -0.10540417184E+02  0.27602817946E+02  0.51100000000E-03 0.  1.
        -12    1    4    4    0    0  0.18588860885E+01  0.14154499024E+00  0.60160200104E-01  0.18652377124E+01  0.00000000000E+00 0.  1.
</event>
<event>
 8    1  0.1021894E-011  0.9118800E+02  0.7816164E-02  0.1184000E+00
        -11   -1    0    0    0    0  0.00000000000E+00  0.00000000000E+00  0.45593999997E+02  0.45594000000E+02  0.51100000000E-03 0. -1.
         11   -1    0    0    0    0 -0.00000000000E+00 -0.00000000000E+00 -0.45593999997E+02  0.45594000000E+02  0.51100000000E-03 0.  1.
         23    2    1    2    0    0 -0.44408920985E-15 -0.35527136788E-14  0.00000000000E+00  0.91188000000E+02  0.91188000000E+02 0.  0.
    9900012    2    3    3    0    0 -0.26644423210E+01 -0.28228484547E+02 -0.29141433026E+02  0.50528810246E+02  0.29999849222E+02 0.  0.
         12    1    3    3    0    0  0.26644423210E+01  0.28228484547E+02  0.29141433026E+02  0.40659189754E+02  0.00000000000E+00 0. -1.
         11    1    4    4    0    0  0.29126084238E+01 -0.27909424375E+02 -0.20894693867E+02  0.34985818396E+02  0.51100000000E-03 0. -1.
        -11    1    4    4    0    0 -0.68643872438E+01  0.68931220033E+00  0.23710959780E+00  0.69029837581E+01  0.51100000000E-03 0.  1.
         12    1    4    4    0    0  0.12873364990E+01 -0.10083723724E+01 -0.84838487563E+01  0.86400080916E+01  0.00000000000E+00 0. -1.
</event>
<event>
 8    1  0.1021894E-011  0.9118800E+02  0.7816164E-02  0.1184000E+00
        -11   -1    0    0    0    0  0.00000000000E+00  0.00000000000E+00  0.45593999997E+02  0.45594000000E+02  0.51100000000E-03 0. -1.
         11   -1    0    0    0    0 -0.00000000000E+00 -0.00000000000E+00 -0.45593999997E+02  0.45594000000E+02  0.51100000000E-03 0.  1.
         23    2    1    2    0    0 -0.35527136788E-14  0.71054273576E-14  0.00000000000E+00  0.91188000000E+02  0.91188000000E+02 0.  0.
    9900012    2    3    3    0    0 -0.17035587154E+02  0.34051711794E+02 -0.14263087292E+02  0.50528856319E+02  0.29999989266E+02 0.  0.
         12    1    3    3    0    0  0.17035587154E+02 -0.34051711794E+02  0.14263087292E+02  0.40659143681E+02  0.00000000000E+00 0. -1.
         11    1    4    4    0    0 -0.17891266409E+02  0.84240410571E+01 -0.88799341559E+01  0.21677525512E+02  0.51100000000E-03 0. -1.
        -11    1    4    4    0    0  0.21142043375E+01  0.96308227093E+01 -0.78669717000E+01  0.12613954575E+02  0.51100000000E-03 0.  1.
         12    1    4    4    0    0 -0.12585250821E+01  0.15996848028E+02  0.24838185638E+01  0.16237376231E+02  0.00000000000E+00 0. -1.
</event>
<event>
 8    1  0.1021894E-011  0.9118800E+02  0.7816164E-02  0.1184000E+00
        -11   -1    0    0    0    0  0.00000000000E+00  0.00000000000E+00  0.45593999997E+02  0.45594000000E+02  0.51100000000E-03 0. -1.
         11   -1    0    0    0    0 -0.00000000000E+00 -0.00000000000E+00 -0.45593999997E+02  0.45594000000E+02  0.51100000000E-03 0.  1.
         23    2    1    2    0    0  0.00000000000E+00  0.33306690739E-15  0.71054273576E-14  0.91188000000E+02  0.91188000000E+02 0.  0.
    9900012    2    3    3    0    0  0.13601218440E+02  0.68951674852E+00 -0.38310528418E+02  0.50528866166E+02  0.30000019199E+02 0.  0.
         12    1    3    3    0    0 -0.13601218440E+02 -0.68951674852E+00  0.38310528418E+02  0.40659133834E+02  0.00000000000E+00 0. -1.
         11    1    4    4    0    0 -0.43604626841E+01 -0.17452159816E+01 -0.22931709038E+02  0.23407748574E+02  0.51100000000E-03 0.  1.
        -11    1    4    4    0    0  0.14110131039E+02 -0.33395767052E+01 -0.66041447538E+01  0.15933088172E+02  0.51100000000E-03 0. -1.
        -12    1    4    4    0    0  0.38515500857E+01  0.57743094353E+01 -0.87746746267E+01  0.11188029421E+02  0.00000000000E+00 0.  1.
</event>
<event>
 8    1  0.1021894E-011  0.9118800E+02  0.7816164E-02  0.1184000E+00
        -11   -1    0    0    0    0  0.00000000000E+00  0.00000000000E+00  0.45593999997E+02  0.45594000000E+02  0.51100000000E-03 0. -1.
         11   -1    0    0    0    0 -0.00000000000E+00 -0.00000000000E+00 -0.45593999997E+02  0.45594000000E+02  0.51100000000E-03 0.  1.
         23    2    1    2    0    0  0.00000000000E+00 -0.88817841970E-15  0.00000000000E+00  0.91188000000E+02  0.91188000000E+02 0.  0.
    9900012    2    3    3    0    0 -0.16773450378E+02  0.39632446128E+01  0.36825409722E+02  0.50528846705E+02  0.29999960045E+02 0.  0.
        -12    1    3    3    0    0  0.16773450378E+02 -0.39632446128E+01 -0.36825409722E+02  0.40659153295E+02  0.00000000000E+00 0.  1.
         11    1    4    4    0    0 -0.20330726928E+01  0.21673425769E+01 -0.11265310530E+01  0.31780231111E+01  0.51100000000E-03 0. -1.
        -11    1    4    4    0    0  0.41453948026E+01 -0.34953482969E+01  0.20138645263E+02  0.20855857477E+02  0.51100000000E-03 0.  1.
        -12    1    4    4    0    0 -0.18885772488E+02  0.52912503328E+01  0.17813295512E+02  0.26494966117E+02  0.00000000000E+00 0.  1.
</event>
<event>
 8    1  0.1021894E-011  0.9118800E+02  0.7816164E-02  0.1184000E+00
        -11   -1    0    0    0    0  0.00000000000E+00  0.00000000000E+00  0.45593999997E+02  0.45594000000E+02  0.51100000000E-03 0. -1.
         11   -1    0    0    0    0 -0.00000000000E+00 -0.00000000000E+00 -0.45593999997E+02  0.45594000000E+02  0.51100000000E-03 0.  1.
         23    2    1    2    0    0  0.17763568394E-14  0.00000000000E+00  0.35527136788E-14  0.91188000000E+02  0.91188000000E+02 0.  0.
    9900012    2    3    3    0    0 -0.15231853903E+02 -0.20818965910E+02 -0.31428131549E+02  0.50528853826E+02  0.29999981691E+02 0.  0.
         12    1    3    3    0    0  0.15231853903E+02  0.20818965910E+02  0.31428131549E+02  0.40659146174E+02  0.00000000000E+00 0. -1.
         11    1    4    4    0    0 -0.13545891236E+02 -0.15159094396E+01 -0.19000060606E+01  0.13762237249E+02  0.51100000000E-03 0. -1.
        -11    1    4    4    0    0  0.26242203659E+01 -0.14708954506E+02 -0.24543083154E+02  0.28733304825E+02  0.51100000000E-03 0.  1.
        -12    1    4    4    0    0 -0.43101830333E+01 -0.45941019645E+01 -0.49850423345E+01  0.80333117528E+01  0.00000000000E+00 0.  1.
</event>
<event>
 8    1  0.1021894E-011  0.9118800E+02  0.7816164E-02  0.1184000E+00
        -11   -1    0    0    0    0  0.00000000000E+00  0.00000000000E+00  0.45593999997E+02  0.45594000000E+02  0.51100000000E-03 0.  1.
         11   -1    0    0    0    0 -0.00000000000E+00 -0.00000000000E+00 -0.45593999997E+02  0.45594000000E+02  0.51100000000E-03 0. -1.
         23    2    1    2    0    0 -0.35527136788E-14  0.35527136788E-14  0.00000000000E+00  0.91188000000E+02  0.91188000000E+02 0.  0.
    9900012    2    3    3    0    0 -0.16457405583E+02  0.31187303994E+02  0.20240343200E+02  0.50528860538E+02  0.30000002091E+02 0.  0.
        -12    1    3    3    0    0  0.16457405583E+02 -0.31187303994E+02 -0.20240343200E+02  0.40659139462E+02  0.00000000000E+00 0.  1.
         11    1    4    4    0    0 -0.17488290689E+02  0.32809259875E+02  0.12781142851E+02  0.39314697730E+02  0.51100000000E-03 0. -1.
        -11    1    4    4    0    0  0.13874775182E+01  0.10404545848E+01 -0.12254829232E+01  0.21235461527E+01  0.51100000000E-03 0.  1.
         12    1    4    4    0    0 -0.35659241162E+00 -0.26624104652E+01  0.86846832722E+01  0.90906166552E+01  0.00000000000E+00 0. -1.
</event>
<event>
 8    1  0.1021894E-011  0.9118800E+02  0.7816164E-02  0.1184000E+00
        -11   -1    0    0    0    0  0.00000000000E+00  0.00000000000E+00  0.45593999997E+02  0.45594000000E+02  0.51100000000E-03 0. -1.
         11   -1    0    0    0    0 -0.00000000000E+00 -0.00000000000E+00 -0.45593999997E+02  0.45594000000E+02  0.51100000000E-03 0.  1.
         23    2    1    2    0    0 -0.35527136788E-14  0.00000000000E+00  0.00000000000E+00  0.91188000000E+02  0.91188000000E+02 0.  0.
    9900012    2    3    3    0    0  0.21023740448E+02 -0.20368293492E+02 -0.28218800744E+02  0.50528858867E+02  0.29999997013E+02 0.  0.
         12    1    3    3    0    0 -0.21023740448E+02  0.20368293492E+02  0.28218800744E+02  0.40659141133E+02  0.00000000000E+00 0. -1.
         11    1    4    4    0    0  0.22574047075E+01  0.70865998422E+01 -0.37367947407E+01  0.83234252884E+01  0.51100000000E-03 0. -1.
        -11    1    4    4    0    0  0.50542639498E+01 -0.14075268750E+02 -0.13355566971E+02  0.20050684374E+02  0.51100000000E-03 0.  1.
         12    1    4    4    0    0  0.13712071790E+02 -0.13379624585E+02 -0.11126439032E+02  0.22154749205E+02  0.00000000000E+00 0. -1.
</event>
<event>
 8    1  0.1021894E-011  0.9118800E+02  0.7816164E-02  0.1184000E+00
        -11   -1    0    0    0    0  0.00000000000E+00  0.00000000000E+00  0.45593999997E+02  0.45594000000E+02  0.51100000000E-03 0. -1.
         11   -1    0    0    0    0 -0.00000000000E+00 -0.00000000000E+00 -0.45593999997E+02  0.45594000000E+02  0.51100000000E-03 0.  1.
         23    2    1    2    0    0 -0.44408920985E-15  0.00000000000E+00  0.35527136788E-14  0.91188000000E+02  0.91188000000E+02 0.  0.
    9900012    2    3    3    0    0 -0.35556954776E+01  0.35538708640E+02 -0.19429947259E+02  0.50528860404E+02  0.30000001685E+02 0.  0.
         12    1    3    3    0    0  0.35556954776E+01 -0.35538708640E+02  0.19429947259E+02  0.40659139596E+02  0.00000000000E+00 0. -1.
         11    1    4    4    0    0 -0.93778147292E+01  0.25399838302E+01  0.22803867709E+01  0.99797340164E+01  0.51100000000E-03 0. -1.
        -11    1    4    4    0    0  0.68560181583E+01  0.18948031930E+02 -0.13222813456E+02  0.24101362928E+02  0.51100000000E-03 0.  1.
         12    1    4    4    0    0 -0.10338989067E+01  0.14050692880E+02 -0.84875205738E+01  0.16447763460E+02  0.00000000000E+00 0. -1.
</event>
<event>
 8    1  0.1021894E-011  0.9118800E+02  0.7816164E-02  0.1184000E+00
        -11   -1    0    0    0    0  0.00000000000E+00  0.00000000000E+00  0.45593999997E+02  0.45594000000E+02  0.51100000000E-03 0. -1.
         11   -1    0    0    0    0 -0.00000000000E+00 -0.00000000000E+00 -0.45593999997E+02  0.45594000000E+02  0.51100000000E-03 0.  1.
         23    2    1    2    0    0  0.00000000000E+00 -0.88817841970E-15  0.00000000000E+00  0.91188000000E+02  0.91188000000E+02 0.  0.
    9900012    2    3    3    0    0 -0.12412394154E+02  0.43312113861E+01 -0.38475186534E+02  0.50528844825E+02  0.29999954330E+02 0.  0.
         12    1    3    3    0    0  0.12412394154E+02 -0.43312113861E+01  0.38475186534E+02  0.40659155175E+02  0.00000000000E+00 0. -1.
         11    1    4    4    0    0 -0.26424314491E+01 -0.50321641489E+01 -0.13558713732E+02  0.14701831121E+02  0.51100000000E-03 0. -1.
        -11    1    4    4    0    0 -0.22323409380E+01  0.12859664481E+02 -0.45358024424E+01  0.13817663359E+02  0.51100000000E-03 0.  1.
        -12    1    4    4    0    0 -0.75376217665E+01 -0.34962889463E+01 -0.20380670360E+02  0.22009350345E+02  0.00000000000E+00 0.  1.
</event>
<event>
 8    1  0.1021894E-011  0.9118800E+02  0.7816164E-02  0.1184000E+00
        -11   -1    0    0    0    0  0.00000000000E+00  0.00000000000E+00  0.45593999997E+02  0.45594000000E+02  0.51100000000E-03 0. -1.
         11   -1    0    0    0    0 -0.00000000000E+00 -0.00000000000E+00 -0.45593999997E+02  0.45594000000E+02  0.51100000000E-03 0.  1.
         23    2    1    2    0    0  0.00000000000E+00  0.00000000000E+00  0.00000000000E+00  0.91188000000E+02  0.91188000000E+02 0.  0.
    9900012    2    3    3    0    0  0.26974775538E+02 -0.71763312401E+01  0.29563935182E+02  0.50528874224E+02  0.30000043692E+02 0.  0.
        -12    1    3    3    0    0 -0.26974775538E+02  0.71763312401E+01 -0.29563935182E+02  0.40659125776E+02  0.00000000000E+00 0.  1.
         11    1    4    4    0    0  0.33188634257E+02 -0.54616118402E+01  0.24803032769E+02  0.41791208196E+02  0.51100000000E-03 0. -1.
        -11    1    4    4    0    0 -0.32055553419E+01 -0.23921891000E+01  0.15604877756E+01  0.42933991311E+01  0.51100000000E-03 0.  1.
         12    1    4    4    0    0 -0.30083033766E+01  0.67746970011E+00  0.32004146376E+01  0.44442668971E+01  0.00000000000E+00 0. -1.
</event>
<event>
 8    1  0.1021894E-011  0.9118800E+02  0.7816164E-02  0.1184000E+00
        -11   -1    0    0    0    0  0.00000000000E+00  0.00000000000E+00  0.45593999997E+02  0.45594000000E+02  0.51100000000E-03 0. -1.
         11   -1    0    0    0    0 -0.00000000000E+00 -0.00000000000E+00 -0.45593999997E+02  0.45594000000E+02  0.51100000000E-03 0.  1.
         23    2    1    2    0    0  0.00000000000E+00  0.00000000000E+00  0.00000000000E+00  0.91188000000E+02  0.91188000000E+02 0.  0.
    9900012    2    3    3    0    0  0.26008186669E+02 -0.96676237192E+01  0.29719980166E+02  0.50528856585E+02  0.29999990075E+02 0.  0.
        -12    1    3    3    0    0 -0.26008186669E+02  0.96676237192E+01 -0.29719980166E+02  0.40659143415E+02  0.00000000000E+00 0.  1.
         11    1    4    4    0    0  0.69023364806E+00  0.22517899303E+01  0.13493595015E+02  0.13697594207E+02  0.51100000000E-03 0. -1.
        -11    1    4    4    0    0  0.22891940524E+02 -0.12028266049E+02  0.63052239400E+01  0.26617211993E+02  0.51100000000E-03 0.  1.
        -12    1    4    4    0    0  0.24260124978E+01  0.10885239911E+00  0.99211612112E+01  0.10214050385E+02  0.00000000000E+00 0.  1.
</event>
<event>
 8    1  0.1021894E-011  0.9118800E+02  0.7816164E-02  0.1184000E+00
        -11   -1    0    0    0    0  0.00000000000E+00  0.00000000000E+00  0.45593999997E+02  0.45594000000E+02  0.51100000000E-03 0. -1.
         11   -1    0    0    0    0 -0.00000000000E+00 -0.00000000000E+00 -0.45593999997E+02  0.45594000000E+02  0.51100000000E-03 0.  1.
         23    2    1    2    0    0  0.00000000000E+00  0.00000000000E+00  0.71054273576E-14  0.91188000000E+02  0.91188000000E+02 0.  0.
    9900012    2    3    3    0    0 -0.15183269607E+02 -0.16061581059E+02 -0.34127121607E+02  0.50528849846E+02  0.29999969592E+02 0.  0.
         12    1    3    3    0    0  0.15183269607E+02  0.16061581059E+02  0.34127121607E+02  0.40659150154E+02  0.00000000000E+00 0. -1.
         11    1    4    4    0    0 -0.20581452692E+01 -0.16244642390E+02 -0.28755724920E+02  0.33091027247E+02  0.51100000000E-03 0. -1.
        -11    1    4    4    0    0 -0.11773659196E+02 -0.35779597556E+01 -0.54078426619E+01  0.13441190773E+02  0.51100000000E-03 0.  1.
         12    1    4    4    0    0 -0.13514651419E+01  0.37610210865E+01  0.36445975406E-01  0.39966318260E+01  0.00000000000E+00 0. -1.
</event>
<event>
 8    1  0.1021894E-011  0.9118800E+02  0.7816164E-02  0.1184000E+00
        -11   -1    0    0    0    0  0.00000000000E+00  0.00000000000E+00  0.45593999997E+02  0.45594000000E+02  0.51100000000E-03 0. -1.
         11   -1    0    0    0    0 -0.00000000000E+00 -0.00000000000E+00 -0.45593999997E+02  0.45594000000E+02  0.51100000000E-03 0.  1.
         23    2    1    2    0    0  0.88817841970E-15 -0.88817841970E-15 -0.71054273576E-14  0.91188000000E+02  0.91188000000E+02 0.  0.
    9900012    2    3    3    0    0 -0.98762025040E+00 -0.15803577387E+01 -0.40616409308E+02  0.50528860444E+02  0.30000001806E+02 0.  0.
         12    1    3    3    0    0  0.98762025040E+00  0.15803577387E+01  0.40616409308E+02  0.40659139556E+02  0.00000000000E+00 0. -1.
         11    1    4    4    0    0  0.49911986466E+01 -0.85855596269E+01 -0.17146144395E+02  0.19814493834E+02  0.51100000000E-03 0.  1.
        -11    1    4    4    0    0 -0.11791496700E+02  0.20930865847E+01 -0.16547606850E+02  0.20426543971E+02  0.51100000000E-03 0. -1.
        -12    1    4    4    0    0  0.58126778026E+01  0.49121153035E+01 -0.69226580637E+01  0.10287822639E+02  0.00000000000E+00 0.  1.
</event>
<event>
 8    1  0.1021894E-011  0.9118800E+02  0.7816164E-02  0.1184000E+00
        -11   -1    0    0    0    0  0.00000000000E+00  0.00000000000E+00  0.45593999997E+02  0.45594000000E+02  0.51100000000E-03 0. -1.
         11   -1    0    0    0    0 -0.00000000000E+00 -0.00000000000E+00 -0.45593999997E+02  0.45594000000E+02  0.51100000000E-03 0.  1.
         23    2    1    2    0    0  0.17763568394E-14  0.00000000000E+00  0.00000000000E+00  0.91188000000E+02  0.91188000000E+02 0.  0.
    9900012    2    3    3    0    0 -0.91477569873E+01 -0.35575296646E+02 -0.17432219729E+02  0.50528862356E+02  0.30000007616E+02 0.  0.
         12    1    3    3    0    0  0.91477569873E+01  0.35575296646E+02  0.17432219729E+02  0.40659137644E+02  0.00000000000E+00 0. -1.
         11    1    4    4    0    0  0.21137998194E+01 -0.27629277103E+02  0.23947902977E+00  0.27711052910E+02  0.51100000000E-03 0. -1.
        -11    1    4    4    0    0 -0.50404778947E+01 -0.11908233218E+01 -0.53022577001E+01  0.74120452353E+01  0.51100000000E-03 0.  1.
         12    1    4    4    0    0 -0.62210789119E+01 -0.67551962209E+01 -0.12369441058E+02  0.15405764210E+02  0.00000000000E+00 0. -1.
</event>
<event>
 8    1  0.1021894E-011  0.9118800E+02  0.7816164E-02  0.1184000E+00
        -11   -1    0    0    0    0  0.00000000000E+00  0.00000000000E+00  0.45593999997E+02  0.45594000000E+02  0.51100000000E-03 0. -1.
         11   -1    0    0    0    0 -0.00000000000E+00 -0.00000000000E+00 -0.45593999997E+02  0.45594000000E+02  0.51100000000E-03 0.  1.
         23    2    1    2    0    0 -0.35527136788E-14  0.00000000000E+00  0.00000000000E+00  0.91188000000E+02  0.91188000000E+02 0.  0.
    9900012    2    3    3    0    0  0.16475910226E+02 -0.99532206139E+01 -0.35814011487E+02  0.50528860349E+02  0.30000001517E+02 0.  0.
         12    1    3    3    0    0 -0.16475910226E+02  0.99532206139E+01  0.35814011487E+02  0.40659139651E+02  0.00000000000E+00 0. -1.
         11    1    4    4    0    0 -0.33158723442E+01 -0.11027989198E+02 -0.66259185775E+01  0.13285870405E+02  0.51100000000E-03 0.  1.
        -11    1    4    4    0    0  0.20058099458E+02 -0.18711485260E+01 -0.26047907776E+02  0.32929045696E+02  0.51100000000E-03 0. -1.
        -12    1    4    4    0    0 -0.26631688788E+00  0.29459171103E+01 -0.31401851336E+01  0.43139442484E+01  0.00000000000E+00 0.  1.
</event>
<event>
 8    1  0.1021894E-011  0.9118800E+02  0.7816164E-02  0.1184000E+00
        -11   -1    0    0    0    0  0.00000000000E+00  0.00000000000E+00  0.45593999997E+02  0.45594000000E+02  0.51100000000E-03 0. -1.
         11   -1    0    0    0    0 -0.00000000000E+00 -0.00000000000E+00 -0.45593999997E+02  0.45594000000E+02  0.51100000000E-03 0.  1.
         23    2    1    2    0    0 -0.17763568394E-14  0.00000000000E+00 -0.35527136788E-14  0.91188000000E+02  0.91188000000E+02 0.  0.
    9900012    2    3    3    0    0 -0.42688494724E+01 -0.26321038324E+02  0.30694383109E+02  0.50528864634E+02  0.30000014541E+02 0.  0.
        -12    1    3    3    0    0  0.42688494724E+01  0.26321038324E+02 -0.30694383109E+02  0.40659135366E+02  0.00000000000E+00 0.  1.
         11    1    4    4    0    0  0.83878164181E+00 -0.13136624609E+02  0.30847327277E+02  0.33538516084E+02  0.51100000000E-03 0. -1.
        -11    1    4    4    0    0 -0.61165887732E+01 -0.63728053209E+01  0.31175729661E+01  0.93672070191E+01  0.51100000000E-03 0.  1.
         12    1    4    4    0    0  0.10089576590E+01 -0.68116083943E+01 -0.32705171334E+01  0.76231415305E+01  0.00000000000E+00 0. -1.
</event>
<event>
 8    1  0.1021894E-011  0.9118800E+02  0.7816164E-02  0.1184000E+00
        -11   -1    0    0    0    0  0.00000000000E+00  0.00000000000E+00  0.45593999997E+02  0.45594000000E+02  0.51100000000E-03 0. -1.
         11   -1    0    0    0    0 -0.00000000000E+00 -0.00000000000E+00 -0.45593999997E+02  0.45594000000E+02  0.51100000000E-03 0.  1.
         23    2    1    2    0    0  0.00000000000E+00  0.00000000000E+00  0.00000000000E+00  0.91188000000E+02  0.91188000000E+02 0.  0.
    9900012    2    3    3    0    0 -0.32291451270E+02  0.21259601800E+02 -0.12588228113E+02  0.50528782339E+02  0.29999764396E+02 0.  0.
        -12    1    3    3    0    0  0.32291451270E+02 -0.21259601800E+02  0.12588228113E+02  0.40659217661E+02  0.00000000000E+00 0.  1.
         11    1    4    4    0    0 -0.23917288110E+02  0.22759961734E+02 -0.30740277028E+01  0.33158742063E+02  0.51100000000E-03 0. -1.
        -11    1    4    4    0    0 -0.86170316266E+01 -0.71414780275E+00 -0.87387657009E+00  0.86906214772E+01  0.51100000000E-03 0.  1.
         12    1    4    4    0    0  0.24286846652E+00 -0.78621213120E+00 -0.86403238405E+01  0.86794187983E+01  0.00000000000E+00 0. -1.
</event>
<event>
 8    1  0.1021894E-011  0.9118800E+02  0.7816164E-02  0.1184000E+00
        -11   -1    0    0    0    0  0.00000000000E+00  0.00000000000E+00  0.45593999997E+02  0.45594000000E+02  0.51100000000E-03 0.  1.
         11   -1    0    0    0    0 -0.00000000000E+00 -0.00000000000E+00 -0.45593999997E+02  0.45594000000E+02  0.51100000000E-03 0. -1.
         23    2    1    2    0    0  0.71054273576E-14 -0.22204460493E-15  0.00000000000E+00  0.91188000000E+02  0.91188000000E+02 0.  0.
    9900012    2    3    3    0    0 -0.38986902589E+02 -0.10048499749E+01 -0.11496838679E+02  0.50528860848E+02  0.30000003035E+02 0.  0.
         12    1    3    3    0    0  0.38986902589E+02  0.10048499749E+01  0.11496838679E+02  0.40659139152E+02  0.00000000000E+00 0. -1.
         11    1    4    4    0    0 -0.87520603226E+01  0.25405934063E+01 -0.16978682889E+02  0.19269894853E+02  0.51100000000E-03 0. -1.
        -11    1    4    4    0    0 -0.83499040586E+01 -0.49158949826E+00 -0.46015498003E+00  0.83770102596E+01  0.51100000000E-03 0.  1.
         12    1    4    4    0    0 -0.21884938208E+02 -0.30538538829E+01  0.59419991905E+01  0.22881955735E+02  0.00000000000E+00 0. -1.
</event>
<event>
 8    1  0.1021894E-011  0.9118800E+02  0.7816164E-02  0.1184000E+00
        -11   -1    0    0    0    0  0.00000000000E+00  0.00000000000E+00  0.45593999997E+02  0.45594000000E+02  0.51100000000E-03 0. -1.
         11   -1    0    0    0    0 -0.00000000000E+00 -0.00000000000E+00 -0.45593999997E+02  0.45594000000E+02  0.51100000000E-03 0.  1.
         23    2    1    2    0    0 -0.17763568394E-14  0.71054273576E-14 -0.35527136788E-14  0.91188000000E+02  0.91188000000E+02 0.  0.
    9900012    2    3    3    0    0  0.83479259779E+01  0.36172078884E+02 -0.16585051934E+02  0.50528793090E+02  0.29999797076E+02 0.  0.
         12    1    3    3    0    0 -0.83479259779E+01 -0.36172078884E+02  0.16585051934E+02  0.40659206910E+02  0.00000000000E+00 0. -1.
         11    1    4    4    0    0  0.15650617343E+02  0.19423548867E+02 -0.76996587830E+01  0.26105570660E+02  0.51100000000E-03 0. -1.
        -11    1    4    4    0    0 -0.70178041603E+01  0.13365423660E+01 -0.43122132262E+01  0.83445253848E+01  0.51100000000E-03 0.  1.
         12    1    4    4    0    0 -0.28488720531E+00  0.15411987650E+02 -0.45731799251E+01  0.16078697046E+02  0.00000000000E+00 0. -1.
</event>
<event>
 8    1  0.1021894E-011  0.9118800E+02  0.7816164E-02  0.1184000E+00
        -11   -1    0    0    0    0  0.00000000000E+00  0.00000000000E+00  0.45593999997E+02  0.45594000000E+02  0.51100000000E-03 0. -1.
         11   -1    0    0    0    0 -0.00000000000E+00 -0.00000000000E+00 -0.45593999997E+02  0.45594000000E+02  0.51100000000E-03 0.  1.
         23    2    1    2    0    0  0.33306690739E-15  0.88817841970E-15  0.00000000000E+00  0.91188000000E+02  0.91188000000E+02 0.  0.
    9900012    2    3    3    0    0  0.99048829150E+00 -0.18252343732E+01 -0.40605945054E+02  0.50528987207E+02  0.30000387113E+02 0.  0.
         12    1    3    3    0    0 -0.99048829150E+00  0.18252343732E+01  0.40605945054E+02  0.40659012793E+02  0.00000000000E+00 0. -1.
         11    1    4    4    0    0  0.41100866105E+01 -0.67061830743E+01 -0.33946504395E+02  0.34845815592E+02  0.51100000000E-03 0. -1.
        -11    1    4    4    0    0  0.39574408959E+01  0.41274044010E+01 -0.63703389100E+01  0.85602583853E+01  0.51100000000E-03 0.  1.
         12    1    4    4    0    0 -0.70770392149E+01  0.75354430003E+00 -0.28910174866E+00  0.71229132301E+01  0.00000000000E+00 0. -1.
</event>
<event>
 8    1  0.1021894E-011  0.9118800E+02  0.7816164E-02  0.1184000E+00
        -11   -1    0    0    0    0  0.00000000000E+00  0.00000000000E+00  0.45593999997E+02  0.45594000000E+02  0.51100000000E-03 0. -1.
         11   -1    0    0    0    0 -0.00000000000E+00 -0.00000000000E+00 -0.45593999997E+02  0.45594000000E+02  0.51100000000E-03 0.  1.
         23    2    1    2    0    0  0.00000000000E+00  0.00000000000E+00 -0.35527136788E-14  0.91188000000E+02  0.91188000000E+02 0.  0.
    9900012    2    3    3    0    0  0.30042948326E+02  0.16965197269E+01  0.27344262348E+02  0.50528860724E+02  0.30000002656E+02 0.  0.
        -12    1    3    3    0    0 -0.30042948326E+02 -0.16965197269E+01 -0.27344262348E+02  0.40659139276E+02  0.00000000000E+00 0.  1.
         11    1    4    4    0    0  0.16146902424E+02 -0.32361027003E+01  0.11792332494E+01  0.16510160807E+02  0.51100000000E-03 0. -1.
        -11    1    4    4    0    0 -0.28355894431E+01 -0.47766168554E+00  0.89881216821E+01  0.94368988450E+01  0.51100000000E-03 0.  1.
        -12    1    4    4    0    0  0.16731635345E+02  0.54102841127E+01  0.17176907417E+02  0.24581801071E+02  0.00000000000E+00 0.  1.
</event>
<event>
 8    1  0.1021894E-011  0.9118800E+02  0.7816164E-02  0.1184000E+00
        -11   -1    0    0    0    0  0.00000000000E+00  0.00000000000E+00  0.45593999997E+02  0.45594000000E+02  0.51100000000E-03 0. -1.
         11   -1    0    0    0    0 -0.00000000000E+00 -0.00000000000E+00 -0.45593999997E+02  0.45594000000E+02  0.51100000000E-03 0.  1.
         23    2    1    2    0    0  0.00000000000E+00  0.00000000000E+00  0.00000000000E+00  0.91188000000E+02  0.91188000000E+02 0.  0.
    9900012    2    3    3    0    0 -0.10158027180E+02  0.17662947691E+02  0.35185244163E+02  0.50528847966E+02  0.29999963878E+02 0.  0.
        -12    1    3    3    0    0  0.10158027180E+02 -0.17662947691E+02 -0.35185244163E+02  0.40659152034E+02  0.00000000000E+00 0.  1.
         11    1    4    4    0    0 -0.80056996970E+01  0.21637233199E+02  0.24250503696E+02  0.33471600170E+02  0.51100000000E-03 0. -1.
        -11    1    4    4    0    0 -0.25286778140E+01 -0.39568840193E+01  0.13588430757E+02  0.14376946593E+02  0.51100000000E-03 0.  1.
         12    1    4    4    0    0  0.37635033134E+00 -0.17401488779E-01 -0.26536902905E+01  0.26803012035E+01  0.00000000000E+00 0. -1.
</event>
<event>
 8    1  0.1021894E-011  0.9118800E+02  0.7816164E-02  0.1184000E+00
        -11   -1    0    0    0    0  0.00000000000E+00  0.00000000000E+00  0.45593999997E+02  0.45594000000E+02  0.51100000000E-03 0. -1.
         11   -1    0    0    0    0 -0.00000000000E+00 -0.00000000000E+00 -0.45593999997E+02  0.45594000000E+02  0.51100000000E-03 0.  1.
         23    2    1    2    0    0  0.17763568394E-14 -0.17763568394E-14  0.00000000000E+00  0.91188000000E+02  0.91188000000E+02 0.  0.
    9900012    2    3    3    0    0  0.14261265608E+02 -0.95901972673E+01  0.36848468281E+02  0.50528865786E+02  0.30000018043E+02 0.  0.
        -12    1    3    3    0    0 -0.14261265608E+02  0.95901972673E+01 -0.36848468281E+02  0.40659134214E+02  0.00000000000E+00 0.  1.
         11    1    4    4    0    0  0.17489735161E+01  0.46538321520E+00  0.76379440663E+00  0.19644011947E+01  0.51100000000E-03 0. -1.
        -11    1    4    4    0    0  0.86865570262E+01  0.44369924945E+01  0.29032545859E+00  0.97584560510E+01  0.51100000000E-03 0.  1.
        -12    1    4    4    0    0  0.38257350656E+01 -0.14492572977E+02  0.35794348416E+02  0.38806008540E+02  0.00000000000E+00 0.  1.
</event>
<event>
 8    1  0.1021894E-011  0.9118800E+02  0.7816164E-02  0.1184000E+00
        -11   -1    0    0    0    0  0.00000000000E+00  0.00000000000E+00  0.45593999997E+02  0.45594000000E+02  0.51100000000E-03 0. -1.
         11   -1    0    0    0    0 -0.00000000000E+00 -0.00000000000E+00 -0.45593999997E+02  0.45594000000E+02  0.51100000000E-03 0.  1.
         23    2    1    2    0    0  0.00000000000E+00  0.88817841970E-15  0.00000000000E+00  0.91188000000E+02  0.91188000000E+02 0.  0.
    9900012    2    3    3    0    0  0.42653380060E+01 -0.65153862470E+01 -0.39906417086E+02  0.50528862147E+02  0.30000006983E+02 0.  0.
         12    1    3    3    0    0 -0.42653380060E+01  0.65153862470E+01  0.39906417086E+02  0.40659137853E+02  0.00000000000E+00 0. -1.
         11    1    4    4    0    0  0.30900385320E+01 -0.14060467268E+02 -0.92477345537E+01  0.17110396622E+02  0.51100000000E-03 0. -1.
        -11    1    4    4    0    0  0.54869994453E+01  0.66952038651E+01 -0.23187477264E+02  0.24750596353E+02  0.51100000000E-03 0.  1.
        -12    1    4    4    0    0 -0.43116999713E+01  0.84987715594E+00 -0.74712052683E+01  0.86678691721E+01  0.00000000000E+00 0.  1.
</event>
<event>
 8    1  0.1021894E-011  0.9118800E+02  0.7816164E-02  0.1184000E+00
        -11   -1    0    0    0    0  0.00000000000E+00  0.00000000000E+00  0.45593999997E+02  0.45594000000E+02  0.51100000000E-03 0. -1.
         11   -1    0    0    0    0 -0.00000000000E+00 -0.00000000000E+00 -0.45593999997E+02  0.45594000000E+02  0.51100000000E-03 0.  1.
         23    2    1    2    0    0  0.00000000000E+00  0.00000000000E+00  0.00000000000E+00  0.91188000000E+02  0.91188000000E+02 0.  0.
    9900012    2    3    3    0    0 -0.22818015385E+02  0.18066555637E+02 -0.28391954640E+02  0.50528863917E+02  0.30000012362E+02 0.  0.
         12    1    3    3    0    0  0.22818015385E+02 -0.18066555637E+02  0.28391954640E+02  0.40659136083E+02  0.00000000000E+00 0. -1.
         11    1    4    4    0    0 -0.56504659769E+01 -0.71624951806E+01 -0.13624348956E+02  0.16396706612E+02  0.51100000000E-03 0. -1.
        -11    1    4    4    0    0 -0.81813984801E+01  0.15241929271E+02 -0.91556052057E+01  0.19572347737E+02  0.51100000000E-03 0.  1.
         12    1    4    4    0    0 -0.89861509284E+01  0.99871215465E+01 -0.56120004785E+01  0.14559809568E+02  0.00000000000E+00 0. -1.
</event>
<event>
 8    1  0.1021894E-011  0.9118800E+02  0.7816164E-02  0.1184000E+00
        -11   -1    0    0    0    0  0.00000000000E+00  0.00000000000E+00  0.45593999997E+02  0.45594000000E+02  0.51100000000E-03 0. -1.
         11   -1    0    0    0    0 -0.00000000000E+00 -0.00000000000E+00 -0.45593999997E+02  0.45594000000E+02  0.51100000000E-03 0.  1.
         23    2    1    2    0    0  0.00000000000E+00  0.22204460493E-15  0.00000000000E+00  0.91188000000E+02  0.91188000000E+02 0.  0.
    9900012    2    3    3    0    0  0.61405544449E+01 -0.17613165527E+01 -0.40154165001E+02  0.50528860661E+02  0.30000002465E+02 0.  0.
         12    1    3    3    0    0 -0.61405544449E+01  0.17613165527E+01  0.40154165001E+02  0.40659139339E+02  0.00000000000E+00 0. -1.
         11    1    4    4    0    0 -0.17903425235E+01 -0.51729654002E+01 -0.15729498931E+02  0.16654790130E+02  0.51100000000E-03 0. -1.
        -11    1    4    4    0    0  0.15102398529E+02  0.36946093643E-01 -0.18993298079E+02  0.24265802656E+02  0.51100000000E-03 0.  1.
        -12    1    4    4    0    0 -0.71715015611E+01  0.33747027539E+01 -0.54313679909E+01  0.96082678756E+01  0.00000000000E+00 0.  1.
</event>
<event>
 8    1  0.1021894E-011  0.9118800E+02  0.7816164E-02  0.1184000E+00
        -11   -1    0    0    0    0  0.00000000000E+00  0.00000000000E+00  0.45593999997E+02  0.45594000000E+02  0.51100000000E-03 0. -1.
         11   -1    0    0    0    0 -0.00000000000E+00 -0.00000000000E+00 -0.45593999997E+02  0.45594000000E+02  0.51100000000E-03 0.  1.
         23    2    1    2    0    0  0.69388939039E-15  0.00000000000E+00  0.00000000000E+00  0.91188000000E+02  0.91188000000E+02 0.  0.
    9900012    2    3    3    0    0 -0.23308374230E+00 -0.26796978987E+02 -0.30578295776E+02  0.50528873307E+02  0.30000040904E+02 0.  0.
         12    1    3    3    0    0  0.23308374230E+00  0.26796978987E+02  0.30578295776E+02  0.40659126693E+02  0.00000000000E+00 0. -1.
         11    1    4    4    0    0 -0.17307307881E+01  0.26565250386E+01 -0.42540276824E-01  0.31708617564E+01  0.51100000000E-03 0. -1.
        -11    1    4    4    0    0 -0.51436629322E+01 -0.16990457555E+02 -0.27782977974E+02  0.32970089197E+02  0.51100000000E-03 0.  1.
        -12    1    4    4    0    0  0.66413099780E+01 -0.12463046471E+02 -0.27527775250E+01  0.14387922354E+02  0.00000000000E+00 0.  1.
</event>
<event>
 8    1  0.1021894E-011  0.9118800E+02  0.7816164E-02  0.1184000E+00
        -11   -1    0    0    0    0  0.00000000000E+00  0.00000000000E+00  0.45593999997E+02  0.45594000000E+02  0.51100000000E-03 0. -1.
         11   -1    0    0    0    0 -0.00000000000E+00 -0.00000000000E+00 -0.45593999997E+02  0.45594000000E+02  0.51100000000E-03 0.  1.
         23    2    1    2    0    0 -0.52041704279E-16 -0.17763568394E-14  0.00000000000E+00  0.91188000000E+02  0.91188000000E+02 0.  0.
    9900012    2    3    3    0    0 -0.59958195112E-02  0.63861310339E+01 -0.40154487736E+02  0.50528860918E+02  0.30000003246E+02 0.  0.
         12    1    3    3    0    0  0.59958195112E-02 -0.63861310339E+01  0.40154487736E+02  0.40659139082E+02  0.00000000000E+00 0. -1.
         11    1    4    4    0    0  0.40107725007E+01  0.57984669511E+01  0.87777326020E+00  0.71048575773E+01  0.51100000000E-03 0. -1.
        -11    1    4    4    0    0 -0.58830216224E+01 -0.53308405754E+01 -0.20903564963E+02  0.22360385352E+02  0.51100000000E-03 0.  1.
        -12    1    4    4    0    0  0.18662533022E+01  0.59185046581E+01 -0.20128696033E+02  0.21063617989E+02  0.00000000000E+00 0.  1.
</event>
<event>
 8    1  0.1021894E-011  0.9118800E+02  0.7816164E-02  0.1184000E+00
        -11   -1    0    0    0    0  0.00000000000E+00  0.00000000000E+00  0.45593999997E+02  0.45594000000E+02  0.51100000000E-03 0. -1.
         11   -1    0    0    0    0 -0.00000000000E+00 -0.00000000000E+00 -0.45593999997E+02  0.45594000000E+02  0.51100000000E-03 0.  1.
         23    2    1    2    0    0 -0.88817841970E-15  0.35527136788E-14 -0.35527136788E-14  0.91188000000E+02  0.91188000000E+02 0.  0.
    9900012    2    3    3    0    0  0.40582816665E+01  0.29415061809E+02 -0.27774986776E+02  0.50528863245E+02  0.30000010318E+02 0.  0.
         12    1    3    3    0    0 -0.40582816665E+01 -0.29415061809E+02  0.27774986776E+02  0.40659136755E+02  0.00000000000E+00 0. -1.
         11    1    4    4    0    0  0.86936615519E+01  0.18958369529E+01 -0.46470416050E+01  0.10038373617E+02  0.51100000000E-03 0. -1.
        -11    1    4    4    0    0 -0.10524524390E+02  0.92625512895E+01 -0.88895201931E+01  0.16600724067E+02  0.51100000000E-03 0.  1.
        -12    1    4    4    0    0  0.58891445047E+01  0.18256673566E+02 -0.14238424978E+02  0.23889765561E+02  0.00000000000E+00 0.  1.
</event>
<event>
 8    1  0.1021894E-011  0.9118800E+02  0.7816164E-02  0.1184000E+00
        -11   -1    0    0    0    0  0.00000000000E+00  0.00000000000E+00  0.45593999997E+02  0.45594000000E+02  0.51100000000E-03 0. -1.
         11   -1    0    0    0    0 -0.00000000000E+00 -0.00000000000E+00 -0.45593999997E+02  0.45594000000E+02  0.51100000000E-03 0.  1.
         23    2    1    2    0    0 -0.44408920985E-15  0.35527136788E-14  0.00000000000E+00  0.91188000000E+02  0.91188000000E+02 0.  0.
    9900012    2    3    3    0    0 -0.28380168725E+01  0.25818091697E+02  0.31281577981E+02  0.50528864254E+02  0.30000013385E+02 0.  0.
        -12    1    3    3    0    0  0.28380168725E+01 -0.25818091697E+02 -0.31281577981E+02  0.40659135746E+02  0.00000000000E+00 0.  1.
         11    1    4    4    0    0 -0.18077236326E+01  0.23518426968E+02  0.61264382312E+01  0.24370423005E+02  0.51100000000E-03 0. -1.
        -11    1    4    4    0    0  0.22689025190E+01 -0.97824756234E+00  0.10305343698E+02  0.10597405151E+02  0.51100000000E-03 0.  1.
         12    1    4    4    0    0 -0.32991957590E+01  0.32779122916E+01  0.14849796052E+02  0.15561036097E+02  0.00000000000E+00 0. -1.
</event>
<event>
 8    1  0.1021894E-011  0.9118800E+02  0.7816164E-02  0.1184000E+00
        -11   -1    0    0    0    0  0.00000000000E+00  0.00000000000E+00  0.45593999997E+02  0.45594000000E+02  0.51100000000E-03 0. -1.
         11   -1    0    0    0    0 -0.00000000000E+00 -0.00000000000E+00 -0.45593999997E+02  0.45594000000E+02  0.51100000000E-03 0.  1.
         23    2    1    2    0    0  0.17763568394E-14  0.11102230246E-15  0.71054273576E-14  0.91188000000E+02  0.91188000000E+02 0.  0.
    9900012    2    3    3    0    0 -0.63463261922E+01  0.67592399403E+00 -0.40155105401E+02  0.50528865489E+02  0.30000017141E+02 0.  0.
         12    1    3    3    0    0  0.63463261922E+01 -0.67592399403E+00  0.40155105401E+02  0.40659134511E+02  0.00000000000E+00 0. -1.
         11    1    4    4    0    0  0.68459366629E+01  0.18821427778E+01 -0.59433723703E+01  0.92592108531E+01  0.51100000000E-03 0. -1.
        -11    1    4    4    0    0 -0.13496323004E+02 -0.18969545251E+01 -0.96574054382E+01  0.16703731654E+02  0.51100000000E-03 0.  1.
        -12    1    4    4    0    0  0.30406014928E+00  0.69073574134E+00 -0.24554327593E+02  0.24565922982E+02  0.00000000000E+00 0.  1.
</event>
<event>
 8    1  0.1021894E-011  0.9118800E+02  0.7816164E-02  0.1184000E+00
        -11   -1    0    0    0    0  0.00000000000E+00  0.00000000000E+00  0.45593999997E+02  0.45594000000E+02  0.51100000000E-03 0.  1.
         11   -1    0    0    0    0 -0.00000000000E+00 -0.00000000000E+00 -0.45593999997E+02  0.45594000000E+02  0.51100000000E-03 0. -1.
         23    2    1    2    0    0  0.00000000000E+00  0.00000000000E+00  0.00000000000E+00  0.91188000000E+02  0.91188000000E+02 0.  0.
    9900012    2    3    3    0    0  0.12310112929E+02 -0.37920539767E+02  0.79787101696E+01  0.50528855487E+02  0.29999986738E+02 0.  0.
        -12    1    3    3    0    0 -0.12310112929E+02  0.37920539767E+02 -0.79787101696E+01  0.40659144513E+02  0.00000000000E+00 0.  1.
         11    1    4    4    0    0  0.91669019834E+01 -0.30591508479E+02 -0.31659671680E+01  0.32091990143E+02  0.51100000000E-03 0. -1.
        -11    1    4    4    0    0  0.29002764537E+01  0.29913055769E+01  0.46359437694E+01  0.62330961373E+01  0.51100000000E-03 0.  1.
        -12    1    4    4    0    0  0.24293449172E+00 -0.10320336866E+02  0.65087335682E+01  0.12203769207E+02  0.00000000000E+00 0.  1.
</event>
<event>
 8    1  0.1021894E-011  0.9118800E+02  0.7816164E-02  0.1184000E+00
        -11   -1    0    0    0    0  0.00000000000E+00  0.00000000000E+00  0.45593999997E+02  0.45594000000E+02  0.51100000000E-03 0. -1.
         11   -1    0    0    0    0 -0.00000000000E+00 -0.00000000000E+00 -0.45593999997E+02  0.45594000000E+02  0.51100000000E-03 0.  1.
         23    2    1    2    0    0  0.00000000000E+00 -0.88123952580E-15  0.35527136788E-14  0.91188000000E+02  0.91188000000E+02 0.  0.
    9900012    2    3    3    0    0 -0.32565646397E+02  0.35870490936E-01 -0.24344262107E+02  0.50528859459E+02  0.29999998813E+02 0.  0.
         12    1    3    3    0    0  0.32565646397E+02 -0.35870490936E-01  0.24344262107E+02  0.40659140541E+02  0.00000000000E+00 0. -1.
         11    1    4    4    0    0 -0.67358831346E+01  0.52412583047E+01  0.32285921023E+01  0.91250598597E+01  0.51100000000E-03 0. -1.
        -11    1    4    4    0    0 -0.27140834409E+02 -0.75574036692E+01 -0.25582992129E+02  0.38055600496E+02  0.51100000000E-03 0.  1.
        -12    1    4    4    0    0  0.13110711463E+01  0.23520158555E+01 -0.19898620810E+01  0.33481991035E+01  0.00000000000E+00 0.  1.
</event>
<event>
 8    1  0.1021894E-011  0.9118800E+02  0.7816164E-02  0.1184000E+00
        -11   -1    0    0    0    0  0.00000000000E+00  0.00000000000E+00  0.45593999997E+02  0.45594000000E+02  0.51100000000E-03 0. -1.
         11   -1    0    0    0    0 -0.00000000000E+00 -0.00000000000E+00 -0.45593999997E+02  0.45594000000E+02  0.51100000000E-03 0.  1.
         23    2    1    2    0    0  0.00000000000E+00  0.00000000000E+00 -0.35527136788E-14  0.91188000000E+02  0.91188000000E+02 0.  0.
    9900012    2    3    3    0    0 -0.14671286366E+02 -0.21719249485E+02 -0.31083643501E+02  0.50528864064E+02  0.30000012808E+02 0.  0.
         12    1    3    3    0    0  0.14671286366E+02  0.21719249485E+02  0.31083643501E+02  0.40659135936E+02  0.00000000000E+00 0. -1.
         11    1    4    4    0    0 -0.17416964004E+02 -0.91982280515E+01 -0.30681030218E+02  0.36459342423E+02  0.51100000000E-03 0. -1.
        -11    1    4    4    0    0 -0.14155550698E+01 -0.58390439210E+01 -0.12986362344E+01  0.61469249546E+01  0.51100000000E-03 0.  1.
         12    1    4    4    0    0  0.41612327078E+01 -0.66819775124E+01  0.89602295190E+00  0.79225966863E+01  0.00000000000E+00 0. -1.
</event>
<event>
 8    1  0.1021894E-011  0.9118800E+02  0.7816164E-02  0.1184000E+00
        -11   -1    0    0    0    0  0.00000000000E+00  0.00000000000E+00  0.45593999997E+02  0.45594000000E+02  0.51100000000E-03 0. -1.
         11   -1    0    0    0    0 -0.00000000000E+00 -0.00000000000E+00 -0.45593999997E+02  0.45594000000E+02  0.51100000000E-03 0.  1.
         23    2    1    2    0    0  0.55511151231E-15  0.71054273576E-14  0.00000000000E+00  0.91188000000E+02  0.91188000000E+02 0.  0.
    9900012    2    3    3    0    0  0.57791572832E+00 -0.34704000652E+02 -0.21176960860E+02  0.50528864260E+02  0.30000013406E+02 0.  0.
         12    1    3    3    0    0 -0.57791572832E+00  0.34704000652E+02  0.21176960860E+02  0.40659135740E+02  0.00000000000E+00 0. -1.
         11    1    4    4    0    0 -0.93781382053E+01 -0.21059132313E+02 -0.12521292209E+02  0.26233933918E+02  0.51100000000E-03 0.  1.
        -11    1    4    4    0    0  0.11630560606E+02 -0.11381445900E+02 -0.11779975993E+02  0.20089178317E+02  0.51100000000E-03 0. -1.
         12    1    4    4    0    0 -0.16745066726E+01 -0.22634224388E+01  0.31243073420E+01  0.42057520256E+01  0.00000000000E+00 0. -1.
</event>
<event>
 8    1  0.1021894E-011  0.9118800E+02  0.7816164E-02  0.1184000E+00
        -11   -1    0    0    0    0  0.00000000000E+00  0.00000000000E+00  0.45593999997E+02  0.45594000000E+02  0.51100000000E-03 0. -1.
         11   -1    0    0    0    0 -0.00000000000E+00 -0.00000000000E+00 -0.45593999997E+02  0.45594000000E+02  0.51100000000E-03 0.  1.
         23    2    1    2    0    0  0.44408920985E-15  0.00000000000E+00  0.00000000000E+00  0.91188000000E+02  0.91188000000E+02 0.  0.
    9900012    2    3    3    0    0 -0.22344302953E+01 -0.35647451683E+02  0.19427614196E+02  0.50528859778E+02  0.29999999780E+02 0.  0.
        -12    1    3    3    0    0  0.22344302953E+01  0.35647451683E+02 -0.19427614196E+02  0.40659140222E+02  0.00000000000E+00 0.  1.
         11    1    4    4    0    0  0.89992245984E+01 -0.22385090547E+02  0.10776052782E+01  0.24150353115E+02  0.51100000000E-03 0. -1.
        -11    1    4    4    0    0 -0.49227002648E-01 -0.41528402079E+01  0.21138522914E+01  0.46601370002E+01  0.51100000000E-03 0.  1.
         12    1    4    4    0    0 -0.11184427891E+02 -0.91095209285E+01  0.16236156627E+02  0.21718369663E+02  0.00000000000E+00 0. -1.
</event>
<event>
 8    1  0.1021894E-011  0.9118800E+02  0.7816164E-02  0.1184000E+00
        -11   -1    0    0    0    0  0.00000000000E+00  0.00000000000E+00  0.45593999997E+02  0.45594000000E+02  0.51100000000E-03 0. -1.
         11   -1    0    0    0    0 -0.00000000000E+00 -0.00000000000E+00 -0.45593999997E+02  0.45594000000E+02  0.51100000000E-03 0.  1.
         23    2    1    2    0    0  0.00000000000E+00  0.00000000000E+00 -0.35527136788E-14  0.91188000000E+02  0.91188000000E+02 0.  0.
    9900012    2    3    3    0    0 -0.17991115841E+02  0.19811194441E+02 -0.30610474143E+02  0.50528870624E+02  0.30000032749E+02 0.  0.
         12    1    3    3    0    0  0.17991115841E+02 -0.19811194441E+02  0.30610474143E+02  0.40659129376E+02  0.00000000000E+00 0. -1.
         11    1    4    4    0    0  0.57937592304E+01  0.81143931535E+01 -0.83700968739E+01  0.13018046866E+02  0.51100000000E-03 0. -1.
        -11    1    4    4    0    0 -0.15277705470E+02  0.13640282263E+02 -0.10897346007E+02  0.23199520143E+02  0.51100000000E-03 0.  1.
        -12    1    4    4    0    0 -0.85071696016E+01 -0.19434809756E+01 -0.11343031262E+02  0.14311303614E+02  0.00000000000E+00 0.  1.
</event>
<event>
 8    1  0.1021894E-011  0.9118800E+02  0.7816164E-02  0.1184000E+00
        -11   -1    0    0    0    0  0.00000000000E+00  0.00000000000E+00  0.45593999997E+02  0.45594000000E+02  0.51100000000E-03 0. -1.
         11   -1    0    0    0    0 -0.00000000000E+00 -0.00000000000E+00 -0.45593999997E+02  0.45594000000E+02  0.51100000000E-03 0.  1.
         23    2    1    2    0    0 -0.35527136788E-14 -0.35527136788E-14  0.35527136788E-14  0.91188000000E+02  0.91188000000E+02 0.  0.
    9900012    2    3    3    0    0 -0.22273259783E+02 -0.23287153062E+02  0.24794631698E+02  0.50528888350E+02  0.30000086628E+02 0.  0.
        -12    1    3    3    0    0  0.22273259783E+02  0.23287153062E+02 -0.24794631698E+02  0.40659111650E+02  0.00000000000E+00 0.  1.
         11    1    4    4    0    0 -0.14651605850E+02 -0.57986813704E+01  0.13738965823E+02  0.20905823154E+02  0.51100000000E-03 0. -1.
        -11    1    4    4    0    0 -0.23013477719E+01 -0.24066221616E-01 -0.48762932936E+01  0.53921254897E+01  0.51100000000E-03 0.  1.
        -12    1    4    4    0    0 -0.53203061618E+01 -0.17464405470E+02  0.15931959169E+02  0.24230939706E+02  0.00000000000E+00 0.  1.
</event>
<event>
 8    1  0.1021894E-011  0.9118800E+02  0.7816164E-02  0.1184000E+00
        -11   -1    0    0    0    0  0.00000000000E+00  0.00000000000E+00  0.45593999997E+02  0.45594000000E+02  0.51100000000E-03 0. -1.
         11   -1    0    0    0    0 -0.00000000000E+00 -0.00000000000E+00 -0.45593999997E+02  0.45594000000E+02  0.51100000000E-03 0.  1.
         23    2    1    2    0    0  0.35527136788E-14  0.00000000000E+00  0.00000000000E+00  0.91188000000E+02  0.91188000000E+02 0.  0.
    9900012    2    3    3    0    0 -0.28673941324E+02 -0.21305791830E+02  0.19417358155E+02  0.50528862352E+02  0.30000007605E+02 0.  0.
        -12    1    3    3    0    0  0.28673941324E+02  0.21305791830E+02 -0.19417358155E+02  0.40659137648E+02  0.00000000000E+00 0.  1.
         11    1    4    4    0    0 -0.22856246651E+01 -0.17619488111E+02  0.65530732503E+01  0.18937085592E+02  0.51100000000E-03 0. -1.
        -11    1    4    4    0    0 -0.12866381196E+02  0.22251715987E+01  0.18735464550E+01  0.13191108002E+02  0.51100000000E-03 0.  1.
         12    1    4    4    0    0 -0.13521935463E+02 -0.59114753173E+01  0.10990738450E+02  0.18400668758E+02  0.00000000000E+00 0. -1.
</event>
<event>
 8    1  0.1021894E-011  0.9118800E+02  0.7816164E-02  0.1184000E+00
        -11   -1    0    0    0    0  0.00000000000E+00  0.00000000000E+00  0.45593999997E+02  0.45594000000E+02  0.51100000000E-03 0. -1.
         11   -1    0    0    0    0 -0.00000000000E+00 -0.00000000000E+00 -0.45593999997E+02  0.45594000000E+02  0.51100000000E-03 0.  1.
         23    2    1    2    0    0  0.00000000000E+00  0.00000000000E+00  0.00000000000E+00  0.91188000000E+02  0.91188000000E+02 0.  0.
    9900012    2    3    3    0    0  0.20550861271E+01  0.25407815788E+02  0.31676250560E+02  0.50528864106E+02  0.30000012935E+02 0.  0.
        -12    1    3    3    0    0 -0.20550861271E+01 -0.25407815788E+02 -0.31676250560E+02  0.40659135894E+02  0.00000000000E+00 0.  1.
         11    1    4    4    0    0  0.49087807121E+01  0.30674270901E+02  0.26699890773E+02  0.40962070150E+02  0.51100000000E-03 0.  1.
        -11    1    4    4    0    0 -0.19173945277E+01 -0.58390362407E+01  0.55914062630E+01  0.83087044871E+01  0.51100000000E-03 0. -1.
        -12    1    4    4    0    0 -0.93630005725E+00  0.57258112762E+00 -0.61504647539E+00  0.12580894689E+01  0.00000000000E+00 0.  1.
</event>
<event>
 8    1  0.1021894E-011  0.9118800E+02  0.7816164E-02  0.1184000E+00
        -11   -1    0    0    0    0  0.00000000000E+00  0.00000000000E+00  0.45593999997E+02  0.45594000000E+02  0.51100000000E-03 0. -1.
         11   -1    0    0    0    0 -0.00000000000E+00 -0.00000000000E+00 -0.45593999997E+02  0.45594000000E+02  0.51100000000E-03 0.  1.
         23    2    1    2    0    0 -0.71054273576E-14  0.35527136788E-14  0.35527136788E-14  0.91188000000E+02  0.91188000000E+02 0.  0.
    9900012    2    3    3    0    0 -0.24198501547E+02  0.20325911036E+02  0.25582303181E+02  0.50528875900E+02  0.30000048785E+02 0.  0.
        -12    1    3    3    0    0  0.24198501547E+02 -0.20325911036E+02 -0.25582303181E+02  0.40659124100E+02  0.00000000000E+00 0.  1.
         11    1    4    4    0    0 -0.30766568319E+01  0.12551405145E+02  0.19204236151E+02  0.23147489600E+02  0.51100000000E-03 0. -1.
        -11    1    4    4    0    0 -0.23157661476E+02  0.79770054536E+01  0.52657887054E+01  0.25052713066E+02  0.51100000000E-03 0.  1.
        -12    1    4    4    0    0  0.20358167608E+01 -0.20249956276E+00  0.11122783243E+01  0.23286732332E+01  0.00000000000E+00 0.  1.
</event>
<event>
 8    1  0.1021894E-011  0.9118800E+02  0.7816164E-02  0.1184000E+00
        -11   -1    0    0    0    0  0.00000000000E+00  0.00000000000E+00  0.45593999997E+02  0.45594000000E+02  0.51100000000E-03 0. -1.
         11   -1    0    0    0    0 -0.00000000000E+00 -0.00000000000E+00 -0.45593999997E+02  0.45594000000E+02  0.51100000000E-03 0.  1.
         23    2    1    2    0    0  0.00000000000E+00  0.00000000000E+00 -0.35527136788E-14  0.91188000000E+02  0.91188000000E+02 0.  0.
    9900012    2    3    3    0    0  0.34131476092E+02  0.96544198744E+01  0.19874542642E+02  0.50528893657E+02  0.30000102760E+02 0.  0.
        -12    1    3    3    0    0 -0.34131476092E+02 -0.96544198744E+01 -0.19874542642E+02  0.40659106343E+02  0.00000000000E+00 0.  1.
         11    1    4    4    0    0  0.16919035024E+02  0.52957653834E+01  0.23389134886E+02  0.29348773537E+02  0.51100000000E-03 0.  1.
        -11    1    4    4    0    0  0.10763049492E+02  0.64250178892E+00 -0.71083929831E+01  0.12914538086E+02  0.51100000000E-03 0. -1.
        -12    1    4    4    0    0  0.64493915762E+01  0.37161527020E+01  0.35938007392E+01  0.82655820341E+01  0.00000000000E+00 0.  1.
</event>
<event>
 8    1  0.1021894E-011  0.9118800E+02  0.7816164E-02  0.1184000E+00
        -11   -1    0    0    0    0  0.00000000000E+00  0.00000000000E+00  0.45593999997E+02  0.45594000000E+02  0.51100000000E-03 0. -1.
         11   -1    0    0    0    0 -0.00000000000E+00 -0.00000000000E+00 -0.45593999997E+02  0.45594000000E+02  0.51100000000E-03 0.  1.
         23    2    1    2    0    0  0.00000000000E+00  0.00000000000E+00  0.00000000000E+00  0.91188000000E+02  0.91188000000E+02 0.  0.
    9900012    2    3    3    0    0 -0.15414496465E+02 -0.10844371916E+02  0.36027211884E+02  0.50528842364E+02  0.29999946850E+02 0.  0.
        -12    1    3    3    0    0  0.15414496465E+02  0.10844371916E+02 -0.36027211884E+02  0.40659157636E+02  0.00000000000E+00 0.  1.
         11    1    4    4    0    0 -0.11113698107E+02 -0.48414742387E+00  0.30013324326E+02  0.32008566380E+02  0.51100000000E-03 0. -1.
        -11    1    4    4    0    0 -0.26839578806E+01 -0.11952532563E+02  0.86841316364E+01  0.15016018351E+02  0.51100000000E-03 0.  1.
         12    1    4    4    0    0 -0.16168404781E+01  0.15923080706E+01 -0.26702440784E+01  0.35042576335E+01  0.00000000000E+00 0. -1.
</event>
<event>
 8    1  0.1021894E-011  0.9118800E+02  0.7816164E-02  0.1184000E+00
        -11   -1    0    0    0    0  0.00000000000E+00  0.00000000000E+00  0.45593999997E+02  0.45594000000E+02  0.51100000000E-03 0. -1.
         11   -1    0    0    0    0 -0.00000000000E+00 -0.00000000000E+00 -0.45593999997E+02  0.45594000000E+02  0.51100000000E-03 0.  1.
         23    2    1    2    0    0  0.00000000000E+00  0.26645352591E-14  0.35527136788E-14  0.91188000000E+02  0.91188000000E+02 0.  0.
    9900012    2    3    3    0    0 -0.34979257165E+02  0.55384122270E+01 -0.19973620454E+02  0.50528831835E+02  0.29999914845E+02 0.  0.
         12    1    3    3    0    0  0.34979257165E+02 -0.55384122270E+01  0.19973620454E+02  0.40659168165E+02  0.00000000000E+00 0. -1.
         11    1    4    4    0    0 -0.25396995246E+01 -0.86565432878E+01 -0.86186526059E+00  0.90624846128E+01  0.51100000000E-03 0. -1.
        -11    1    4    4    0    0 -0.71955749976E+01  0.49917481698E+01 -0.48270778902E+00  0.87707956542E+01  0.51100000000E-03 0.  1.
         12    1    4    4    0    0 -0.25243982643E+02  0.92032073450E+01 -0.18629047405E+02  0.32695551568E+02  0.00000000000E+00 0. -1.
</event>
<event>
 8    1  0.1021894E-011  0.9118800E+02  0.7816164E-02  0.1184000E+00
        -11   -1    0    0    0    0  0.00000000000E+00  0.00000000000E+00  0.45593999997E+02  0.45594000000E+02  0.51100000000E-03 0.  1.
         11   -1    0    0    0    0 -0.00000000000E+00 -0.00000000000E+00 -0.45593999997E+02  0.45594000000E+02  0.51100000000E-03 0. -1.
         23    2    1    2    0    0  0.00000000000E+00  0.44408920985E-15  0.00000000000E+00  0.91188000000E+02  0.91188000000E+02 0.  0.
    9900012    2    3    3    0    0 -0.17217035423E+02 -0.22888836582E+01 -0.36762758995E+02  0.50528859009E+02  0.29999997444E+02 0.  0.
         12    1    3    3    0    0  0.17217035423E+02  0.22888836582E+01  0.36762758995E+02  0.40659140991E+02  0.00000000000E+00 0. -1.
         11    1    4    4    0    0 -0.12470316727E+02 -0.34918629661E+00 -0.51449886865E+01  0.13494504037E+02  0.51100000000E-03 0.  1.
        -11    1    4    4    0    0 -0.72979013645E+01 -0.85273500363E+01 -0.24777028277E+02  0.27200665313E+02  0.51100000000E-03 0. -1.
        -12    1    4    4    0    0  0.25511826689E+01  0.65876526747E+01 -0.68407420318E+01  0.98336896595E+01  0.00000000000E+00 0.  1.
</event>
<event>
 8    1  0.1021894E-011  0.9118800E+02  0.7816164E-02  0.1184000E+00
        -11   -1    0    0    0    0  0.00000000000E+00  0.00000000000E+00  0.45593999997E+02  0.45594000000E+02  0.51100000000E-03 0. -1.
         11   -1    0    0    0    0 -0.00000000000E+00 -0.00000000000E+00 -0.45593999997E+02  0.45594000000E+02  0.51100000000E-03 0.  1.
         23    2    1    2    0    0 -0.66613381478E-15  0.00000000000E+00  0.00000000000E+00  0.91188000000E+02  0.91188000000E+02 0.  0.
    9900012    2    3    3    0    0  0.13194760554E+01  0.35413618109E+02 -0.19932392962E+02  0.50528860144E+02  0.30000000893E+02 0.  0.
         12    1    3    3    0    0 -0.13194760554E+01 -0.35413618109E+02  0.19932392962E+02  0.40659139856E+02  0.00000000000E+00 0. -1.
         11    1    4    4    0    0  0.57231609340E+01  0.29337184076E+02 -0.18638295648E+02  0.35225147345E+02  0.51100000000E-03 0. -1.
        -11    1    4    4    0    0 -0.34269547613E+01 -0.19444871800E+01 -0.50400719782E+01  0.63974506747E+01  0.51100000000E-03 0.  1.
         12    1    4    4    0    0 -0.97673011724E+00  0.80209212135E+01  0.37459746639E+01  0.89062621238E+01  0.00000000000E+00 0. -1.
</event>
<event>
 8    1  0.1021894E-011  0.9118800E+02  0.7816164E-02  0.1184000E+00
        -11   -1    0    0    0    0  0.00000000000E+00  0.00000000000E+00  0.45593999997E+02  0.45594000000E+02  0.51100000000E-03 0. -1.
         11   -1    0    0    0    0 -0.00000000000E+00 -0.00000000000E+00 -0.45593999997E+02  0.45594000000E+02  0.51100000000E-03 0.  1.
         23    2    1    2    0    0  0.00000000000E+00  0.00000000000E+00  0.00000000000E+00  0.91188000000E+02  0.91188000000E+02 0.  0.
    9900012    2    3    3    0    0 -0.76474635116E+01  0.22509879724E+02  0.32984649255E+02  0.50528862407E+02  0.30000007773E+02 0.  0.
        -12    1    3    3    0    0  0.76474635116E+01 -0.22509879724E+02 -0.32984649255E+02  0.40659137593E+02  0.00000000000E+00 0.  1.
         11    1    4    4    0    0 -0.78136246520E+01  0.14468047366E+00 -0.24712690718E+01  0.81963915066E+01  0.51100000000E-03 0.  1.
        -11    1    4    4    0    0 -0.17100191280E+00  0.12068689805E+02  0.13685847981E+02  0.18247875232E+02  0.51100000000E-03 0. -1.
         12    1    4    4    0    0  0.33716305321E+00  0.10296509445E+02  0.21770070346E+02  0.24084595669E+02  0.00000000000E+00 0. -1.
</event>
<event>
 8    1  0.1021894E-011  0.9118800E+02  0.7816164E-02  0.1184000E+00
        -11   -1    0    0    0    0  0.00000000000E+00  0.00000000000E+00  0.45593999997E+02  0.45594000000E+02  0.51100000000E-03 0. -1.
         11   -1    0    0    0    0 -0.00000000000E+00 -0.00000000000E+00 -0.45593999997E+02  0.45594000000E+02  0.51100000000E-03 0.  1.
         23    2    1    2    0    0  0.00000000000E+00  0.88817841970E-15  0.00000000000E+00  0.91188000000E+02  0.91188000000E+02 0.  0.
    9900012    2    3    3    0    0 -0.13596518732E+02 -0.34150400403E+01 -0.38165923051E+02  0.50528862006E+02  0.30000006553E+02 0.  0.
         12    1    3    3    0    0  0.13596518732E+02  0.34150400403E+01  0.38165923051E+02  0.40659137994E+02  0.00000000000E+00 0. -1.
         11    1    4    4    0    0 -0.15288881427E+02 -0.13755892300E+02 -0.17758845672E+02  0.27172616144E+02  0.51100000000E-03 0. -1.
        -11    1    4    4    0    0 -0.94403433568E+00  0.58863101825E+01 -0.85984395206E+01  0.10462935097E+02  0.51100000000E-03 0.  1.
         12    1    4    4    0    0  0.26363970310E+01  0.44545420768E+01 -0.11808637858E+02  0.12893310765E+02  0.00000000000E+00 0. -1.
</event>
<event>
 8    1  0.1021894E-011  0.9118800E+02  0.7816164E-02  0.1184000E+00
        -11   -1    0    0    0    0  0.00000000000E+00  0.00000000000E+00  0.45593999997E+02  0.45594000000E+02  0.51100000000E-03 0. -1.
         11   -1    0    0    0    0 -0.00000000000E+00 -0.00000000000E+00 -0.45593999997E+02  0.45594000000E+02  0.51100000000E-03 0.  1.
         23    2    1    2    0    0  0.35527136788E-14  0.17763568394E-14  0.71054273576E-14  0.91188000000E+02  0.91188000000E+02 0.  0.
    9900012    2    3    3    0    0 -0.16659241639E+02 -0.88176477785E+01 -0.36026164271E+02  0.50528858882E+02  0.29999997059E+02 0.  0.
         12    1    3    3    0    0  0.16659241639E+02  0.88176477785E+01  0.36026164271E+02  0.40659141118E+02  0.00000000000E+00 0. -1.
         11    1    4    4    0    0 -0.49021227035E+00  0.46248916540E+01 -0.20777618132E+02  0.21291767104E+02  0.51100000000E-03 0. -1.
        -11    1    4    4    0    0 -0.16437429231E+02 -0.70096169973E+01 -0.81098672620E+01  0.19623805886E+02  0.51100000000E-03 0.  1.
        -12    1    4    4    0    0  0.26839986277E+00 -0.64329224352E+01 -0.71386788768E+01  0.96132858924E+01  0.00000000000E+00 0.  1.
</event>
<event>
 8    1  0.1021894E-011  0.9118800E+02  0.7816164E-02  0.1184000E+00
        -11   -1    0    0    0    0  0.00000000000E+00  0.00000000000E+00  0.45593999997E+02  0.45594000000E+02  0.51100000000E-03 0. -1.
         11   -1    0    0    0    0 -0.00000000000E+00 -0.00000000000E+00 -0.45593999997E+02  0.45594000000E+02  0.51100000000E-03 0.  1.
         23    2    1    2    0    0 -0.35527136788E-14  0.00000000000E+00  0.88817841970E-15  0.91188000000E+02  0.91188000000E+02 0.  0.
    9900012    2    3    3    0    0  0.25946545730E+02  0.30446575012E+02 -0.72765660077E+01  0.50528861075E+02  0.30000003724E+02 0.  0.
         12    1    3    3    0    0 -0.25946545730E+02 -0.30446575012E+02  0.72765660077E+01  0.40659138925E+02  0.00000000000E+00 0. -1.
         11    1    4    4    0    0 -0.22840937974E+01  0.14276017319E+01  0.54147378856E+01  0.60476869803E+01  0.51100000000E-03 0. -1.
        -11    1    4    4    0    0  0.23729825738E+02  0.29755092923E+02 -0.11667676353E+02  0.39807095550E+02  0.51100000000E-03 0.  1.
        -12    1    4    4    0    0  0.45008137898E+01 -0.73611964346E+00 -0.10236275400E+01  0.46740785446E+01  0.00000000000E+00 0.  1.
</event>
<event>
 8    1  0.1021894E-011  0.9118800E+02  0.7816164E-02  0.1184000E+00
        -11   -1    0    0    0    0  0.00000000000E+00  0.00000000000E+00  0.45593999997E+02  0.45594000000E+02  0.51100000000E-03 0. -1.
         11   -1    0    0    0    0 -0.00000000000E+00 -0.00000000000E+00 -0.45593999997E+02  0.45594000000E+02  0.51100000000E-03 0.  1.
         23    2    1    2    0    0  0.88817841970E-15  0.17763568394E-14  0.00000000000E+00  0.91188000000E+02  0.91188000000E+02 0.  0.
    9900012    2    3    3    0    0  0.79323891533E+01  0.96959675478E+01 -0.38681142808E+02  0.50528863348E+02  0.30000010632E+02 0.  0.
         12    1    3    3    0    0 -0.79323891533E+01 -0.96959675478E+01  0.38681142808E+02  0.40659136652E+02  0.00000000000E+00 0. -1.
         11    1    4    4    0    0  0.25189449691E+01 -0.44669735933E+01  0.31351341875E+01  0.60106574911E+01  0.51100000000E-03 0. -1.
        -11    1    4    4    0    0  0.19708800323E+01  0.42362030591E+01 -0.15251489997E+02  0.15951104408E+02  0.51100000000E-03 0.  1.
         12    1    4    4    0    0  0.34425641519E+01  0.99267380821E+01 -0.26564786998E+02  0.28567101448E+02  0.00000000000E+00 0. -1.
</event>
<event>
 8    1  0.1021894E-011  0.9118800E+02  0.7816164E-02  0.1184000E+00
        -11   -1    0    0    0    0  0.00000000000E+00  0.00000000000E+00  0.45593999997E+02  0.45594000000E+02  0.51100000000E-03 0. -1.
         11   -1    0    0    0    0 -0.00000000000E+00 -0.00000000000E+00 -0.45593999997E+02  0.45594000000E+02  0.51100000000E-03 0.  1.
         23    2    1    2    0    0  0.00000000000E+00 -0.35527136788E-14  0.35527136788E-14  0.91188000000E+02  0.91188000000E+02 0.  0.
    9900012    2    3    3    0    0 -0.24263559502E+01  0.29217410396E+02  0.28171277867E+02  0.50528866093E+02  0.30000018975E+02 0.  0.
        -12    1    3    3    0    0  0.24263559502E+01 -0.29217410396E+02 -0.28171277867E+02  0.40659133907E+02  0.00000000000E+00 0.  1.
         11    1    4    4    0    0  0.41364515654E+01  0.18410729303E+02  0.16566619597E+02  0.25110118879E+02  0.51100000000E-03 0. -1.
        -11    1    4    4    0    0 -0.39424575421E+00 -0.26118200032E+01 -0.34397768303E+01  0.43369457395E+01  0.51100000000E-03 0.  1.
        -12    1    4    4    0    0 -0.61685617614E+01  0.13418501097E+02  0.15044435101E+02  0.21081801474E+02  0.00000000000E+00 0.  1.
</event>
<event>
 8    1  0.1021894E-011  0.9118800E+02  0.7816164E-02  0.1184000E+00
        -11   -1    0    0    0    0  0.00000000000E+00  0.00000000000E+00  0.45593999997E+02  0.45594000000E+02  0.51100000000E-03 0. -1.
         11   -1    0    0    0    0 -0.00000000000E+00 -0.00000000000E+00 -0.45593999997E+02  0.45594000000E+02  0.51100000000E-03 0.  1.
         23    2    1    2    0    0  0.17763568394E-14  0.16653345369E-15 -0.71054273576E-14  0.91188000000E+02  0.91188000000E+02 0.  0.
    9900012    2    3    3    0    0  0.14665688311E+02 -0.49372163363E+00 -0.37918851386E+02  0.50528862464E+02  0.30000007946E+02 0.  0.
         12    1    3    3    0    0 -0.14665688311E+02  0.49372163363E+00  0.37918851386E+02  0.40659137536E+02  0.00000000000E+00 0. -1.
         11    1    4    4    0    0 -0.24415605865E+01  0.10907026249E+02 -0.10048660981E+02  0.15029970974E+02  0.51100000000E-03 0. -1.
        -11    1    4    4    0    0  0.13497442403E+02 -0.12295516369E+02 -0.22750627832E+02  0.29171077135E+02  0.51100000000E-03 0.  1.
        -12    1    4    4    0    0  0.36098064948E+01  0.89476848555E+00 -0.51195625725E+01  0.63278143546E+01  0.00000000000E+00 0.  1.
</event>
<event>
 8    1  0.1021894E-011  0.9118800E+02  0.7816164E-02  0.1184000E+00
        -11   -1    0    0    0    0  0.00000000000E+00  0.00000000000E+00  0.45593999997E+02  0.45594000000E+02  0.51100000000E-03 0. -1.
         11   -1    0    0    0    0 -0.00000000000E+00 -0.00000000000E+00 -0.45593999997E+02  0.45594000000E+02  0.51100000000E-03 0.  1.
         23    2    1    2    0    0 -0.44408920985E-15  0.00000000000E+00  0.71054273576E-14  0.91188000000E+02  0.91188000000E+02 0.  0.
    9900012    2    3    3    0    0 -0.29868424036E+01 -0.10671065438E+02  0.39119925838E+02  0.50528911684E+02  0.30000157553E+02 0.  0.
        -12    1    3    3    0    0  0.29868424036E+01  0.10671065438E+02 -0.39119925838E+02  0.40659088316E+02  0.00000000000E+00 0.  1.
         11    1    4    4    0    0 -0.87786352508E+01 -0.12524526825E+02  0.25601682899E+02  0.29822380465E+02  0.51100000000E-03 0. -1.
        -11    1    4    4    0    0  0.10204104105E+02  0.11068720407E+01  0.12394388536E+02  0.16092537828E+02  0.51100000000E-03 0.  1.
        -12    1    4    4    0    0 -0.44123112580E+01  0.74658934677E+00  0.11238544034E+01  0.46139933908E+01  0.00000000000E+00 0.  1.
</event>
<event>
 8    1  0.1021894E-011  0.9118800E+02  0.7816164E-02  0.1184000E+00
        -11   -1    0    0    0    0  0.00000000000E+00  0.00000000000E+00  0.45593999997E+02  0.45594000000E+02  0.51100000000E-03 0. -1.
         11   -1    0    0    0    0 -0.00000000000E+00 -0.00000000000E+00 -0.45593999997E+02  0.45594000000E+02  0.51100000000E-03 0.  1.
         23    2    1    2    0    0  0.00000000000E+00  0.00000000000E+00  0.00000000000E+00  0.91188000000E+02  0.91188000000E+02 0.  0.
    9900012    2    3    3    0    0 -0.46568339956E+01  0.27531397319E+02 -0.29555074080E+02  0.50528851643E+02  0.29999975055E+02 0.  0.
         12    1    3    3    0    0  0.46568339956E+01 -0.27531397319E+02  0.29555074080E+02  0.40659148357E+02  0.00000000000E+00 0. -1.
         11    1    4    4    0    0 -0.15564776154E+01  0.23315964688E+02 -0.23071390815E+02  0.32838177573E+02  0.51100000000E-03 0.  1.
        -11    1    4    4    0    0  0.32898616434E+01 -0.13234586684E+01  0.32405014081E+01  0.48037050405E+01  0.51100000000E-03 0. -1.
         12    1    4    4    0    0 -0.63902180235E+01  0.55388912994E+01 -0.97241846735E+01  0.12886969030E+02  0.00000000000E+00 0. -1.
</event>
<event>
 8    1  0.1021894E-011  0.9118800E+02  0.7816164E-02  0.1184000E+00
        -11   -1    0    0    0    0  0.00000000000E+00  0.00000000000E+00  0.45593999997E+02  0.45594000000E+02  0.51100000000E-03 0. -1.
         11   -1    0    0    0    0 -0.00000000000E+00 -0.00000000000E+00 -0.45593999997E+02  0.45594000000E+02  0.51100000000E-03 0.  1.
         23    2    1    2    0    0 -0.17763568394E-14  0.00000000000E+00  0.00000000000E+00  0.91188000000E+02  0.91188000000E+02 0.  0.
    9900012    2    3    3    0    0  0.63372703736E+01 -0.59683706357E+01 -0.39716352890E+02  0.50528792793E+02  0.29999796174E+02 0.  0.
         12    1    3    3    0    0 -0.63372703736E+01  0.59683706357E+01  0.39716352890E+02  0.40659207207E+02  0.00000000000E+00 0. -1.
         11    1    4    4    0    0 -0.72074671448E+01 -0.14954093819E+01 -0.39327594747E+01  0.83456832680E+01  0.51100000000E-03 0.  1.
        -11    1    4    4    0    0  0.13671610355E+02 -0.57230797612E+01 -0.14079183790E+02  0.20442357695E+02  0.51100000000E-03 0. -1.
        -12    1    4    4    0    0 -0.12687283704E+00  0.12501185075E+01 -0.21704409625E+02  0.21740751831E+02  0.00000000000E+00 0.  1.
</event>
<event>
 8    1  0.1021894E-011  0.9118800E+02  0.7816164E-02  0.1184000E+00
        -11   -1    0    0    0    0  0.00000000000E+00  0.00000000000E+00  0.45593999997E+02  0.45594000000E+02  0.51100000000E-03 0. -1.
         11   -1    0    0    0    0 -0.00000000000E+00 -0.00000000000E+00 -0.45593999997E+02  0.45594000000E+02  0.51100000000E-03 0.  1.
         23    2    1    2    0    0  0.00000000000E+00  0.00000000000E+00  0.00000000000E+00  0.91188000000E+02  0.91188000000E+02 0.  0.
    9900012    2    3    3    0    0  0.34173824043E+02  0.10144131974E+02 -0.19555351729E+02  0.50528862718E+02  0.30000008719E+02 0.  0.
         12    1    3    3    0    0 -0.34173824043E+02 -0.10144131974E+02  0.19555351729E+02  0.40659137282E+02  0.00000000000E+00 0. -1.
         11    1    4    4    0    0  0.11159517793E+02  0.12338677541E+02 -0.14834921385E+02  0.22290192767E+02  0.51100000000E-03 0. -1.
        -11    1    4    4    0    0  0.14148702659E+02 -0.42155206646E+01 -0.98985414036E+01  0.17774631461E+02  0.51100000000E-03 0.  1.
         12    1    4    4    0    0  0.88656035912E+01  0.20209750975E+01  0.51781110591E+01  0.10464038490E+02  0.00000000000E+00 0. -1.
</event>
<event>
 8    1  0.1021894E-011  0.9118800E+02  0.7816164E-02  0.1184000E+00
        -11   -1    0    0    0    0  0.00000000000E+00  0.00000000000E+00  0.45593999997E+02  0.45594000000E+02  0.51100000000E-03 0. -1.
         11   -1    0    0    0    0 -0.00000000000E+00 -0.00000000000E+00 -0.45593999997E+02  0.45594000000E+02  0.51100000000E-03 0.  1.
         23    2    1    2    0    0  0.00000000000E+00 -0.44408920985E-15  0.00000000000E+00  0.91188000000E+02  0.91188000000E+02 0.  0.
    9900012    2    3    3    0    0  0.20517575206E+02  0.29144843062E+01 -0.34981460182E+02  0.50528835380E+02  0.29999925622E+02 0.  0.
         12    1    3    3    0    0 -0.20517575206E+02 -0.29144843062E+01  0.34981460182E+02  0.40659164620E+02  0.00000000000E+00 0. -1.
         11    1    4    4    0    0  0.72200555076E+01  0.12679993055E+01 -0.42425630341E+01  0.84697322940E+01  0.51100000000E-03 0. -1.
        -11    1    4    4    0    0  0.67724279688E+01  0.44983474122E+01 -0.33461679066E+02  0.34435227257E+02  0.51100000000E-03 0.  1.
        -12    1    4    4    0    0  0.65250917295E+01 -0.28518624114E+01  0.27227819180E+01  0.76238758296E+01  0.00000000000E+00 0.  1.
</event>
<event>
 8    1  0.1021894E-011  0.9118800E+02  0.7816164E-02  0.1184000E+00
        -11   -1    0    0    0    0  0.00000000000E+00  0.00000000000E+00  0.45593999997E+02  0.45594000000E+02  0.51100000000E-03 0. -1.
         11   -1    0    0    0    0 -0.00000000000E+00 -0.00000000000E+00 -0.45593999997E+02  0.45594000000E+02  0.51100000000E-03 0.  1.
         23    2    1    2    0    0  0.35527136788E-14  0.00000000000E+00  0.00000000000E+00  0.91188000000E+02  0.91188000000E+02 0.  0.
    9900012    2    3    3    0    0 -0.16760981593E+02 -0.30691578259E+02  0.20742763328E+02  0.50528859447E+02  0.29999998776E+02 0.  0.
        -12    1    3    3    0    0  0.16760981593E+02  0.30691578259E+02 -0.20742763328E+02  0.40659140553E+02  0.00000000000E+00 0.  1.
         11    1    4    4    0    0 -0.91580935664E+01 -0.35023846952E+01  0.32438477396E+01  0.10327629193E+02  0.51100000000E-03 0. -1.
        -11    1    4    4    0    0 -0.32167771357E+00 -0.26031310832E+02  0.62857436845E+01  0.26781396418E+02  0.51100000000E-03 0.  1.
        -12    1    4    4    0    0 -0.72812103129E+01 -0.11578827320E+01  0.11213171904E+02  0.13419833836E+02  0.00000000000E+00 0.  1.
</event>
<event>
 8    1  0.1021894E-011  0.9118800E+02  0.7816164E-02  0.1184000E+00
        -11   -1    0    0    0    0  0.00000000000E+00  0.00000000000E+00  0.45593999997E+02  0.45594000000E+02  0.51100000000E-03 0. -1.
         11   -1    0    0    0    0 -0.00000000000E+00 -0.00000000000E+00 -0.45593999997E+02  0.45594000000E+02  0.51100000000E-03 0.  1.
         23    2    1    2    0    0  0.00000000000E+00  0.00000000000E+00  0.00000000000E+00  0.91188000000E+02  0.91188000000E+02 0.  0.
    9900012    2    3    3    0    0  0.22061221627E+02 -0.18681982667E+02  0.28591114374E+02  0.50528858382E+02  0.29999995537E+02 0.  0.
        -12    1    3    3    0    0 -0.22061221627E+02  0.18681982667E+02 -0.28591114374E+02  0.40659141618E+02  0.00000000000E+00 0.  1.
         11    1    4    4    0    0  0.11922912425E+02 -0.14717140292E+02  0.22572416348E+02  0.29466320420E+02  0.51100000000E-03 0. -1.
        -11    1    4    4    0    0  0.46785854874E+01  0.63792598058E+01  0.49162392054E+01  0.93141572897E+01  0.51100000000E-03 0.  1.
         12    1    4    4    0    0  0.54597237140E+01 -0.10344102180E+02  0.11024588203E+01  0.11748380672E+02  0.00000000000E+00 0. -1.
</event>
<event>
 8    1  0.1021894E-011  0.9118800E+02  0.7816164E-02  0.1184000E+00
        -11   -1    0    0    0    0  0.00000000000E+00  0.00000000000E+00  0.45593999997E+02  0.45594000000E+02  0.51100000000E-03 0. -1.
         11   -1    0    0    0    0 -0.00000000000E+00 -0.00000000000E+00 -0.45593999997E+02  0.45594000000E+02  0.51100000000E-03 0.  1.
         23    2    1    2    0    0 -0.71054273576E-14  0.17763568394E-14  0.00000000000E+00  0.91188000000E+02  0.91188000000E+02 0.  0.
    9900012    2    3    3    0    0 -0.31403586755E+02  0.74376271948E+01  0.24731775673E+02  0.50528876948E+02  0.30000051972E+02 0.  0.
        -12    1    3    3    0    0  0.31403586755E+02 -0.74376271948E+01 -0.24731775673E+02  0.40659123052E+02  0.00000000000E+00 0.  1.
         11    1    4    4    0    0 -0.23800751097E+02  0.12285815557E+02  0.15016525818E+02  0.30706889529E+02  0.51100000000E-03 0. -1.
        -11    1    4    4    0    0 -0.34348987608E+01 -0.88399738863E+01  0.10323956496E+02  0.14018835394E+02  0.51100000000E-03 0.  1.
        -12    1    4    4    0    0 -0.41679368977E+01  0.39917855239E+01 -0.60870664069E+00  0.58031520251E+01  0.00000000000E+00 0.  1.
</event>
<event>
 8    1  0.1021894E-011  0.9118800E+02  0.7816164E-02  0.1184000E+00
        -11   -1    0    0    0    0  0.00000000000E+00  0.00000000000E+00  0.45593999997E+02  0.45594000000E+02  0.51100000000E-03 0. -1.
         11   -1    0    0    0    0 -0.00000000000E+00 -0.00000000000E+00 -0.45593999997E+02  0.45594000000E+02  0.51100000000E-03 0.  1.
         23    2    1    2    0    0  0.35527136788E-14  0.00000000000E+00  0.00000000000E+00  0.91188000000E+02  0.91188000000E+02 0.  0.
    9900012    2    3    3    0    0 -0.18738636848E+02 -0.84271086530E+01  0.35085765663E+02  0.50528885114E+02  0.30000076791E+02 0.  0.
        -12    1    3    3    0    0  0.18738636848E+02  0.84271086530E+01 -0.35085765663E+02  0.40659114886E+02  0.00000000000E+00 0.  1.
         11    1    4    4    0    0 -0.22517866149E+01  0.38322289632E+01  0.15639559251E+02  0.16258915573E+02  0.51100000000E-03 0. -1.
        -11    1    4    4    0    0 -0.71181954876E+01  0.13490291480E+01 -0.16933197498E+01  0.74401558235E+01  0.51100000000E-03 0.  1.
        -12    1    4    4    0    0 -0.93686547453E+01 -0.13608366764E+02  0.21139526162E+02  0.26829813717E+02  0.00000000000E+00 0.  1.
</event>
<event>
 8    1  0.1021894E-011  0.9118800E+02  0.7816164E-02  0.1184000E+00
        -11   -1    0    0    0    0  0.00000000000E+00  0.00000000000E+00  0.45593999997E+02  0.45594000000E+02  0.51100000000E-03 0. -1.
         11   -1    0    0    0    0 -0.00000000000E+00 -0.00000000000E+00 -0.45593999997E+02  0.45594000000E+02  0.51100000000E-03 0.  1.
         23    2    1    2    0    0  0.00000000000E+00 -0.17763568394E-14  0.00000000000E+00  0.91188000000E+02  0.91188000000E+02 0.  0.
    9900012    2    3    3    0    0  0.27138513794E+02 -0.12685051575E+02  0.27490979653E+02  0.50528887532E+02  0.30000084142E+02 0.  0.
        -12    1    3    3    0    0 -0.27138513794E+02  0.12685051575E+02 -0.27490979653E+02  0.40659112468E+02  0.00000000000E+00 0.  1.
         11    1    4    4    0    0  0.27304367055E+01  0.70958932170E+00  0.86041210950E+01  0.90548164911E+01  0.51100000000E-03 0. -1.
        -11    1    4    4    0    0  0.29361564079E+02 -0.10551221412E+02  0.15567380269E+02  0.34867937237E+02  0.51100000000E-03 0.  1.
        -12    1    4    4    0    0 -0.49534869902E+01 -0.28434194843E+01  0.33194782892E+01  0.66061338041E+01  0.00000000000E+00 0.  1.
</event>
<event>
 8    1  0.1021894E-011  0.9118800E+02  0.7816164E-02  0.1184000E+00
        -11   -1    0    0    0    0  0.00000000000E+00  0.00000000000E+00  0.45593999997E+02  0.45594000000E+02  0.51100000000E-03 0. -1.
         11   -1    0    0    0    0 -0.00000000000E+00 -0.00000000000E+00 -0.45593999997E+02  0.45594000000E+02  0.51100000000E-03 0.  1.
         23    2    1    2    0    0  0.17763568394E-14  0.35527136788E-14 -0.35527136788E-14  0.91188000000E+02  0.91188000000E+02 0.  0.
    9900012    2    3    3    0    0 -0.14947436934E+02 -0.27774078598E+02  0.25658134869E+02  0.50528865752E+02  0.30000017938E+02 0.  0.
        -12    1    3    3    0    0  0.14947436934E+02  0.27774078598E+02 -0.25658134869E+02  0.40659134248E+02  0.00000000000E+00 0.  1.
         11    1    4    4    0    0 -0.28689470194E+01  0.31646516663E+01  0.15823435326E+01  0.45551825963E+01  0.51100000000E-03 0.  1.
        -11    1    4    4    0    0 -0.17410369624E+02 -0.27982580229E+02  0.21535544285E+02  0.39369092377E+02  0.51100000000E-03 0. -1.
        -12    1    4    4    0    0  0.53318797088E+01 -0.29561500350E+01  0.25402470522E+01  0.66045907780E+01  0.00000000000E+00 0.  1.
</event>
<event>
 8    1 -0.1021894E-011  0.9118800E+02  0.7816164E-02  0.1184000E+00
        -11   -1    0    0    0    0  0.00000000000E+00  0.00000000000E+00  0.45593999997E+02  0.45594000000E+02  0.51100000000E-03 0. -1.
         11   -1    0    0    0    0 -0.00000000000E+00 -0.00000000000E+00 -0.45593999997E+02  0.45594000000E+02  0.51100000000E-03 0.  1.
         23    2    1    2    0    0  0.88817841970E-15  0.00000000000E+00  0.71054273576E-14  0.91188000000E+02  0.91188000000E+02 0.  0.
    9900012    2    3    3    0    0 -0.65604379689E+01 -0.23469204251E+02  0.32547256517E+02  0.50528846033E+02  0.29999958002E+02 0.  0.
        -12    1    3    3    0    0  0.65604379689E+01  0.23469204251E+02 -0.32547256517E+02  0.40659153967E+02  0.00000000000E+00 0.  1.
         11    1    4    4    0    0 -0.67651707173E+00 -0.28269142830E+01 -0.16094398619E+00  0.29111892655E+01  0.51100000000E-03 0. -1.
        -11    1    4    4    0    0  0.10785400433E+02 -0.64049725913E+01  0.14006035105E+02  0.18802062547E+02  0.51100000000E-03 0.  1.
        -12    1    4    4    0    0 -0.16669321330E+02 -0.14237317376E+02  0.18702165398E+02  0.28815594220E+02  0.00000000000E+00 0.  1.
</event>
<event>
 8    1  0.1021894E-011  0.9118800E+02  0.7816164E-02  0.1184000E+00
        -11   -1    0    0    0    0  0.00000000000E+00  0.00000000000E+00  0.45593999997E+02  0.45594000000E+02  0.51100000000E-03 0.  1.
         11   -1    0    0    0    0 -0.00000000000E+00 -0.00000000000E+00 -0.45593999997E+02  0.45594000000E+02  0.51100000000E-03 0. -1.
         23    2    1    2    0    0  0.71054273576E-14  0.35527136788E-14  0.35527136788E-14  0.91188000000E+02  0.91188000000E+02 0.  0.
    9900012    2    3    3    0    0 -0.30232625147E+02 -0.17567725960E+02 -0.20749196551E+02  0.50528858639E+02  0.29999996319E+02 0.  0.
         12    1    3    3    0    0  0.30232625147E+02  0.17567725960E+02  0.20749196551E+02  0.40659141361E+02  0.00000000000E+00 0. -1.
         11    1    4    4    0    0 -0.42551030627E+01 -0.53213819290E+00  0.60754932546E+01  0.74364434832E+01  0.51100000000E-03 0. -1.
        -11    1    4    4    0    0 -0.27211490422E+02 -0.17557310939E+02 -0.25678436858E+02  0.41329245071E+02  0.51100000000E-03 0.  1.
        -12    1    4    4    0    0  0.12339683376E+01  0.52172317228E+00 -0.11462529485E+01  0.17631700850E+01  0.00000000000E+00 0.  1.
</event>
<event>
 8    1  0.1021894E-011  0.9118800E+02  0.7816164E-02  0.1184000E+00
        -11   -1    0    0    0    0  0.00000000000E+00  0.00000000000E+00  0.45593999997E+02  0.45594000000E+02  0.51100000000E-03 0. -1.
         11   -1    0    0    0    0 -0.00000000000E+00 -0.00000000000E+00 -0.45593999997E+02  0.45594000000E+02  0.51100000000E-03 0.  1.
         23    2    1    2    0    0  0.35527136788E-14 -0.88817841970E-15  0.00000000000E+00  0.91188000000E+02  0.91188000000E+02 0.  0.
    9900012    2    3    3    0    0 -0.27349122735E+02  0.47345914247E+01  0.29711531490E+02  0.50528856209E+02  0.29999988933E+02 0.  0.
        -12    1    3    3    0    0  0.27349122735E+02 -0.47345914247E+01 -0.29711531490E+02  0.40659143791E+02  0.00000000000E+00 0.  1.
         11    1    4    4    0    0 -0.66861754588E+01 -0.50147586154E+00  0.14032907559E+02  0.15552456884E+02  0.51100000000E-03 0. -1.
        -11    1    4    4    0    0 -0.43934535680E+01  0.71911520886E+01 -0.40335798864E+01  0.93426371853E+01  0.51100000000E-03 0.  1.
        -12    1    4    4    0    0 -0.16269493708E+02 -0.19550848024E+01  0.19712203817E+02  0.25633762140E+02  0.00000000000E+00 0.  1.
</event>
<event>
 8    1  0.1021894E-011  0.9118800E+02  0.7816164E-02  0.1184000E+00
        -11   -1    0    0    0    0  0.00000000000E+00  0.00000000000E+00  0.45593999997E+02  0.45594000000E+02  0.51100000000E-03 0. -1.
         11   -1    0    0    0    0 -0.00000000000E+00 -0.00000000000E+00 -0.45593999997E+02  0.45594000000E+02  0.51100000000E-03 0.  1.
         23    2    1    2    0    0  0.00000000000E+00 -0.35527136788E-14  0.17763568394E-14  0.91188000000E+02  0.91188000000E+02 0.  0.
    9900012    2    3    3    0    0 -0.21762864694E+02  0.31826559000E+02 -0.12907894144E+02  0.50528857502E+02  0.29999992862E+02 0.  0.
         12    1    3    3    0    0  0.21762864694E+02 -0.31826559000E+02  0.12907894144E+02  0.40659142498E+02  0.00000000000E+00 0. -1.
         11    1    4    4    0    0 -0.13145472061E+02  0.20118116762E+02  0.22342651785E+01  0.24135741109E+02  0.51100000000E-03 0. -1.
        -11    1    4    4    0    0 -0.44252225102E+01 -0.35096396128E+01 -0.25318252926E+01  0.61895318118E+01  0.51100000000E-03 0.  1.
        -12    1    4    4    0    0 -0.41921701227E+01  0.15218081851E+02 -0.12610334030E+02  0.20203584581E+02  0.00000000000E+00 0.  1.
</event>
<event>
 8    1  0.1177492E-011  0.9118800E+02  0.7816164E-02  0.1184000E+00
        -11   -1    0    0    0    0  0.00000000000E+00  0.00000000000E+00  0.45593999997E+02  0.45594000000E+02  0.51100000000E-03 0. -1.
         11   -1    0    0    0    0 -0.00000000000E+00 -0.00000000000E+00 -0.45593999997E+02  0.45594000000E+02  0.51100000000E-03 0.  1.
         23    2    1    2    0    0 -0.17763568394E-14 -0.44408920985E-15  0.00000000000E+00  0.91188000000E+02  0.91188000000E+02 0.  0.
    9900012    2    3    3    0    0 -0.12485457784E+02 -0.35838977447E+01 -0.38528352165E+02  0.50528869418E+02  0.30000029084E+02 0.  0.
         12    1    3    3    0    0  0.12485457784E+02  0.35838977447E+01  0.38528352165E+02  0.40659130582E+02  0.00000000000E+00 0. -1.
         11    1    4    4    0    0 -0.40711505115E+01  0.40696652374E+01  0.16396050782E+01  0.59853777412E+01  0.51100000000E-03 0.  1.
        -11    1    4    4    0    0 -0.91249781649E+01 -0.36411735985E+01 -0.39121709647E+02  0.40336478994E+02  0.51100000000E-03 0. -1.
         12    1    4    4    0    0  0.71067089251E+00 -0.40123893837E+01 -0.10462475960E+01  0.42070126831E+01  0.00000000000E+00 0. -1.
</event>
<event>
 8    1  0.1021894E-011  0.9118800E+02  0.7816164E-02  0.1184000E+00
        -11   -1    0    0    0    0  0.00000000000E+00  0.00000000000E+00  0.45593999997E+02  0.45594000000E+02  0.51100000000E-03 0. -1.
         11   -1    0    0    0    0 -0.00000000000E+00 -0.00000000000E+00 -0.45593999997E+02  0.45594000000E+02  0.51100000000E-03 0.  1.
         23    2    1    2    0    0  0.00000000000E+00  0.00000000000E+00  0.00000000000E+00  0.91188000000E+02  0.91188000000E+02 0.  0.
    9900012    2    3    3    0    0 -0.76466834318E+01 -0.63137397341E+01 -0.39431341369E+02  0.50528858850E+02  0.29999996959E+02 0.  0.
         12    1    3    3    0    0  0.76466834318E+01  0.63137397341E+01  0.39431341369E+02  0.40659141150E+02  0.00000000000E+00 0. -1.
         11    1    4    4    0    0 -0.60783954469E+01 -0.56698989157E+01  0.21369344828E+01  0.85826064903E+01  0.51100000000E-03 0. -1.
        -11    1    4    4    0    0 -0.31658119143E+01  0.96782529290E+00 -0.27024158286E+02  0.27226167233E+02  0.51100000000E-03 0.  1.
         12    1    4    4    0    0  0.15975239294E+01 -0.16116661114E+01 -0.14544117566E+02  0.14720085126E+02  0.00000000000E+00 0. -1.
</event>
<event>
 8    1  0.1021894E-011  0.9118800E+02  0.7816164E-02  0.1184000E+00
        -11   -1    0    0    0    0  0.00000000000E+00  0.00000000000E+00  0.45593999997E+02  0.45594000000E+02  0.51100000000E-03 0. -1.
         11   -1    0    0    0    0 -0.00000000000E+00 -0.00000000000E+00 -0.45593999997E+02  0.45594000000E+02  0.51100000000E-03 0.  1.
         23    2    1    2    0    0  0.00000000000E+00  0.00000000000E+00  0.00000000000E+00  0.91188000000E+02  0.91188000000E+02 0.  0.
    9900012    2    3    3    0    0  0.16989017830E+01 -0.95603113729E+01  0.39482652996E+02  0.50528859473E+02  0.29999998855E+02 0.  0.
        -12    1    3    3    0    0 -0.16989017830E+01  0.95603113729E+01 -0.39482652996E+02  0.40659140527E+02  0.00000000000E+00 0.  1.
         11    1    4    4    0    0  0.13673433747E+02  0.13052743343E+01  0.12605538340E+02  0.18643125506E+02  0.51100000000E-03 0. -1.
        -11    1    4    4    0    0 -0.69119643621E+01 -0.24493950669E+01  0.11306886634E+02  0.13476664021E+02  0.51100000000E-03 0.  1.
        -12    1    4    4    0    0 -0.50625676021E+01 -0.84161906403E+01  0.15570228022E+02  0.18409069946E+02  0.00000000000E+00 0.  1.
</event>
<event>
 8    1  0.1021894E-011  0.9118800E+02  0.7816164E-02  0.1184000E+00
        -11   -1    0    0    0    0  0.00000000000E+00  0.00000000000E+00  0.45593999997E+02  0.45594000000E+02  0.51100000000E-03 0. -1.
         11   -1    0    0    0    0 -0.00000000000E+00 -0.00000000000E+00 -0.45593999997E+02  0.45594000000E+02  0.51100000000E-03 0.  1.
         23    2    1    2    0    0  0.71054273576E-14  0.66613381478E-15 -0.35527136788E-14  0.91188000000E+02  0.91188000000E+02 0.  0.
    9900012    2    3    3    0    0  0.32535804391E+02  0.11009561783E+01 -0.24359276876E+02  0.50528867670E+02  0.30000023771E+02 0.  0.
         12    1    3    3    0    0 -0.32535804391E+02 -0.11009561783E+01  0.24359276876E+02  0.40659132330E+02  0.00000000000E+00 0. -1.
         11    1    4    4    0    0 -0.60247032597E+00 -0.44666244238E+01 -0.57102911925E+01  0.72746910588E+01  0.51100000000E-03 0. -1.
        -11    1    4    4    0    0  0.23362253266E+02  0.11794029197E+02 -0.17764017830E+02  0.31629959407E+02  0.51100000000E-03 0.  1.
        -12    1    4    4    0    0  0.97760214509E+01 -0.62264485946E+01 -0.88496785266E+00  0.11624217204E+02  0.00000000000E+00 0.  1.
</event>
<event>
 8    1  0.1021894E-011  0.9118800E+02  0.7816164E-02  0.1184000E+00
        -11   -1    0    0    0    0  0.00000000000E+00  0.00000000000E+00  0.45593999997E+02  0.45594000000E+02  0.51100000000E-03 0. -1.
         11   -1    0    0    0    0 -0.00000000000E+00 -0.00000000000E+00 -0.45593999997E+02  0.45594000000E+02  0.51100000000E-03 0.  1.
         23    2    1    2    0    0 -0.17763568394E-14  0.00000000000E+00  0.00000000000E+00  0.91188000000E+02  0.91188000000E+02 0.  0.
    9900012    2    3    3    0    0  0.13626571341E+02  0.33365331056E+02 -0.18821163144E+02  0.50528868860E+02  0.30000027388E+02 0.  0.
         12    1    3    3    0    0 -0.13626571341E+02 -0.33365331056E+02  0.18821163144E+02  0.40659131140E+02  0.00000000000E+00 0. -1.
         11    1    4    4    0    0  0.10130313653E+02 -0.21093844016E+01 -0.74025108308E+01  0.12722811173E+02  0.51100000000E-03 0. -1.
        -11    1    4    4    0    0  0.44385300310E+01  0.20658862201E+02 -0.55912991972E+01  0.21857533330E+02  0.51100000000E-03 0.  1.
         12    1    4    4    0    0 -0.94227234351E+00  0.14815853256E+02 -0.58273531155E+01  0.15948524358E+02  0.00000000000E+00 0. -1.
</event>
<event>
 8    1  0.1021894E-011  0.9118800E+02  0.7816164E-02  0.1184000E+00
        -11   -1    0    0    0    0  0.00000000000E+00  0.00000000000E+00  0.45593999997E+02  0.45594000000E+02  0.51100000000E-03 0.  1.
         11   -1    0    0    0    0 -0.00000000000E+00 -0.00000000000E+00 -0.45593999997E+02  0.45594000000E+02  0.51100000000E-03 0. -1.
         23    2    1    2    0    0  0.00000000000E+00  0.00000000000E+00  0.00000000000E+00  0.91188000000E+02  0.91188000000E+02 0.  0.
    9900012    2    3    3    0    0  0.38600994965E+02  0.12086541274E+02  0.41285358597E+01  0.50528854649E+02  0.29999984192E+02 0.  0.
        -12    1    3    3    0    0 -0.38600994965E+02 -0.12086541274E+02 -0.41285358597E+01  0.40659145351E+02  0.00000000000E+00 0.  1.
         11    1    4    4    0    0  0.31487001789E+02  0.13289031555E+02  0.26712643890E+01  0.34280683993E+02  0.51100000000E-03 0. -1.
        -11    1    4    4    0    0  0.55416472519E+01 -0.64534025547E+01  0.48598646812E+01  0.97966598276E+01  0.51100000000E-03 0.  1.
         12    1    4    4    0    0  0.15723459242E+01  0.52509122740E+01 -0.34025932104E+01  0.64515108285E+01  0.00000000000E+00 0. -1.
</event>
<event>
 8    1  0.1021894E-011  0.9118800E+02  0.7816164E-02  0.1184000E+00
        -11   -1    0    0    0    0  0.00000000000E+00  0.00000000000E+00  0.45593999997E+02  0.45594000000E+02  0.51100000000E-03 0. -1.
         11   -1    0    0    0    0 -0.00000000000E+00 -0.00000000000E+00 -0.45593999997E+02  0.45594000000E+02  0.51100000000E-03 0.  1.
         23    2    1    2    0    0  0.17763568394E-14 -0.35527136788E-14  0.00000000000E+00  0.91188000000E+02  0.91188000000E+02 0.  0.
    9900012    2    3    3    0    0  0.13204970288E+02 -0.18596730295E+02  0.33659423176E+02  0.50528851134E+02  0.29999973506E+02 0.  0.
        -12    1    3    3    0    0 -0.13204970288E+02  0.18596730295E+02 -0.33659423176E+02  0.40659148866E+02  0.00000000000E+00 0.  1.
         11    1    4    4    0    0 -0.15495551783E+01  0.32315494766E+01  0.15494001135E+02  0.15903084755E+02  0.51100000000E-03 0. -1.
        -11    1    4    4    0    0  0.57903544219E+01 -0.15869341400E+02  0.49940573259E+01  0.17615470747E+02  0.51100000000E-03 0.  1.
        -12    1    4    4    0    0  0.89641710441E+01 -0.59589383713E+01  0.13171364715E+02  0.17010295632E+02  0.00000000000E+00 0.  1.
</event>
<event>
 8    1  0.1021894E-011  0.9118800E+02  0.7816164E-02  0.1184000E+00
        -11   -1    0    0    0    0  0.00000000000E+00  0.00000000000E+00  0.45593999997E+02  0.45594000000E+02  0.51100000000E-03 0. -1.
         11   -1    0    0    0    0 -0.00000000000E+00 -0.00000000000E+00 -0.45593999997E+02  0.45594000000E+02  0.51100000000E-03 0.  1.
         23    2    1    2    0    0  0.00000000000E+00  0.22204460493E-15  0.00000000000E+00  0.91188000000E+02  0.91188000000E+02 0.  0.
    9900012    2    3    3    0    0  0.32329449220E+02 -0.73565479023E+00  0.24646113559E+02  0.50528863408E+02  0.30000010815E+02 0.  0.
        -12    1    3    3    0    0 -0.32329449220E+02  0.73565479023E+00 -0.24646113559E+02  0.40659136592E+02  0.00000000000E+00 0.  1.
         11    1    4    4    0    0 -0.51497503477E+01  0.31538577255E+01  0.34419474311E+01  0.69508092749E+01  0.51100000000E-03 0.  1.
        -11    1    4    4    0    0  0.25035475522E+02 -0.50615619931E+01  0.13411259066E+02  0.28848852914E+02  0.51100000000E-03 0. -1.
         12    1    4    4    0    0  0.12443724045E+02  0.11720494774E+01  0.77929070618E+01  0.14729201220E+02  0.00000000000E+00 0. -1.
</event>
<event>
 8    1  0.1021894E-011  0.9118800E+02  0.7816164E-02  0.1184000E+00
        -11   -1    0    0    0    0  0.00000000000E+00  0.00000000000E+00  0.45593999997E+02  0.45594000000E+02  0.51100000000E-03 0.  1.
         11   -1    0    0    0    0 -0.00000000000E+00 -0.00000000000E+00 -0.45593999997E+02  0.45594000000E+02  0.51100000000E-03 0. -1.
         23    2    1    2    0    0  0.00000000000E+00  0.35527136788E-14 -0.35527136788E-14  0.91188000000E+02  0.91188000000E+02 0.  0.
    9900012    2    3    3    0    0 -0.93814301581E+01  0.29382349454E+02 -0.26492146058E+02  0.50528837514E+02  0.29999932108E+02 0.  0.
         12    1    3    3    0    0  0.93814301581E+01 -0.29382349454E+02  0.26492146058E+02  0.40659162486E+02  0.00000000000E+00 0. -1.
         11    1    4    4    0    0 -0.37415878142E+01 -0.25165524166E+01  0.16063056945E+01  0.47867247343E+01  0.51100000000E-03 0. -1.
        -11    1    4    4    0    0 -0.66287884727E+01  0.33400955222E+02 -0.25327562588E+02  0.42438780299E+02  0.51100000000E-03 0.  1.
         12    1    4    4    0    0  0.98894612870E+00 -0.15020533512E+01 -0.27708891644E+01  0.33033324806E+01  0.00000000000E+00 0. -1.
</event>
<event>
 8    1  0.1021894E-011  0.9118800E+02  0.7816164E-02  0.1184000E+00
        -11   -1    0    0    0    0  0.00000000000E+00  0.00000000000E+00  0.45593999997E+02  0.45594000000E+02  0.51100000000E-03 0. -1.
         11   -1    0    0    0    0 -0.00000000000E+00 -0.00000000000E+00 -0.45593999997E+02  0.45594000000E+02  0.51100000000E-03 0.  1.
         23    2    1    2    0    0  0.00000000000E+00  0.00000000000E+00  0.00000000000E+00  0.91188000000E+02  0.91188000000E+02 0.  0.
    9900012    2    3    3    0    0 -0.18045410693E+02  0.45463303902E+01  0.36150515481E+02  0.50528859126E+02  0.29999997799E+02 0.  0.
        -12    1    3    3    0    0  0.18045410693E+02 -0.45463303902E+01 -0.36150515481E+02  0.40659140874E+02  0.00000000000E+00 0.  1.
         11    1    4    4    0    0 -0.43192857159E+01 -0.99555312432E+01  0.12584378685E+02  0.16617322847E+02  0.51100000000E-03 0. -1.
        -11    1    4    4    0    0 -0.25808018775E+01  0.91095395860E+01  0.17996662015E+02  0.20335291829E+02  0.51100000000E-03 0.  1.
        -12    1    4    4    0    0 -0.11145323100E+02  0.53923220474E+01  0.55694747802E+01  0.13576244451E+02  0.00000000000E+00 0.  1.
</event>
<event>
 8    1  0.1021894E-011  0.9118800E+02  0.7816164E-02  0.1184000E+00
        -11   -1    0    0    0    0  0.00000000000E+00  0.00000000000E+00  0.45593999997E+02  0.45594000000E+02  0.51100000000E-03 0. -1.
         11   -1    0    0    0    0 -0.00000000000E+00 -0.00000000000E+00 -0.45593999997E+02  0.45594000000E+02  0.51100000000E-03 0.  1.
         23    2    1    2    0    0  0.17763568394E-14 -0.17763568394E-14  0.00000000000E+00  0.91188000000E+02  0.91188000000E+02 0.  0.
    9900012    2    3    3    0    0 -0.11833327075E+02 -0.11310817702E+02  0.37218318342E+02  0.50528862688E+02  0.30000008625E+02 0.  0.
        -12    1    3    3    0    0  0.11833327075E+02  0.11310817702E+02 -0.37218318342E+02  0.40659137312E+02  0.00000000000E+00 0.  1.
         11    1    4    4    0    0  0.60403631515E+01 -0.10728251478E+02  0.20183159637E+02  0.23641939429E+02  0.51100000000E-03 0. -1.
        -11    1    4    4    0    0 -0.80838715516E+01 -0.24159913982E+01  0.17087109085E+01  0.86084660032E+01  0.51100000000E-03 0.  1.
         12    1    4    4    0    0 -0.97898186749E+01  0.18334251743E+01  0.15326447797E+02  0.18278457255E+02  0.00000000000E+00 0. -1.
</event>
<event>
 8    1  0.1021894E-011  0.9118800E+02  0.7816164E-02  0.1184000E+00
        -11   -1    0    0    0    0  0.00000000000E+00  0.00000000000E+00  0.45593999997E+02  0.45594000000E+02  0.51100000000E-03 0. -1.
         11   -1    0    0    0    0 -0.00000000000E+00 -0.00000000000E+00 -0.45593999997E+02  0.45594000000E+02  0.51100000000E-03 0.  1.
         23    2    1    2    0    0 -0.22204460493E-15  0.17763568394E-14  0.00000000000E+00  0.91188000000E+02  0.91188000000E+02 0.  0.
    9900012    2    3    3    0    0 -0.10258893476E+01  0.10477378040E+02  0.39272610154E+02  0.50528858250E+02  0.29999995137E+02 0.  0.
        -12    1    3    3    0    0  0.10258893476E+01 -0.10477378040E+02 -0.39272610154E+02  0.40659141750E+02  0.00000000000E+00 0.  1.
         11    1    4    4    0    0 -0.23877058933E+01  0.15308346007E+02  0.17867535608E+02  0.23649427601E+02  0.51100000000E-03 0. -1.
        -11    1    4    4    0    0 -0.41223914096E+01 -0.84099402028E+01  0.15224242763E+02  0.17874528612E+02  0.51100000000E-03 0.  1.
        -12    1    4    4    0    0  0.54842079553E+01  0.35789722359E+01  0.61808317831E+01  0.90049020368E+01  0.00000000000E+00 0.  1.
</event>
<event>
 8    1  0.1021894E-011  0.9118800E+02  0.7816164E-02  0.1184000E+00
        -11   -1    0    0    0    0  0.00000000000E+00  0.00000000000E+00  0.45593999997E+02  0.45594000000E+02  0.51100000000E-03 0.  1.
         11   -1    0    0    0    0 -0.00000000000E+00 -0.00000000000E+00 -0.45593999997E+02  0.45594000000E+02  0.51100000000E-03 0. -1.
         23    2    1    2    0    0  0.00000000000E+00 -0.88817841970E-15  0.00000000000E+00  0.91188000000E+02  0.91188000000E+02 0.  0.
    9900012    2    3    3    0    0 -0.35741366354E+02 -0.63914344983E+01  0.18299451764E+02  0.50528860331E+02  0.30000001462E+02 0.  0.
        -12    1    3    3    0    0  0.35741366354E+02  0.63914344983E+01 -0.18299451764E+02  0.40659139669E+02  0.00000000000E+00 0.  1.
         11    1    4    4    0    0 -0.20951463625E+02 -0.11542892040E+02  0.60136084169E+01  0.24665069859E+02  0.51100000000E-03 0. -1.
        -11    1    4    4    0    0 -0.69859978993E+01 -0.31121721423E+01  0.12316318802E+02  0.14497637434E+02  0.51100000000E-03 0.  1.
         12    1    4    4    0    0 -0.78039048289E+01  0.82636296836E+01 -0.30475454566E-01  0.11366153038E+02  0.00000000000E+00 0. -1.
</event>
<event>
 8    1  0.1021894E-011  0.9118800E+02  0.7816164E-02  0.1184000E+00
        -11   -1    0    0    0    0  0.00000000000E+00  0.00000000000E+00  0.45593999997E+02  0.45594000000E+02  0.51100000000E-03 0. -1.
         11   -1    0    0    0    0 -0.00000000000E+00 -0.00000000000E+00 -0.45593999997E+02  0.45594000000E+02  0.51100000000E-03 0.  1.
         23    2    1    2    0    0 -0.35527136788E-14  0.00000000000E+00 -0.35527136788E-14  0.91188000000E+02  0.91188000000E+02 0.  0.
    9900012    2    3    3    0    0 -0.20860040380E+02  0.24529132605E+02 -0.24826341503E+02  0.50528845269E+02  0.29999955679E+02 0.  0.
         12    1    3    3    0    0  0.20860040380E+02 -0.24529132605E+02  0.24826341503E+02  0.40659154731E+02  0.00000000000E+00 0. -1.
         11    1    4    4    0    0 -0.42454695291E+01 -0.55934258005E+01 -0.32108308492E+01  0.77213896878E+01  0.51100000000E-03 0. -1.
        -11    1    4    4    0    0 -0.79393521161E+01  0.14731784375E+02 -0.18360347402E+02  0.24842728109E+02  0.51100000000E-03 0.  1.
        -12    1    4    4    0    0 -0.86752187350E+01  0.15390774030E+02 -0.32551632519E+01  0.17964727472E+02  0.00000000000E+00 0.  1.
</event>
<event>
 8    1  0.1021894E-011  0.9118800E+02  0.7816164E-02  0.1184000E+00
        -11   -1    0    0    0    0  0.00000000000E+00  0.00000000000E+00  0.45593999997E+02  0.45594000000E+02  0.51100000000E-03 0. -1.
         11   -1    0    0    0    0 -0.00000000000E+00 -0.00000000000E+00 -0.45593999997E+02  0.45594000000E+02  0.51100000000E-03 0.  1.
         23    2    1    2    0    0  0.44408920985E-15 -0.88817841970E-15  0.00000000000E+00  0.91188000000E+02  0.91188000000E+02 0.  0.
    9900012    2    3    3    0    0  0.22801916184E+01  0.62235710691E+01 -0.40115273636E+02  0.50528840029E+02  0.29999939752E+02 0.  0.
         12    1    3    3    0    0 -0.22801916184E+01 -0.62235710691E+01  0.40115273636E+02  0.40659159971E+02  0.00000000000E+00 0. -1.
         11    1    4    4    0    0  0.63208125396E+01 -0.71297818914E+01 -0.17784456665E+02  0.20176059083E+02  0.51100000000E-03 0. -1.
        -11    1    4    4    0    0 -0.91580027931E+01  0.45798678171E+01 -0.13109407800E+02  0.16634325279E+02  0.51100000000E-03 0.  1.
        -12    1    4    4    0    0  0.51173818719E+01  0.87734851434E+01 -0.92214091712E+01  0.13718455667E+02  0.00000000000E+00 0.  1.
</event>
<event>
 8    1  0.1021894E-011  0.9118800E+02  0.7816164E-02  0.1184000E+00
        -11   -1    0    0    0    0  0.00000000000E+00  0.00000000000E+00  0.45593999997E+02  0.45594000000E+02  0.51100000000E-03 0. -1.
         11   -1    0    0    0    0 -0.00000000000E+00 -0.00000000000E+00 -0.45593999997E+02  0.45594000000E+02  0.51100000000E-03 0.  1.
         23    2    1    2    0    0  0.00000000000E+00  0.00000000000E+00  0.35527136788E-14  0.91188000000E+02  0.91188000000E+02 0.  0.
    9900012    2    3    3    0    0 -0.36409879736E+02 -0.15090239684E+02  0.99885112845E+01  0.50528867768E+02  0.30000024069E+02 0.  0.
         12    1    3    3    0    0  0.36409879736E+02  0.15090239684E+02 -0.99885112845E+01  0.40659132232E+02  0.00000000000E+00 0. -1.
         11    1    4    4    0    0 -0.11816754150E+02 -0.10229776825E+02  0.17087565413E+02  0.23157480530E+02  0.51100000000E-03 0. -1.
        -11    1    4    4    0    0 -0.20222334569E+02 -0.41499372016E+01 -0.21890161504E+01  0.20759493881E+02  0.51100000000E-03 0.  1.
         12    1    4    4    0    0 -0.43707910175E+01 -0.71052565734E+00 -0.49100379777E+01  0.66118933575E+01  0.00000000000E+00 0. -1.
</event>
<event>
 8    1  0.1021894E-011  0.9118800E+02  0.7816164E-02  0.1184000E+00
        -11   -1    0    0    0    0  0.00000000000E+00  0.00000000000E+00  0.45593999997E+02  0.45594000000E+02  0.51100000000E-03 0. -1.
         11   -1    0    0    0    0 -0.00000000000E+00 -0.00000000000E+00 -0.45593999997E+02  0.45594000000E+02  0.51100000000E-03 0.  1.
         23    2    1    2    0    0  0.00000000000E+00  0.00000000000E+00 -0.35527136788E-14  0.91188000000E+02  0.91188000000E+02 0.  0.
    9900012    2    3    3    0    0  0.21785750119E+02 -0.33247936797E+02  0.85511055435E+01  0.50528860615E+02  0.30000002326E+02 0.  0.
        -12    1    3    3    0    0 -0.21785750119E+02  0.33247936797E+02 -0.85511055435E+01  0.40659139385E+02  0.00000000000E+00 0.  1.
         11    1    4    4    0    0  0.22907239195E+02 -0.24941771083E+02  0.15178998650E+02  0.37111124378E+02  0.51100000000E-03 0. -1.
        -11    1    4    4    0    0 -0.39984040371E+00 -0.72786378019E+01 -0.84784892919E+01  0.11181378338E+02  0.51100000000E-03 0.  1.
        -12    1    4    4    0    0 -0.72164867149E+00 -0.10275279112E+01  0.18505961858E+01  0.22363578998E+01  0.00000000000E+00 0.  1.
</event>
<event>
 8    1  0.1021894E-011  0.9118800E+02  0.7816164E-02  0.1184000E+00
        -11   -1    0    0    0    0  0.00000000000E+00  0.00000000000E+00  0.45593999997E+02  0.45594000000E+02  0.51100000000E-03 0. -1.
         11   -1    0    0    0    0 -0.00000000000E+00 -0.00000000000E+00 -0.45593999997E+02  0.45594000000E+02  0.51100000000E-03 0.  1.
         23    2    1    2    0    0  0.35527136788E-14  0.00000000000E+00  0.00000000000E+00  0.91188000000E+02  0.91188000000E+02 0.  0.
    9900012    2    3    3    0    0  0.18356045025E+02 -0.33688097159E+02  0.13466012360E+02  0.50528858739E+02  0.29999996624E+02 0.  0.
        -12    1    3    3    0    0 -0.18356045025E+02  0.33688097159E+02 -0.13466012360E+02  0.40659141261E+02  0.00000000000E+00 0.  1.
         11    1    4    4    0    0  0.62983073374E+01 -0.27045160991E+02 -0.35486556773E+01  0.27994684597E+02  0.51100000000E-03 0. -1.
        -11    1    4    4    0    0  0.84107538838E+01 -0.54774448436E+01  0.83316844035E+01  0.13044544767E+02  0.51100000000E-03 0.  1.
         12    1    4    4    0    0  0.36469838036E+01 -0.11654913252E+01  0.86829836339E+01  0.94896293753E+01  0.00000000000E+00 0. -1.
</event>
<event>
 8    1  0.1021894E-011  0.9118800E+02  0.7816164E-02  0.1184000E+00
        -11   -1    0    0    0    0  0.00000000000E+00  0.00000000000E+00  0.45593999997E+02  0.45594000000E+02  0.51100000000E-03 0. -1.
         11   -1    0    0    0    0 -0.00000000000E+00 -0.00000000000E+00 -0.45593999997E+02  0.45594000000E+02  0.51100000000E-03 0.  1.
         23    2    1    2    0    0  0.17763568394E-14  0.28189256485E-15  0.00000000000E+00  0.91188000000E+02  0.91188000000E+02 0.  0.
    9900012    2    3    3    0    0 -0.15294627122E+02  0.73725780848E-02  0.37672817350E+02  0.50528845555E+02  0.29999956548E+02 0.  0.
        -12    1    3    3    0    0  0.15294627122E+02 -0.73725780848E-02 -0.37672817350E+02  0.40659154445E+02  0.00000000000E+00 0.  1.
         11    1    4    4    0    0  0.40697107794E+01  0.18220228817E+01  0.13484425924E+02  0.14202536955E+02  0.51100000000E-03 0.  1.
        -11    1    4    4    0    0 -0.86655419596E+01 -0.70071158983E+01  0.22456158438E+01  0.11368116882E+02  0.51100000000E-03 0. -1.
         12    1    4    4    0    0 -0.10698795942E+02  0.51924655947E+01  0.21942775582E+02  0.24958191717E+02  0.00000000000E+00 0. -1.
</event>
<event>
 8    1  0.1021894E-011  0.9118800E+02  0.7816164E-02  0.1184000E+00
        -11   -1    0    0    0    0  0.00000000000E+00  0.00000000000E+00  0.45593999997E+02  0.45594000000E+02  0.51100000000E-03 0. -1.
         11   -1    0    0    0    0 -0.00000000000E+00 -0.00000000000E+00 -0.45593999997E+02  0.45594000000E+02  0.51100000000E-03 0.  1.
         23    2    1    2    0    0  0.22204460493E-15 -0.12767564783E-14 -0.71054273576E-14  0.91188000000E+02  0.91188000000E+02 0.  0.
    9900012    2    3    3    0    0 -0.16423924047E+01  0.47461681841E+00 -0.40623180498E+02  0.50528861941E+02  0.30000006355E+02 0.  0.
         12    1    3    3    0    0  0.16423924047E+01 -0.47461681841E+00  0.40623180498E+02  0.40659138059E+02  0.00000000000E+00 0. -1.
         11    1    4    4    0    0  0.10222557084E+02  0.90974008220E+01 -0.13024669399E+02  0.18891939770E+02  0.51100000000E-03 0. -1.
        -11    1    4    4    0    0 -0.44836668412E+01 -0.82608995741E+00 -0.10499570867E+02  0.11446688675E+02  0.51100000000E-03 0.  1.
         12    1    4    4    0    0 -0.73812826472E+01 -0.77966940462E+01 -0.17098940232E+02  0.20190233496E+02  0.00000000000E+00 0. -1.
</event>
<event>
 8    1  0.1021894E-011  0.9118800E+02  0.7816164E-02  0.1184000E+00
        -11   -1    0    0    0    0  0.00000000000E+00  0.00000000000E+00  0.45593999997E+02  0.45594000000E+02  0.51100000000E-03 0. -1.
         11   -1    0    0    0    0 -0.00000000000E+00 -0.00000000000E+00 -0.45593999997E+02  0.45594000000E+02  0.51100000000E-03 0.  1.
         23    2    1    2    0    0 -0.17763568394E-14  0.35527136788E-14  0.35527136788E-14  0.91188000000E+02  0.91188000000E+02 0.  0.
    9900012    2    3    3    0    0 -0.10040449795E+02  0.30002171283E+02  0.25538689141E+02  0.50528861337E+02  0.30000004520E+02 0.  0.
        -12    1    3    3    0    0  0.10040449795E+02 -0.30002171283E+02 -0.25538689141E+02  0.40659138663E+02  0.00000000000E+00 0.  1.
         11    1    4    4    0    0 -0.11137020564E+02  0.26090645853E+02  0.20569873725E+02  0.35041043554E+02  0.51100000000E-03 0. -1.
        -11    1    4    4    0    0 -0.38777172454E+01 -0.11003170321E+00 -0.32586488732E+01  0.50663192508E+01  0.51100000000E-03 0.  1.
         12    1    4    4    0    0  0.49742880140E+01  0.40215571333E+01  0.82274642890E+01  0.10421498532E+02  0.00000000000E+00 0. -1.
</event>
<event>
 8    1  0.1021894E-011  0.9118800E+02  0.7816164E-02  0.1184000E+00
        -11   -1    0    0    0    0  0.00000000000E+00  0.00000000000E+00  0.45593999997E+02  0.45594000000E+02  0.51100000000E-03 0. -1.
         11   -1    0    0    0    0 -0.00000000000E+00 -0.00000000000E+00 -0.45593999997E+02  0.45594000000E+02  0.51100000000E-03 0.  1.
         23    2    1    2    0    0  0.88817841970E-15  0.00000000000E+00  0.00000000000E+00  0.91188000000E+02  0.91188000000E+02 0.  0.
    9900012    2    3    3    0    0 -0.40625790945E+01 -0.18677460954E+02 -0.35886123148E+02  0.50528856733E+02  0.29999990526E+02 0.  0.
         12    1    3    3    0    0  0.40625790945E+01  0.18677460954E+02  0.35886123148E+02  0.40659143267E+02  0.00000000000E+00 0. -1.
         11    1    4    4    0    0  0.34479770638E+01 -0.19009912748E+02 -0.22564212974E+02  0.29705370489E+02  0.51100000000E-03 0. -1.
        -11    1    4    4    0    0 -0.11443223214E+02 -0.55643318794E+00 -0.11974479596E+02  0.16572420984E+02  0.51100000000E-03 0.  1.
        -12    1    4    4    0    0  0.39326670556E+01  0.88888498186E+00 -0.13474305786E+01  0.42510652601E+01  0.00000000000E+00 0.  1.
</event>
<event>
 8    1  0.1021894E-011  0.9118800E+02  0.7816164E-02  0.1184000E+00
        -11   -1    0    0    0    0  0.00000000000E+00  0.00000000000E+00  0.45593999997E+02  0.45594000000E+02  0.51100000000E-03 0. -1.
         11   -1    0    0    0    0 -0.00000000000E+00 -0.00000000000E+00 -0.45593999997E+02  0.45594000000E+02  0.51100000000E-03 0.  1.
         23    2    1    2    0    0  0.00000000000E+00  0.00000000000E+00  0.35527136788E-14  0.91188000000E+02  0.91188000000E+02 0.  0.
    9900012    2    3    3    0    0  0.26691182529E+02 -0.14581683609E+02  0.26983714755E+02  0.50528861007E+02  0.30000003517E+02 0.  0.
        -12    1    3    3    0    0 -0.26691182529E+02  0.14581683609E+02 -0.26983714755E+02  0.40659138993E+02  0.00000000000E+00 0.  1.
         11    1    4    4    0    0  0.64550382151E+01 -0.19723519163E+01  0.14205032252E+02  0.15727066859E+02  0.51100000000E-03 0. -1.
        -11    1    4    4    0    0  0.23806162558E+02 -0.13871622090E+02  0.79722560572E+01  0.28682959088E+02  0.51100000000E-03 0.  1.
        -12    1    4    4    0    0 -0.35700182445E+01  0.12622903974E+01  0.48064264463E+01  0.61188350605E+01  0.00000000000E+00 0.  1.
</event>
<event>
 8    1  0.1021894E-011  0.9118800E+02  0.7816164E-02  0.1184000E+00
        -11   -1    0    0    0    0  0.00000000000E+00  0.00000000000E+00  0.45593999997E+02  0.45594000000E+02  0.51100000000E-03 0. -1.
         11   -1    0    0    0    0 -0.00000000000E+00 -0.00000000000E+00 -0.45593999997E+02  0.45594000000E+02  0.51100000000E-03 0.  1.
         23    2    1    2    0    0  0.00000000000E+00 -0.71054273576E-14 -0.35527136788E-14  0.91188000000E+02  0.91188000000E+02 0.  0.
    9900012    2    3    3    0    0 -0.11391579429E+02  0.30712261625E+02  0.24086396391E+02  0.50528860964E+02  0.30000003387E+02 0.  0.
        -12    1    3    3    0    0  0.11391579429E+02 -0.30712261625E+02 -0.24086396391E+02  0.40659139036E+02  0.00000000000E+00 0.  1.
         11    1    4    4    0    0 -0.57179682352E+01 -0.13397578866E+01  0.14991802499E+02  0.16101063765E+02  0.51100000000E-03 0. -1.
        -11    1    4    4    0    0 -0.50684992400E+01  0.11443642440E+02  0.23435585852E+01  0.12733377555E+02  0.51100000000E-03 0.  1.
         12    1    4    4    0    0 -0.60511195369E+00  0.20608377072E+02  0.67510353063E+01  0.21694419644E+02  0.00000000000E+00 0. -1.
</event>
<event>
 8    1  0.1021894E-011  0.9118800E+02  0.7816164E-02  0.1184000E+00
        -11   -1    0    0    0    0  0.00000000000E+00  0.00000000000E+00  0.45593999997E+02  0.45594000000E+02  0.51100000000E-03 0. -1.
         11   -1    0    0    0    0 -0.00000000000E+00 -0.00000000000E+00 -0.45593999997E+02  0.45594000000E+02  0.51100000000E-03 0.  1.
         23    2    1    2    0    0  0.00000000000E+00  0.00000000000E+00  0.00000000000E+00  0.91188000000E+02  0.91188000000E+02 0.  0.
    9900012    2    3    3    0    0 -0.17545286349E+02 -0.25322756533E+02 -0.26534630194E+02  0.50528859933E+02  0.30000000251E+02 0.  0.
         12    1    3    3    0    0  0.17545286349E+02  0.25322756533E+02  0.26534630194E+02  0.40659140067E+02  0.00000000000E+00 0. -1.
         11    1    4    4    0    0 -0.32070795916E+01 -0.12314933037E+01  0.50410070614E+01  0.61003022645E+01  0.51100000000E-03 0. -1.
        -11    1    4    4    0    0 -0.10077806493E+02 -0.20926980114E+02 -0.31479054888E+02  0.39120730787E+02  0.51100000000E-03 0.  1.
        -12    1    4    4    0    0 -0.42604002644E+01 -0.31642831147E+01 -0.96582367054E-01  0.53078268808E+01  0.00000000000E+00 0.  1.
</event>
<event>
 8    1  0.1021894E-011  0.9118800E+02  0.7816164E-02  0.1184000E+00
        -11   -1    0    0    0    0  0.00000000000E+00  0.00000000000E+00  0.45593999997E+02  0.45594000000E+02  0.51100000000E-03 0. -1.
         11   -1    0    0    0    0 -0.00000000000E+00 -0.00000000000E+00 -0.45593999997E+02  0.45594000000E+02  0.51100000000E-03 0.  1.
         23    2    1    2    0    0  0.35527136788E-14  0.00000000000E+00 -0.35527136788E-14  0.91188000000E+02  0.91188000000E+02 0.  0.
    9900012    2    3    3    0    0  0.28244251860E+02  0.10859217678E+02 -0.27157044477E+02  0.50528862818E+02  0.30000009021E+02 0.  0.
         12    1    3    3    0    0 -0.28244251860E+02 -0.10859217678E+02  0.27157044477E+02  0.40659137182E+02  0.00000000000E+00 0. -1.
         11    1    4    4    0    0  0.20016334955E+01  0.49147675188E+00  0.43461782164E+01  0.48101300812E+01  0.51100000000E-03 0. -1.
        -11    1    4    4    0    0  0.93371678717E+00  0.60891125389E+01 -0.11975021797E+02  0.13466635283E+02  0.51100000000E-03 0.  1.
         12    1    4    4    0    0  0.25308901577E+02  0.42786283870E+01 -0.19528200896E+02  0.32252097453E+02  0.00000000000E+00 0. -1.
</event>
<event>
 8    1  0.1021894E-011  0.9118800E+02  0.7816164E-02  0.1184000E+00
        -11   -1    0    0    0    0  0.00000000000E+00  0.00000000000E+00  0.45593999997E+02  0.45594000000E+02  0.51100000000E-03 0. -1.
         11   -1    0    0    0    0 -0.00000000000E+00 -0.00000000000E+00 -0.45593999997E+02  0.45594000000E+02  0.51100000000E-03 0.  1.
         23    2    1    2    0    0  0.00000000000E+00  0.17763568394E-14  0.00000000000E+00  0.91188000000E+02  0.91188000000E+02 0.  0.
    9900012    2    3    3    0    0  0.21118223606E+02 -0.13426342557E+02  0.32045588840E+02  0.50528858263E+02  0.29999995176E+02 0.  0.
        -12    1    3    3    0    0 -0.21118223606E+02  0.13426342557E+02 -0.32045588840E+02  0.40659141737E+02  0.00000000000E+00 0.  1.
         11    1    4    4    0    0  0.14567833853E+02 -0.17794200151E+02  0.12224191448E+02  0.26043928256E+02  0.51100000000E-03 0. -1.
        -11    1    4    4    0    0  0.88950916721E+01  0.42449690108E+01  0.19821826073E+02  0.22137009890E+02  0.51100000000E-03 0.  1.
        -12    1    4    4    0    0 -0.23447019191E+01  0.12288858341E+00 -0.42868111363E-03  0.23479201173E+01  0.00000000000E+00 0.  1.
</event>
<event>
 8    1  0.1021894E-011  0.9118800E+02  0.7816164E-02  0.1184000E+00
        -11   -1    0    0    0    0  0.00000000000E+00  0.00000000000E+00  0.45593999997E+02  0.45594000000E+02  0.51100000000E-03 0. -1.
         11   -1    0    0    0    0 -0.00000000000E+00 -0.00000000000E+00 -0.45593999997E+02  0.45594000000E+02  0.51100000000E-03 0.  1.
         23    2    1    2    0    0  0.00000000000E+00  0.35527136788E-14  0.35527136788E-14  0.91188000000E+02  0.91188000000E+02 0.  0.
    9900012    2    3    3    0    0  0.11377409666E+02  0.28740799909E+02  0.26413751221E+02  0.50528864696E+02  0.30000014729E+02 0.  0.
        -12    1    3    3    0    0 -0.11377409666E+02 -0.28740799909E+02 -0.26413751221E+02  0.40659135304E+02  0.00000000000E+00 0.  1.
         11    1    4    4    0    0  0.10819938732E+02 -0.11308172203E+01  0.40744573958E+01  0.11616842302E+02  0.51100000000E-03 0. -1.
        -11    1    4    4    0    0 -0.76951893351E+00  0.20438540127E+02  0.85864513722E+01  0.22182272862E+02  0.51100000000E-03 0.  1.
         12    1    4    4    0    0  0.13269898683E+01  0.94330770022E+01  0.13752842453E+02  0.16729749531E+02  0.00000000000E+00 0. -1.
</event>
<event>
 8    1  0.1021894E-011  0.9118800E+02  0.7816164E-02  0.1184000E+00
        -11   -1    0    0    0    0  0.00000000000E+00  0.00000000000E+00  0.45593999997E+02  0.45594000000E+02  0.51100000000E-03 0. -1.
         11   -1    0    0    0    0 -0.00000000000E+00 -0.00000000000E+00 -0.45593999997E+02  0.45594000000E+02  0.51100000000E-03 0.  1.
         23    2    1    2    0    0  0.35527136788E-14  0.17763568394E-14  0.00000000000E+00  0.91188000000E+02  0.91188000000E+02 0.  0.
    9900012    2    3    3    0    0 -0.29163187452E+02 -0.15061870719E+02  0.23996120122E+02  0.50528865321E+02  0.30000016629E+02 0.  0.
        -12    1    3    3    0    0  0.29163187452E+02  0.15061870719E+02 -0.23996120122E+02  0.40659134679E+02  0.00000000000E+00 0.  1.
         11    1    4    4    0    0 -0.13897359598E+02  0.31445894619E+00  0.24942380181E+02  0.28554471061E+02  0.51100000000E-03 0. -1.
        -11    1    4    4    0    0 -0.66056349900E+01 -0.69304201531E+01 -0.21663770365E+01  0.98162277299E+01  0.51100000000E-03 0.  1.
         12    1    4    4    0    0 -0.86601928643E+01 -0.84459095119E+01  0.12201169779E+01  0.12158166530E+02  0.00000000000E+00 0. -1.
</event>
<event>
 8    1  0.1021894E-011  0.9118800E+02  0.7816164E-02  0.1184000E+00
        -11   -1    0    0    0    0  0.00000000000E+00  0.00000000000E+00  0.45593999997E+02  0.45594000000E+02  0.51100000000E-03 0. -1.
         11   -1    0    0    0    0 -0.00000000000E+00 -0.00000000000E+00 -0.45593999997E+02  0.45594000000E+02  0.51100000000E-03 0.  1.
         23    2    1    2    0    0  0.00000000000E+00  0.00000000000E+00  0.35527136788E-14  0.91188000000E+02  0.91188000000E+02 0.  0.
    9900012    2    3    3    0    0 -0.29532048334E+02 -0.10395304823E+02  0.25941495068E+02  0.50528863173E+02  0.30000010100E+02 0.  0.
        -12    1    3    3    0    0  0.29532048334E+02  0.10395304823E+02 -0.25941495068E+02  0.40659136827E+02  0.00000000000E+00 0.  1.
         11    1    4    4    0    0 -0.84608625523E+01  0.21463542053E+01  0.18305339169E+01  0.89187379256E+01  0.51100000000E-03 0. -1.
        -11    1    4    4    0    0 -0.39973982081E+01 -0.62282088371E+00  0.19975444562E+02  0.20381007924E+02  0.51100000000E-03 0.  1.
        -12    1    4    4    0    0 -0.17073787574E+02 -0.11918838145E+02  0.41355165886E+01  0.21229117323E+02  0.00000000000E+00 0.  1.
</event>
<event>
 8    1  0.1021894E-011  0.9118800E+02  0.7816164E-02  0.1184000E+00
        -11   -1    0    0    0    0  0.00000000000E+00  0.00000000000E+00  0.45593999997E+02  0.45594000000E+02  0.51100000000E-03 0. -1.
         11   -1    0    0    0    0 -0.00000000000E+00 -0.00000000000E+00 -0.45593999997E+02  0.45594000000E+02  0.51100000000E-03 0.  1.
         23    2    1    2    0    0 -0.71054273576E-14  0.00000000000E+00  0.35527136788E-14  0.91188000000E+02  0.91188000000E+02 0.  0.
    9900012    2    3    3    0    0  0.24878950334E+02 -0.26739903649E+02 -0.17865642881E+02  0.50528858193E+02  0.29999994965E+02 0.  0.
         12    1    3    3    0    0 -0.24878950334E+02  0.26739903649E+02  0.17865642881E+02  0.40659141807E+02  0.00000000000E+00 0. -1.
         11    1    4    4    0    0 -0.34872778542E+01 -0.28923082095E+01  0.38119204284E+01  0.59209197955E+01  0.51100000000E-03 0. -1.
        -11    1    4    4    0    0  0.17780884054E+02 -0.14767460601E+02 -0.19992210691E+02  0.30560206461E+02  0.51100000000E-03 0.  1.
         12    1    4    4    0    0  0.10585344134E+02 -0.90801348387E+01 -0.16853526180E+01  0.14047731937E+02  0.00000000000E+00 0. -1.
</event>
<event>
 8    1  0.1021894E-011  0.9118800E+02  0.7816164E-02  0.1184000E+00
        -11   -1    0    0    0    0  0.00000000000E+00  0.00000000000E+00  0.45593999997E+02  0.45594000000E+02  0.51100000000E-03 0. -1.
         11   -1    0    0    0    0 -0.00000000000E+00 -0.00000000000E+00 -0.45593999997E+02  0.45594000000E+02  0.51100000000E-03 0.  1.
         23    2    1    2    0    0  0.35527136788E-14  0.17763568394E-14  0.71054273576E-14  0.91188000000E+02  0.91188000000E+02 0.  0.
    9900012    2    3    3    0    0  0.22736632972E+02  0.92837001058E+01  0.32404073832E+02  0.50528861206E+02  0.30000004121E+02 0.  0.
        -12    1    3    3    0    0 -0.22736632972E+02 -0.92837001058E+01 -0.32404073832E+02  0.40659138794E+02  0.00000000000E+00 0.  1.
         11    1    4    4    0    0 -0.43285073172E+01 -0.13328823859E+01  0.10082419351E+02  0.11052951248E+02  0.51100000000E-03 0. -1.
        -11    1    4    4    0    0  0.85224858911E+01  0.56901767962E+01  0.27662517167E+00  0.10251214537E+02  0.51100000000E-03 0.  1.
         12    1    4    4    0    0  0.18542654398E+02  0.49264056955E+01  0.22045029309E+02  0.29224695421E+02  0.00000000000E+00 0. -1.
</event>
<event>
 8    1  0.1021894E-011  0.9118800E+02  0.7816164E-02  0.1184000E+00
        -11   -1    0    0    0    0  0.00000000000E+00  0.00000000000E+00  0.45593999997E+02  0.45594000000E+02  0.51100000000E-03 0. -1.
         11   -1    0    0    0    0 -0.00000000000E+00 -0.00000000000E+00 -0.45593999997E+02  0.45594000000E+02  0.51100000000E-03 0.  1.
         23    2    1    2    0    0  0.00000000000E+00  0.00000000000E+00  0.00000000000E+00  0.91188000000E+02  0.91188000000E+02 0.  0.
    9900012    2    3    3    0    0  0.32160944395E+02  0.24071860198E+02 -0.62754554245E+01  0.50528903373E+02  0.30000132291E+02 0.  0.
         12    1    3    3    0    0 -0.32160944395E+02 -0.24071860198E+02  0.62754554245E+01  0.40659096627E+02  0.00000000000E+00 0. -1.
         11    1    4    4    0    0 -0.14956103005E+01 -0.12028718758E+01  0.39527464420E+00  0.19595900658E+01  0.51100000000E-03 0. -1.
        -11    1    4    4    0    0  0.10884189600E+02  0.10220404203E+02  0.86601583558E+01  0.17260376251E+02  0.51100000000E-03 0.  1.
        -12    1    4    4    0    0  0.22772365095E+02  0.15054327870E+02 -0.15330888424E+02  0.31308937056E+02  0.00000000000E+00 0.  1.
</event>
<event>
 8    1  0.1021894E-011  0.9118800E+02  0.7816164E-02  0.1184000E+00
        -11   -1    0    0    0    0  0.00000000000E+00  0.00000000000E+00  0.45593999997E+02  0.45594000000E+02  0.51100000000E-03 0. -1.
         11   -1    0    0    0    0 -0.00000000000E+00 -0.00000000000E+00 -0.45593999997E+02  0.45594000000E+02  0.51100000000E-03 0.  1.
         23    2    1    2    0    0  0.00000000000E+00  0.00000000000E+00  0.35527136788E-14  0.91188000000E+02  0.91188000000E+02 0.  0.
    9900012    2    3    3    0    0 -0.23432570322E+02 -0.19762457635E+02  0.26711902248E+02  0.50528858280E+02  0.29999995228E+02 0.  0.
        -12    1    3    3    0    0  0.23432570322E+02  0.19762457635E+02 -0.26711902248E+02  0.40659141720E+02  0.00000000000E+00 0.  1.
         11    1    4    4    0    0 -0.16560024755E+02 -0.11753438208E+02  0.29059768413E+02  0.35452050294E+02  0.51100000000E-03 0. -1.
        -11    1    4    4    0    0  0.21343038653E+01 -0.43438686151E+01 -0.22859849784E+01  0.53525858347E+01  0.51100000000E-03 0.  1.
        -12    1    4    4    0    0 -0.90068494321E+01 -0.36651508120E+01 -0.61881185896E-01  0.97242221514E+01  0.00000000000E+00 0.  1.
</event>
<event>
 8    1  0.1021894E-011  0.9118800E+02  0.7816164E-02  0.1184000E+00
        -11   -1    0    0    0    0  0.00000000000E+00  0.00000000000E+00  0.45593999997E+02  0.45594000000E+02  0.51100000000E-03 0. -1.
         11   -1    0    0    0    0 -0.00000000000E+00 -0.00000000000E+00 -0.45593999997E+02  0.45594000000E+02  0.51100000000E-03 0.  1.
         23    2    1    2    0    0  0.44408920985E-15 -0.17763568394E-14  0.71054273576E-14  0.91188000000E+02  0.91188000000E+02 0.  0.
    9900012    2    3    3    0    0 -0.21459174129E+01 -0.94921766629E+01  0.39477326334E+02  0.50528859898E+02  0.30000000147E+02 0.  0.
        -12    1    3    3    0    0  0.21459174129E+01  0.94921766629E+01 -0.39477326334E+02  0.40659140102E+02  0.00000000000E+00 0.  1.
         11    1    4    4    0    0  0.53224966082E+01 -0.14797899595E+02  0.32545016903E+02  0.36145330654E+02  0.51100000000E-03 0. -1.
        -11    1    4    4    0    0  0.92700316506E+00  0.18794071854E+00 -0.12669523023E+01  0.15810834827E+01  0.51100000000E-03 0.  1.
         12    1    4    4    0    0 -0.83954171861E+01  0.51177822139E+01  0.81992617328E+01  0.12802445762E+02  0.00000000000E+00 0. -1.
</event>
<event>
 8    1  0.1021894E-011  0.9118800E+02  0.7816164E-02  0.1184000E+00
        -11   -1    0    0    0    0  0.00000000000E+00  0.00000000000E+00  0.45593999997E+02  0.45594000000E+02  0.51100000000E-03 0. -1.
         11   -1    0    0    0    0 -0.00000000000E+00 -0.00000000000E+00 -0.45593999997E+02  0.45594000000E+02  0.51100000000E-03 0.  1.
         23    2    1    2    0    0  0.17763568394E-14  0.71054273576E-14  0.00000000000E+00  0.91188000000E+02  0.91188000000E+02 0.  0.
    9900012    2    3    3    0    0 -0.10629814560E+02 -0.20572602393E+02  0.33420665102E+02  0.50528858560E+02  0.29999996079E+02 0.  0.
        -12    1    3    3    0    0  0.10629814560E+02  0.20572602393E+02 -0.33420665102E+02  0.40659141440E+02  0.00000000000E+00 0.  1.
         11    1    4    4    0    0  0.18080679778E+00 -0.49356101809E+01  0.23744157783E+02  0.24252380668E+02  0.51100000000E-03 0. -1.
        -11    1    4    4    0    0 -0.51821073194E+01 -0.16417907419E+02  0.11015051665E+02  0.20438524500E+02  0.51100000000E-03 0.  1.
         12    1    4    4    0    0 -0.56285140387E+01  0.78091520682E+00 -0.13385443470E+01  0.58379533925E+01  0.00000000000E+00 0. -1.
</event>
<event>
 8    1  0.1021894E-011  0.9118800E+02  0.7816164E-02  0.1184000E+00
        -11   -1    0    0    0    0  0.00000000000E+00  0.00000000000E+00  0.45593999997E+02  0.45594000000E+02  0.51100000000E-03 0. -1.
         11   -1    0    0    0    0 -0.00000000000E+00 -0.00000000000E+00 -0.45593999997E+02  0.45594000000E+02  0.51100000000E-03 0.  1.
         23    2    1    2    0    0  0.00000000000E+00  0.00000000000E+00  0.00000000000E+00  0.91188000000E+02  0.91188000000E+02 0.  0.
    9900012    2    3    3    0    0 -0.10587073246E+02 -0.27363664552E+02  0.28147984821E+02  0.50528864407E+02  0.30000013853E+02 0.  0.
        -12    1    3    3    0    0  0.10587073246E+02  0.27363664552E+02 -0.28147984821E+02  0.40659135593E+02  0.00000000000E+00 0.  1.
         11    1    4    4    0    0 -0.16556871512E+02 -0.22171790021E+02  0.15421581467E+02  0.31678753798E+02  0.51100000000E-03 0. -1.
        -11    1    4    4    0    0 -0.60445366199E+00  0.30191660595E+01  0.13679671192E+01  0.33692821527E+01  0.51100000000E-03 0.  1.
         12    1    4    4    0    0  0.65742519283E+01 -0.82110405908E+01  0.11358436235E+02  0.15480828457E+02  0.00000000000E+00 0. -1.
</event>
<event>
 8    1  0.1021894E-011  0.9118800E+02  0.7816164E-02  0.1184000E+00
        -11   -1    0    0    0    0  0.00000000000E+00  0.00000000000E+00  0.45593999997E+02  0.45594000000E+02  0.51100000000E-03 0.  1.
         11   -1    0    0    0    0 -0.00000000000E+00 -0.00000000000E+00 -0.45593999997E+02  0.45594000000E+02  0.51100000000E-03 0. -1.
         23    2    1    2    0    0  0.00000000000E+00 -0.11102230246E-14  0.00000000000E+00  0.91188000000E+02  0.91188000000E+02 0.  0.
    9900012    2    3    3    0    0 -0.33936983616E+02 -0.64699216328E+00  0.22383662073E+02  0.50528858548E+02  0.29999996044E+02 0.  0.
        -12    1    3    3    0    0  0.33936983616E+02  0.64699216328E+00 -0.22383662073E+02  0.40659141452E+02  0.00000000000E+00 0.  1.
         11    1    4    4    0    0  0.42704557105E+01  0.40751591580E+01  0.22269369036E+01  0.63089588976E+01  0.51100000000E-03 0. -1.
        -11    1    4    4    0    0 -0.62659953851E+01 -0.23562312745E+01  0.66774981260E+00  0.67275860499E+01  0.51100000000E-03 0.  1.
         12    1    4    4    0    0 -0.31941443941E+02 -0.23659200468E+01  0.19488975356E+02  0.37492313601E+02  0.00000000000E+00 0. -1.
</event>
<event>
 8    1  0.1021894E-011  0.9118800E+02  0.7816164E-02  0.1184000E+00
        -11   -1    0    0    0    0  0.00000000000E+00  0.00000000000E+00  0.45593999997E+02  0.45594000000E+02  0.51100000000E-03 0. -1.
         11   -1    0    0    0    0 -0.00000000000E+00 -0.00000000000E+00 -0.45593999997E+02  0.45594000000E+02  0.51100000000E-03 0.  1.
         23    2    1    2    0    0  0.00000000000E+00  0.00000000000E+00 -0.35527136788E-14  0.91188000000E+02  0.91188000000E+02 0.  0.
    9900012    2    3    3    0    0 -0.15917372934E+02  0.34210868006E+02  0.15146734803E+02  0.50528808837E+02  0.29999844940E+02 0.  0.
        -12    1    3    3    0    0  0.15917372934E+02 -0.34210868006E+02 -0.15146734803E+02  0.40659191163E+02  0.00000000000E+00 0.  1.
         11    1    4    4    0    0 -0.11388723834E+02  0.18839064695E+02  0.11714381864E+02  0.24936722557E+02  0.51100000000E-03 0. -1.
        -11    1    4    4    0    0 -0.15068171588E+01  0.85021697371E+01 -0.80957623143E+01  0.11836332029E+02  0.51100000000E-03 0.  1.
        -12    1    4    4    0    0 -0.30218319411E+01  0.68696335744E+01  0.11528115253E+02  0.13755754251E+02  0.00000000000E+00 0.  1.
</event>
<event>
 8    1  0.1021894E-011  0.9118800E+02  0.7816164E-02  0.1184000E+00
        -11   -1    0    0    0    0  0.00000000000E+00  0.00000000000E+00  0.45593999997E+02  0.45594000000E+02  0.51100000000E-03 0. -1.
         11   -1    0    0    0    0 -0.00000000000E+00 -0.00000000000E+00 -0.45593999997E+02  0.45594000000E+02  0.51100000000E-03 0.  1.
         23    2    1    2    0    0  0.00000000000E+00  0.00000000000E+00 -0.17763568394E-14  0.91188000000E+02  0.91188000000E+02 0.  0.
    9900012    2    3    3    0    0  0.24061674987E+01 -0.39251468101E+02  0.10329452369E+02  0.50528868475E+02  0.30000026216E+02 0.  0.
        -12    1    3    3    0    0 -0.24061674987E+01  0.39251468101E+02 -0.10329452369E+02  0.40659131525E+02  0.00000000000E+00 0.  1.
         11    1    4    4    0    0 -0.70431621118E+00 -0.34901523422E+02 -0.13566772962E+01  0.34934982067E+02  0.51100000000E-03 0. -1.
        -11    1    4    4    0    0  0.59738978385E+01 -0.18061475669E+01  0.88444707574E+01  0.10824707278E+02  0.51100000000E-03 0.  1.
         12    1    4    4    0    0 -0.28634141287E+01 -0.25437971127E+01  0.28416589074E+01  0.47691791295E+01  0.00000000000E+00 0. -1.
</event>
<event>
 8    1  0.1021894E-011  0.9118800E+02  0.7816164E-02  0.1184000E+00
        -11   -1    0    0    0    0  0.00000000000E+00  0.00000000000E+00  0.45593999997E+02  0.45594000000E+02  0.51100000000E-03 0. -1.
         11   -1    0    0    0    0 -0.00000000000E+00 -0.00000000000E+00 -0.45593999997E+02  0.45594000000E+02  0.51100000000E-03 0.  1.
         23    2    1    2    0    0 -0.11102230246E-14  0.88817841970E-15  0.00000000000E+00  0.91188000000E+02  0.91188000000E+02 0.  0.
    9900012    2    3    3    0    0  0.17650148748E+01 -0.62530307136E+01 -0.40136683805E+02  0.50528818288E+02  0.29999873667E+02 0.  0.
         12    1    3    3    0    0 -0.17650148748E+01  0.62530307136E+01  0.40136683805E+02  0.40659181712E+02  0.00000000000E+00 0. -1.
         11    1    4    4    0    0 -0.73081134030E+01  0.58598528390E+01 -0.23435180233E+02  0.25237948998E+02  0.51100000000E-03 0.  1.
        -11    1    4    4    0    0  0.50510398778E+01 -0.38630017986E+01 -0.14497544658E+00  0.63605663965E+01  0.51100000000E-03 0. -1.
         12    1    4    4    0    0  0.40220884000E+01 -0.82498817540E+01 -0.16556528125E+02  0.18930302893E+02  0.00000000000E+00 0. -1.
</event>
<event>
 8    1  0.1021894E-011  0.9118800E+02  0.7816164E-02  0.1184000E+00
        -11   -1    0    0    0    0  0.00000000000E+00  0.00000000000E+00  0.45593999997E+02  0.45594000000E+02  0.51100000000E-03 0. -1.
         11   -1    0    0    0    0 -0.00000000000E+00 -0.00000000000E+00 -0.45593999997E+02  0.45594000000E+02  0.51100000000E-03 0.  1.
         23    2    1    2    0    0  0.00000000000E+00  0.88817841970E-15 -0.71054273576E-14  0.91188000000E+02  0.91188000000E+02 0.  0.
    9900012    2    3    3    0    0  0.20043891401E+02 -0.65493401115E+01  0.34763691641E+02  0.50528859639E+02  0.29999999358E+02 0.  0.
        -12    1    3    3    0    0 -0.20043891401E+02  0.65493401115E+01 -0.34763691641E+02  0.40659140361E+02  0.00000000000E+00 0.  1.
         11    1    4    4    0    0  0.15251827583E+02  0.11362770971E+01  0.25446959417E+02  0.29689343443E+02  0.51100000000E-03 0. -1.
        -11    1    4    4    0    0 -0.45625008300E+01 -0.75311471698E+01  0.21767347366E+01  0.90704336110E+01  0.51100000000E-03 0.  1.
        -12    1    4    4    0    0  0.93545646485E+01 -0.15447003884E+00  0.71399974874E+01  0.11769082584E+02  0.00000000000E+00 0.  1.
</event>
<event>
 8    1  0.1021894E-011  0.9118800E+02  0.7816164E-02  0.1184000E+00
        -11   -1    0    0    0    0  0.00000000000E+00  0.00000000000E+00  0.45593999997E+02  0.45594000000E+02  0.51100000000E-03 0. -1.
         11   -1    0    0    0    0 -0.00000000000E+00 -0.00000000000E+00 -0.45593999997E+02  0.45594000000E+02  0.51100000000E-03 0.  1.
         23    2    1    2    0    0  0.00000000000E+00 -0.71054273576E-14  0.00000000000E+00  0.91188000000E+02  0.91188000000E+02 0.  0.
    9900012    2    3    3    0    0  0.12882609236E+02  0.34806830181E+02 -0.16603873103E+02  0.50528860191E+02  0.30000001038E+02 0.  0.
         12    1    3    3    0    0 -0.12882609236E+02 -0.34806830181E+02  0.16603873103E+02  0.40659139809E+02  0.00000000000E+00 0. -1.
         11    1    4    4    0    0  0.13491489330E+01  0.19486057459E+02  0.12897380189E+01  0.19575241060E+02  0.51100000000E-03 0. -1.
        -11    1    4    4    0    0  0.12959722866E+02  0.17970232297E+02 -0.14840107609E+02  0.26666691952E+02  0.51100000000E-03 0.  1.
        -12    1    4    4    0    0 -0.14262625628E+01 -0.26494595751E+01 -0.30535035126E+01  0.42869271792E+01  0.00000000000E+00 0.  1.
</event>
<event>
 8    1  0.1021894E-011  0.9118800E+02  0.7816164E-02  0.1184000E+00
        -11   -1    0    0    0    0  0.00000000000E+00  0.00000000000E+00  0.45593999997E+02  0.45594000000E+02  0.51100000000E-03 0.  1.
         11   -1    0    0    0    0 -0.00000000000E+00 -0.00000000000E+00 -0.45593999997E+02  0.45594000000E+02  0.51100000000E-03 0. -1.
         23    2    1    2    0    0 -0.17763568394E-14  0.71054273576E-14 -0.17763568394E-14  0.91188000000E+02  0.91188000000E+02 0.  0.
    9900012    2    3    3    0    0 -0.13969330132E+02  0.35374518319E+02 -0.14375889100E+02  0.50528869192E+02  0.30000028397E+02 0.  0.
         12    1    3    3    0    0  0.13969330132E+02 -0.35374518319E+02  0.14375889100E+02  0.40659130808E+02  0.00000000000E+00 0. -1.
         11    1    4    4    0    0 -0.34575148563E+01 -0.40957716799E+01 -0.65973977228E+01  0.85003183240E+01  0.51100000000E-03 0. -1.
        -11    1    4    4    0    0 -0.99565726845E+01  0.26317317277E+02 -0.52878504708E+01  0.28630331663E+02  0.51100000000E-03 0.  1.
         12    1    4    4    0    0 -0.55524259142E+00  0.13152972721E+02 -0.24906409061E+01  0.13398219205E+02  0.00000000000E+00 0. -1.
</event>
<event>
 8    1  0.1021894E-011  0.9118800E+02  0.7816164E-02  0.1184000E+00
        -11   -1    0    0    0    0  0.00000000000E+00  0.00000000000E+00  0.45593999997E+02  0.45594000000E+02  0.51100000000E-03 0. -1.
         11   -1    0    0    0    0 -0.00000000000E+00 -0.00000000000E+00 -0.45593999997E+02  0.45594000000E+02  0.51100000000E-03 0.  1.
         23    2    1    2    0    0  0.00000000000E+00  0.35527136788E-14  0.00000000000E+00  0.91188000000E+02  0.91188000000E+02 0.  0.
    9900012    2    3    3    0    0 -0.23495870830E+02  0.14526535692E+02  0.29834349142E+02  0.50528873423E+02  0.30000041257E+02 0.  0.
        -12    1    3    3    0    0  0.23495870830E+02 -0.14526535692E+02 -0.29834349142E+02  0.40659126577E+02  0.00000000000E+00 0.  1.
         11    1    4    4    0    0 -0.84539283049E+01  0.14538717913E+02  0.97825306570E+01  0.19456133446E+02  0.51100000000E-03 0. -1.
        -11    1    4    4    0    0 -0.17259460430E+00 -0.51970678524E+01  0.12640929772E+02  0.13668665221E+02  0.51100000000E-03 0.  1.
        -12    1    4    4    0    0 -0.14869347921E+02  0.51848856312E+01  0.74108887128E+01  0.17404074756E+02  0.00000000000E+00 0.  1.
</event>
<event>
 8    1  0.1021894E-011  0.9118800E+02  0.7816164E-02  0.1184000E+00
        -11   -1    0    0    0    0  0.00000000000E+00  0.00000000000E+00  0.45593999997E+02  0.45594000000E+02  0.51100000000E-03 0.  1.
         11   -1    0    0    0    0 -0.00000000000E+00 -0.00000000000E+00 -0.45593999997E+02  0.45594000000E+02  0.51100000000E-03 0. -1.
         23    2    1    2    0    0  0.35527136788E-14  0.00000000000E+00  0.17763568394E-14  0.91188000000E+02  0.91188000000E+02 0.  0.
    9900012    2    3    3    0    0  0.26610624404E+02  0.26493089027E+02 -0.15593476854E+02  0.50528860587E+02  0.30000002241E+02 0.  0.
         12    1    3    3    0    0 -0.26610624404E+02 -0.26493089027E+02  0.15593476854E+02  0.40659139413E+02  0.00000000000E+00 0. -1.
         11    1    4    4    0    0  0.53148790699E+01 -0.32446800060E+01 -0.68270331789E+01  0.92403609321E+01  0.51100000000E-03 0. -1.
        -11    1    4    4    0    0  0.65469184927E+01  0.14018357136E+02  0.43303941622E+01  0.16066387037E+02  0.51100000000E-03 0.  1.
         12    1    4    4    0    0  0.14748826841E+02  0.15719411897E+02 -0.13096837838E+02  0.25222112618E+02  0.00000000000E+00 0. -1.
</event>
<event>
 8    1  0.1021894E-011  0.9118800E+02  0.7816164E-02  0.1184000E+00
        -11   -1    0    0    0    0  0.00000000000E+00  0.00000000000E+00  0.45593999997E+02  0.45594000000E+02  0.51100000000E-03 0. -1.
         11   -1    0    0    0    0 -0.00000000000E+00 -0.00000000000E+00 -0.45593999997E+02  0.45594000000E+02  0.51100000000E-03 0.  1.
         23    2    1    2    0    0  0.00000000000E+00  0.00000000000E+00  0.35527136788E-14  0.91188000000E+02  0.91188000000E+02 0.  0.
    9900012    2    3    3    0    0  0.33436286979E+02 -0.14476153450E+02 -0.18044991472E+02  0.50528855606E+02  0.29999987099E+02 0.  0.
         12    1    3    3    0    0 -0.33436286979E+02  0.14476153450E+02  0.18044991472E+02  0.40659144394E+02  0.00000000000E+00 0. -1.
         11    1    4    4    0    0  0.45773874411E+01  0.13090346903E+01  0.12350107684E+01  0.49184651534E+01  0.51100000000E-03 0. -1.
        -11    1    4    4    0    0  0.13432542201E+02 -0.19537160065E+02 -0.17835333583E+02  0.29668719852E+02  0.51100000000E-03 0.  1.
        -12    1    4    4    0    0  0.15426357337E+02  0.37519719242E+01 -0.14446686572E+01  0.15941670600E+02  0.00000000000E+00 0.  1.
</event>
<event>
 8    1  0.1021894E-011  0.9118800E+02  0.7816164E-02  0.1184000E+00
        -11   -1    0    0    0    0  0.00000000000E+00  0.00000000000E+00  0.45593999997E+02  0.45594000000E+02  0.51100000000E-03 0. -1.
         11   -1    0    0    0    0 -0.00000000000E+00 -0.00000000000E+00 -0.45593999997E+02  0.45594000000E+02  0.51100000000E-03 0.  1.
         23    2    1    2    0    0  0.00000000000E+00  0.00000000000E+00 -0.35527136788E-14  0.91188000000E+02  0.91188000000E+02 0.  0.
    9900012    2    3    3    0    0  0.33916503454E+02  0.90779970690E+01 -0.20504316414E+02  0.50528853072E+02  0.29999979398E+02 0.  0.
         12    1    3    3    0    0 -0.33916503454E+02 -0.90779970690E+01  0.20504316414E+02  0.40659146928E+02  0.00000000000E+00 0. -1.
         11    1    4    4    0    0  0.47060452879E+00 -0.25588373252E+01 -0.12559641403E+02  0.12826289779E+02  0.51100000000E-03 0. -1.
        -11    1    4    4    0    0  0.15317066716E+02  0.10622116095E+02 -0.50904854100E+01  0.19322394393E+02  0.51100000000E-03 0.  1.
         12    1    4    4    0    0  0.18128832209E+02  0.10147182988E+01 -0.28541896014E+01  0.18380168900E+02  0.00000000000E+00 0. -1.
</event>
<event>
 8    1  0.1021894E-011  0.9118800E+02  0.7816164E-02  0.1184000E+00
        -11   -1    0    0    0    0  0.00000000000E+00  0.00000000000E+00  0.45593999997E+02  0.45594000000E+02  0.51100000000E-03 0. -1.
         11   -1    0    0    0    0 -0.00000000000E+00 -0.00000000000E+00 -0.45593999997E+02  0.45594000000E+02  0.51100000000E-03 0.  1.
         23    2    1    2    0    0 -0.88817841970E-15 -0.14432899320E-14 -0.71054273576E-14  0.91188000000E+02  0.91188000000E+02 0.  0.
    9900012    2    3    3    0    0 -0.76412026645E+01  0.99414190909E+00  0.39922292282E+02  0.50528859363E+02  0.29999998519E+02 0.  0.
        -12    1    3    3    0    0  0.76412026645E+01 -0.99414190909E+00 -0.39922292282E+02  0.40659140637E+02  0.00000000000E+00 0.  1.
         11    1    4    4    0    0 -0.51311363960E+01  0.86600017490E+01  0.34692711397E+01  0.10647066897E+02  0.51100000000E-03 0. -1.
        -11    1    4    4    0    0 -0.77768977784E+01 -0.16513145312E+01  0.21551465323E+02  0.22971126150E+02  0.51100000000E-03 0.  1.
         12    1    4    4    0    0  0.52668315099E+01 -0.60145453088E+01  0.14901555819E+02  0.16910666316E+02  0.00000000000E+00 0. -1.
</event>
<event>
 8    1  0.1021894E-011  0.9118800E+02  0.7816164E-02  0.1184000E+00
        -11   -1    0    0    0    0  0.00000000000E+00  0.00000000000E+00  0.45593999997E+02  0.45594000000E+02  0.51100000000E-03 0.  1.
         11   -1    0    0    0    0 -0.00000000000E+00 -0.00000000000E+00 -0.45593999997E+02  0.45594000000E+02  0.51100000000E-03 0. -1.
         23    2    1    2    0    0  0.17763568394E-14  0.00000000000E+00 -0.44408920985E-15  0.91188000000E+02  0.91188000000E+02 0.  0.
    9900012    2    3    3    0    0 -0.52500962858E+01  0.40245815694E+02 -0.24241561945E+01  0.50528859267E+02  0.29999998228E+02 0.  0.
        -12    1    3    3    0    0  0.52500962858E+01 -0.40245815694E+02  0.24241561945E+01  0.40659140733E+02  0.00000000000E+00 0.  1.
         11    1    4    4    0    0 -0.43371487323E+01  0.12778790222E+02 -0.51794086647E+01  0.14454570663E+02  0.51100000000E-03 0. -1.
        -11    1    4    4    0    0  0.93199000056E+01  0.49355647828E+01  0.40430365073E+01  0.11294533204E+02  0.51100000000E-03 0.  1.
        -12    1    4    4    0    0 -0.10232847559E+02  0.22531460689E+02 -0.12877840371E+01  0.24779755400E+02  0.00000000000E+00 0.  1.
</event>
<event>
 8    1  0.1021894E-011  0.9118800E+02  0.7816164E-02  0.1184000E+00
        -11   -1    0    0    0    0  0.00000000000E+00  0.00000000000E+00  0.45593999997E+02  0.45594000000E+02  0.51100000000E-03 0. -1.
         11   -1    0    0    0    0 -0.00000000000E+00 -0.00000000000E+00 -0.45593999997E+02  0.45594000000E+02  0.51100000000E-03 0.  1.
         23    2    1    2    0    0  0.00000000000E+00 -0.66613381478E-15  0.71054273576E-14  0.91188000000E+02  0.91188000000E+02 0.  0.
    9900012    2    3    3    0    0 -0.87032390472E+01  0.98870815712E+00  0.39704417868E+02  0.50528871727E+02  0.30000036100E+02 0.  0.
        -12    1    3    3    0    0  0.87032390472E+01 -0.98870815712E+00 -0.39704417868E+02  0.40659128273E+02  0.00000000000E+00 0.  1.
         11    1    4    4    0    0 -0.29589125151E+01 -0.50298466569E+01  0.78666688826E+01  0.97948455952E+01  0.51100000000E-03 0. -1.
        -11    1    4    4    0    0  0.64200109439E+01  0.32166419672E+01  0.73314965359E+00  0.72180907961E+01  0.51100000000E-03 0.  1.
        -12    1    4    4    0    0 -0.12164337476E+02  0.28019128468E+01  0.31104599332E+02  0.33515935335E+02  0.00000000000E+00 0.  1.
</event>
<event>
 8    1  0.1021894E-011  0.9118800E+02  0.7816164E-02  0.1184000E+00
        -11   -1    0    0    0    0  0.00000000000E+00  0.00000000000E+00  0.45593999997E+02  0.45594000000E+02  0.51100000000E-03 0. -1.
         11   -1    0    0    0    0 -0.00000000000E+00 -0.00000000000E+00 -0.45593999997E+02  0.45594000000E+02  0.51100000000E-03 0.  1.
         23    2    1    2    0    0  0.00000000000E+00  0.00000000000E+00  0.00000000000E+00  0.91188000000E+02  0.91188000000E+02 0.  0.
    9900012    2    3    3    0    0  0.12662307592E+02 -0.33159284233E+02  0.19831626679E+02  0.50528861038E+02  0.30000003610E+02 0.  0.
        -12    1    3    3    0    0 -0.12662307592E+02  0.33159284233E+02 -0.19831626679E+02  0.40659138962E+02  0.00000000000E+00 0.  1.
         11    1    4    4    0    0 -0.15032342089E+01 -0.25477801723E+02  0.13617790125E+01  0.25558414193E+02  0.51100000000E-03 0. -1.
        -11    1    4    4    0    0  0.54919031088E+01 -0.53949712528E+00  0.51936941691E+01  0.75780285225E+01  0.51100000000E-03 0.  1.
         12    1    4    4    0    0  0.86736386922E+01 -0.71419853853E+01  0.13276153498E+02  0.17392418322E+02  0.00000000000E+00 0. -1.
</event>
<event>
 8    1  0.1021894E-011  0.9118800E+02  0.7816164E-02  0.1184000E+00
        -11   -1    0    0    0    0  0.00000000000E+00  0.00000000000E+00  0.45593999997E+02  0.45594000000E+02  0.51100000000E-03 0. -1.
         11   -1    0    0    0    0 -0.00000000000E+00 -0.00000000000E+00 -0.45593999997E+02  0.45594000000E+02  0.51100000000E-03 0.  1.
         23    2    1    2    0    0  0.00000000000E+00  0.44408920985E-15  0.00000000000E+00  0.91188000000E+02  0.91188000000E+02 0.  0.
    9900012    2    3    3    0    0 -0.26046397390E+02 -0.11481991007E+01  0.31199888062E+02  0.50528853511E+02  0.29999980731E+02 0.  0.
        -12    1    3    3    0    0  0.26046397390E+02  0.11481991007E+01 -0.31199888062E+02  0.40659146489E+02  0.00000000000E+00 0.  1.
         11    1    4    4    0    0  0.13480422955E+01  0.27323226740E+01  0.58314588650E+01  0.65794162340E+01  0.51100000000E-03 0. -1.
        -11    1    4    4    0    0 -0.13061727421E+02 -0.13066410486E+02  0.16418006581E+02  0.24716204130E+02  0.51100000000E-03 0.  1.
        -12    1    4    4    0    0 -0.14332712265E+02  0.91858887118E+01  0.89504226151E+01  0.19233233147E+02  0.00000000000E+00 0.  1.
</event>
<event>
 8    1  0.1021894E-011  0.9118800E+02  0.7816164E-02  0.1184000E+00
        -11   -1    0    0    0    0  0.00000000000E+00  0.00000000000E+00  0.45593999997E+02  0.45594000000E+02  0.51100000000E-03 0. -1.
         11   -1    0    0    0    0 -0.00000000000E+00 -0.00000000000E+00 -0.45593999997E+02  0.45594000000E+02  0.51100000000E-03 0.  1.
         23    2    1    2    0    0  0.00000000000E+00  0.00000000000E+00  0.00000000000E+00  0.91188000000E+02  0.91188000000E+02 0.  0.
    9900012    2    3    3    0    0 -0.24743689659E+02  0.27006253769E+02  0.17651718590E+02  0.50528793297E+02  0.29999797704E+02 0.  0.
        -12    1    3    3    0    0  0.24743689659E+02 -0.27006253769E+02 -0.17651718590E+02  0.40659206703E+02  0.00000000000E+00 0.  1.
         11    1    4    4    0    0  0.39272236575E+01  0.24367407916E+01  0.82394612921E+01  0.94471960913E+01  0.51100000000E-03 0. -1.
        -11    1    4    4    0    0 -0.21041313546E+02  0.12651346179E+02  0.90154466379E+00  0.24568398787E+02  0.51100000000E-03 0.  1.
         12    1    4    4    0    0 -0.76295997700E+01  0.11918166799E+02  0.85107126337E+01  0.16513198419E+02  0.00000000000E+00 0. -1.
</event>
<event>
 8    1  0.1021894E-011  0.9118800E+02  0.7816164E-02  0.1184000E+00
        -11   -1    0    0    0    0  0.00000000000E+00  0.00000000000E+00  0.45593999997E+02  0.45594000000E+02  0.51100000000E-03 0. -1.
         11   -1    0    0    0    0 -0.00000000000E+00 -0.00000000000E+00 -0.45593999997E+02  0.45594000000E+02  0.51100000000E-03 0.  1.
         23    2    1    2    0    0  0.00000000000E+00  0.00000000000E+00  0.35527136788E-14  0.91188000000E+02  0.91188000000E+02 0.  0.
    9900012    2    3    3    0    0  0.17170968612E+02  0.25121456752E+02 -0.26967309693E+02  0.50528861488E+02  0.30000004980E+02 0.  0.
         12    1    3    3    0    0 -0.17170968612E+02 -0.25121456752E+02  0.26967309693E+02  0.40659138512E+02  0.00000000000E+00 0. -1.
         11    1    4    4    0    0  0.22960334550E+01 -0.22935938431E+01 -0.70805223733E+01  0.77888471344E+01  0.51100000000E-03 0. -1.
        -11    1    4    4    0    0  0.11072873993E+02  0.29060089150E+02 -0.11089766964E+02  0.33016363389E+02  0.51100000000E-03 0.  1.
        -12    1    4    4    0    0  0.38020611639E+01 -0.16450385549E+01 -0.87970203558E+01  0.97236509646E+01  0.00000000000E+00 0.  1.
</event>
<event>
 8    1  0.1021894E-011  0.9118800E+02  0.7816164E-02  0.1184000E+00
        -11   -1    0    0    0    0  0.00000000000E+00  0.00000000000E+00  0.45593999997E+02  0.45594000000E+02  0.51100000000E-03 0. -1.
         11   -1    0    0    0    0 -0.00000000000E+00 -0.00000000000E+00 -0.45593999997E+02  0.45594000000E+02  0.51100000000E-03 0.  1.
         23    2    1    2    0    0  0.00000000000E+00  0.00000000000E+00  0.00000000000E+00  0.91188000000E+02  0.91188000000E+02 0.  0.
    9900012    2    3    3    0    0 -0.32724656564E+02 -0.81614024525E+01  0.22708027712E+02  0.50528853922E+02  0.29999981980E+02 0.  0.
        -12    1    3    3    0    0  0.32724656564E+02  0.81614024525E+01 -0.22708027712E+02  0.40659146078E+02  0.00000000000E+00 0.  1.
         11    1    4    4    0    0 -0.11967376281E+02  0.51855475932E-01  0.47215065636E+01  0.12865201457E+02  0.51100000000E-03 0. -1.
        -11    1    4    4    0    0  0.24033107813E+01  0.43615739839E+01  0.81154842843E+01  0.95215710762E+01  0.51100000000E-03 0.  1.
        -12    1    4    4    0    0 -0.23160591064E+02 -0.12574831912E+02  0.98710368643E+01  0.28142081388E+02  0.00000000000E+00 0.  1.
</event>
<event>
 8    1  0.1021894E-011  0.9118800E+02  0.7816164E-02  0.1184000E+00
        -11   -1    0    0    0    0  0.00000000000E+00  0.00000000000E+00  0.45593999997E+02  0.45594000000E+02  0.51100000000E-03 0. -1.
         11   -1    0    0    0    0 -0.00000000000E+00 -0.00000000000E+00 -0.45593999997E+02  0.45594000000E+02  0.51100000000E-03 0.  1.
         23    2    1    2    0    0  0.35527136788E-14  0.00000000000E+00  0.00000000000E+00  0.91188000000E+02  0.91188000000E+02 0.  0.
    9900012    2    3    3    0    0  0.15177520767E+02  0.29087409605E+02  0.24015221412E+02  0.50528863344E+02  0.30000010619E+02 0.  0.
        -12    1    3    3    0    0 -0.15177520767E+02 -0.29087409605E+02 -0.24015221412E+02  0.40659136656E+02  0.00000000000E+00 0.  1.
         11    1    4    4    0    0  0.14413467155E+02  0.23104601610E+02  0.16420414403E+02  0.31799381447E+02  0.51100000000E-03 0. -1.
        -11    1    4    4    0    0 -0.31692897860E+01 -0.32406793390E+01 -0.19049503426E+01  0.49168319470E+01  0.51100000000E-03 0.  1.
        -12    1    4    4    0    0  0.39333433981E+01  0.92234873340E+01  0.94997573515E+01  0.13812649949E+02  0.00000000000E+00 0.  1.
</event>
<event>
 8    1  0.1021894E-011  0.9118800E+02  0.7816164E-02  0.1184000E+00
        -11   -1    0    0    0    0  0.00000000000E+00  0.00000000000E+00  0.45593999997E+02  0.45594000000E+02  0.51100000000E-03 0. -1.
         11   -1    0    0    0    0 -0.00000000000E+00 -0.00000000000E+00 -0.45593999997E+02  0.45594000000E+02  0.51100000000E-03 0.  1.
         23    2    1    2    0    0 -0.17763568394E-14  0.35527136788E-14  0.00000000000E+00  0.91188000000E+02  0.91188000000E+02 0.  0.
    9900012    2    3    3    0    0 -0.12732139360E+02  0.16523815261E+02 -0.34900162302E+02  0.50528866067E+02  0.30000018897E+02 0.  0.
         12    1    3    3    0    0  0.12732139360E+02 -0.16523815261E+02  0.34900162302E+02  0.40659133933E+02  0.00000000000E+00 0. -1.
         11    1    4    4    0    0 -0.97432990786E+01 -0.67439059165E+01 -0.14650985981E+02  0.18843129634E+02  0.51100000000E-03 0. -1.
        -11    1    4    4    0    0  0.10009847815E+01  0.10020331594E+02 -0.11636204739E+02  0.15388641161E+02  0.51100000000E-03 0.  1.
         12    1    4    4    0    0 -0.39898250630E+01  0.13247389584E+02 -0.86129715819E+01  0.16297095272E+02  0.00000000000E+00 0. -1.
</event>
<event>
 8    1  0.1021894E-011  0.9118800E+02  0.7816164E-02  0.1184000E+00
        -11   -1    0    0    0    0  0.00000000000E+00  0.00000000000E+00  0.45593999997E+02  0.45594000000E+02  0.51100000000E-03 0. -1.
         11   -1    0    0    0    0 -0.00000000000E+00 -0.00000000000E+00 -0.45593999997E+02  0.45594000000E+02  0.51100000000E-03 0.  1.
         23    2    1    2    0    0 -0.35527136788E-14  0.88817841970E-15  0.00000000000E+00  0.91188000000E+02  0.91188000000E+02 0.  0.
    9900012    2    3    3    0    0 -0.25028417151E+02  0.53625557685E+01 -0.31590947660E+02  0.50528847973E+02  0.29999963899E+02 0.  0.
         12    1    3    3    0    0  0.25028417151E+02 -0.53625557685E+01  0.31590947660E+02  0.40659152027E+02  0.00000000000E+00 0. -1.
         11    1    4    4    0    0 -0.63130371197E+01  0.21651766538E+01 -0.78682854137E+00  0.67202326620E+01  0.51100000000E-03 0. -1.
        -11    1    4    4    0    0  0.56687520011E+01  0.28246769575E+01 -0.95512643029E+01  0.11460375177E+02  0.51100000000E-03 0.  1.
        -12    1    4    4    0    0 -0.24384132033E+02  0.37270215724E+00 -0.21252854816E+02  0.32348240133E+02  0.00000000000E+00 0.  1.
</event>
<event>
 8    1  0.1021894E-011  0.9118800E+02  0.7816164E-02  0.1184000E+00
        -11   -1    0    0    0    0  0.00000000000E+00  0.00000000000E+00  0.45593999997E+02  0.45594000000E+02  0.51100000000E-03 0.  1.
         11   -1    0    0    0    0 -0.00000000000E+00 -0.00000000000E+00 -0.45593999997E+02  0.45594000000E+02  0.51100000000E-03 0. -1.
         23    2    1    2    0    0  0.00000000000E+00  0.00000000000E+00  0.00000000000E+00  0.91188000000E+02  0.91188000000E+02 0.  0.
    9900012    2    3    3    0    0  0.19246770000E+02 -0.17456244697E+02 -0.31273151279E+02  0.50528823603E+02  0.29999889824E+02 0.  0.
         12    1    3    3    0    0 -0.19246770000E+02  0.17456244697E+02  0.31273151279E+02  0.40659176397E+02  0.00000000000E+00 0. -1.
         11    1    4    4    0    0  0.16223794778E+02 -0.24227093181E+02 -0.26405230722E+02  0.39337002565E+02  0.51100000000E-03 0. -1.
        -11    1    4    4    0    0  0.47897244653E+01  0.34680248999E+01 -0.44944732209E+01  0.74275801547E+01  0.51100000000E-03 0.  1.
         12    1    4    4    0    0 -0.17667492435E+01  0.33028235844E+01 -0.37344733584E+00  0.37642408839E+01  0.00000000000E+00 0. -1.
</event>
<event>
 8    1  0.1021894E-011  0.9118800E+02  0.7816164E-02  0.1184000E+00
        -11   -1    0    0    0    0  0.00000000000E+00  0.00000000000E+00  0.45593999997E+02  0.45594000000E+02  0.51100000000E-03 0. -1.
         11   -1    0    0    0    0 -0.00000000000E+00 -0.00000000000E+00 -0.45593999997E+02  0.45594000000E+02  0.51100000000E-03 0.  1.
         23    2    1    2    0    0  0.00000000000E+00  0.00000000000E+00  0.00000000000E+00  0.91188000000E+02  0.91188000000E+02 0.  0.
    9900012    2    3    3    0    0  0.34812901886E+02  0.10105734526E+02 -0.18414725425E+02  0.50528854405E+02  0.29999983451E+02 0.  0.
         12    1    3    3    0    0 -0.34812901886E+02 -0.10105734526E+02  0.18414725425E+02  0.40659145595E+02  0.00000000000E+00 0. -1.
         11    1    4    4    0    0  0.24802463645E+02 -0.52910014928E+01 -0.14045976422E+02  0.28990452800E+02  0.51100000000E-03 0.  1.
        -11    1    4    4    0    0  0.22845142391E+01  0.12511360533E+02 -0.14990963413E+01  0.12806265568E+02  0.51100000000E-03 0. -1.
        -12    1    4    4    0    0  0.77259240015E+01  0.28853754857E+01 -0.28696526614E+01  0.87321360369E+01  0.00000000000E+00 0.  1.
</event>
<event>
 8    1  0.1021894E-011  0.9118800E+02  0.7816164E-02  0.1184000E+00
        -11   -1    0    0    0    0  0.00000000000E+00  0.00000000000E+00  0.45593999997E+02  0.45594000000E+02  0.51100000000E-03 0. -1.
         11   -1    0    0    0    0 -0.00000000000E+00 -0.00000000000E+00 -0.45593999997E+02  0.45594000000E+02  0.51100000000E-03 0.  1.
         23    2    1    2    0    0 -0.35527136788E-14  0.35527136788E-14  0.00000000000E+00  0.91188000000E+02  0.91188000000E+02 0.  0.
    9900012    2    3    3    0    0  0.99402209695E+01 -0.11965358615E+02 -0.37565783425E+02  0.50528857313E+02  0.29999992288E+02 0.  0.
         12    1    3    3    0    0 -0.99402209695E+01  0.11965358615E+02  0.37565783425E+02  0.40659142687E+02  0.00000000000E+00 0. -1.
         11    1    4    4    0    0  0.14864019193E+02  0.38933202219E+01 -0.15974518507E+02  0.22164887789E+02  0.51100000000E-03 0. -1.
        -11    1    4    4    0    0 -0.47511618141E+01 -0.12025350004E+02 -0.20729099628E+02  0.24431089885E+02  0.51100000000E-03 0.  1.
         12    1    4    4    0    0 -0.17263640899E+00 -0.38333288329E+01 -0.86216529040E+00  0.39328796395E+01  0.00000000000E+00 0. -1.
</event>
<event>
 8    1  0.1868090E-011  0.9118800E+02  0.7816164E-02  0.1184000E+00
        -11   -1    0    0    0    0  0.00000000000E+00  0.00000000000E+00  0.45593999997E+02  0.45594000000E+02  0.51100000000E-03 0. -1.
         11   -1    0    0    0    0 -0.00000000000E+00 -0.00000000000E+00 -0.45593999997E+02  0.45594000000E+02  0.51100000000E-03 0.  1.
         23    2    1    2    0    0  0.44408920985E-15 -0.44408920985E-15  0.00000000000E+00  0.91188000000E+02  0.91188000000E+02 0.  0.
    9900012    2    3    3    0    0 -0.34655393207E+01  0.23924093516E+01 -0.40440474694E+02  0.50528861067E+02  0.30000003700E+02 0.  0.
         12    1    3    3    0    0  0.34655393207E+01 -0.23924093516E+01  0.40440474694E+02  0.40659138933E+02  0.00000000000E+00 0. -1.
         11    1    4    4    0    0 -0.11661475558E+02 -0.22886070130E+01 -0.41228771738E+01  0.12578785740E+02  0.51100000000E-03 0. -1.
        -11    1    4    4    0    0  0.29026771223E+01  0.31480464892E+01 -0.24977505495E+02  0.25341892435E+02  0.51100000000E-03 0.  1.
         12    1    4    4    0    0  0.52932591149E+01  0.15329698754E+01 -0.11340092025E+02  0.12608182892E+02  0.00000000000E+00 0. -1.
</event>
<event>
 8    1  0.1021894E-011  0.9118800E+02  0.7816164E-02  0.1184000E+00
        -11   -1    0    0    0    0  0.00000000000E+00  0.00000000000E+00  0.45593999997E+02  0.45594000000E+02  0.51100000000E-03 0. -1.
         11   -1    0    0    0    0 -0.00000000000E+00 -0.00000000000E+00 -0.45593999997E+02  0.45594000000E+02  0.51100000000E-03 0.  1.
         23    2    1    2    0    0  0.35527136788E-14  0.00000000000E+00  0.00000000000E+00  0.91188000000E+02  0.91188000000E+02 0.  0.
    9900012    2    3    3    0    0 -0.22262003548E+02 -0.66072162922E+01 -0.33375356734E+02  0.50528849170E+02  0.29999967537E+02 0.  0.
         12    1    3    3    0    0  0.22262003548E+02  0.66072162922E+01  0.33375356734E+02  0.40659150830E+02  0.00000000000E+00 0. -1.
         11    1    4    4    0    0  0.79787739665E+00 -0.36042234324E+01 -0.20569443371E+02  0.20898062966E+02  0.51100000000E-03 0. -1.
        -11    1    4    4    0    0 -0.18524758824E+02 -0.35796261155E+01 -0.33980869473E+01  0.19171004349E+02  0.51100000000E-03 0.  1.
        -12    1    4    4    0    0 -0.45351221208E+01  0.57663325566E+00 -0.94078264164E+01  0.10459781854E+02  0.00000000000E+00 0.  1.
</event>
<event>
 8    1  0.1021894E-011  0.9118800E+02  0.7816164E-02  0.1184000E+00
        -11   -1    0    0    0    0  0.00000000000E+00  0.00000000000E+00  0.45593999997E+02  0.45594000000E+02  0.51100000000E-03 0. -1.
         11   -1    0    0    0    0 -0.00000000000E+00 -0.00000000000E+00 -0.45593999997E+02  0.45594000000E+02  0.51100000000E-03 0.  1.
         23    2    1    2    0    0  0.44408920985E-15  0.35527136788E-14  0.00000000000E+00  0.91188000000E+02  0.91188000000E+02 0.  0.
    9900012    2    3    3    0    0 -0.11345555558E+01 -0.19756352605E+02 -0.35518493967E+02  0.50528879274E+02  0.30000059041E+02 0.  0.
         12    1    3    3    0    0  0.11345555558E+01  0.19756352605E+02  0.35518493967E+02  0.40659120726E+02  0.00000000000E+00 0. -1.
         11    1    4    4    0    0  0.77882262623E+01  0.46050107042E+00 -0.16979469981E+02  0.18686115986E+02  0.51100000000E-03 0. -1.
        -11    1    4    4    0    0 -0.54580790536E+01 -0.21487547722E+02 -0.16408031705E+02  0.27581313217E+02  0.51100000000E-03 0.  1.
        -12    1    4    4    0    0 -0.34647027644E+01  0.12706940470E+01 -0.21309922806E+01  0.42614500709E+01  0.00000000000E+00 0.  1.
</event>
<event>
 8    1  0.1021894E-011  0.9118800E+02  0.7816164E-02  0.1184000E+00
        -11   -1    0    0    0    0  0.00000000000E+00  0.00000000000E+00  0.45593999997E+02  0.45594000000E+02  0.51100000000E-03 0. -1.
         11   -1    0    0    0    0 -0.00000000000E+00 -0.00000000000E+00 -0.45593999997E+02  0.45594000000E+02  0.51100000000E-03 0.  1.
         23    2    1    2    0    0  0.00000000000E+00  0.12490009027E-15  0.00000000000E+00  0.91188000000E+02  0.91188000000E+02 0.  0.
    9900012    2    3    3    0    0 -0.20103719628E+02 -0.69787850094E-01  0.35341211181E+02  0.50528860548E+02  0.30000002122E+02 0.  0.
        -12    1    3    3    0    0  0.20103719628E+02  0.69787850094E-01 -0.35341211181E+02  0.40659139452E+02  0.00000000000E+00 0.  1.
         11    1    4    4    0    0  0.30041344232E+01 -0.18481267153E+01  0.13559560912E+02  0.14010784717E+02  0.51100000000E-03 0. -1.
        -11    1    4    4    0    0 -0.10394324067E+02 -0.57208680903E+00 -0.85950729536E+00  0.10445477929E+02  0.51100000000E-03 0.  1.
        -12    1    4    4    0    0 -0.12713529985E+02  0.23504256742E+01  0.22641157564E+02  0.26072597902E+02  0.00000000000E+00 0.  1.
</event>
<event>
 8    1  0.1021894E-011  0.9118800E+02  0.7816164E-02  0.1184000E+00
        -11   -1    0    0    0    0  0.00000000000E+00  0.00000000000E+00  0.45593999997E+02  0.45594000000E+02  0.51100000000E-03 0.  1.
         11   -1    0    0    0    0 -0.00000000000E+00 -0.00000000000E+00 -0.45593999997E+02  0.45594000000E+02  0.51100000000E-03 0. -1.
         23    2    1    2    0    0 -0.35527136788E-14  0.35527136788E-14  0.00000000000E+00  0.91188000000E+02  0.91188000000E+02 0.  0.
    9900012    2    3    3    0    0 -0.16707440022E+02  0.28495337831E+02 -0.23707446018E+02  0.50528858016E+02  0.29999994426E+02 0.  0.
         12    1    3    3    0    0  0.16707440022E+02 -0.28495337831E+02  0.23707446018E+02  0.40659141984E+02  0.00000000000E+00 0. -1.
         11    1    4    4    0    0 -0.20115017628E+02  0.23370811044E+02 -0.17323938075E+02  0.35368454500E+02  0.51100000000E-03 0. -1.
        -11    1    4    4    0    0  0.50891228603E+01  0.85180855190E+01 -0.40875837020E+01  0.10731509362E+02  0.51100000000E-03 0.  1.
         12    1    4    4    0    0 -0.16815452538E+01 -0.33935587324E+01 -0.22959242409E+01  0.44288941544E+01  0.00000000000E+00 0. -1.
</event>
<event>
 8    1  0.1021894E-011  0.9118800E+02  0.7816164E-02  0.1184000E+00
        -11   -1    0    0    0    0  0.00000000000E+00  0.00000000000E+00  0.45593999997E+02  0.45594000000E+02  0.51100000000E-03 0. -1.
         11   -1    0    0    0    0 -0.00000000000E+00 -0.00000000000E+00 -0.45593999997E+02  0.45594000000E+02  0.51100000000E-03 0.  1.
         23    2    1    2    0    0  0.00000000000E+00  0.00000000000E+00  0.17763568394E-14  0.91188000000E+02  0.91188000000E+02 0.  0.
    9900012    2    3    3    0    0  0.30602029892E+02  0.23374226286E+02 -0.13050941914E+02  0.50528858680E+02  0.29999996445E+02 0.  0.
         12    1    3    3    0    0 -0.30602029892E+02 -0.23374226286E+02  0.13050941914E+02  0.40659141320E+02  0.00000000000E+00 0. -1.
         11    1    4    4    0    0  0.37985121870E+01  0.33468311276E+01 -0.39442452175E+01  0.64177133021E+01  0.51100000000E-03 0.  1.
        -11    1    4    4    0    0  0.93270006109E+01  0.23312527066E+02 -0.28977311100E+01  0.25275753292E+02  0.51100000000E-03 0. -1.
        -12    1    4    4    0    0  0.17476517094E+02 -0.32851319076E+01 -0.62089655863E+01  0.18835392086E+02  0.00000000000E+00 0.  1.
</event>
<event>
 8    1  0.1021894E-011  0.9118800E+02  0.7816164E-02  0.1184000E+00
        -11   -1    0    0    0    0  0.00000000000E+00  0.00000000000E+00  0.45593999997E+02  0.45594000000E+02  0.51100000000E-03 0. -1.
         11   -1    0    0    0    0 -0.00000000000E+00 -0.00000000000E+00 -0.45593999997E+02  0.45594000000E+02  0.51100000000E-03 0.  1.
         23    2    1    2    0    0  0.00000000000E+00  0.00000000000E+00  0.00000000000E+00  0.91188000000E+02  0.91188000000E+02 0.  0.
    9900012    2    3    3    0    0 -0.40156971106E+02 -0.44629628223E+01  0.45459516748E+01  0.50528855368E+02  0.29999986376E+02 0.  0.
        -12    1    3    3    0    0  0.40156971106E+02  0.44629628223E+01 -0.45459516748E+01  0.40659144632E+02  0.00000000000E+00 0.  1.
         11    1    4    4    0    0 -0.65031287534E+01 -0.57339197371E+01  0.54232616029E+01  0.10226450303E+02  0.51100000000E-03 0. -1.
        -11    1    4    4    0    0 -0.14235892547E+02  0.11511564723E+02 -0.12010381523E+01  0.18347186485E+02  0.51100000000E-03 0.  1.
        -12    1    4    4    0    0 -0.19417949805E+02 -0.10240607808E+02  0.32372822429E+00  0.21955218580E+02  0.00000000000E+00 0.  1.
</event>
<event>
 8    1  0.1021894E-011  0.9118800E+02  0.7816164E-02  0.1184000E+00
        -11   -1    0    0    0    0  0.00000000000E+00  0.00000000000E+00  0.45593999997E+02  0.45594000000E+02  0.51100000000E-03 0. -1.
         11   -1    0    0    0    0 -0.00000000000E+00 -0.00000000000E+00 -0.45593999997E+02  0.45594000000E+02  0.51100000000E-03 0.  1.
         23    2    1    2    0    0 -0.88817841970E-15 -0.71054273576E-14  0.00000000000E+00  0.91188000000E+02  0.91188000000E+02 0.  0.
    9900012    2    3    3    0    0 -0.76261620467E+01 -0.37730258494E+02 -0.13093321003E+02  0.50528858242E+02  0.29999995113E+02 0.  0.
         12    1    3    3    0    0  0.76261620467E+01  0.37730258494E+02  0.13093321003E+02  0.40659141758E+02  0.00000000000E+00 0. -1.
         11    1    4    4    0    0 -0.55736410167E+01 -0.79613590680E-01 -0.46195004637E+01  0.72395854372E+01  0.51100000000E-03 0. -1.
        -11    1    4    4    0    0 -0.54246994841E+01 -0.30628673756E+02  0.87851227873E+00  0.31117757063E+02  0.51100000000E-03 0.  1.
        -12    1    4    4    0    0  0.33721784541E+01 -0.70219711469E+01 -0.93523328181E+01  0.12171515742E+02  0.00000000000E+00 0.  1.
</event>
<event>
 8    1  0.1021894E-011  0.9118800E+02  0.7816164E-02  0.1184000E+00
        -11   -1    0    0    0    0  0.00000000000E+00  0.00000000000E+00  0.45593999997E+02  0.45594000000E+02  0.51100000000E-03 0. -1.
         11   -1    0    0    0    0 -0.00000000000E+00 -0.00000000000E+00 -0.45593999997E+02  0.45594000000E+02  0.51100000000E-03 0.  1.
         23    2    1    2    0    0  0.00000000000E+00  0.00000000000E+00  0.00000000000E+00  0.91188000000E+02  0.91188000000E+02 0.  0.
    9900012    2    3    3    0    0 -0.63008225224E+01 -0.24858184734E+02 -0.31552120275E+02  0.50528855806E+02  0.29999987708E+02 0.  0.
         12    1    3    3    0    0  0.63008225224E+01  0.24858184734E+02  0.31552120275E+02  0.40659144194E+02  0.00000000000E+00 0. -1.
         11    1    4    4    0    0 -0.13846274374E+02 -0.16891951120E+02 -0.22503598137E+02  0.31360313392E+02  0.51100000000E-03 0. -1.
        -11    1    4    4    0    0  0.70621365414E+01 -0.11239692102E+02 -0.86307474891E+01  0.15833327306E+02  0.51100000000E-03 0.  1.
         12    1    4    4    0    0  0.48331531015E+00  0.32734584882E+01 -0.41777464923E+00  0.33352151085E+01  0.00000000000E+00 0. -1.
</event>
<event>
 8    1  0.1021894E-011  0.9118800E+02  0.7816164E-02  0.1184000E+00
        -11   -1    0    0    0    0  0.00000000000E+00  0.00000000000E+00  0.45593999997E+02  0.45594000000E+02  0.51100000000E-03 0. -1.
         11   -1    0    0    0    0 -0.00000000000E+00 -0.00000000000E+00 -0.45593999997E+02  0.45594000000E+02  0.51100000000E-03 0.  1.
         23    2    1    2    0    0  0.35527136788E-14  0.00000000000E+00  0.35527136788E-14  0.91188000000E+02  0.91188000000E+02 0.  0.
    9900012    2    3    3    0    0 -0.31316028915E+02  0.21124402418E+01 -0.25845860779E+02  0.50528873224E+02  0.30000040653E+02 0.  0.
         12    1    3    3    0    0  0.31316028915E+02 -0.21124402418E+01  0.25845860779E+02  0.40659126776E+02  0.00000000000E+00 0. -1.
         11    1    4    4    0    0 -0.18852392772E+01  0.42160355847E+00  0.21540906970E+01  0.28934380389E+01  0.51100000000E-03 0. -1.
        -11    1    4    4    0    0 -0.33731237527E+02  0.25519693117E+00 -0.26374510996E+02  0.42819111868E+02  0.51100000000E-03 0.  1.
        -12    1    4    4    0    0  0.43004478896E+01  0.14356397522E+01 -0.16254404793E+01  0.48163233177E+01  0.00000000000E+00 0.  1.
</event>
<event>
 8    1  0.1021894E-011  0.9118800E+02  0.7816164E-02  0.1184000E+00
        -11   -1    0    0    0    0  0.00000000000E+00  0.00000000000E+00  0.45593999997E+02  0.45594000000E+02  0.51100000000E-03 0. -1.
         11   -1    0    0    0    0 -0.00000000000E+00 -0.00000000000E+00 -0.45593999997E+02  0.45594000000E+02  0.51100000000E-03 0.  1.
         23    2    1    2    0    0  0.00000000000E+00  0.00000000000E+00  0.00000000000E+00  0.91188000000E+02  0.91188000000E+02 0.  0.
    9900012    2    3    3    0    0  0.11238267873E+02 -0.94148533392E+01 -0.37923971027E+02  0.50528859494E+02  0.29999998919E+02 0.  0.
         12    1    3    3    0    0 -0.11238267873E+02  0.94148533392E+01  0.37923971027E+02  0.40659140506E+02  0.00000000000E+00 0. -1.
         11    1    4    4    0    0  0.14215631085E+02 -0.98277735860E+01 -0.15554427522E+02  0.23251011088E+02  0.51100000000E-03 0.  1.
        -11    1    4    4    0    0 -0.88736315033E+01  0.12038109676E+01 -0.92604384198E+01  0.12882011368E+02  0.51100000000E-03 0. -1.
        -12    1    4    4    0    0  0.58962682914E+01 -0.79089072078E+00 -0.13109105086E+02  0.14395837039E+02  0.00000000000E+00 0.  1.
</event>
<event>
 8    1  0.1021894E-011  0.9118800E+02  0.7816164E-02  0.1184000E+00
        -11   -1    0    0    0    0  0.00000000000E+00  0.00000000000E+00  0.45593999997E+02  0.45594000000E+02  0.51100000000E-03 0. -1.
         11   -1    0    0    0    0 -0.00000000000E+00 -0.00000000000E+00 -0.45593999997E+02  0.45594000000E+02  0.51100000000E-03 0.  1.
         23    2    1    2    0    0  0.00000000000E+00  0.00000000000E+00  0.35527136788E-14  0.91188000000E+02  0.91188000000E+02 0.  0.
    9900012    2    3    3    0    0  0.16267937406E+02  0.32642616104E+02  0.17971635692E+02  0.50528857572E+02  0.29999993075E+02 0.  0.
        -12    1    3    3    0    0 -0.16267937406E+02 -0.32642616104E+02 -0.17971635692E+02  0.40659142428E+02  0.00000000000E+00 0.  1.
         11    1    4    4    0    0  0.20634248340E+02  0.22831746261E+02  0.72069811714E+01  0.31606983718E+02  0.51100000000E-03 0. -1.
        -11    1    4    4    0    0 -0.62143204572E+01  0.11128442828E+02  0.70420549152E+01  0.14561955782E+02  0.51100000000E-03 0.  1.
        -12    1    4    4    0    0  0.18480095232E+01 -0.13175729847E+01  0.37225996050E+01  0.43599180711E+01  0.00000000000E+00 0.  1.
</event>
<event>
 8    1  0.1021894E-011  0.9118800E+02  0.7816164E-02  0.1184000E+00
        -11   -1    0    0    0    0  0.00000000000E+00  0.00000000000E+00  0.45593999997E+02  0.45594000000E+02  0.51100000000E-03 0. -1.
         11   -1    0    0    0    0 -0.00000000000E+00 -0.00000000000E+00 -0.45593999997E+02  0.45594000000E+02  0.51100000000E-03 0.  1.
         23    2    1    2    0    0  0.00000000000E+00  0.00000000000E+00  0.00000000000E+00  0.91188000000E+02  0.91188000000E+02 0.  0.
    9900012    2    3    3    0    0 -0.88696075845E+01  0.16488757722E+02 -0.36091760081E+02  0.50528877829E+02  0.30000054650E+02 0.  0.
         12    1    3    3    0    0  0.88696075845E+01 -0.16488757722E+02  0.36091760081E+02  0.40659122171E+02  0.00000000000E+00 0. -1.
         11    1    4    4    0    0  0.44488901302E+00 -0.70220082710E+00  0.30382426288E+01  0.31499096444E+01  0.51100000000E-03 0. -1.
        -11    1    4    4    0    0 -0.78805959429E+01  0.20601722553E+02 -0.37091793941E+02  0.43154790494E+02  0.51100000000E-03 0.  1.
        -12    1    4    4    0    0 -0.14339006546E+01 -0.34107640037E+01 -0.20382087688E+01  0.42241776905E+01  0.00000000000E+00 0.  1.
</event>
<event>
 8    1  0.1021894E-011  0.9118800E+02  0.7816164E-02  0.1184000E+00
        -11   -1    0    0    0    0  0.00000000000E+00  0.00000000000E+00  0.45593999997E+02  0.45594000000E+02  0.51100000000E-03 0. -1.
         11   -1    0    0    0    0 -0.00000000000E+00 -0.00000000000E+00 -0.45593999997E+02  0.45594000000E+02  0.51100000000E-03 0.  1.
         23    2    1    2    0    0 -0.44408920985E-15  0.00000000000E+00  0.00000000000E+00  0.91188000000E+02  0.91188000000E+02 0.  0.
    9900012    2    3    3    0    0  0.34288864463E+01  0.12647077361E+02  0.38489732967E+02  0.50528863611E+02  0.30000011431E+02 0.  0.
        -12    1    3    3    0    0 -0.34288864463E+01 -0.12647077361E+02 -0.38489732967E+02  0.40659136389E+02  0.00000000000E+00 0.  1.
         11    1    4    4    0    0  0.63911888823E+01 -0.29052315350E+01  0.56988590197E+01  0.90423813229E+01  0.51100000000E-03 0. -1.
        -11    1    4    4    0    0  0.49531995058E+01  0.14401836134E+02  0.12590893616E+02  0.19760507880E+02  0.51100000000E-03 0.  1.
        -12    1    4    4    0    0 -0.79155019417E+01  0.11504727625E+01  0.20199980331E+02  0.21725974408E+02  0.00000000000E+00 0.  1.
</event>
<event>
 8    1  0.1021894E-011  0.9118800E+02  0.7816164E-02  0.1184000E+00
        -11   -1    0    0    0    0  0.00000000000E+00  0.00000000000E+00  0.45593999997E+02  0.45594000000E+02  0.51100000000E-03 0. -1.
         11   -1    0    0    0    0 -0.00000000000E+00 -0.00000000000E+00 -0.45593999997E+02  0.45594000000E+02  0.51100000000E-03 0.  1.
         23    2    1    2    0    0  0.00000000000E+00  0.35527136788E-14  0.71054273576E-14  0.91188000000E+02  0.91188000000E+02 0.  0.
    9900012    2    3    3    0    0  0.11898031131E+02  0.24436844026E+02  0.30239761735E+02  0.50528859816E+02  0.29999999896E+02 0.  0.
        -12    1    3    3    0    0 -0.11898031131E+02 -0.24436844026E+02 -0.30239761735E+02  0.40659140184E+02  0.00000000000E+00 0.  1.
         11    1    4    4    0    0  0.14336161149E+02  0.16223942959E+02  0.20021169345E+02  0.29488795564E+02  0.51100000000E-03 0. -1.
        -11    1    4    4    0    0 -0.93129415234E+01  0.30703392657E+01  0.53658528830E+01  0.11178114351E+02  0.51100000000E-03 0.  1.
        -12    1    4    4    0    0  0.68748115059E+01  0.51425618017E+01  0.48527395070E+01  0.98619499010E+01  0.00000000000E+00 0.  1.
</event>
<event>
 8    1  0.1021894E-011  0.9118800E+02  0.7816164E-02  0.1184000E+00
        -11   -1    0    0    0    0  0.00000000000E+00  0.00000000000E+00  0.45593999997E+02  0.45594000000E+02  0.51100000000E-03 0. -1.
         11   -1    0    0    0    0 -0.00000000000E+00 -0.00000000000E+00 -0.45593999997E+02  0.45594000000E+02  0.51100000000E-03 0.  1.
         23    2    1    2    0    0 -0.11102230246E-15  0.00000000000E+00 -0.35527136788E-14  0.91188000000E+02  0.91188000000E+02 0.  0.
    9900012    2    3    3    0    0 -0.92501660724E+00  0.31179145095E+02  0.26080084200E+02  0.50528861587E+02  0.30000005281E+02 0.  0.
        -12    1    3    3    0    0  0.92501660724E+00 -0.31179145095E+02 -0.26080084200E+02  0.40659138413E+02  0.00000000000E+00 0.  1.
         11    1    4    4    0    0  0.52141584688E+01  0.89614857591E+01  0.20660847474E+02  0.23116364207E+02  0.51100000000E-03 0. -1.
        -11    1    4    4    0    0 -0.14569510292E+00  0.19346912799E+02  0.70117124574E+01  0.20578833149E+02  0.51100000000E-03 0.  1.
         12    1    4    4    0    0 -0.59934799731E+01  0.28707465369E+01 -0.15924757316E+01  0.68336642311E+01  0.00000000000E+00 0. -1.
</event>
<event>
 8    1  0.1021894E-011  0.9118800E+02  0.7816164E-02  0.1184000E+00
        -11   -1    0    0    0    0  0.00000000000E+00  0.00000000000E+00  0.45593999997E+02  0.45594000000E+02  0.51100000000E-03 0. -1.
         11   -1    0    0    0    0 -0.00000000000E+00 -0.00000000000E+00 -0.45593999997E+02  0.45594000000E+02  0.51100000000E-03 0.  1.
         23    2    1    2    0    0  0.00000000000E+00  0.00000000000E+00 -0.35527136788E-14  0.91188000000E+02  0.91188000000E+02 0.  0.
    9900012    2    3    3    0    0  0.67293958197E+01 -0.37871065993E+02  0.13178204270E+02  0.50528837745E+02  0.29999932808E+02 0.  0.
        -12    1    3    3    0    0 -0.67293958197E+01  0.37871065993E+02 -0.13178204270E+02  0.40659162255E+02  0.00000000000E+00 0.  1.
         11    1    4    4    0    0  0.69994024876E+01 -0.30021836278E+02 -0.41655165535E+01  0.31107134505E+02  0.51100000000E-03 0. -1.
        -11    1    4    4    0    0 -0.70566696952E+00 -0.78009609727E+01  0.17288227899E+02  0.18979878348E+02  0.51100000000E-03 0.  1.
        -12    1    4    4    0    0  0.43566030160E+00 -0.48268741668E-01  0.55492925112E-01  0.44182489127E+00  0.00000000000E+00 0.  1.
</event>
<event>
 8    1  0.1021894E-011  0.9118800E+02  0.7816164E-02  0.1184000E+00
        -11   -1    0    0    0    0  0.00000000000E+00  0.00000000000E+00  0.45593999997E+02  0.45594000000E+02  0.51100000000E-03 0. -1.
         11   -1    0    0    0    0 -0.00000000000E+00 -0.00000000000E+00 -0.45593999997E+02  0.45594000000E+02  0.51100000000E-03 0.  1.
         23    2    1    2    0    0 -0.35527136788E-14  0.00000000000E+00 -0.71054273576E-14  0.91188000000E+02  0.91188000000E+02 0.  0.
    9900012    2    3    3    0    0 -0.20592482643E+02  0.40405854817E+01 -0.34825120137E+02  0.50528860007E+02  0.30000000477E+02 0.  0.
         12    1    3    3    0    0  0.20592482643E+02 -0.40405854817E+01  0.34825120137E+02  0.40659139993E+02  0.00000000000E+00 0. -1.
         11    1    4    4    0    0 -0.19012734086E+01  0.46604718329E+01 -0.54072666243E+01  0.73873791623E+01  0.51100000000E-03 0. -1.
        -11    1    4    4    0    0 -0.12883005770E+02 -0.81440663079E+01 -0.36441539226E+01  0.15670912920E+02  0.51100000000E-03 0.  1.
        -12    1    4    4    0    0 -0.58082034645E+01  0.75241799567E+01 -0.25773699590E+02  0.27470567924E+02  0.00000000000E+00 0.  1.
</event>
<event>
 8    1  0.1021894E-011  0.9118800E+02  0.7816164E-02  0.1184000E+00
        -11   -1    0    0    0    0  0.00000000000E+00  0.00000000000E+00  0.45593999997E+02  0.45594000000E+02  0.51100000000E-03 0. -1.
         11   -1    0    0    0    0 -0.00000000000E+00 -0.00000000000E+00 -0.45593999997E+02  0.45594000000E+02  0.51100000000E-03 0.  1.
         23    2    1    2    0    0  0.13322676296E-14  0.17763568394E-14 -0.71054273576E-14  0.91188000000E+02  0.91188000000E+02 0.  0.
    9900012    2    3    3    0    0 -0.26396993835E+01 -0.83989752792E+01  0.39694505001E+02  0.50528874015E+02  0.30000043056E+02 0.  0.
        -12    1    3    3    0    0  0.26396993835E+01  0.83989752792E+01 -0.39694505001E+02  0.40659125985E+02  0.00000000000E+00 0.  1.
         11    1    4    4    0    0  0.20761966960E+01 -0.14695487852E+02  0.30025354744E+02  0.33493131888E+02  0.51100000000E-03 0. -1.
        -11    1    4    4    0    0  0.21738584886E+01  0.67775258110E+01  0.47751443867E+01  0.85710280026E+01  0.51100000000E-03 0.  1.
        -12    1    4    4    0    0 -0.68897545681E+01 -0.48101323850E+00  0.48940058705E+01  0.84647141242E+01  0.00000000000E+00 0.  1.
</event>
<event>
 8    1  0.1021894E-011  0.9118800E+02  0.7816164E-02  0.1184000E+00
        -11   -1    0    0    0    0  0.00000000000E+00  0.00000000000E+00  0.45593999997E+02  0.45594000000E+02  0.51100000000E-03 0.  1.
         11   -1    0    0    0    0 -0.00000000000E+00 -0.00000000000E+00 -0.45593999997E+02  0.45594000000E+02  0.51100000000E-03 0. -1.
         23    2    1    2    0    0  0.00000000000E+00  0.00000000000E+00  0.00000000000E+00  0.91188000000E+02  0.91188000000E+02 0.  0.
    9900012    2    3    3    0    0 -0.15924088342E+02  0.35612868025E+02 -0.11459177926E+02  0.50528859364E+02  0.29999998523E+02 0.  0.
        -12    1    3    3    0    0  0.15924088342E+02 -0.35612868025E+02  0.11459177926E+02  0.40659140636E+02  0.00000000000E+00 0.  1.
         11    1    4    4    0    0 -0.32367658332E+01  0.17902287776E+02 -0.17178981510E+01  0.18273470798E+02  0.51100000000E-03 0. -1.
        -11    1    4    4    0    0 -0.31482111451E+01  0.14370731929E+02 -0.14873502775E+02  0.20920092128E+02  0.51100000000E-03 0.  1.
        -12    1    4    4    0    0 -0.95391113640E+01  0.33398483195E+01  0.51322230001E+01  0.11335296438E+02  0.00000000000E+00 0.  1.
</event>
<event>
 8    1  0.1021894E-011  0.9118800E+02  0.7816164E-02  0.1184000E+00
        -11   -1    0    0    0    0  0.00000000000E+00  0.00000000000E+00  0.45593999997E+02  0.45594000000E+02  0.51100000000E-03 0. -1.
         11   -1    0    0    0    0 -0.00000000000E+00 -0.00000000000E+00 -0.45593999997E+02  0.45594000000E+02  0.51100000000E-03 0.  1.
         23    2    1    2    0    0  0.35527136788E-14 -0.17763568394E-14 -0.71054273576E-14  0.91188000000E+02  0.91188000000E+02 0.  0.
    9900012    2    3    3    0    0  0.30437085785E+02  0.12583559514E+02 -0.23841211796E+02  0.50528861531E+02  0.30000005109E+02 0.  0.
         12    1    3    3    0    0 -0.30437085785E+02 -0.12583559514E+02  0.23841211796E+02  0.40659138469E+02  0.00000000000E+00 0. -1.
         11    1    4    4    0    0  0.14610185662E+01  0.27882401947E+01 -0.18078435329E+01  0.36300354178E+01  0.51100000000E-03 0. -1.
        -11    1    4    4    0    0  0.11912676132E+02  0.16545819838E+02 -0.32605437924E+01  0.20647206901E+02  0.51100000000E-03 0.  1.
        -12    1    4    4    0    0  0.17063391087E+02 -0.67505005180E+01 -0.18772824471E+02  0.26251619212E+02  0.00000000000E+00 0.  1.
</event>
<event>
 8    1  0.1021894E-011  0.9118800E+02  0.7816164E-02  0.1184000E+00
        -11   -1    0    0    0    0  0.00000000000E+00  0.00000000000E+00  0.45593999997E+02  0.45594000000E+02  0.51100000000E-03 0. -1.
         11   -1    0    0    0    0 -0.00000000000E+00 -0.00000000000E+00 -0.45593999997E+02  0.45594000000E+02  0.51100000000E-03 0.  1.
         23    2    1    2    0    0  0.17763568394E-14  0.00000000000E+00  0.71054273576E-14  0.91188000000E+02  0.91188000000E+02 0.  0.
    9900012    2    3    3    0    0 -0.82719327639E+01  0.17045496635E+02 -0.35974880122E+02  0.50528858014E+02  0.29999994421E+02 0.  0.
         12    1    3    3    0    0  0.82719327639E+01 -0.17045496635E+02  0.35974880122E+02  0.40659141986E+02  0.00000000000E+00 0. -1.
         11    1    4    4    0    0 -0.17992665135E+01 -0.67352936460E+00 -0.25756460962E+02  0.25828013538E+02  0.51100000000E-03 0.  1.
        -11    1    4    4    0    0 -0.89274169204E+01  0.17876077984E+02 -0.85812414908E+01  0.21746048900E+02  0.51100000000E-03 0. -1.
        -12    1    4    4    0    0  0.24547506700E+01 -0.15705198456E+00 -0.16371776701E+01  0.29547955769E+01  0.00000000000E+00 0.  1.
</event>
<event>
 8    1  0.1021894E-011  0.9118800E+02  0.7816164E-02  0.1184000E+00
        -11   -1    0    0    0    0  0.00000000000E+00  0.00000000000E+00  0.45593999997E+02  0.45594000000E+02  0.51100000000E-03 0. -1.
         11   -1    0    0    0    0 -0.00000000000E+00 -0.00000000000E+00 -0.45593999997E+02  0.45594000000E+02  0.51100000000E-03 0.  1.
         23    2    1    2    0    0 -0.17763568394E-14  0.00000000000E+00  0.00000000000E+00  0.91188000000E+02  0.91188000000E+02 0.  0.
    9900012    2    3    3    0    0  0.15022655308E+02  0.48522792083E+01 -0.37469203933E+02  0.50528855525E+02  0.29999986855E+02 0.  0.
         12    1    3    3    0    0 -0.15022655308E+02 -0.48522792083E+01  0.37469203933E+02  0.40659144475E+02  0.00000000000E+00 0. -1.
         11    1    4    4    0    0 -0.46051109715E+00  0.49061547873E+01 -0.11337626837E+02  0.12362208857E+02  0.51100000000E-03 0. -1.
        -11    1    4    4    0    0  0.10308804887E+02 -0.10543663573E+02 -0.85364908493E+01  0.17038543836E+02  0.51100000000E-03 0.  1.
        -12    1    4    4    0    0  0.51743615174E+01  0.10489787994E+02 -0.17595086247E+02  0.21128102833E+02  0.00000000000E+00 0.  1.
</event>
<event>
 8    1  0.1021894E-011  0.9118800E+02  0.7816164E-02  0.1184000E+00
        -11   -1    0    0    0    0  0.00000000000E+00  0.00000000000E+00  0.45593999997E+02  0.45594000000E+02  0.51100000000E-03 0. -1.
         11   -1    0    0    0    0 -0.00000000000E+00 -0.00000000000E+00 -0.45593999997E+02  0.45594000000E+02  0.51100000000E-03 0.  1.
         23    2    1    2    0    0  0.00000000000E+00  0.88817841970E-15  0.00000000000E+00  0.91188000000E+02  0.91188000000E+02 0.  0.
    9900012    2    3    3    0    0  0.26321024986E+02  0.76903960761E+01  0.30020383359E+02  0.50528905505E+02  0.30000138772E+02 0.  0.
        -12    1    3    3    0    0 -0.26321024986E+02 -0.76903960761E+01 -0.30020383359E+02  0.40659094495E+02  0.00000000000E+00 0.  1.
         11    1    4    4    0    0 -0.90010293355E+00  0.10436503027E+02  0.64126302427E+01  0.12282206952E+02  0.51100000000E-03 0. -1.
        -11    1    4    4    0    0  0.16863965946E+02 -0.77031546291E+01  0.13308272862E+02  0.22821964541E+02  0.51100000000E-03 0.  1.
        -12    1    4    4    0    0  0.10357161974E+02  0.49570476787E+01  0.10299480255E+02  0.15424734013E+02  0.00000000000E+00 0.  1.
</event>
<event>
 8    1  0.1021894E-011  0.9118800E+02  0.7816164E-02  0.1184000E+00
        -11   -1    0    0    0    0  0.00000000000E+00  0.00000000000E+00  0.45593999997E+02  0.45594000000E+02  0.51100000000E-03 0. -1.
         11   -1    0    0    0    0 -0.00000000000E+00 -0.00000000000E+00 -0.45593999997E+02  0.45594000000E+02  0.51100000000E-03 0.  1.
         23    2    1    2    0    0 -0.17763568394E-14  0.00000000000E+00  0.71054273576E-14  0.91188000000E+02  0.91188000000E+02 0.  0.
    9900012    2    3    3    0    0 -0.11956070030E+02  0.17162223807E+02 -0.34866553856E+02  0.50528854481E+02  0.29999983680E+02 0.  0.
         12    1    3    3    0    0  0.11956070030E+02 -0.17162223807E+02  0.34866553856E+02  0.40659145519E+02  0.00000000000E+00 0. -1.
         11    1    4    4    0    0  0.36426210384E+01 -0.26034564102E+01 -0.27424839454E+01  0.52505134760E+01  0.51100000000E-03 0. -1.
        -11    1    4    4    0    0 -0.20309550875E+02  0.16633728970E+02 -0.26440584110E+02  0.37259405316E+02  0.51100000000E-03 0.  1.
        -12    1    4    4    0    0  0.47108598066E+01  0.31319512480E+01 -0.56834858003E+01  0.80189356887E+01  0.00000000000E+00 0.  1.
</event>
<event>
 8    1  0.1044521E-011  0.9118800E+02  0.7816164E-02  0.1184000E+00
        -11   -1    0    0    0    0  0.00000000000E+00  0.00000000000E+00  0.45593999997E+02  0.45594000000E+02  0.51100000000E-03 0. -1.
         11   -1    0    0    0    0 -0.00000000000E+00 -0.00000000000E+00 -0.45593999997E+02  0.45594000000E+02  0.51100000000E-03 0.  1.
         23    2    1    2    0    0  0.00000000000E+00  0.00000000000E+00  0.00000000000E+00  0.91188000000E+02  0.91188000000E+02 0.  0.
    9900012    2    3    3    0    0 -0.16756549437E+02  0.60345488545E+01  0.36550921789E+02  0.50528836057E+02  0.29999927679E+02 0.  0.
        -12    1    3    3    0    0  0.16756549437E+02 -0.60345488545E+01 -0.36550921789E+02  0.40659163943E+02  0.00000000000E+00 0.  1.
         11    1    4    4    0    0 -0.17993166153E+02  0.70641532890E+01  0.22492537714E+02  0.29657554568E+02  0.51100000000E-03 0. -1.
        -11    1    4    4    0    0  0.29855959895E+01  0.53749381641E+01  0.10098133487E+01  0.62308480113E+01  0.51100000000E-03 0.  1.
         12    1    4    4    0    0 -0.17489792732E+01 -0.64045425986E+01  0.13048570727E+02  0.14640433477E+02  0.00000000000E+00 0. -1.
</event>
<event>
 8    1  0.1021894E-011  0.9118800E+02  0.7816164E-02  0.1184000E+00
        -11   -1    0    0    0    0  0.00000000000E+00  0.00000000000E+00  0.45593999997E+02  0.45594000000E+02  0.51100000000E-03 0. -1.
         11   -1    0    0    0    0 -0.00000000000E+00 -0.00000000000E+00 -0.45593999997E+02  0.45594000000E+02  0.51100000000E-03 0.  1.
         23    2    1    2    0    0  0.00000000000E+00  0.00000000000E+00  0.00000000000E+00  0.91188000000E+02  0.91188000000E+02 0.  0.
    9900012    2    3    3    0    0 -0.31435137006E+02  0.10562193597E+02 -0.23525303016E+02  0.50528835545E+02  0.29999926124E+02 0.  0.
         12    1    3    3    0    0  0.31435137006E+02 -0.10562193597E+02  0.23525303016E+02  0.40659164455E+02  0.00000000000E+00 0. -1.
         11    1    4    4    0    0 -0.59897310097E+01 -0.24368823671E+01 -0.10524652562E+02  0.12352472831E+02  0.51100000000E-03 0. -1.
        -11    1    4    4    0    0 -0.18962034640E+02  0.11048372141E+02  0.16795244811E+01  0.22010136015E+02  0.51100000000E-03 0.  1.
        -12    1    4    4    0    0 -0.64833713558E+01  0.19507038229E+01 -0.14680174935E+02  0.16166226699E+02  0.00000000000E+00 0.  1.
</event>
<event>
 8    1  0.1021894E-011  0.9118800E+02  0.7816164E-02  0.1184000E+00
        -11   -1    0    0    0    0  0.00000000000E+00  0.00000000000E+00  0.45593999997E+02  0.45594000000E+02  0.51100000000E-03 0. -1.
         11   -1    0    0    0    0 -0.00000000000E+00 -0.00000000000E+00 -0.45593999997E+02  0.45594000000E+02  0.51100000000E-03 0.  1.
         23    2    1    2    0    0 -0.26645352591E-14  0.00000000000E+00  0.00000000000E+00  0.91188000000E+02  0.91188000000E+02 0.  0.
    9900012    2    3    3    0    0  0.69608890158E+01 -0.11906223461E+02  0.38248578693E+02  0.50528857054E+02  0.29999991503E+02 0.  0.
        -12    1    3    3    0    0 -0.69608890158E+01  0.11906223461E+02 -0.38248578693E+02  0.40659142946E+02  0.00000000000E+00 0.  1.
         11    1    4    4    0    0  0.10617065387E+02  0.15782999616E+01  0.27275053721E+02  0.29311118435E+02  0.51100000000E-03 0. -1.
        -11    1    4    4    0    0 -0.78632182425E+01 -0.80674632372E+01  0.74563377421E+01  0.13509668279E+02  0.51100000000E-03 0.  1.
        -12    1    4    4    0    0  0.42070418711E+01 -0.54170601854E+01  0.35171872306E+01  0.77080703404E+01  0.00000000000E+00 0.  1.
</event>
<event>
 8    1  0.1021894E-011  0.9118800E+02  0.7816164E-02  0.1184000E+00
        -11   -1    0    0    0    0  0.00000000000E+00  0.00000000000E+00  0.45593999997E+02  0.45594000000E+02  0.51100000000E-03 0. -1.
         11   -1    0    0    0    0 -0.00000000000E+00 -0.00000000000E+00 -0.45593999997E+02  0.45594000000E+02  0.51100000000E-03 0.  1.
         23    2    1    2    0    0  0.00000000000E+00  0.00000000000E+00  0.00000000000E+00  0.91188000000E+02  0.91188000000E+02 0.  0.
    9900012    2    3    3    0    0  0.16754625643E+02  0.32071279409E+02 -0.18544028311E+02  0.50528862904E+02  0.30000009284E+02 0.  0.
         12    1    3    3    0    0 -0.16754625643E+02 -0.32071279409E+02  0.18544028311E+02  0.40659137096E+02  0.00000000000E+00 0. -1.
         11    1    4    4    0    0  0.10140472715E+01 -0.33106712718E+01  0.51971738265E+00  0.35012772752E+01  0.51100000000E-03 0. -1.
        -11    1    4    4    0    0  0.10716728262E+02  0.23067651442E+02 -0.21741199549E+02  0.33461090326E+02  0.51100000000E-03 0.  1.
        -12    1    4    4    0    0  0.50238501089E+01  0.12314299239E+02  0.26774538552E+01  0.13566495303E+02  0.00000000000E+00 0.  1.
</event>
<event>
 8    1  0.1190102E-011  0.9118800E+02  0.7816164E-02  0.1184000E+00
        -11   -1    0    0    0    0  0.00000000000E+00  0.00000000000E+00  0.45593999997E+02  0.45594000000E+02  0.51100000000E-03 0. -1.
         11   -1    0    0    0    0 -0.00000000000E+00 -0.00000000000E+00 -0.45593999997E+02  0.45594000000E+02  0.51100000000E-03 0.  1.
         23    2    1    2    0    0 -0.17763568394E-14 -0.35527136788E-14  0.00000000000E+00  0.91188000000E+02  0.91188000000E+02 0.  0.
    9900012    2    3    3    0    0  0.99129961992E+01  0.21782792279E+02 -0.32869581310E+02  0.50528844714E+02  0.29999953993E+02 0.  0.
         12    1    3    3    0    0 -0.99129961992E+01 -0.21782792279E+02  0.32869581310E+02  0.40659155286E+02  0.00000000000E+00 0. -1.
         11    1    4    4    0    0  0.42585171180E+01 -0.68605959180E+01 -0.72822043824E+01  0.10873511177E+02  0.51100000000E-03 0. -1.
        -11    1    4    4    0    0  0.54103448346E+01  0.10337473335E+02 -0.12825891112E+02  0.17338935067E+02  0.51100000000E-03 0.  1.
         12    1    4    4    0    0  0.24413424661E+00  0.18305914861E+02 -0.12761485815E+02  0.22316398469E+02  0.00000000000E+00 0. -1.
</event>
<event>
 8    1  0.1021894E-011  0.9118800E+02  0.7816164E-02  0.1184000E+00
        -11   -1    0    0    0    0  0.00000000000E+00  0.00000000000E+00  0.45593999997E+02  0.45594000000E+02  0.51100000000E-03 0.  1.
         11   -1    0    0    0    0 -0.00000000000E+00 -0.00000000000E+00 -0.45593999997E+02  0.45594000000E+02  0.51100000000E-03 0. -1.
         23    2    1    2    0    0  0.00000000000E+00 -0.88817841970E-15 -0.17763568394E-14  0.91188000000E+02  0.91188000000E+02 0.  0.
    9900012    2    3    3    0    0 -0.39329092149E+02  0.34593903163E+01  0.97170463348E+01  0.50528857608E+02  0.29999993184E+02 0.  0.
        -12    1    3    3    0    0  0.39329092149E+02 -0.34593903163E+01 -0.97170463348E+01  0.40659142392E+02  0.00000000000E+00 0.  1.
         11    1    4    4    0    0 -0.29993468140E+02  0.13963951916E+02  0.49322162569E+01  0.33450363849E+02  0.51100000000E-03 0. -1.
        -11    1    4    4    0    0 -0.54920366450E+01 -0.10871252417E+02  0.51004200965E+01  0.13204578034E+02  0.51100000000E-03 0.  1.
         12    1    4    4    0    0 -0.38435873641E+01  0.36669081737E+00 -0.31559001860E+00  0.38739157246E+01  0.00000000000E+00 0. -1.
</event>
<event>
 8    1  0.1021894E-011  0.9118800E+02  0.7816164E-02  0.1184000E+00
        -11   -1    0    0    0    0  0.00000000000E+00  0.00000000000E+00  0.45593999997E+02  0.45594000000E+02  0.51100000000E-03 0. -1.
         11   -1    0    0    0    0 -0.00000000000E+00 -0.00000000000E+00 -0.45593999997E+02  0.45594000000E+02  0.51100000000E-03 0.  1.
         23    2    1    2    0    0  0.00000000000E+00  0.00000000000E+00  0.00000000000E+00  0.91188000000E+02  0.91188000000E+02 0.  0.
    9900012    2    3    3    0    0 -0.11012809527E+02  0.42032790556E+01 -0.38912921860E+02  0.50528867985E+02  0.30000024728E+02 0.  0.
         12    1    3    3    0    0  0.11012809527E+02 -0.42032790556E+01  0.38912921860E+02  0.40659132015E+02  0.00000000000E+00 0. -1.
         11    1    4    4    0    0 -0.13563183901E+02  0.10987084499E+02 -0.13343019600E+02  0.21970711314E+02  0.51100000000E-03 0.  1.
        -11    1    4    4    0    0 -0.21822717197E+01 -0.73286173838E+01 -0.12573042338E+02  0.14715717329E+02  0.51100000000E-03 0. -1.
         12    1    4    4    0    0  0.47326460943E+01  0.54481194026E+00 -0.12996859923E+02  0.13842439343E+02  0.00000000000E+00 0. -1.
</event>
<event>
 8    1  0.1021894E-011  0.9118800E+02  0.7816164E-02  0.1184000E+00
        -11   -1    0    0    0    0  0.00000000000E+00  0.00000000000E+00  0.45593999997E+02  0.45594000000E+02  0.51100000000E-03 0. -1.
         11   -1    0    0    0    0 -0.00000000000E+00 -0.00000000000E+00 -0.45593999997E+02  0.45594000000E+02  0.51100000000E-03 0.  1.
         23    2    1    2    0    0  0.88817841970E-15  0.44408920985E-15 -0.71054273576E-14  0.91188000000E+02  0.91188000000E+02 0.  0.
    9900012    2    3    3    0    0 -0.79560193018E+01  0.18129691555E+01 -0.39831903380E+02  0.50528860471E+02  0.30000001889E+02 0.  0.
         12    1    3    3    0    0  0.79560193018E+01 -0.18129691555E+01  0.39831903380E+02  0.40659139529E+02  0.00000000000E+00 0. -1.
         11    1    4    4    0    0 -0.95413253935E+01 -0.74959979650E+01 -0.19024160380E+02  0.22564253903E+02  0.51100000000E-03 0. -1.
        -11    1    4    4    0    0  0.84801950877E+01  0.78134694663E+01 -0.11502855838E+02  0.16287409448E+02  0.51100000000E-03 0.  1.
        -12    1    4    4    0    0 -0.68948889960E+01  0.14954976542E+01 -0.93048871626E+01  0.11677197121E+02  0.00000000000E+00 0.  1.
</event>
<event>
 8    1  0.1021894E-011  0.9118800E+02  0.7816164E-02  0.1184000E+00
        -11   -1    0    0    0    0  0.00000000000E+00  0.00000000000E+00  0.45593999997E+02  0.45594000000E+02  0.51100000000E-03 0.  1.
         11   -1    0    0    0    0 -0.00000000000E+00 -0.00000000000E+00 -0.45593999997E+02  0.45594000000E+02  0.51100000000E-03 0. -1.
         23    2    1    2    0    0 -0.71054273576E-14  0.35527136788E-14  0.44408920985E-15  0.91188000000E+02  0.91188000000E+02 0.  0.
    9900012    2    3    3    0    0 -0.35488295784E+02  0.19502899911E+02  0.36582892662E+01  0.50528864213E+02  0.30000013262E+02 0.  0.
        -12    1    3    3    0    0  0.35488295784E+02 -0.19502899911E+02 -0.36582892662E+01  0.40659135787E+02  0.00000000000E+00 0.  1.
         11    1    4    4    0    0 -0.22407286346E+02  0.12116984463E+02 -0.18606601458E+01  0.25541531870E+02  0.51100000000E-03 0. -1.
        -11    1    4    4    0    0  0.19568593676E+01  0.86725322514E+01  0.42125963533E+01  0.98380934400E+01  0.51100000000E-03 0.  1.
        -12    1    4    4    0    0 -0.15037868806E+02 -0.12866168034E+01  0.13063530587E+01  0.15149238903E+02  0.00000000000E+00 0.  1.
</event>
<event>
 8    1  0.1021894E-011  0.9118800E+02  0.7816164E-02  0.1184000E+00
        -11   -1    0    0    0    0  0.00000000000E+00  0.00000000000E+00  0.45593999997E+02  0.45594000000E+02  0.51100000000E-03 0. -1.
         11   -1    0    0    0    0 -0.00000000000E+00 -0.00000000000E+00 -0.45593999997E+02  0.45594000000E+02  0.51100000000E-03 0.  1.
         23    2    1    2    0    0 -0.35527136788E-14  0.00000000000E+00 -0.71054273576E-14  0.91188000000E+02  0.91188000000E+02 0.  0.
    9900012    2    3    3    0    0  0.17102613075E+02 -0.11871704522E+02  0.34924612110E+02  0.50528864824E+02  0.30000015118E+02 0.  0.
        -12    1    3    3    0    0 -0.17102613075E+02  0.11871704522E+02 -0.34924612110E+02  0.40659135176E+02  0.00000000000E+00 0.  1.
         11    1    4    4    0    0 -0.34225688765E+01 -0.27793706724E+01  0.15381781664E+02  0.16001190158E+02  0.51100000000E-03 0. -1.
        -11    1    4    4    0    0  0.22774134063E+02 -0.46531707688E+01  0.17717635576E+02  0.29227175560E+02  0.51100000000E-03 0.  1.
        -12    1    4    4    0    0 -0.22489521119E+01 -0.44391630805E+01  0.18251948700E+01  0.53004991058E+01  0.00000000000E+00 0.  1.
</event>
<event>
 8    1  0.1021894E-011  0.9118800E+02  0.7816164E-02  0.1184000E+00
        -11   -1    0    0    0    0  0.00000000000E+00  0.00000000000E+00  0.45593999997E+02  0.45594000000E+02  0.51100000000E-03 0. -1.
         11   -1    0    0    0    0 -0.00000000000E+00 -0.00000000000E+00 -0.45593999997E+02  0.45594000000E+02  0.51100000000E-03 0.  1.
         23    2    1    2    0    0  0.00000000000E+00 -0.44408920985E-15  0.35527136788E-14  0.91188000000E+02  0.91188000000E+02 0.  0.
    9900012    2    3    3    0    0 -0.27135920703E+02  0.35171517837E+01  0.30074001188E+02  0.50528756322E+02  0.29999685313E+02 0.  0.
        -12    1    3    3    0    0  0.27135920703E+02 -0.35171517837E+01 -0.30074001188E+02  0.40659243678E+02  0.00000000000E+00 0.  1.
         11    1    4    4    0    0 -0.18490452640E+02  0.61705096962E+01  0.12428302467E+02  0.23117844432E+02  0.51100000000E-03 0. -1.
        -11    1    4    4    0    0  0.46755564042E+01 -0.52830204344E+01  0.37782263893E+01  0.80028824500E+01  0.51100000000E-03 0.  1.
        -12    1    4    4    0    0 -0.13321024467E+02  0.26296625219E+01  0.13867472332E+02  0.19408029439E+02  0.00000000000E+00 0.  1.
</event>
<event>
 8    1  0.1021894E-011  0.9118800E+02  0.7816164E-02  0.1184000E+00
        -11   -1    0    0    0    0  0.00000000000E+00  0.00000000000E+00  0.45593999997E+02  0.45594000000E+02  0.51100000000E-03 0. -1.
         11   -1    0    0    0    0 -0.00000000000E+00 -0.00000000000E+00 -0.45593999997E+02  0.45594000000E+02  0.51100000000E-03 0.  1.
         23    2    1    2    0    0  0.00000000000E+00 -0.35527136788E-14  0.00000000000E+00  0.91188000000E+02  0.91188000000E+02 0.  0.
    9900012    2    3    3    0    0 -0.15586882778E+02 -0.14110385271E+02  0.34801095997E+02  0.50528804610E+02  0.29999832091E+02 0.  0.
        -12    1    3    3    0    0  0.15586882778E+02  0.14110385271E+02 -0.34801095997E+02  0.40659195390E+02  0.00000000000E+00 0.  1.
         11    1    4    4    0    0  0.25909027180E+01 -0.58876061417E+01  0.23639573926E+02  0.24499104854E+02  0.51100000000E-03 0. -1.
        -11    1    4    4    0    0 -0.15140980731E+01 -0.45546342455E+01 -0.12148637506E+01  0.49510685997E+01  0.51100000000E-03 0.  1.
         12    1    4    4    0    0 -0.16663687422E+02 -0.36681448836E+01  0.12376385821E+02  0.21078631156E+02  0.00000000000E+00 0. -1.
</event>
<event>
 8    1  0.1021894E-011  0.9118800E+02  0.7816164E-02  0.1184000E+00
        -11   -1    0    0    0    0  0.00000000000E+00  0.00000000000E+00  0.45593999997E+02  0.45594000000E+02  0.51100000000E-03 0. -1.
         11   -1    0    0    0    0 -0.00000000000E+00 -0.00000000000E+00 -0.45593999997E+02  0.45594000000E+02  0.51100000000E-03 0.  1.
         23    2    1    2    0    0  0.00000000000E+00  0.00000000000E+00  0.00000000000E+00  0.91188000000E+02  0.91188000000E+02 0.  0.
    9900012    2    3    3    0    0  0.34354937294E+02  0.21006876797E+02 -0.56227598864E+01  0.50528855666E+02  0.29999987283E+02 0.  0.
        -12    1    3    3    0    0 -0.34354937294E+02 -0.21006876797E+02  0.56227598864E+01  0.40659144334E+02  0.00000000000E+00 0.  1.
         11    1    4    4    0    0  0.90745865294E+01  0.12018533028E+02  0.10462575472E+02  0.18337359204E+02  0.51100000000E-03 0. -1.
        -11    1    4    4    0    0  0.14865250994E+02  0.90161522717E+01 -0.11253825610E+02  0.20710269916E+02  0.51100000000E-03 0.  1.
         12    1    4    4    0    0  0.10415099771E+02 -0.27808503152E-01 -0.48315097483E+01  0.11481226546E+02  0.00000000000E+00 0. -1.
</event>
<event>
 8    1  0.1021894E-011  0.9118800E+02  0.7816164E-02  0.1184000E+00
        -11   -1    0    0    0    0  0.00000000000E+00  0.00000000000E+00  0.45593999997E+02  0.45594000000E+02  0.51100000000E-03 0. -1.
         11   -1    0    0    0    0 -0.00000000000E+00 -0.00000000000E+00 -0.45593999997E+02  0.45594000000E+02  0.51100000000E-03 0.  1.
         23    2    1    2    0    0  0.35527136788E-14  0.00000000000E+00  0.00000000000E+00  0.91188000000E+02  0.91188000000E+02 0.  0.
    9900012    2    3    3    0    0 -0.18115185898E+02 -0.36226473677E+02 -0.35564118423E+01  0.50528863015E+02  0.30000009619E+02 0.  0.
         12    1    3    3    0    0  0.18115185898E+02  0.36226473677E+02  0.35564118423E+01  0.40659136985E+02  0.00000000000E+00 0. -1.
         11    1    4    4    0    0 -0.58602832254E+01 -0.15778785882E+02  0.33291991319E+01  0.17157988534E+02  0.51100000000E-03 0. -1.
        -11    1    4    4    0    0  0.26626816875E+01  0.28462465762E+01  0.19161101895E+01  0.43430947331E+01  0.51100000000E-03 0.  1.
        -12    1    4    4    0    0 -0.14917584360E+02 -0.23293934371E+02 -0.88017211638E+01  0.29027779748E+02  0.00000000000E+00 0.  1.
</event>
<event>
 8    1  0.1021894E-011  0.9118800E+02  0.7816164E-02  0.1184000E+00
        -11   -1    0    0    0    0  0.00000000000E+00  0.00000000000E+00  0.45593999997E+02  0.45594000000E+02  0.51100000000E-03 0. -1.
         11   -1    0    0    0    0 -0.00000000000E+00 -0.00000000000E+00 -0.45593999997E+02  0.45594000000E+02  0.51100000000E-03 0.  1.
         23    2    1    2    0    0  0.00000000000E+00 -0.17763568394E-14  0.00000000000E+00  0.91188000000E+02  0.91188000000E+02 0.  0.
    9900012    2    3    3    0    0  0.27105985835E+01  0.63857937778E+01 -0.40062953410E+02  0.50528856590E+02  0.29999990092E+02 0.  0.
         12    1    3    3    0    0 -0.27105985835E+01 -0.63857937778E+01  0.40062953410E+02  0.40659143410E+02  0.00000000000E+00 0. -1.
         11    1    4    4    0    0 -0.49997360168E+01  0.51604522599E+01 -0.30319274138E+01  0.77987314269E+01  0.51100000000E-03 0. -1.
        -11    1    4    4    0    0  0.35274368987E+01 -0.60617583406E+01 -0.32371110905E+02  0.33122145866E+02  0.51100000000E-03 0.  1.
        -12    1    4    4    0    0  0.41828977016E+01  0.72870998585E+01 -0.46599150911E+01  0.96079792977E+01  0.00000000000E+00 0.  1.
</event>
<event>
 8    1  0.1021894E-011  0.9118800E+02  0.7816164E-02  0.1184000E+00
        -11   -1    0    0    0    0  0.00000000000E+00  0.00000000000E+00  0.45593999997E+02  0.45594000000E+02  0.51100000000E-03 0. -1.
         11   -1    0    0    0    0 -0.00000000000E+00 -0.00000000000E+00 -0.45593999997E+02  0.45594000000E+02  0.51100000000E-03 0.  1.
         23    2    1    2    0    0 -0.35527136788E-14 -0.35527136788E-14  0.35527136788E-14  0.91188000000E+02  0.91188000000E+02 0.  0.
    9900012    2    3    3    0    0 -0.23403486367E+02 -0.16184825105E+02  0.29042833406E+02  0.50528955372E+02  0.30000290347E+02 0.  0.
        -12    1    3    3    0    0  0.23403486367E+02  0.16184825105E+02 -0.29042833406E+02  0.40659044628E+02  0.00000000000E+00 0.  1.
         11    1    4    4    0    0 -0.26010615213E+02 -0.12349732923E+02  0.28671342234E+02  0.40633900536E+02  0.51100000000E-03 0. -1.
        -11    1    4    4    0    0 -0.15635379524E+01 -0.40871115937E+01 -0.22921627338E+01  0.49399536807E+01  0.51100000000E-03 0.  1.
         12    1    4    4    0    0  0.41706667982E+01  0.25201941179E+00  0.26636539061E+01  0.49551011551E+01  0.00000000000E+00 0. -1.
</event>
<event>
 8    1  0.1021894E-011  0.9118800E+02  0.7816164E-02  0.1184000E+00
        -11   -1    0    0    0    0  0.00000000000E+00  0.00000000000E+00  0.45593999997E+02  0.45594000000E+02  0.51100000000E-03 0.  1.
         11   -1    0    0    0    0 -0.00000000000E+00 -0.00000000000E+00 -0.45593999997E+02  0.45594000000E+02  0.51100000000E-03 0. -1.
         23    2    1    2    0    0 -0.35527136788E-14  0.35527136788E-14 -0.35527136788E-14  0.91188000000E+02  0.91188000000E+02 0.  0.
    9900012    2    3    3    0    0  0.25428100321E+02  0.18794591200E+02  0.25560522126E+02  0.50528865286E+02  0.30000016524E+02 0.  0.
        -12    1    3    3    0    0 -0.25428100321E+02 -0.18794591200E+02 -0.25560522126E+02  0.40659134714E+02  0.00000000000E+00 0.  1.
         11    1    4    4    0    0  0.90751442057E+01 -0.56758268289E+01  0.14277570393E+02  0.17844390411E+02  0.51100000000E-03 0. -1.
        -11    1    4    4    0    0  0.35209666302E+01  0.87759296219E+01  0.74836022975E+01  0.12058957266E+02  0.51100000000E-03 0.  1.
         12    1    4    4    0    0  0.12831989485E+02  0.15694488407E+02  0.37993494349E+01  0.20625517609E+02  0.00000000000E+00 0. -1.
</event>
<event>
 8    1  0.1021894E-011  0.9118800E+02  0.7816164E-02  0.1184000E+00
        -11   -1    0    0    0    0  0.00000000000E+00  0.00000000000E+00  0.45593999997E+02  0.45594000000E+02  0.51100000000E-03 0. -1.
         11   -1    0    0    0    0 -0.00000000000E+00 -0.00000000000E+00 -0.45593999997E+02  0.45594000000E+02  0.51100000000E-03 0.  1.
         23    2    1    2    0    0  0.00000000000E+00  0.17763568394E-14  0.00000000000E+00  0.91188000000E+02  0.91188000000E+02 0.  0.
    9900012    2    3    3    0    0  0.29468563755E+02  0.10621464496E+02 -0.25922077570E+02  0.50528857568E+02  0.29999993062E+02 0.  0.
         12    1    3    3    0    0 -0.29468563755E+02 -0.10621464496E+02  0.25922077570E+02  0.40659142432E+02  0.00000000000E+00 0. -1.
         11    1    4    4    0    0  0.15416678537E+02  0.15346498482E+02 -0.16834958763E+02  0.27506450690E+02  0.51100000000E-03 0.  1.
        -11    1    4    4    0    0  0.19706525728E+01 -0.75556590635E+01 -0.29342520734E+00  0.78139333284E+01  0.51100000000E-03 0. -1.
         12    1    4    4    0    0  0.12081232645E+02  0.28306250774E+01 -0.87936935993E+01  0.15208473549E+02  0.00000000000E+00 0. -1.
</event>
<event>
 8    1  0.1021894E-011  0.9118800E+02  0.7816164E-02  0.1184000E+00
        -11   -1    0    0    0    0  0.00000000000E+00  0.00000000000E+00  0.45593999997E+02  0.45594000000E+02  0.51100000000E-03 0.  1.
         11   -1    0    0    0    0 -0.00000000000E+00 -0.00000000000E+00 -0.45593999997E+02  0.45594000000E+02  0.51100000000E-03 0. -1.
         23    2    1    2    0    0  0.88817841970E-15  0.71054273576E-14  0.88817841970E-15  0.91188000000E+02  0.91188000000E+02 0.  0.
    9900012    2    3    3    0    0  0.11767724750E+01  0.40185382658E+02  0.60757706261E+01  0.50528871117E+02  0.30000034247E+02 0.  0.
        -12    1    3    3    0    0 -0.11767724750E+01 -0.40185382658E+02 -0.60757706261E+01  0.40659128883E+02  0.00000000000E+00 0.  1.
         11    1    4    4    0    0 -0.51289511911E+01 -0.10514527612E+01  0.64037261626E+01  0.82716021578E+01  0.51100000000E-03 0.  1.
        -11    1    4    4    0    0  0.70674461922E+01  0.24997556838E+02 -0.85656406574E+00  0.25991543736E+02  0.51100000000E-03 0. -1.
        -12    1    4    4    0    0 -0.76172252615E+00  0.16239278581E+02  0.52860852916E+00  0.16265725223E+02  0.00000000000E+00 0.  1.
</event>
<event>
 8    1  0.1021894E-011  0.9118800E+02  0.7816164E-02  0.1184000E+00
        -11   -1    0    0    0    0  0.00000000000E+00  0.00000000000E+00  0.45593999997E+02  0.45594000000E+02  0.51100000000E-03 0. -1.
         11   -1    0    0    0    0 -0.00000000000E+00 -0.00000000000E+00 -0.45593999997E+02  0.45594000000E+02  0.51100000000E-03 0.  1.
         23    2    1    2    0    0  0.00000000000E+00  0.00000000000E+00  0.00000000000E+00  0.91188000000E+02  0.91188000000E+02 0.  0.
    9900012    2    3    3    0    0  0.20738624002E+02  0.25088320896E+02 -0.24364964077E+02  0.50528857788E+02  0.29999993734E+02 0.  0.
         12    1    3    3    0    0 -0.20738624002E+02 -0.25088320896E+02  0.24364964077E+02  0.40659142212E+02  0.00000000000E+00 0. -1.
         11    1    4    4    0    0  0.15598994300E+02  0.92753109660E+01  0.28127867408E+01  0.18364960827E+02  0.51100000000E-03 0. -1.
        -11    1    4    4    0    0  0.31928621092E+01  0.11124376819E+02 -0.14817784451E+02  0.18801937782E+02  0.51100000000E-03 0.  1.
         12    1    4    4    0    0  0.19467675933E+01  0.46886331117E+01 -0.12359966366E+02  0.13361959179E+02  0.00000000000E+00 0. -1.
</event>
<event>
 8    1  0.1021894E-011  0.9118800E+02  0.7816164E-02  0.1184000E+00
        -11   -1    0    0    0    0  0.00000000000E+00  0.00000000000E+00  0.45593999997E+02  0.45594000000E+02  0.51100000000E-03 0. -1.
         11   -1    0    0    0    0 -0.00000000000E+00 -0.00000000000E+00 -0.45593999997E+02  0.45594000000E+02  0.51100000000E-03 0.  1.
         23    2    1    2    0    0 -0.17763568394E-14  0.00000000000E+00  0.00000000000E+00  0.91188000000E+02  0.91188000000E+02 0.  0.
    9900012    2    3    3    0    0 -0.15506949822E+02  0.30985382656E+02 -0.21274543684E+02  0.50528860313E+02  0.30000001408E+02 0.  0.
         12    1    3    3    0    0  0.15506949822E+02 -0.30985382656E+02  0.21274543684E+02  0.40659139687E+02  0.00000000000E+00 0. -1.
         11    1    4    4    0    0 -0.95489918864E+01 -0.31657418791E+01 -0.80130449966E+01  0.12861339669E+02  0.51100000000E-03 0. -1.
        -11    1    4    4    0    0 -0.22958910380E+01  0.10614855584E+02 -0.73866611900E+01  0.13134269623E+02  0.51100000000E-03 0.  1.
         12    1    4    4    0    0 -0.36620668977E+01  0.23536268951E+02 -0.58748374975E+01  0.24533251022E+02  0.00000000000E+00 0. -1.
</event>
<event>
 8    1  0.1021894E-011  0.9118800E+02  0.7816164E-02  0.1184000E+00
        -11   -1    0    0    0    0  0.00000000000E+00  0.00000000000E+00  0.45593999997E+02  0.45594000000E+02  0.51100000000E-03 0. -1.
         11   -1    0    0    0    0 -0.00000000000E+00 -0.00000000000E+00 -0.45593999997E+02  0.45594000000E+02  0.51100000000E-03 0.  1.
         23    2    1    2    0    0 -0.35527136788E-14  0.17763568394E-14  0.00000000000E+00  0.91188000000E+02  0.91188000000E+02 0.  0.
    9900012    2    3    3    0    0 -0.27543670187E+02  0.14770243142E+02  0.26006778339E+02  0.50528851344E+02  0.29999974146E+02 0.  0.
        -12    1    3    3    0    0  0.27543670187E+02 -0.14770243142E+02 -0.26006778339E+02  0.40659148656E+02  0.00000000000E+00 0.  1.
         11    1    4    4    0    0 -0.14091347605E+02  0.11716894176E+02  0.24862338566E+02  0.30886689135E+02  0.51100000000E-03 0. -1.
        -11    1    4    4    0    0  0.25561568024E+01 -0.46628507908E+00 -0.15585979180E+01  0.30299483667E+01  0.51100000000E-03 0.  1.
         12    1    4    4    0    0 -0.16008479384E+02  0.35196340447E+01  0.27030376907E+01  0.16612213843E+02  0.00000000000E+00 0. -1.
</event>
<event>
 8    1  0.1021894E-011  0.9118800E+02  0.7816164E-02  0.1184000E+00
        -11   -1    0    0    0    0  0.00000000000E+00  0.00000000000E+00  0.45593999997E+02  0.45594000000E+02  0.51100000000E-03 0. -1.
         11   -1    0    0    0    0 -0.00000000000E+00 -0.00000000000E+00 -0.45593999997E+02  0.45594000000E+02  0.51100000000E-03 0.  1.
         23    2    1    2    0    0  0.00000000000E+00  0.35527136788E-14 -0.71054273576E-14  0.91188000000E+02  0.91188000000E+02 0.  0.
    9900012    2    3    3    0    0 -0.17499400788E+02  0.20891975894E+02 -0.30173828232E+02  0.50528885464E+02  0.30000077857E+02 0.  0.
         12    1    3    3    0    0  0.17499400788E+02 -0.20891975894E+02  0.30173828232E+02  0.40659114536E+02  0.00000000000E+00 0. -1.
         11    1    4    4    0    0  0.76637148683E+00  0.12010863724E+02  0.23486519446E+00  0.12037580097E+02  0.51100000000E-03 0. -1.
        -11    1    4    4    0    0 -0.19251615550E+02  0.92128859411E+01 -0.24502527038E+02  0.32494242569E+02  0.51100000000E-03 0.  1.
         12    1    4    4    0    0  0.98584327503E+00 -0.33177377186E+00 -0.59061663888E+01  0.59970627986E+01  0.00000000000E+00 0. -1.
</event>
<event>
 8    1  0.1021894E-011  0.9118800E+02  0.7816164E-02  0.1184000E+00
        -11   -1    0    0    0    0  0.00000000000E+00  0.00000000000E+00  0.45593999997E+02  0.45594000000E+02  0.51100000000E-03 0. -1.
         11   -1    0    0    0    0 -0.00000000000E+00 -0.00000000000E+00 -0.45593999997E+02  0.45594000000E+02  0.51100000000E-03 0.  1.
         23    2    1    2    0    0  0.00000000000E+00  0.35527136788E-14  0.35527136788E-14  0.91188000000E+02  0.91188000000E+02 0.  0.
    9900012    2    3    3    0    0  0.61051038637E+00 -0.25906844382E+02  0.31330953772E+02  0.50528856218E+02  0.29999988961E+02 0.  0.
        -12    1    3    3    0    0 -0.61051038637E+00  0.25906844382E+02 -0.31330953772E+02  0.40659143782E+02  0.00000000000E+00 0.  1.
         11    1    4    4    0    0 -0.17311191000E+01 -0.20008379177E+02  0.25049535505E+02  0.32106249235E+02  0.51100000000E-03 0. -1.
        -11    1    4    4    0    0 -0.40821655562E+00 -0.63368697761E+01 -0.41764628816E+01  0.76003553718E+01  0.51100000000E-03 0.  1.
        -12    1    4    4    0    0  0.27498460419E+01  0.43840457107E+00  0.10457881149E+02  0.10822251611E+02  0.00000000000E+00 0.  1.
</event>
<event>
 8    1  0.1099986E-011  0.9118800E+02  0.7816164E-02  0.1184000E+00
        -11   -1    0    0    0    0  0.00000000000E+00  0.00000000000E+00  0.45593999997E+02  0.45594000000E+02  0.51100000000E-03 0. -1.
         11   -1    0    0    0    0 -0.00000000000E+00 -0.00000000000E+00 -0.45593999997E+02  0.45594000000E+02  0.51100000000E-03 0.  1.
         23    2    1    2    0    0 -0.17763568394E-14 -0.35527136788E-14  0.00000000000E+00  0.91188000000E+02  0.91188000000E+02 0.  0.
    9900012    2    3    3    0    0 -0.12309855814E+02  0.14210662524E+02 -0.36051215652E+02  0.50528860443E+02  0.30000001801E+02 0.  0.
         12    1    3    3    0    0  0.12309855814E+02 -0.14210662524E+02  0.36051215652E+02  0.40659139557E+02  0.00000000000E+00 0. -1.
         11    1    4    4    0    0  0.44305065550E+01  0.65998449398E+01 -0.13734500891E+02  0.15868958900E+02  0.51100000000E-03 0. -1.
        -11    1    4    4    0    0 -0.12688317572E+02 -0.37723299136E+01 -0.16769719925E+02  0.21364629236E+02  0.51100000000E-03 0.  1.
         12    1    4    4    0    0 -0.40520447967E+01  0.11383147498E+02 -0.55469948364E+01  0.13295272307E+02  0.00000000000E+00 0. -1.
</event>
<event>
 8    1  0.1021894E-011  0.9118800E+02  0.7816164E-02  0.1184000E+00
        -11   -1    0    0    0    0  0.00000000000E+00  0.00000000000E+00  0.45593999997E+02  0.45594000000E+02  0.51100000000E-03 0. -1.
         11   -1    0    0    0    0 -0.00000000000E+00 -0.00000000000E+00 -0.45593999997E+02  0.45594000000E+02  0.51100000000E-03 0.  1.
         23    2    1    2    0    0  0.00000000000E+00  0.21649348980E-14  0.00000000000E+00  0.91188000000E+02  0.91188000000E+02 0.  0.
    9900012    2    3    3    0    0 -0.14109563747E+02 -0.28329415196E+00 -0.38131423936E+02  0.50528861592E+02  0.30000005295E+02 0.  0.
         12    1    3    3    0    0  0.14109563747E+02  0.28329415196E+00  0.38131423936E+02  0.40659138408E+02  0.00000000000E+00 0. -1.
         11    1    4    4    0    0 -0.30129571337E+01  0.98710533527E+01 -0.43519000965E+01  0.11200653539E+02  0.51100000000E-03 0. -1.
        -11    1    4    4    0    0 -0.12498959030E+02 -0.11386632149E+02 -0.23913472218E+02  0.29287087979E+02  0.51100000000E-03 0.  1.
         12    1    4    4    0    0  0.14023524166E+01  0.12322846448E+01 -0.98660516216E+01  0.10041120074E+02  0.00000000000E+00 0. -1.
</event>
<event>
 8    1  0.1021894E-011  0.9118800E+02  0.7816164E-02  0.1184000E+00
        -11   -1    0    0    0    0  0.00000000000E+00  0.00000000000E+00  0.45593999997E+02  0.45594000000E+02  0.51100000000E-03 0. -1.
         11   -1    0    0    0    0 -0.00000000000E+00 -0.00000000000E+00 -0.45593999997E+02  0.45594000000E+02  0.51100000000E-03 0.  1.
         23    2    1    2    0    0  0.00000000000E+00  0.00000000000E+00  0.71054273576E-14  0.91188000000E+02  0.91188000000E+02 0.  0.
    9900012    2    3    3    0    0 -0.47124209641E+01  0.10644287568E+02 -0.38957120719E+02  0.50528867891E+02  0.30000024442E+02 0.  0.
         12    1    3    3    0    0  0.47124209641E+01 -0.10644287568E+02  0.38957120719E+02  0.40659132109E+02  0.00000000000E+00 0. -1.
         11    1    4    4    0    0  0.21772842833E+01 -0.14877127225E+01  0.33424367137E+00  0.26581149501E+01  0.51100000000E-03 0. -1.
        -11    1    4    4    0    0 -0.72588843189E+01  0.16776394834E+02 -0.16554705774E+02  0.24661652595E+02  0.51100000000E-03 0.  1.
        -12    1    4    4    0    0  0.36917907150E+00 -0.46443945435E+01 -0.22736658616E+02  0.23209100346E+02  0.00000000000E+00 0.  1.
</event>
<event>
 8    1  0.1021894E-011  0.9118800E+02  0.7816164E-02  0.1184000E+00
        -11   -1    0    0    0    0  0.00000000000E+00  0.00000000000E+00  0.45593999997E+02  0.45594000000E+02  0.51100000000E-03 0. -1.
         11   -1    0    0    0    0 -0.00000000000E+00 -0.00000000000E+00 -0.45593999997E+02  0.45594000000E+02  0.51100000000E-03 0.  1.
         23    2    1    2    0    0  0.00000000000E+00  0.17763568394E-14  0.00000000000E+00  0.91188000000E+02  0.91188000000E+02 0.  0.
    9900012    2    3    3    0    0  0.18048860668E+02  0.81169701132E+01  0.35517869392E+02  0.50528860543E+02  0.30000002106E+02 0.  0.
        -12    1    3    3    0    0 -0.18048860668E+02 -0.81169701132E+01 -0.35517869392E+02  0.40659139457E+02  0.00000000000E+00 0.  1.
         11    1    4    4    0    0  0.51650446215E+01  0.67871573535E+01  0.44136652687E+01  0.96033136078E+01  0.51100000000E-03 0. -1.
        -11    1    4    4    0    0 -0.34843955690E+01  0.84168382952E+00  0.21797280925E+02  0.22090063380E+02  0.51100000000E-03 0.  1.
        -12    1    4    4    0    0  0.16368211615E+02  0.48812893019E+00  0.93069231983E+01  0.18835483555E+02  0.00000000000E+00 0.  1.
</event>
<event>
 8    1  0.1021894E-011  0.9118800E+02  0.7816164E-02  0.1184000E+00
        -11   -1    0    0    0    0  0.00000000000E+00  0.00000000000E+00  0.45593999997E+02  0.45594000000E+02  0.51100000000E-03 0. -1.
         11   -1    0    0    0    0 -0.00000000000E+00 -0.00000000000E+00 -0.45593999997E+02  0.45594000000E+02  0.51100000000E-03 0.  1.
         23    2    1    2    0    0  0.22204460493E-15  0.00000000000E+00  0.00000000000E+00  0.91188000000E+02  0.91188000000E+02 0.  0.
    9900012    2    3    3    0    0 -0.31227909462E+00  0.22719843830E+02  0.33717595619E+02  0.50528867247E+02  0.30000022485E+02 0.  0.
        -12    1    3    3    0    0  0.31227909462E+00 -0.22719843830E+02 -0.33717595619E+02  0.40659132753E+02  0.00000000000E+00 0.  1.
         11    1    4    4    0    0  0.65546136841E+01  0.23711788782E+02  0.35305789907E+02  0.43031508096E+02  0.51100000000E-03 0. -1.
        -11    1    4    4    0    0 -0.14480335970E+01 -0.91431039230E+00  0.33846210391E+00  0.17456579414E+01  0.51100000000E-03 0.  1.
         12    1    4    4    0    0 -0.54188591817E+01 -0.77634559802E-01 -0.19266563920E+01  0.57517012100E+01  0.00000000000E+00 0. -1.
</event>
<event>
 8    1  0.1021894E-011  0.9118800E+02  0.7816164E-02  0.1184000E+00
        -11   -1    0    0    0    0  0.00000000000E+00  0.00000000000E+00  0.45593999997E+02  0.45594000000E+02  0.51100000000E-03 0. -1.
         11   -1    0    0    0    0 -0.00000000000E+00 -0.00000000000E+00 -0.45593999997E+02  0.45594000000E+02  0.51100000000E-03 0.  1.
         23    2    1    2    0    0  0.00000000000E+00 -0.17763568394E-14  0.00000000000E+00  0.91188000000E+02  0.91188000000E+02 0.  0.
    9900012    2    3    3    0    0  0.94618182123E+01  0.13918485899E+02 -0.37012369727E+02  0.50528858759E+02  0.29999996685E+02 0.  0.
         12    1    3    3    0    0 -0.94618182123E+01 -0.13918485899E+02  0.37012369727E+02  0.40659141241E+02  0.00000000000E+00 0. -1.
         11    1    4    4    0    0 -0.78648859592E+00 -0.90375146592E+01 -0.11709887749E+02  0.14812721117E+02  0.51100000000E-03 0. -1.
        -11    1    4    4    0    0  0.80003691036E+01  0.15852492293E+02 -0.17785493824E+02  0.25132274241E+02  0.51100000000E-03 0.  1.
         12    1    4    4    0    0  0.22479377046E+01  0.71035082647E+01 -0.75169881536E+01  0.10583863401E+02  0.00000000000E+00 0. -1.
</event>
<event>
 8    1  0.1021894E-011  0.9118800E+02  0.7816164E-02  0.1184000E+00
        -11   -1    0    0    0    0  0.00000000000E+00  0.00000000000E+00  0.45593999997E+02  0.45594000000E+02  0.51100000000E-03 0. -1.
         11   -1    0    0    0    0 -0.00000000000E+00 -0.00000000000E+00 -0.45593999997E+02  0.45594000000E+02  0.51100000000E-03 0.  1.
         23    2    1    2    0    0  0.00000000000E+00  0.00000000000E+00  0.71054273576E-14  0.91188000000E+02  0.91188000000E+02 0.  0.
    9900012    2    3    3    0    0 -0.12608885853E+02 -0.22060866374E+02 -0.31741126031E+02  0.50528869299E+02  0.30000028721E+02 0.  0.
         12    1    3    3    0    0  0.12608885853E+02  0.22060866374E+02  0.31741126031E+02  0.40659130701E+02  0.00000000000E+00 0. -1.
         11    1    4    4    0    0 -0.10645934005E+01 -0.43986222854E+01 -0.23420789477E+02  0.23854027273E+02  0.51100000000E-03 0. -1.
        -11    1    4    4    0    0 -0.13260361295E+02 -0.15637329210E+02 -0.10685048978E+02  0.23119980935E+02  0.51100000000E-03 0.  1.
         12    1    4    4    0    0  0.17160688425E+01 -0.20249148781E+01  0.23647124236E+01  0.35548610918E+01  0.00000000000E+00 0. -1.
</event>
<event>
 8    1  0.1021894E-011  0.9118800E+02  0.7816164E-02  0.1184000E+00
        -11   -1    0    0    0    0  0.00000000000E+00  0.00000000000E+00  0.45593999997E+02  0.45594000000E+02  0.51100000000E-03 0. -1.
         11   -1    0    0    0    0 -0.00000000000E+00 -0.00000000000E+00 -0.45593999997E+02  0.45594000000E+02  0.51100000000E-03 0.  1.
         23    2    1    2    0    0  0.00000000000E+00 -0.88817841970E-15  0.00000000000E+00  0.91188000000E+02  0.91188000000E+02 0.  0.
    9900012    2    3    3    0    0 -0.22780104039E+02  0.58760795937E+01  0.33161789000E+02  0.50528859563E+02  0.29999999127E+02 0.  0.
        -12    1    3    3    0    0  0.22780104039E+02 -0.58760795937E+01 -0.33161789000E+02  0.40659140437E+02  0.00000000000E+00 0.  1.
         11    1    4    4    0    0 -0.11329573531E+02 -0.14142412048E+00  0.34406787990E+02  0.36224388155E+02  0.51100000000E-03 0. -1.
        -11    1    4    4    0    0 -0.58257154444E+01  0.53215586952E+01  0.14600684053E+01  0.80243222390E+01  0.51100000000E-03 0.  1.
         12    1    4    4    0    0 -0.56248150637E+01  0.69594501896E+00 -0.27050673951E+01  0.62801491688E+01  0.00000000000E+00 0. -1.
</event>
<event>
 8    1  0.1021894E-011  0.9118800E+02  0.7816164E-02  0.1184000E+00
        -11   -1    0    0    0    0  0.00000000000E+00  0.00000000000E+00  0.45593999997E+02  0.45594000000E+02  0.51100000000E-03 0. -1.
         11   -1    0    0    0    0 -0.00000000000E+00 -0.00000000000E+00 -0.45593999997E+02  0.45594000000E+02  0.51100000000E-03 0.  1.
         23    2    1    2    0    0  0.00000000000E+00  0.00000000000E+00 -0.35527136788E-14  0.91188000000E+02  0.91188000000E+02 0.  0.
    9900012    2    3    3    0    0  0.38551411113E+01 -0.25423164897E+02  0.31495539318E+02  0.50528826087E+02  0.29999897374E+02 0.  0.
        -12    1    3    3    0    0 -0.38551411113E+01  0.25423164897E+02 -0.31495539318E+02  0.40659173913E+02  0.00000000000E+00 0.  1.
         11    1    4    4    0    0 -0.39068588898E+00  0.78060929905E-01  0.21443458088E+01  0.21810429114E+01  0.51100000000E-03 0. -1.
        -11    1    4    4    0    0  0.29281852695E+01  0.57423608941E+01  0.18556862609E+01  0.67076485725E+01  0.51100000000E-03 0.  1.
        -12    1    4    4    0    0  0.13176417307E+01 -0.31243586721E+02  0.27495507248E+02  0.41640134603E+02  0.00000000000E+00 0.  1.
</event>
<event>
 8    1  0.1021894E-011  0.9118800E+02  0.7816164E-02  0.1184000E+00
        -11   -1    0    0    0    0  0.00000000000E+00  0.00000000000E+00  0.45593999997E+02  0.45594000000E+02  0.51100000000E-03 0. -1.
         11   -1    0    0    0    0 -0.00000000000E+00 -0.00000000000E+00 -0.45593999997E+02  0.45594000000E+02  0.51100000000E-03 0.  1.
         23    2    1    2    0    0  0.35527136788E-14 -0.17763568394E-14  0.71054273576E-14  0.91188000000E+02  0.91188000000E+02 0.  0.
    9900012    2    3    3    0    0 -0.18021276717E+02  0.10828387129E+02 -0.34801521266E+02  0.50528852631E+02  0.29999978057E+02 0.  0.
         12    1    3    3    0    0  0.18021276717E+02 -0.10828387129E+02  0.34801521266E+02  0.40659147369E+02  0.00000000000E+00 0. -1.
         11    1    4    4    0    0 -0.56145585952E+01  0.14512992320E+02 -0.69307249164E+01  0.17034822055E+02  0.51100000000E-03 0.  1.
        -11    1    4    4    0    0 -0.52834974007E+01 -0.24829918777E+01 -0.25078942496E+02  0.25749445633E+02  0.51100000000E-03 0. -1.
         12    1    4    4    0    0 -0.71232207213E+01 -0.12016133132E+01 -0.27918538543E+01  0.77445849432E+01  0.00000000000E+00 0. -1.
</event>
<event>
 8    1  0.1021894E-011  0.9118800E+02  0.7816164E-02  0.1184000E+00
        -11   -1    0    0    0    0  0.00000000000E+00  0.00000000000E+00  0.45593999997E+02  0.45594000000E+02  0.51100000000E-03 0. -1.
         11   -1    0    0    0    0 -0.00000000000E+00 -0.00000000000E+00 -0.45593999997E+02  0.45594000000E+02  0.51100000000E-03 0.  1.
         23    2    1    2    0    0  0.71054273576E-14  0.00000000000E+00  0.22204460493E-15  0.91188000000E+02  0.91188000000E+02 0.  0.
    9900012    2    3    3    0    0  0.39213931287E+02 -0.10724605353E+02 -0.64481845768E+00  0.50528863784E+02  0.30000011958E+02 0.  0.
         12    1    3    3    0    0 -0.39213931287E+02  0.10724605353E+02  0.64481845768E+00  0.40659136216E+02  0.00000000000E+00 0. -1.
         11    1    4    4    0    0  0.17315948085E+02  0.15276075778E+01  0.17454093673E+01  0.17470606661E+02  0.51100000000E-03 0. -1.
        -11    1    4    4    0    0  0.21063866526E+02 -0.13653912508E+02 -0.86799750881E+01  0.26560454958E+02  0.51100000000E-03 0.  1.
        -12    1    4    4    0    0  0.83411667689E+00  0.14016995774E+01  0.62897472631E+01  0.64978021646E+01  0.00000000000E+00 0.  1.
</event>
<event>
 8    1  0.1021894E-011  0.9118800E+02  0.7816164E-02  0.1184000E+00
        -11   -1    0    0    0    0  0.00000000000E+00  0.00000000000E+00  0.45593999997E+02  0.45594000000E+02  0.51100000000E-03 0. -1.
         11   -1    0    0    0    0 -0.00000000000E+00 -0.00000000000E+00 -0.45593999997E+02  0.45594000000E+02  0.51100000000E-03 0.  1.
         23    2    1    2    0    0 -0.35527136788E-14  0.00000000000E+00  0.00000000000E+00  0.91188000000E+02  0.91188000000E+02 0.  0.
    9900012    2    3    3    0    0  0.26953671911E+02 -0.27884959216E+02  0.12210444508E+02  0.50528851767E+02  0.29999975431E+02 0.  0.
        -12    1    3    3    0    0 -0.26953671911E+02  0.27884959216E+02 -0.12210444508E+02  0.40659148233E+02  0.00000000000E+00 0.  1.
         11    1    4    4    0    0  0.15518056435E+02 -0.15205366048E+02  0.21363009808E+02  0.30469516250E+02  0.51100000000E-03 0. -1.
        -11    1    4    4    0    0  0.11559582046E+02 -0.13059359209E+02 -0.90407799819E+01  0.19644503124E+02  0.51100000000E-03 0.  1.
        -12    1    4    4    0    0 -0.12396656988E+00  0.37976604204E+00 -0.11178531825E+00  0.41483239328E+00  0.00000000000E+00 0.  1.
</event>
<event>
 8    1  0.1021894E-011  0.9118800E+02  0.7816164E-02  0.1184000E+00
        -11   -1    0    0    0    0  0.00000000000E+00  0.00000000000E+00  0.45593999997E+02  0.45594000000E+02  0.51100000000E-03 0. -1.
         11   -1    0    0    0    0 -0.00000000000E+00 -0.00000000000E+00 -0.45593999997E+02  0.45594000000E+02  0.51100000000E-03 0.  1.
         23    2    1    2    0    0  0.35527136788E-14  0.00000000000E+00  0.35527136788E-14  0.91188000000E+02  0.91188000000E+02 0.  0.
    9900012    2    3    3    0    0 -0.28122341371E+02 -0.20439679658E+02 -0.21083721331E+02  0.50528808002E+02  0.29999842404E+02 0.  0.
         12    1    3    3    0    0  0.28122341371E+02  0.20439679658E+02  0.21083721331E+02  0.40659191998E+02  0.00000000000E+00 0. -1.
         11    1    4    4    0    0 -0.19342245903E+02  0.28667670040E+00 -0.15789183770E+02  0.24970041740E+02  0.51100000000E-03 0. -1.
        -11    1    4    4    0    0  0.59675408207E+00 -0.12339770388E+02 -0.35791324198E+01  0.12862201903E+02  0.51100000000E-03 0.  1.
        -12    1    4    4    0    0 -0.93768495506E+01 -0.83865859707E+01 -0.17154051411E+01  0.12696564360E+02  0.00000000000E+00 0.  1.
</event>
<event>
 8    1  0.1021894E-011  0.9118800E+02  0.7816164E-02  0.1184000E+00
        -11   -1    0    0    0    0  0.00000000000E+00  0.00000000000E+00  0.45593999997E+02  0.45594000000E+02  0.51100000000E-03 0. -1.
         11   -1    0    0    0    0 -0.00000000000E+00 -0.00000000000E+00 -0.45593999997E+02  0.45594000000E+02  0.51100000000E-03 0.  1.
         23    2    1    2    0    0  0.00000000000E+00 -0.35527136788E-14  0.35527136788E-14  0.91188000000E+02  0.91188000000E+02 0.  0.
    9900012    2    3    3    0    0 -0.10567769647E+02 -0.25311182720E+02  0.30013861564E+02  0.50528860659E+02  0.30000002459E+02 0.  0.
        -12    1    3    3    0    0  0.10567769647E+02  0.25311182720E+02 -0.30013861564E+02  0.40659139341E+02  0.00000000000E+00 0.  1.
         11    1    4    4    0    0 -0.12495434416E+02 -0.11426002649E+02  0.28499492261E+02  0.33149818659E+02  0.51100000000E-03 0. -1.
        -11    1    4    4    0    0  0.43225325134E+01 -0.13331025128E+02  0.32296159624E+01  0.14381618053E+02  0.51100000000E-03 0.  1.
         12    1    4    4    0    0 -0.23948677443E+01 -0.55415494276E+00 -0.17152466593E+01  0.29974239465E+01  0.00000000000E+00 0. -1.
</event>
<event>
 8    1  0.1021894E-011  0.9118800E+02  0.7816164E-02  0.1184000E+00
        -11   -1    0    0    0    0  0.00000000000E+00  0.00000000000E+00  0.45593999997E+02  0.45594000000E+02  0.51100000000E-03 0. -1.
         11   -1    0    0    0    0 -0.00000000000E+00 -0.00000000000E+00 -0.45593999997E+02  0.45594000000E+02  0.51100000000E-03 0.  1.
         23    2    1    2    0    0 -0.88817841970E-15  0.00000000000E+00  0.00000000000E+00  0.91188000000E+02  0.91188000000E+02 0.  0.
    9900012    2    3    3    0    0  0.58939269117E+01 -0.14786281375E+02 -0.37413812422E+02  0.50528857716E+02  0.29999993514E+02 0.  0.
         12    1    3    3    0    0 -0.58939269117E+01  0.14786281375E+02  0.37413812422E+02  0.40659142284E+02  0.00000000000E+00 0. -1.
         11    1    4    4    0    0  0.40775689240E+01  0.25292114041E+00 -0.11266011235E+02  0.11983886967E+02  0.51100000000E-03 0. -1.
        -11    1    4    4    0    0 -0.35119264896E+01 -0.17156497674E+02 -0.75268175480E+01  0.19061270229E+02  0.51100000000E-03 0.  1.
        -12    1    4    4    0    0  0.53282844773E+01  0.21172951586E+01 -0.18620983638E+02  0.19483700519E+02  0.00000000000E+00 0.  1.
</event>
<event>
 8    1  0.1021894E-011  0.9118800E+02  0.7816164E-02  0.1184000E+00
        -11   -1    0    0    0    0  0.00000000000E+00  0.00000000000E+00  0.45593999997E+02  0.45594000000E+02  0.51100000000E-03 0. -1.
         11   -1    0    0    0    0 -0.00000000000E+00 -0.00000000000E+00 -0.45593999997E+02  0.45594000000E+02  0.51100000000E-03 0.  1.
         23    2    1    2    0    0 -0.35527136788E-14  0.17763568394E-14  0.35527136788E-14  0.91188000000E+02  0.91188000000E+02 0.  0.
    9900012    2    3    3    0    0 -0.24501651613E+02  0.14120505855E+02  0.29213796464E+02  0.50528861775E+02  0.30000005851E+02 0.  0.
        -12    1    3    3    0    0  0.24501651613E+02 -0.14120505855E+02 -0.29213796464E+02  0.40659138225E+02  0.00000000000E+00 0.  1.
         11    1    4    4    0    0 -0.26682530878E+02  0.39617606298E+01  0.15081972622E+02  0.30904997974E+02  0.51100000000E-03 0. -1.
        -11    1    4    4    0    0 -0.15101714130E+00  0.37926630933E+01 -0.16681424470E+00  0.37993324110E+01  0.51100000000E-03 0.  1.
         12    1    4    4    0    0  0.23318964063E+01  0.63660821320E+01  0.14298638087E+02  0.15824531390E+02  0.00000000000E+00 0. -1.
</event>
<event>
 8    1  0.1021894E-011  0.9118800E+02  0.7816164E-02  0.1184000E+00
        -11   -1    0    0    0    0  0.00000000000E+00  0.00000000000E+00  0.45593999997E+02  0.45594000000E+02  0.51100000000E-03 0. -1.
         11   -1    0    0    0    0 -0.00000000000E+00 -0.00000000000E+00 -0.45593999997E+02  0.45594000000E+02  0.51100000000E-03 0.  1.
         23    2    1    2    0    0  0.17763568394E-14 -0.35527136788E-14  0.00000000000E+00  0.91188000000E+02  0.91188000000E+02 0.  0.
    9900012    2    3    3    0    0 -0.46303937040E+01 -0.30972498765E+02  0.25931242357E+02  0.50528861350E+02  0.30000004558E+02 0.  0.
        -12    1    3    3    0    0  0.46303937040E+01  0.30972498765E+02 -0.25931242357E+02  0.40659138650E+02  0.00000000000E+00 0.  1.
         11    1    4    4    0    0 -0.86686296323E+01 -0.60730332447E+01  0.21739435227E+02  0.24179121505E+02  0.51100000000E-03 0. -1.
        -11    1    4    4    0    0  0.50351982246E+01 -0.21573168146E+02  0.51575826204E+01  0.22745449298E+02  0.51100000000E-03 0.  1.
         12    1    4    4    0    0 -0.99696229639E+00 -0.33262973744E+01 -0.96577549093E+00  0.36042905463E+01  0.00000000000E+00 0. -1.
</event>
<event>
 8    1  0.1021894E-011  0.9118800E+02  0.7816164E-02  0.1184000E+00
        -11   -1    0    0    0    0  0.00000000000E+00  0.00000000000E+00  0.45593999997E+02  0.45594000000E+02  0.51100000000E-03 0. -1.
         11   -1    0    0    0    0 -0.00000000000E+00 -0.00000000000E+00 -0.45593999997E+02  0.45594000000E+02  0.51100000000E-03 0.  1.
         23    2    1    2    0    0 -0.88817841970E-15 -0.35527136788E-14 -0.71054273576E-14  0.91188000000E+02  0.91188000000E+02 0.  0.
    9900012    2    3    3    0    0  0.48675711412E+01  0.20223377951E+02  0.34935462234E+02  0.50528870815E+02  0.30000033329E+02 0.  0.
        -12    1    3    3    0    0 -0.48675711412E+01 -0.20223377951E+02 -0.34935462234E+02  0.40659129185E+02  0.00000000000E+00 0.  1.
         11    1    4    4    0    0 -0.72671456420E+01  0.15078265657E+02  0.11367912025E+02  0.20233509954E+02  0.51100000000E-03 0. -1.
        -11    1    4    4    0    0  0.73970614920E+01  0.74427442673E+01  0.62919919739E+01  0.12235200211E+02  0.51100000000E-03 0.  1.
         12    1    4    4    0    0  0.47376552911E+01 -0.22976319728E+01  0.17275558235E+02  0.18060160649E+02  0.00000000000E+00 0. -1.
</event>
<event>
 8    1  0.1021894E-011  0.9118800E+02  0.7816164E-02  0.1184000E+00
        -11   -1    0    0    0    0  0.00000000000E+00  0.00000000000E+00  0.45593999997E+02  0.45594000000E+02  0.51100000000E-03 0. -1.
         11   -1    0    0    0    0 -0.00000000000E+00 -0.00000000000E+00 -0.45593999997E+02  0.45594000000E+02  0.51100000000E-03 0.  1.
         23    2    1    2    0    0  0.00000000000E+00  0.44408920985E-15  0.71054273576E-14  0.91188000000E+02  0.91188000000E+02 0.  0.
    9900012    2    3    3    0    0  0.63199233237E+01 -0.22284971730E+01 -0.40103090534E+02  0.50528862025E+02  0.30000006612E+02 0.  0.
         12    1    3    3    0    0 -0.63199233237E+01  0.22284971730E+01  0.40103090534E+02  0.40659137975E+02  0.00000000000E+00 0. -1.
         11    1    4    4    0    0 -0.37758731363E+01  0.93498334406E+01 -0.40129507704E+01  0.10852666836E+02  0.51100000000E-03 0. -1.
        -11    1    4    4    0    0  0.26797376383E+01 -0.17551415982E+01 -0.14259400312E+02  0.14614787490E+02  0.51100000000E-03 0.  1.
         12    1    4    4    0    0  0.74160588217E+01 -0.98231890155E+01 -0.21830739452E+02  0.25061407700E+02  0.00000000000E+00 0. -1.
</event>
<event>
 8    1  0.1021894E-011  0.9118800E+02  0.7816164E-02  0.1184000E+00
        -11   -1    0    0    0    0  0.00000000000E+00  0.00000000000E+00  0.45593999997E+02  0.45594000000E+02  0.51100000000E-03 0. -1.
         11   -1    0    0    0    0 -0.00000000000E+00 -0.00000000000E+00 -0.45593999997E+02  0.45594000000E+02  0.51100000000E-03 0.  1.
         23    2    1    2    0    0  0.00000000000E+00  0.00000000000E+00  0.35527136788E-14  0.91188000000E+02  0.91188000000E+02 0.  0.
    9900012    2    3    3    0    0 -0.31725517512E+02 -0.29322538896E+01  0.25259811273E+02  0.50528872613E+02  0.30000038796E+02 0.  0.
        -12    1    3    3    0    0  0.31725517512E+02  0.29322538896E+01 -0.25259811273E+02  0.40659127387E+02  0.00000000000E+00 0.  1.
         11    1    4    4    0    0 -0.11596857325E+02  0.19311921695E+01  0.20412266093E+02  0.23555831768E+02  0.51100000000E-03 0. -1.
        -11    1    4    4    0    0 -0.22756783540E+02 -0.30347793191E+01  0.26970123128E+01  0.23116119014E+02  0.51100000000E-03 0.  1.
        -12    1    4    4    0    0  0.26281233518E+01 -0.18286667400E+01  0.21505328675E+01  0.38569218312E+01  0.00000000000E+00 0.  1.
</event>
<event>
 8    1  0.1021894E-011  0.9118800E+02  0.7816164E-02  0.1184000E+00
        -11   -1    0    0    0    0  0.00000000000E+00  0.00000000000E+00  0.45593999997E+02  0.45594000000E+02  0.51100000000E-03 0. -1.
         11   -1    0    0    0    0 -0.00000000000E+00 -0.00000000000E+00 -0.45593999997E+02  0.45594000000E+02  0.51100000000E-03 0.  1.
         23    2    1    2    0    0 -0.35527136788E-14  0.35527136788E-14  0.00000000000E+00  0.91188000000E+02  0.91188000000E+02 0.  0.
    9900012    2    3    3    0    0 -0.27655453161E+02  0.18953391671E+02 -0.23002426569E+02  0.50528846376E+02  0.29999959044E+02 0.  0.
         12    1    3    3    0    0  0.27655453161E+02 -0.18953391671E+02  0.23002426569E+02  0.40659153624E+02  0.00000000000E+00 0. -1.
         11    1    4    4    0    0  0.43011651102E+01  0.35885981810E+01 -0.54570837961E+01  0.78203466694E+01  0.51100000000E-03 0. -1.
        -11    1    4    4    0    0 -0.21341425453E+02  0.14270807132E+02 -0.48559338151E+01  0.26128384375E+02  0.51100000000E-03 0.  1.
         12    1    4    4    0    0 -0.10615192818E+02  0.10939863583E+01 -0.12689408958E+02  0.16580115332E+02  0.00000000000E+00 0. -1.
</event>
<event>
 8    1  0.1021894E-011  0.9118800E+02  0.7816164E-02  0.1184000E+00
        -11   -1    0    0    0    0  0.00000000000E+00  0.00000000000E+00  0.45593999997E+02  0.45594000000E+02  0.51100000000E-03 0.  1.
         11   -1    0    0    0    0 -0.00000000000E+00 -0.00000000000E+00 -0.45593999997E+02  0.45594000000E+02  0.51100000000E-03 0. -1.
         23    2    1    2    0    0  0.35527136788E-14 -0.35527136788E-14  0.00000000000E+00  0.91188000000E+02  0.91188000000E+02 0.  0.
    9900012    2    3    3    0    0  0.23766551571E+02 -0.31982136957E+02 -0.80904758099E+01  0.50528906838E+02  0.30000142823E+02 0.  0.
         12    1    3    3    0    0 -0.23766551571E+02  0.31982136957E+02  0.80904758099E+01  0.40659093162E+02  0.00000000000E+00 0. -1.
         11    1    4    4    0    0 -0.76866926665E+00 -0.16334268819E+02 -0.20887934801E+01  0.16485213033E+02  0.51100000000E-03 0. -1.
        -11    1    4    4    0    0  0.11012550028E+02  0.53481560315E+00 -0.67747673805E+01  0.12940624373E+02  0.51100000000E-03 0.  1.
         12    1    4    4    0    0  0.13522670810E+02 -0.16182683742E+02  0.77308505064E+00  0.21103069431E+02  0.00000000000E+00 0. -1.
</event>
<event>
 8    1  0.1021894E-011  0.9118800E+02  0.7816164E-02  0.1184000E+00
        -11   -1    0    0    0    0  0.00000000000E+00  0.00000000000E+00  0.45593999997E+02  0.45594000000E+02  0.51100000000E-03 0. -1.
         11   -1    0    0    0    0 -0.00000000000E+00 -0.00000000000E+00 -0.45593999997E+02  0.45594000000E+02  0.51100000000E-03 0.  1.
         23    2    1    2    0    0  0.35527136788E-14 -0.71054273576E-14  0.00000000000E+00  0.91188000000E+02  0.91188000000E+02 0.  0.
    9900012    2    3    3    0    0  0.22355824889E+02 -0.33570958780E+02 -0.51356661670E+01  0.50528840554E+02  0.29999941347E+02 0.  0.
         12    1    3    3    0    0 -0.22355824889E+02  0.33570958780E+02  0.51356661670E+01  0.40659159446E+02  0.00000000000E+00 0. -1.
         11    1    4    4    0    0 -0.69054852106E+01 -0.77052671321E+01 -0.74736464933E+00  0.10373785314E+02  0.51100000000E-03 0. -1.
        -11    1    4    4    0    0  0.13741546933E+02 -0.13318805640E+02  0.18992027252E+01  0.19230903958E+02  0.51100000000E-03 0.  1.
         12    1    4    4    0    0  0.15519763166E+02 -0.12546886008E+02 -0.62875042428E+01  0.20924151281E+02  0.00000000000E+00 0. -1.
</event>
<event>
 8    1  0.1021894E-011  0.9118800E+02  0.7816164E-02  0.1184000E+00
        -11   -1    0    0    0    0  0.00000000000E+00  0.00000000000E+00  0.45593999997E+02  0.45594000000E+02  0.51100000000E-03 0. -1.
         11   -1    0    0    0    0 -0.00000000000E+00 -0.00000000000E+00 -0.45593999997E+02  0.45594000000E+02  0.51100000000E-03 0.  1.
         23    2    1    2    0    0  0.00000000000E+00 -0.35527136788E-14  0.00000000000E+00  0.91188000000E+02  0.91188000000E+02 0.  0.
    9900012    2    3    3    0    0  0.25530396430E+02 -0.25435197044E+02  0.18825935158E+02  0.50528853118E+02  0.29999979538E+02 0.  0.
        -12    1    3    3    0    0 -0.25530396430E+02  0.25435197044E+02 -0.18825935158E+02  0.40659146882E+02  0.00000000000E+00 0.  1.
         11    1    4    4    0    0  0.98799458869E+01 -0.28375102398E+02  0.15134954187E+02  0.33642630773E+02  0.51100000000E-03 0. -1.
        -11    1    4    4    0    0  0.11271150978E+02  0.74976404988E+00  0.11080045223E+01  0.11350271573E+02  0.51100000000E-03 0.  1.
         12    1    4    4    0    0  0.43792995652E+01  0.21901413036E+01  0.25829764489E+01  0.55359507717E+01  0.00000000000E+00 0. -1.
</event>
<event>
 8    1  0.1021894E-011  0.9118800E+02  0.7816164E-02  0.1184000E+00
        -11   -1    0    0    0    0  0.00000000000E+00  0.00000000000E+00  0.45593999997E+02  0.45594000000E+02  0.51100000000E-03 0. -1.
         11   -1    0    0    0    0 -0.00000000000E+00 -0.00000000000E+00 -0.45593999997E+02  0.45594000000E+02  0.51100000000E-03 0.  1.
         23    2    1    2    0    0 -0.35527136788E-14  0.88817841970E-15  0.71054273576E-14  0.91188000000E+02  0.91188000000E+02 0.  0.
    9900012    2    3    3    0    0  0.18794202230E+02  0.79352511438E+01 -0.35170643376E+02  0.50528875518E+02  0.30000047625E+02 0.  0.
         12    1    3    3    0    0 -0.18794202230E+02 -0.79352511438E+01  0.35170643376E+02  0.40659124482E+02  0.00000000000E+00 0. -1.
         11    1    4    4    0    0  0.14015911148E+01  0.45961242454E+01 -0.16843551360E+01  0.50917451053E+01  0.51100000000E-03 0. -1.
        -11    1    4    4    0    0  0.13301878286E+01 -0.97415099529E+01 -0.13040021122E+02  0.16331214497E+02  0.51100000000E-03 0.  1.
        -12    1    4    4    0    0  0.16062423286E+02  0.13080636851E+02 -0.20446267117E+02  0.29105915916E+02  0.00000000000E+00 0.  1.
</event>
<event>
 8    1  0.1021894E-011  0.9118800E+02  0.7816164E-02  0.1184000E+00
        -11   -1    0    0    0    0  0.00000000000E+00  0.00000000000E+00  0.45593999997E+02  0.45594000000E+02  0.51100000000E-03 0. -1.
         11   -1    0    0    0    0 -0.00000000000E+00 -0.00000000000E+00 -0.45593999997E+02  0.45594000000E+02  0.51100000000E-03 0.  1.
         23    2    1    2    0    0 -0.88817841970E-15  0.00000000000E+00  0.00000000000E+00  0.91188000000E+02  0.91188000000E+02 0.  0.
    9900012    2    3    3    0    0  0.73947766065E+01 -0.24508649617E+02  0.31588119325E+02  0.50528856999E+02  0.29999991334E+02 0.  0.
        -12    1    3    3    0    0 -0.73947766065E+01  0.24508649617E+02 -0.31588119325E+02  0.40659143001E+02  0.00000000000E+00 0.  1.
         11    1    4    4    0    0 -0.94886932024E+01 -0.11337260415E+02  0.78401935583E+01  0.16734318262E+02  0.51100000000E-03 0. -1.
        -11    1    4    4    0    0  0.10080296414E+02 -0.10835648507E+02  0.88311216508E+01  0.17234046659E+02  0.51100000000E-03 0.  1.
         12    1    4    4    0    0  0.68031733947E+01 -0.23357406949E+01  0.14916804116E+02  0.16560492078E+02  0.00000000000E+00 0. -1.
</event>
<event>
 8    1  0.1021894E-011  0.9118800E+02  0.7816164E-02  0.1184000E+00
        -11   -1    0    0    0    0  0.00000000000E+00  0.00000000000E+00  0.45593999997E+02  0.45594000000E+02  0.51100000000E-03 0.  1.
         11   -1    0    0    0    0 -0.00000000000E+00 -0.00000000000E+00 -0.45593999997E+02  0.45594000000E+02  0.51100000000E-03 0. -1.
         23    2    1    2    0    0 -0.71054273576E-14 -0.35527136788E-14  0.00000000000E+00  0.91188000000E+02  0.91188000000E+02 0.  0.
    9900012    2    3    3    0    0  0.35880436732E+02  0.18921662959E+02 -0.27803681241E+01  0.50528861837E+02  0.30000006041E+02 0.  0.
        -12    1    3    3    0    0 -0.35880436732E+02 -0.18921662959E+02  0.27803681241E+01  0.40659138163E+02  0.00000000000E+00 0.  1.
         11    1    4    4    0    0  0.29015909922E+02  0.77306428246E+01 -0.12063738149E+02  0.32360773252E+02  0.51100000000E-03 0. -1.
        -11    1    4    4    0    0  0.25355329958E+01  0.22720932939E+01  0.73038621056E+01  0.80583954624E+01  0.51100000000E-03 0.  1.
         12    1    4    4    0    0  0.43289938142E+01  0.89189268407E+01  0.19795079194E+01  0.10109693123E+02  0.00000000000E+00 0. -1.
</event>
<event>
 8    1  0.1021894E-011  0.9118800E+02  0.7816164E-02  0.1184000E+00
        -11   -1    0    0    0    0  0.00000000000E+00  0.00000000000E+00  0.45593999997E+02  0.45594000000E+02  0.51100000000E-03 0. -1.
         11   -1    0    0    0    0 -0.00000000000E+00 -0.00000000000E+00 -0.45593999997E+02  0.45594000000E+02  0.51100000000E-03 0.  1.
         23    2    1    2    0    0  0.00000000000E+00 -0.35527136788E-14  0.00000000000E+00  0.91188000000E+02  0.91188000000E+02 0.  0.
    9900012    2    3    3    0    0 -0.18784194223E+02  0.30684249568E+02  0.18941925567E+02  0.50528859965E+02  0.30000000350E+02 0.  0.
        -12    1    3    3    0    0  0.18784194223E+02 -0.30684249568E+02 -0.18941925567E+02  0.40659140035E+02  0.00000000000E+00 0.  1.
         11    1    4    4    0    0 -0.11671990212E+02  0.23764467809E+02  0.11290618356E+02  0.28783039257E+02  0.51100000000E-03 0. -1.
        -11    1    4    4    0    0  0.22913678826E+01 -0.38256088212E+01  0.58467176116E+01  0.73532140399E+01  0.51100000000E-03 0.  1.
        -12    1    4    4    0    0 -0.94035718937E+01  0.10745390580E+02  0.18045896001E+01  0.14392606668E+02  0.00000000000E+00 0.  1.
</event>
<event>
 8    1  0.1021894E-011  0.9118800E+02  0.7816164E-02  0.1184000E+00
        -11   -1    0    0    0    0  0.00000000000E+00  0.00000000000E+00  0.45593999997E+02  0.45594000000E+02  0.51100000000E-03 0.  1.
         11   -1    0    0    0    0 -0.00000000000E+00 -0.00000000000E+00 -0.45593999997E+02  0.45594000000E+02  0.51100000000E-03 0. -1.
         23    2    1    2    0    0  0.00000000000E+00  0.00000000000E+00  0.88817841970E-15  0.91188000000E+02  0.91188000000E+02 0.  0.
    9900012    2    3    3    0    0  0.26135561201E+02 -0.30853508352E+02  0.42613322015E+01  0.50528862170E+02  0.30000007053E+02 0.  0.
        -12    1    3    3    0    0 -0.26135561201E+02  0.30853508352E+02 -0.42613322015E+01  0.40659137830E+02  0.00000000000E+00 0.  1.
         11    1    4    4    0    0  0.82987350256E+01 -0.67302472968E+01 -0.33523329743E+01  0.11198364538E+02  0.51100000000E-03 0. -1.
        -11    1    4    4    0    0  0.14195008012E+02 -0.34497591783E+01  0.10707190801E+02  0.18111958093E+02  0.51100000000E-03 0.  1.
        -12    1    4    4    0    0  0.36418181637E+01 -0.20673501876E+02 -0.30935256255E+01  0.21218539539E+02  0.00000000000E+00 0.  1.
</event>
<event>
 8    1  0.1021894E-011  0.9118800E+02  0.7816164E-02  0.1184000E+00
        -11   -1    0    0    0    0  0.00000000000E+00  0.00000000000E+00  0.45593999997E+02  0.45594000000E+02  0.51100000000E-03 0. -1.
         11   -1    0    0    0    0 -0.00000000000E+00 -0.00000000000E+00 -0.45593999997E+02  0.45594000000E+02  0.51100000000E-03 0.  1.
         23    2    1    2    0    0  0.71054273576E-14  0.17763568394E-14  0.00000000000E+00  0.91188000000E+02  0.91188000000E+02 0.  0.
    9900012    2    3    3    0    0 -0.34437354047E+02 -0.13708059727E+02  0.16712956404E+02  0.50528866131E+02  0.30000019091E+02 0.  0.
        -12    1    3    3    0    0  0.34437354047E+02  0.13708059727E+02 -0.16712956404E+02  0.40659133869E+02  0.00000000000E+00 0.  1.
         11    1    4    4    0    0 -0.37781187887E+00 -0.87323614296E+00  0.92250525756E+01  0.92739893499E+01  0.51100000000E-03 0. -1.
        -11    1    4    4    0    0 -0.23524573315E+02 -0.13731301157E+02  0.11992856754E+02  0.29762103328E+02  0.51100000000E-03 0.  1.
        -12    1    4    4    0    0 -0.10534968853E+02  0.89647757300E+00 -0.45049529258E+01  0.11492773453E+02  0.00000000000E+00 0.  1.
</event>
<event>
 8    1  0.1021894E-011  0.9118800E+02  0.7816164E-02  0.1184000E+00
        -11   -1    0    0    0    0  0.00000000000E+00  0.00000000000E+00  0.45593999997E+02  0.45594000000E+02  0.51100000000E-03 0. -1.
         11   -1    0    0    0    0 -0.00000000000E+00 -0.00000000000E+00 -0.45593999997E+02  0.45594000000E+02  0.51100000000E-03 0.  1.
         23    2    1    2    0    0  0.00000000000E+00 -0.88817841970E-15 -0.71054273576E-14  0.91188000000E+02  0.91188000000E+02 0.  0.
    9900012    2    3    3    0    0 -0.32174585050E+02  0.39849165200E+01 -0.24537339418E+02  0.50528874228E+02  0.30000043704E+02 0.  0.
         12    1    3    3    0    0  0.32174585050E+02 -0.39849165200E+01  0.24537339418E+02  0.40659125772E+02  0.00000000000E+00 0. -1.
         11    1    4    4    0    0 -0.36650441058E+01 -0.95535459043E+01 -0.13574803551E+02  0.16999355263E+02  0.51100000000E-03 0. -1.
        -11    1    4    4    0    0 -0.17798905339E+02  0.98629859567E+01 -0.75211021734E+01  0.21694388708E+02  0.51100000000E-03 0.  1.
        -12    1    4    4    0    0 -0.10710635606E+02  0.36754764677E+01 -0.34414336934E+01  0.11835130257E+02  0.00000000000E+00 0.  1.
</event>
<event>
 8    1  0.1021894E-011  0.9118800E+02  0.7816164E-02  0.1184000E+00
        -11   -1    0    0    0    0  0.00000000000E+00  0.00000000000E+00  0.45593999997E+02  0.45594000000E+02  0.51100000000E-03 0. -1.
         11   -1    0    0    0    0 -0.00000000000E+00 -0.00000000000E+00 -0.45593999997E+02  0.45594000000E+02  0.51100000000E-03 0.  1.
         23    2    1    2    0    0  0.99920072216E-15 -0.88817841970E-15  0.00000000000E+00  0.91188000000E+02  0.91188000000E+02 0.  0.
    9900012    2    3    3    0    0 -0.48959095656E+00  0.27673994543E+01  0.40561899535E+02  0.50528857203E+02  0.29999991956E+02 0.  0.
        -12    1    3    3    0    0  0.48959095656E+00 -0.27673994543E+01 -0.40561899535E+02  0.40659142797E+02  0.00000000000E+00 0.  1.
         11    1    4    4    0    0 -0.13103458241E+02  0.68229324581E+01  0.25973692518E+02  0.29881193559E+02  0.51100000000E-03 0. -1.
        -11    1    4    4    0    0  0.51448742810E+01  0.95871875555E+00  0.31974224581E+01  0.61328935794E+01  0.51100000000E-03 0.  1.
         12    1    4    4    0    0  0.74689930030E+01 -0.50142517594E+01  0.11390784559E+02  0.14514770065E+02  0.00000000000E+00 0. -1.
</event>
<event>
 8    1  0.1021894E-011  0.9118800E+02  0.7816164E-02  0.1184000E+00
        -11   -1    0    0    0    0  0.00000000000E+00  0.00000000000E+00  0.45593999997E+02  0.45594000000E+02  0.51100000000E-03 0.  1.
         11   -1    0    0    0    0 -0.00000000000E+00 -0.00000000000E+00 -0.45593999997E+02  0.45594000000E+02  0.51100000000E-03 0. -1.
         23    2    1    2    0    0  0.00000000000E+00 -0.17763568394E-14  0.35527136788E-14  0.91188000000E+02  0.91188000000E+02 0.  0.
    9900012    2    3    3    0    0 -0.33441815351E+02  0.12077159435E+02 -0.19721890421E+02  0.50528858891E+02  0.29999997084E+02 0.  0.
         12    1    3    3    0    0  0.33441815351E+02 -0.12077159435E+02  0.19721890421E+02  0.40659141109E+02  0.00000000000E+00 0. -1.
         11    1    4    4    0    0 -0.18734599083E+02  0.10907397456E+02 -0.21493656554E+02  0.30527590707E+02  0.51100000000E-03 0. -1.
        -11    1    4    4    0    0 -0.13589161835E+02  0.57660484266E+01 -0.46409720919E+00  0.14769157739E+02  0.51100000000E-03 0.  1.
         12    1    4    4    0    0 -0.11180544330E+01 -0.45962864476E+01  0.22358633422E+01  0.52321104450E+01  0.00000000000E+00 0. -1.
</event>
<event>
 8    1  0.1021894E-011  0.9118800E+02  0.7816164E-02  0.1184000E+00
        -11   -1    0    0    0    0  0.00000000000E+00  0.00000000000E+00  0.45593999997E+02  0.45594000000E+02  0.51100000000E-03 0. -1.
         11   -1    0    0    0    0 -0.00000000000E+00 -0.00000000000E+00 -0.45593999997E+02  0.45594000000E+02  0.51100000000E-03 0.  1.
         23    2    1    2    0    0 -0.44408920985E-15  0.00000000000E+00 -0.35527136788E-14  0.91188000000E+02  0.91188000000E+02 0.  0.
    9900012    2    3    3    0    0  0.33863973463E+01  0.37214395721E+02 -0.16024469273E+02  0.50528898296E+02  0.30000116861E+02 0.  0.
         12    1    3    3    0    0 -0.33863973463E+01 -0.37214395721E+02  0.16024469273E+02  0.40659101704E+02  0.00000000000E+00 0. -1.
         11    1    4    4    0    0  0.77340151294E+01  0.30988813182E+02 -0.42270527240E+01  0.32217844550E+02  0.51100000000E-03 0. -1.
        -11    1    4    4    0    0 -0.34489101339E+01  0.63953569266E+01 -0.14084264412E+02  0.15848093753E+02  0.51100000000E-03 0.  1.
         12    1    4    4    0    0 -0.89870764914E+00 -0.16977438758E+00  0.22868478626E+01  0.24629599932E+01  0.00000000000E+00 0. -1.
</event>
<event>
 8    1  0.1021894E-011  0.9118800E+02  0.7816164E-02  0.1184000E+00
        -11   -1    0    0    0    0  0.00000000000E+00  0.00000000000E+00  0.45593999997E+02  0.45594000000E+02  0.51100000000E-03 0. -1.
         11   -1    0    0    0    0 -0.00000000000E+00 -0.00000000000E+00 -0.45593999997E+02  0.45594000000E+02  0.51100000000E-03 0.  1.
         23    2    1    2    0    0  0.00000000000E+00  0.00000000000E+00  0.00000000000E+00  0.91188000000E+02  0.91188000000E+02 0.  0.
    9900012    2    3    3    0    0 -0.40804699879E+01 -0.23501668470E+02  0.32927011704E+02  0.50528846591E+02  0.29999959697E+02 0.  0.
        -12    1    3    3    0    0  0.40804699879E+01  0.23501668470E+02 -0.32927011704E+02  0.40659153409E+02  0.00000000000E+00 0.  1.
         11    1    4    4    0    0 -0.87906643761E+01 -0.13265818974E+02  0.26695560777E+02  0.31079103892E+02  0.51100000000E-03 0. -1.
        -11    1    4    4    0    0  0.84298310708E+01 -0.10060366067E+02  0.79535450985E+01  0.15347048484E+02  0.51100000000E-03 0.  1.
        -12    1    4    4    0    0 -0.37196366826E+01 -0.17548342892E+00 -0.17220941718E+01  0.41026942149E+01  0.00000000000E+00 0.  1.
</event>
<event>
 8    1  0.1021894E-011  0.9118800E+02  0.7816164E-02  0.1184000E+00
        -11   -1    0    0    0    0  0.00000000000E+00  0.00000000000E+00  0.45593999997E+02  0.45594000000E+02  0.51100000000E-03 0. -1.
         11   -1    0    0    0    0 -0.00000000000E+00 -0.00000000000E+00 -0.45593999997E+02  0.45594000000E+02  0.51100000000E-03 0.  1.
         23    2    1    2    0    0  0.00000000000E+00 -0.35527136788E-14  0.00000000000E+00  0.91188000000E+02  0.91188000000E+02 0.  0.
    9900012    2    3    3    0    0 -0.25060348419E+02 -0.25818348527E+02 -0.18935591942E+02  0.50528870327E+02  0.30000031846E+02 0.  0.
         12    1    3    3    0    0  0.25060348419E+02  0.25818348527E+02  0.18935591942E+02  0.40659129673E+02  0.00000000000E+00 0. -1.
         11    1    4    4    0    0  0.25785170221E+00 -0.49431954786E+01 -0.10814492633E+02  0.11893482257E+02  0.51100000000E-03 0.  1.
        -11    1    4    4    0    0 -0.20686255630E+02 -0.57757246389E+01 -0.77632269403E+01  0.22837422356E+02  0.51100000000E-03 0. -1.
        -12    1    4    4    0    0 -0.46319444918E+01 -0.15099428409E+02 -0.35787236932E+00  0.15797965714E+02  0.00000000000E+00 0.  1.
</event>
<event>
 8    1  0.1021894E-011  0.9118800E+02  0.7816164E-02  0.1184000E+00
        -11   -1    0    0    0    0  0.00000000000E+00  0.00000000000E+00  0.45593999997E+02  0.45594000000E+02  0.51100000000E-03 0. -1.
         11   -1    0    0    0    0 -0.00000000000E+00 -0.00000000000E+00 -0.45593999997E+02  0.45594000000E+02  0.51100000000E-03 0.  1.
         23    2    1    2    0    0 -0.35527136788E-14  0.00000000000E+00  0.00000000000E+00  0.91188000000E+02  0.91188000000E+02 0.  0.
    9900012    2    3    3    0    0  0.20452400891E+02 -0.13363835176E+02  0.32500355472E+02  0.50528857134E+02  0.29999991743E+02 0.  0.
        -12    1    3    3    0    0 -0.20452400891E+02  0.13363835176E+02 -0.32500355472E+02  0.40659142866E+02  0.00000000000E+00 0.  1.
         11    1    4    4    0    0  0.30361064924E+01 -0.96551395298E+01  0.30477765864E+02  0.32114387341E+02  0.51100000000E-03 0. -1.
        -11    1    4    4    0    0  0.82181688237E+01 -0.35688519630E-01  0.22032328833E+01  0.85084550821E+01  0.51100000000E-03 0.  1.
         12    1    4    4    0    0  0.91981255749E+01 -0.36730071264E+01 -0.18064327553E+00  0.99060147100E+01  0.00000000000E+00 0. -1.
</event>
<event>
 8    1  0.1021894E-011  0.9118800E+02  0.7816164E-02  0.1184000E+00
        -11   -1    0    0    0    0  0.00000000000E+00  0.00000000000E+00  0.45593999997E+02  0.45594000000E+02  0.51100000000E-03 0. -1.
         11   -1    0    0    0    0 -0.00000000000E+00 -0.00000000000E+00 -0.45593999997E+02  0.45594000000E+02  0.51100000000E-03 0.  1.
         23    2    1    2    0    0 -0.35527136788E-14  0.17763568394E-14  0.35527136788E-14  0.91188000000E+02  0.91188000000E+02 0.  0.
    9900012    2    3    3    0    0  0.27796949447E+02 -0.14623341403E+02 -0.25819636707E+02  0.50528854018E+02  0.29999982272E+02 0.  0.
         12    1    3    3    0    0 -0.27796949447E+02  0.14623341403E+02  0.25819636707E+02  0.40659145982E+02  0.00000000000E+00 0. -1.
         11    1    4    4    0    0  0.74555679916E+01  0.27219099993E+01 -0.12965967904E+02  0.15202322588E+02  0.51100000000E-03 0. -1.
        -11    1    4    4    0    0  0.24058124705E+02 -0.13644418696E+02 -0.10950816153E+02  0.29746998177E+02  0.51100000000E-03 0.  1.
        -12    1    4    4    0    0 -0.37167432499E+01 -0.37008327063E+01 -0.19028526506E+01  0.55795332525E+01  0.00000000000E+00 0.  1.
</event>
<event>
 8    1  0.1021894E-011  0.9118800E+02  0.7816164E-02  0.1184000E+00
        -11   -1    0    0    0    0  0.00000000000E+00  0.00000000000E+00  0.45593999997E+02  0.45594000000E+02  0.51100000000E-03 0. -1.
         11   -1    0    0    0    0 -0.00000000000E+00 -0.00000000000E+00 -0.45593999997E+02  0.45594000000E+02  0.51100000000E-03 0.  1.
         23    2    1    2    0    0  0.00000000000E+00 -0.26645352591E-14  0.00000000000E+00  0.91188000000E+02  0.91188000000E+02 0.  0.
    9900012    2    3    3    0    0 -0.25471109436E+02 -0.71169840485E+01 -0.30882634187E+02  0.50528856229E+02  0.29999988994E+02 0.  0.
         12    1    3    3    0    0  0.25471109436E+02  0.71169840485E+01  0.30882634187E+02  0.40659143771E+02  0.00000000000E+00 0. -1.
         11    1    4    4    0    0  0.22111249819E+01  0.22544581679E+01  0.11615011237E+01  0.33646308026E+01  0.51100000000E-03 0. -1.
        -11    1    4    4    0    0 -0.20009661996E+02  0.10939433871E+01 -0.26060463775E+02  0.32874474258E+02  0.51100000000E-03 0.  1.
        -12    1    4    4    0    0 -0.76725724220E+01 -0.10465385604E+02 -0.59836715362E+01  0.14289751168E+02  0.00000000000E+00 0.  1.
</event>
<event>
 8    1  0.1021894E-011  0.9118800E+02  0.7816164E-02  0.1184000E+00
        -11   -1    0    0    0    0  0.00000000000E+00  0.00000000000E+00  0.45593999997E+02  0.45594000000E+02  0.51100000000E-03 0. -1.
         11   -1    0    0    0    0 -0.00000000000E+00 -0.00000000000E+00 -0.45593999997E+02  0.45594000000E+02  0.51100000000E-03 0.  1.
         23    2    1    2    0    0  0.00000000000E+00  0.35527136788E-14  0.35527136788E-14  0.91188000000E+02  0.91188000000E+02 0.  0.
    9900012    2    3    3    0    0 -0.24461985224E+02 -0.16069357451E+02 -0.28223289662E+02  0.50528842983E+02  0.29999948731E+02 0.  0.
         12    1    3    3    0    0  0.24461985224E+02  0.16069357451E+02  0.28223289662E+02  0.40659157017E+02  0.00000000000E+00 0. -1.
         11    1    4    4    0    0 -0.22570136572E+02 -0.14327055571E+01 -0.12788762881E+02  0.25981073234E+02  0.51100000000E-03 0. -1.
        -11    1    4    4    0    0 -0.37540153203E+00 -0.16466349841E+02 -0.12031138161E+02  0.20396810758E+02  0.51100000000E-03 0.  1.
         12    1    4    4    0    0 -0.15164471199E+01  0.18296979473E+01 -0.34033886202E+01  0.41509589911E+01  0.00000000000E+00 0. -1.
</event>
<event>
 8    1  0.1021894E-011  0.9118800E+02  0.7816164E-02  0.1184000E+00
        -11   -1    0    0    0    0  0.00000000000E+00  0.00000000000E+00  0.45593999997E+02  0.45594000000E+02  0.51100000000E-03 0. -1.
         11   -1    0    0    0    0 -0.00000000000E+00 -0.00000000000E+00 -0.45593999997E+02  0.45594000000E+02  0.51100000000E-03 0.  1.
         23    2    1    2    0    0 -0.71054273576E-14  0.00000000000E+00  0.35527136788E-14  0.91188000000E+02  0.91188000000E+02 0.  0.
    9900012    2    3    3    0    0  0.33702399896E+02  0.47692424864E+01 -0.22238889598E+02  0.50528860274E+02  0.30000001290E+02 0.  0.
         12    1    3    3    0    0 -0.33702399896E+02 -0.47692424864E+01  0.22238889598E+02  0.40659139726E+02  0.00000000000E+00 0. -1.
         11    1    4    4    0    0  0.64679287383E+01  0.45778622375E+01  0.45618419176E+01  0.91433761145E+01  0.51100000000E-03 0. -1.
        -11    1    4    4    0    0  0.10170837701E+02  0.93252947709E+00 -0.20992388420E+02  0.23345147732E+02  0.51100000000E-03 0.  1.
        -12    1    4    4    0    0  0.17063633457E+02 -0.74114922811E+00 -0.58083430958E+01  0.18040336428E+02  0.00000000000E+00 0.  1.
</event>
<event>
 8    1  0.1021894E-011  0.9118800E+02  0.7816164E-02  0.1184000E+00
        -11   -1    0    0    0    0  0.00000000000E+00  0.00000000000E+00  0.45593999997E+02  0.45594000000E+02  0.51100000000E-03 0.  1.
         11   -1    0    0    0    0 -0.00000000000E+00 -0.00000000000E+00 -0.45593999997E+02  0.45594000000E+02  0.51100000000E-03 0. -1.
         23    2    1    2    0    0  0.00000000000E+00 -0.71054273576E-14  0.35527136788E-14  0.91188000000E+02  0.91188000000E+02 0.  0.
    9900012    2    3    3    0    0  0.22404902435E+02  0.29293252044E+02 -0.17119907524E+02  0.50528862010E+02  0.30000006566E+02 0.  0.
         12    1    3    3    0    0 -0.22404902435E+02 -0.29293252044E+02  0.17119907524E+02  0.40659137990E+02  0.00000000000E+00 0. -1.
         11    1    4    4    0    0 -0.28799803082E+01  0.11405504870E+02 -0.12239788376E+02  0.16976225955E+02  0.51100000000E-03 0. -1.
        -11    1    4    4    0    0  0.24227794269E+02  0.15662971760E+02 -0.89012417891E+00  0.28863593345E+02  0.51100000000E-03 0.  1.
         12    1    4    4    0    0  0.10570884747E+01  0.22247754141E+01 -0.39899949691E+01  0.46890427104E+01  0.00000000000E+00 0. -1.
</event>
<event>
 8    1  0.1021894E-011  0.9118800E+02  0.7816164E-02  0.1184000E+00
        -11   -1    0    0    0    0  0.00000000000E+00  0.00000000000E+00  0.45593999997E+02  0.45594000000E+02  0.51100000000E-03 0. -1.
         11   -1    0    0    0    0 -0.00000000000E+00 -0.00000000000E+00 -0.45593999997E+02  0.45594000000E+02  0.51100000000E-03 0.  1.
         23    2    1    2    0    0  0.00000000000E+00 -0.17763568394E-14  0.00000000000E+00  0.91188000000E+02  0.91188000000E+02 0.  0.
    9900012    2    3    3    0    0 -0.27463309148E+02  0.11756391086E+02 -0.27581139118E+02  0.50528864301E+02  0.30000013530E+02 0.  0.
         12    1    3    3    0    0  0.27463309148E+02 -0.11756391086E+02  0.27581139118E+02  0.40659135699E+02  0.00000000000E+00 0. -1.
         11    1    4    4    0    0 -0.91132939669E+01  0.19605207914E+02 -0.10984190791E+02  0.24250128904E+02  0.51100000000E-03 0. -1.
        -11    1    4    4    0    0 -0.29674047826E+01 -0.24880167000E+01 -0.17948179844E+01  0.42681483223E+01  0.51100000000E-03 0.  1.
         12    1    4    4    0    0 -0.15382610399E+02 -0.53608001281E+01 -0.14802130343E+02  0.22010587075E+02  0.00000000000E+00 0. -1.
</event>
<event>
 8    1  0.1021894E-011  0.9118800E+02  0.7816164E-02  0.1184000E+00
        -11   -1    0    0    0    0  0.00000000000E+00  0.00000000000E+00  0.45593999997E+02  0.45594000000E+02  0.51100000000E-03 0. -1.
         11   -1    0    0    0    0 -0.00000000000E+00 -0.00000000000E+00 -0.45593999997E+02  0.45594000000E+02  0.51100000000E-03 0.  1.
         23    2    1    2    0    0  0.17763568394E-14 -0.17763568394E-14  0.00000000000E+00  0.91188000000E+02  0.91188000000E+02 0.  0.
    9900012    2    3    3    0    0 -0.13103236947E+02  0.13745636986E+02  0.35951749250E+02  0.50528860452E+02  0.30000001831E+02 0.  0.
        -12    1    3    3    0    0  0.13103236947E+02 -0.13745636986E+02 -0.35951749250E+02  0.40659139548E+02  0.00000000000E+00 0.  1.
         11    1    4    4    0    0 -0.10772191367E+02  0.88749893105E+01  0.17692808568E+02  0.22535328206E+02  0.51100000000E-03 0. -1.
        -11    1    4    4    0    0  0.45020700261E+01 -0.36751150452E+01  0.15721703078E+02  0.16761475264E+02  0.51100000000E-03 0.  1.
        -12    1    4    4    0    0 -0.68331156070E+01  0.85457627207E+01  0.25372376043E+01  0.11232056982E+02  0.00000000000E+00 0.  1.
</event>
<event>
 8    1  0.1021894E-011  0.9118800E+02  0.7816164E-02  0.1184000E+00
        -11   -1    0    0    0    0  0.00000000000E+00  0.00000000000E+00  0.45593999997E+02  0.45594000000E+02  0.51100000000E-03 0. -1.
         11   -1    0    0    0    0 -0.00000000000E+00 -0.00000000000E+00 -0.45593999997E+02  0.45594000000E+02  0.51100000000E-03 0.  1.
         23    2    1    2    0    0 -0.35527136788E-14  0.71054273576E-14  0.35527136788E-14  0.91188000000E+02  0.91188000000E+02 0.  0.
    9900012    2    3    3    0    0  0.11537771372E+02 -0.38215542185E+02 -0.77212093539E+01  0.50528869333E+02  0.30000028825E+02 0.  0.
         12    1    3    3    0    0 -0.11537771372E+02  0.38215542185E+02  0.77212093539E+01  0.40659130667E+02  0.00000000000E+00 0. -1.
         11    1    4    4    0    0 -0.39632275836E+00 -0.86502976704E+01  0.87551212253E+01  0.12314092311E+02  0.51100000000E-03 0. -1.
        -11    1    4    4    0    0  0.65885842467E+01 -0.21329246456E+02 -0.17468682166E+02  0.28346094152E+02  0.51100000000E-03 0.  1.
         12    1    4    4    0    0  0.53455098832E+01 -0.82359980582E+01  0.99235158716E+00  0.98686828706E+01  0.00000000000E+00 0. -1.
</event>
<event>
 8    1  0.1021894E-011  0.9118800E+02  0.7816164E-02  0.1184000E+00
        -11   -1    0    0    0    0  0.00000000000E+00  0.00000000000E+00  0.45593999997E+02  0.45594000000E+02  0.51100000000E-03 0. -1.
         11   -1    0    0    0    0 -0.00000000000E+00 -0.00000000000E+00 -0.45593999997E+02  0.45594000000E+02  0.51100000000E-03 0.  1.
         23    2    1    2    0    0  0.00000000000E+00 -0.88817841970E-15  0.00000000000E+00  0.91188000000E+02  0.91188000000E+02 0.  0.
    9900012    2    3    3    0    0 -0.45461166418E+01  0.71181850846E+01 -0.39772225413E+02  0.50528860195E+02  0.30000001047E+02 0.  0.
         12    1    3    3    0    0  0.45461166418E+01 -0.71181850846E+01  0.39772225413E+02  0.40659139805E+02  0.00000000000E+00 0. -1.
         11    1    4    4    0    0 -0.10012686870E+01 -0.61343474214E+01  0.77561123794E+00  0.62637313419E+01  0.51100000000E-03 0. -1.
        -11    1    4    4    0    0 -0.33105762737E+01  0.96297108895E+01 -0.39019199833E+02  0.40326036292E+02  0.51100000000E-03 0.  1.
        -12    1    4    4    0    0 -0.23427168107E+00  0.36228216166E+01 -0.15286368174E+01  0.39390925612E+01  0.00000000000E+00 0.  1.
</event>
<event>
 8    1  0.1021894E-011  0.9118800E+02  0.7816164E-02  0.1184000E+00
        -11   -1    0    0    0    0  0.00000000000E+00  0.00000000000E+00  0.45593999997E+02  0.45594000000E+02  0.51100000000E-03 0. -1.
         11   -1    0    0    0    0 -0.00000000000E+00 -0.00000000000E+00 -0.45593999997E+02  0.45594000000E+02  0.51100000000E-03 0.  1.
         23    2    1    2    0    0 -0.35527136788E-14  0.66613381478E-15 -0.35527136788E-14  0.91188000000E+02  0.91188000000E+02 0.  0.
    9900012    2    3    3    0    0  0.25267397678E+02 -0.17557540201E+01  0.31806306799E+02  0.50528865605E+02  0.30000017491E+02 0.  0.
        -12    1    3    3    0    0 -0.25267397678E+02  0.17557540201E+01 -0.31806306799E+02  0.40659134395E+02  0.00000000000E+00 0.  1.
         11    1    4    4    0    0  0.14746953890E+02 -0.75348690536E+01  0.16733538713E+02  0.23542689286E+02  0.51100000000E-03 0. -1.
        -11    1    4    4    0    0  0.99070579999E+01  0.71416304503E+01  0.38113533062E+00  0.12218753951E+02  0.51100000000E-03 0.  1.
        -12    1    4    4    0    0  0.61338578846E+00 -0.13625154168E+01  0.14691632755E+02  0.14767422368E+02  0.00000000000E+00 0.  1.
</event>
<event>
 8    1  0.1021894E-011  0.9118800E+02  0.7816164E-02  0.1184000E+00
        -11   -1    0    0    0    0  0.00000000000E+00  0.00000000000E+00  0.45593999997E+02  0.45594000000E+02  0.51100000000E-03 0. -1.
         11   -1    0    0    0    0 -0.00000000000E+00 -0.00000000000E+00 -0.45593999997E+02  0.45594000000E+02  0.51100000000E-03 0.  1.
         23    2    1    2    0    0 -0.17763568394E-14  0.22204460493E-15  0.00000000000E+00  0.91188000000E+02  0.91188000000E+02 0.  0.
    9900012    2    3    3    0    0  0.14351256162E+02 -0.12609533543E+01 -0.38021270939E+02  0.50528860799E+02  0.30000002884E+02 0.  0.
         12    1    3    3    0    0 -0.14351256162E+02  0.12609533543E+01  0.38021270939E+02  0.40659139201E+02  0.00000000000E+00 0. -1.
         11    1    4    4    0    0  0.46235589833E+01 -0.90739151098E+01 -0.16449436586E+02  0.19346761934E+02  0.51100000000E-03 0. -1.
        -11    1    4    4    0    0 -0.41339364943E+01  0.70134859216E+01 -0.11223625086E+02  0.13865358850E+02  0.51100000000E-03 0.  1.
        -12    1    4    4    0    0  0.13861633673E+02  0.79947583383E+00 -0.10348209267E+02  0.17316740014E+02  0.00000000000E+00 0.  1.
</event>
<event>
 8    1  0.1021894E-011  0.9118800E+02  0.7816164E-02  0.1184000E+00
        -11   -1    0    0    0    0  0.00000000000E+00  0.00000000000E+00  0.45593999997E+02  0.45594000000E+02  0.51100000000E-03 0. -1.
         11   -1    0    0    0    0 -0.00000000000E+00 -0.00000000000E+00 -0.45593999997E+02  0.45594000000E+02  0.51100000000E-03 0.  1.
         23    2    1    2    0    0  0.00000000000E+00  0.00000000000E+00  0.88817841970E-15  0.91188000000E+02  0.91188000000E+02 0.  0.
    9900012    2    3    3    0    0  0.34541041900E+02 -0.20530504366E+02  0.62113473538E+01  0.50528855628E+02  0.29999987168E+02 0.  0.
        -12    1    3    3    0    0 -0.34541041900E+02  0.20530504366E+02 -0.62113473538E+01  0.40659144372E+02  0.00000000000E+00 0.  1.
         11    1    4    4    0    0  0.13168954312E+02 -0.13806141525E+02  0.55185316815E+01  0.19861648815E+02  0.51100000000E-03 0. -1.
        -11    1    4    4    0    0 -0.29385431925E+00  0.52776643729E+01 -0.22105649343E+01  0.57294580183E+01  0.51100000000E-03 0.  1.
        -12    1    4    4    0    0  0.21665941908E+02 -0.12002027214E+02  0.29033806065E+01  0.24937748795E+02  0.00000000000E+00 0.  1.
</event>
<event>
 8    1  0.1021894E-011  0.9118800E+02  0.7816164E-02  0.1184000E+00
        -11   -1    0    0    0    0  0.00000000000E+00  0.00000000000E+00  0.45593999997E+02  0.45594000000E+02  0.51100000000E-03 0.  1.
         11   -1    0    0    0    0 -0.00000000000E+00 -0.00000000000E+00 -0.45593999997E+02  0.45594000000E+02  0.51100000000E-03 0. -1.
         23    2    1    2    0    0  0.00000000000E+00  0.00000000000E+00  0.00000000000E+00  0.91188000000E+02  0.91188000000E+02 0.  0.
    9900012    2    3    3    0    0  0.33647961589E+02  0.22146105849E+02  0.55255897358E+01  0.50528837867E+02  0.29999933181E+02 0.  0.
         12    1    3    3    0    0 -0.33647961589E+02 -0.22146105849E+02 -0.55255897358E+01  0.40659162133E+02  0.00000000000E+00 0. -1.
         11    1    4    4    0    0  0.71969084891E+01 -0.92036447751E+00 -0.13866338805E+01  0.73868339870E+01  0.51100000000E-03 0. -1.
        -11    1    4    4    0    0  0.11894452304E+02  0.25001577101E+02  0.24530094185E+01  0.27795217369E+02  0.51100000000E-03 0.  1.
        -12    1    4    4    0    0  0.14556600796E+02 -0.19351067736E+01  0.44592141978E+01  0.15346786511E+02  0.00000000000E+00 0.  1.
</event>
<event>
 8    1  0.1021894E-011  0.9118800E+02  0.7816164E-02  0.1184000E+00
        -11   -1    0    0    0    0  0.00000000000E+00  0.00000000000E+00  0.45593999997E+02  0.45594000000E+02  0.51100000000E-03 0. -1.
         11   -1    0    0    0    0 -0.00000000000E+00 -0.00000000000E+00 -0.45593999997E+02  0.45594000000E+02  0.51100000000E-03 0.  1.
         23    2    1    2    0    0  0.44408920985E-15  0.00000000000E+00  0.71054273576E-14  0.91188000000E+02  0.91188000000E+02 0.  0.
    9900012    2    3    3    0    0  0.39317874710E+01  0.18778121305E+02  0.35848139372E+02  0.50528857254E+02  0.29999992109E+02 0.  0.
        -12    1    3    3    0    0 -0.39317874710E+01 -0.18778121305E+02 -0.35848139372E+02  0.40659142746E+02  0.00000000000E+00 0.  1.
         11    1    4    4    0    0 -0.26606636883E+01  0.35534496508E+01  0.47786496131E+01  0.65223943509E+01  0.51100000000E-03 0. -1.
        -11    1    4    4    0    0  0.83461674738E+01 -0.46327254657E+01  0.17364058638E+02  0.19814923401E+02  0.51100000000E-03 0.  1.
        -12    1    4    4    0    0 -0.17537163144E+01  0.19857397120E+02  0.13705431121E+02  0.24191539502E+02  0.00000000000E+00 0.  1.
</event>
<event>
 8    1  0.1021894E-011  0.9118800E+02  0.7816164E-02  0.1184000E+00
        -11   -1    0    0    0    0  0.00000000000E+00  0.00000000000E+00  0.45593999997E+02  0.45594000000E+02  0.51100000000E-03 0. -1.
         11   -1    0    0    0    0 -0.00000000000E+00 -0.00000000000E+00 -0.45593999997E+02  0.45594000000E+02  0.51100000000E-03 0.  1.
         23    2    1    2    0    0  0.17763568394E-14  0.00000000000E+00  0.00000000000E+00  0.91188000000E+02  0.91188000000E+02 0.  0.
    9900012    2    3    3    0    0  0.10806457639E+02  0.20992648556E+02  0.33101287715E+02  0.50528855045E+02  0.29999985394E+02 0.  0.
        -12    1    3    3    0    0 -0.10806457639E+02 -0.20992648556E+02 -0.33101287715E+02  0.40659144955E+02  0.00000000000E+00 0.  1.
         11    1    4    4    0    0 -0.62820314386E+01  0.90670707884E+01  0.22340681589E+02  0.24915492084E+02  0.51100000000E-03 0. -1.
        -11    1    4    4    0    0  0.52863351606E+01  0.61122968306E+01 -0.77209739799E+00  0.81179829163E+01  0.51100000000E-03 0.  1.
         12    1    4    4    0    0  0.11802153917E+02  0.58132809365E+01  0.11532703525E+02  0.17495380045E+02  0.00000000000E+00 0. -1.
</event>
<event>
 8    1  0.1021894E-011  0.9118800E+02  0.7816164E-02  0.1184000E+00
        -11   -1    0    0    0    0  0.00000000000E+00  0.00000000000E+00  0.45593999997E+02  0.45594000000E+02  0.51100000000E-03 0. -1.
         11   -1    0    0    0    0 -0.00000000000E+00 -0.00000000000E+00 -0.45593999997E+02  0.45594000000E+02  0.51100000000E-03 0.  1.
         23    2    1    2    0    0  0.00000000000E+00  0.00000000000E+00 -0.88817841970E-15  0.91188000000E+02  0.91188000000E+02 0.  0.
    9900012    2    3    3    0    0  0.16557161534E+02 -0.36479077784E+02 -0.69500675176E+01  0.50528854011E+02  0.29999982252E+02 0.  0.
         12    1    3    3    0    0 -0.16557161534E+02  0.36479077784E+02  0.69500675176E+01  0.40659145989E+02  0.00000000000E+00 0. -1.
         11    1    4    4    0    0  0.98122776689E+01 -0.53452728816E+01  0.11702016246E+01  0.11234861251E+02  0.51100000000E-03 0. -1.
        -11    1    4    4    0    0 -0.17195090335E+01 -0.20937294232E+02 -0.13521958124E+02  0.24983401547E+02  0.51100000000E-03 0.  1.
        -12    1    4    4    0    0  0.84643928991E+01 -0.10196510670E+02  0.54016889821E+01  0.14310591213E+02  0.00000000000E+00 0.  1.
</event>
<event>
 8    1  0.1021894E-011  0.9118800E+02  0.7816164E-02  0.1184000E+00
        -11   -1    0    0    0    0  0.00000000000E+00  0.00000000000E+00  0.45593999997E+02  0.45594000000E+02  0.51100000000E-03 0. -1.
         11   -1    0    0    0    0 -0.00000000000E+00 -0.00000000000E+00 -0.45593999997E+02  0.45594000000E+02  0.51100000000E-03 0.  1.
         23    2    1    2    0    0  0.00000000000E+00  0.00000000000E+00 -0.35527136788E-14  0.91188000000E+02  0.91188000000E+02 0.  0.
    9900012    2    3    3    0    0  0.59600458952E+01 -0.32002299115E+02  0.24361764536E+02  0.50528869819E+02  0.30000030303E+02 0.  0.
        -12    1    3    3    0    0 -0.59600458952E+01  0.32002299115E+02 -0.24361764536E+02  0.40659130181E+02  0.00000000000E+00 0.  1.
         11    1    4    4    0    0  0.85582315977E+01 -0.31289792336E+02  0.26514736661E+02  0.41896607177E+02  0.51100000000E-03 0. -1.
        -11    1    4    4    0    0 -0.52963949384E+01 -0.87804497830E+00 -0.24715507040E+01  0.59102728762E+01  0.51100000000E-03 0.  1.
         12    1    4    4    0    0  0.26982092359E+01  0.16553819874E+00  0.31857857903E+00  0.27219897662E+01  0.00000000000E+00 0. -1.
</event>
<event>
 8    1  0.1021894E-011  0.9118800E+02  0.7816164E-02  0.1184000E+00
        -11   -1    0    0    0    0  0.00000000000E+00  0.00000000000E+00  0.45593999997E+02  0.45594000000E+02  0.51100000000E-03 0. -1.
         11   -1    0    0    0    0 -0.00000000000E+00 -0.00000000000E+00 -0.45593999997E+02  0.45594000000E+02  0.51100000000E-03 0.  1.
         23    2    1    2    0    0  0.00000000000E+00  0.71054273576E-14  0.00000000000E+00  0.91188000000E+02  0.91188000000E+02 0.  0.
    9900012    2    3    3    0    0 -0.22983731227E+02 -0.32300396360E+02 -0.90331395092E+01  0.50528866764E+02  0.30000021015E+02 0.  0.
         12    1    3    3    0    0  0.22983731227E+02  0.32300396360E+02  0.90331395092E+01  0.40659133236E+02  0.00000000000E+00 0. -1.
         11    1    4    4    0    0 -0.19944404872E+02 -0.23018356571E+02  0.54563637701E+01  0.30941815247E+02  0.51100000000E-03 0.  1.
        -11    1    4    4    0    0  0.21781721277E+00 -0.92507249518E+01 -0.76295880692E+01  0.11993080123E+02  0.51100000000E-03 0. -1.
         12    1    4    4    0    0 -0.32571435679E+01 -0.31314837506E-01 -0.68599152101E+01  0.75939713939E+01  0.00000000000E+00 0. -1.
</event>
<event>
 8    1  0.1021894E-011  0.9118800E+02  0.7816164E-02  0.1184000E+00
        -11   -1    0    0    0    0  0.00000000000E+00  0.00000000000E+00  0.45593999997E+02  0.45594000000E+02  0.51100000000E-03 0. -1.
         11   -1    0    0    0    0 -0.00000000000E+00 -0.00000000000E+00 -0.45593999997E+02  0.45594000000E+02  0.51100000000E-03 0.  1.
         23    2    1    2    0    0 -0.35527136788E-14 -0.35527136788E-14  0.00000000000E+00  0.91188000000E+02  0.91188000000E+02 0.  0.
    9900012    2    3    3    0    0 -0.27127306787E+02  0.25938719742E+02 -0.15635252288E+02  0.50528818141E+02  0.29999873221E+02 0.  0.
         12    1    3    3    0    0  0.27127306787E+02 -0.25938719742E+02  0.15635252288E+02  0.40659181859E+02  0.00000000000E+00 0. -1.
         11    1    4    4    0    0 -0.43282333244E+01 -0.66934271516E+00 -0.11411057302E+01  0.45258972513E+01  0.51100000000E-03 0. -1.
        -11    1    4    4    0    0  0.29969562593E+01  0.10008540005E+02 -0.10931758748E+02  0.15121374588E+02  0.51100000000E-03 0.  1.
        -12    1    4    4    0    0 -0.25796029722E+02  0.16599522452E+02 -0.35623878092E+01  0.30881546301E+02  0.00000000000E+00 0.  1.
</event>
<event>
 8    1  0.1021894E-011  0.9118800E+02  0.7816164E-02  0.1184000E+00
        -11   -1    0    0    0    0  0.00000000000E+00  0.00000000000E+00  0.45593999997E+02  0.45594000000E+02  0.51100000000E-03 0. -1.
         11   -1    0    0    0    0 -0.00000000000E+00 -0.00000000000E+00 -0.45593999997E+02  0.45594000000E+02  0.51100000000E-03 0.  1.
         23    2    1    2    0    0 -0.17763568394E-14  0.00000000000E+00  0.00000000000E+00  0.91188000000E+02  0.91188000000E+02 0.  0.
    9900012    2    3    3    0    0 -0.96772834713E+01 -0.14973042536E+02 -0.36542080420E+02  0.50528862533E+02  0.30000008155E+02 0.  0.
         12    1    3    3    0    0  0.96772834713E+01  0.14973042536E+02  0.36542080420E+02  0.40659137467E+02  0.00000000000E+00 0. -1.
         11    1    4    4    0    0  0.14301278443E+01 -0.18620656654E+02 -0.32399669274E+02  0.37396693560E+02  0.51100000000E-03 0.  1.
        -11    1    4    4    0    0 -0.49030231277E+01  0.38704724690E+01 -0.22929848130E+01  0.66541695603E+01  0.51100000000E-03 0. -1.
        -12    1    4    4    0    0 -0.62043881879E+01 -0.22285835128E+00 -0.18494263325E+01  0.64779994127E+01  0.00000000000E+00 0.  1.
</event>
<event>
 8    1  0.1021894E-011  0.9118800E+02  0.7816164E-02  0.1184000E+00
        -11   -1    0    0    0    0  0.00000000000E+00  0.00000000000E+00  0.45593999997E+02  0.45594000000E+02  0.51100000000E-03 0. -1.
         11   -1    0    0    0    0 -0.00000000000E+00 -0.00000000000E+00 -0.45593999997E+02  0.45594000000E+02  0.51100000000E-03 0.  1.
         23    2    1    2    0    0  0.00000000000E+00  0.44408920985E-15 -0.71054273576E-14  0.91188000000E+02  0.91188000000E+02 0.  0.
    9900012    2    3    3    0    0  0.99966255232E+01 -0.32731655882E+01  0.39274922633E+02  0.50528859789E+02  0.29999999815E+02 0.  0.
        -12    1    3    3    0    0 -0.99966255232E+01  0.32731655882E+01 -0.39274922633E+02  0.40659140211E+02  0.00000000000E+00 0.  1.
         11    1    4    4    0    0 -0.42989454337E+01 -0.70380100152E+01  0.10614991784E+02  0.13442193558E+02  0.51100000000E-03 0. -1.
        -11    1    4    4    0    0  0.10798313660E+02 -0.16169781659E+01  0.40372368824E+01  0.11641197456E+02  0.51100000000E-03 0.  1.
        -12    1    4    4    0    0  0.34972572966E+01  0.53818225929E+01  0.24622693967E+02  0.25445468775E+02  0.00000000000E+00 0.  1.
</event>
<event>
 8    1  0.1021894E-011  0.9118800E+02  0.7816164E-02  0.1184000E+00
        -11   -1    0    0    0    0  0.00000000000E+00  0.00000000000E+00  0.45593999997E+02  0.45594000000E+02  0.51100000000E-03 0. -1.
         11   -1    0    0    0    0 -0.00000000000E+00 -0.00000000000E+00 -0.45593999997E+02  0.45594000000E+02  0.51100000000E-03 0.  1.
         23    2    1    2    0    0  0.00000000000E+00  0.00000000000E+00  0.00000000000E+00  0.91188000000E+02  0.91188000000E+02 0.  0.
    9900012    2    3    3    0    0  0.16153803724E+02 -0.98147909314E+01 -0.35998478138E+02  0.50528856821E+02  0.29999990793E+02 0.  0.
         12    1    3    3    0    0 -0.16153803724E+02  0.98147909314E+01  0.35998478138E+02  0.40659143179E+02  0.00000000000E+00 0. -1.
         11    1    4    4    0    0  0.86033805894E+00 -0.47213177064E+01  0.22286823845E+00  0.48042369814E+01  0.51100000000E-03 0. -1.
        -11    1    4    4    0    0  0.12106818323E+02  0.79438265818E+01 -0.18375596470E+02  0.23395340916E+02  0.51100000000E-03 0.  1.
        -12    1    4    4    0    0  0.31866473423E+01 -0.13037299807E+02 -0.17845749907E+02  0.22329278924E+02  0.00000000000E+00 0.  1.
</event>
<event>
 8    1  0.1021894E-011  0.9118800E+02  0.7816164E-02  0.1184000E+00
        -11   -1    0    0    0    0  0.00000000000E+00  0.00000000000E+00  0.45593999997E+02  0.45594000000E+02  0.51100000000E-03 0. -1.
         11   -1    0    0    0    0 -0.00000000000E+00 -0.00000000000E+00 -0.45593999997E+02  0.45594000000E+02  0.51100000000E-03 0.  1.
         23    2    1    2    0    0  0.00000000000E+00 -0.35527136788E-14  0.35527136788E-14  0.91188000000E+02  0.91188000000E+02 0.  0.
    9900012    2    3    3    0    0 -0.38573374897E+01 -0.26865163905E+02  0.30274570813E+02  0.50528859305E+02  0.29999998343E+02 0.  0.
        -12    1    3    3    0    0  0.38573374897E+01  0.26865163905E+02 -0.30274570813E+02  0.40659140695E+02  0.00000000000E+00 0.  1.
         11    1    4    4    0    0 -0.65971381681E+01 -0.30014084448E+02  0.21116655924E+02  0.37286467450E+02  0.51100000000E-03 0. -1.
        -11    1    4    4    0    0  0.51262425492E+01 -0.26401994686E+00  0.65770129976E+01  0.83429712596E+01  0.51100000000E-03 0.  1.
         12    1    4    4    0    0 -0.23864418708E+01  0.34129404898E+01  0.25809018917E+01  0.48994205948E+01  0.00000000000E+00 0. -1.
</event>
<event>
 8    1  0.1021894E-011  0.9118800E+02  0.7816164E-02  0.1184000E+00
        -11   -1    0    0    0    0  0.00000000000E+00  0.00000000000E+00  0.45593999997E+02  0.45594000000E+02  0.51100000000E-03 0. -1.
         11   -1    0    0    0    0 -0.00000000000E+00 -0.00000000000E+00 -0.45593999997E+02  0.45594000000E+02  0.51100000000E-03 0.  1.
         23    2    1    2    0    0  0.00000000000E+00  0.88817841970E-15  0.00000000000E+00  0.91188000000E+02  0.91188000000E+02 0.  0.
    9900012    2    3    3    0    0  0.17570226242E+02 -0.77979056988E+01  0.35827998662E+02  0.50528859926E+02  0.30000000230E+02 0.  0.
        -12    1    3    3    0    0 -0.17570226242E+02  0.77979056988E+01 -0.35827998662E+02  0.40659140074E+02  0.00000000000E+00 0.  1.
         11    1    4    4    0    0  0.51109990826E+01  0.98113348463E+01  0.16462801823E+02  0.19834526645E+02  0.51100000000E-03 0.  1.
        -11    1    4    4    0    0  0.25719516908E+01 -0.89719813569E+01  0.31937855742E+01  0.98646668227E+01  0.51100000000E-03 0. -1.
         12    1    4    4    0    0  0.98872754690E+01 -0.86372591881E+01  0.16171411264E+02  0.20829666458E+02  0.00000000000E+00 0. -1.
</event>
<event>
 8    1  0.1021894E-011  0.9118800E+02  0.7816164E-02  0.1184000E+00
        -11   -1    0    0    0    0  0.00000000000E+00  0.00000000000E+00  0.45593999997E+02  0.45594000000E+02  0.51100000000E-03 0. -1.
         11   -1    0    0    0    0 -0.00000000000E+00 -0.00000000000E+00 -0.45593999997E+02  0.45594000000E+02  0.51100000000E-03 0.  1.
         23    2    1    2    0    0  0.00000000000E+00  0.00000000000E+00  0.17763568394E-14  0.91188000000E+02  0.91188000000E+02 0.  0.
    9900012    2    3    3    0    0 -0.24189178744E+02 -0.32570242477E+02  0.26886781865E+01  0.50528855226E+02  0.29999985945E+02 0.  0.
         12    1    3    3    0    0  0.24189178744E+02  0.32570242477E+02 -0.26886781865E+01  0.40659144774E+02  0.00000000000E+00 0. -1.
         11    1    4    4    0    0  0.71469155425E+00 -0.17399995757E+02  0.46471421255E+01  0.18024055219E+02  0.51100000000E-03 0. -1.
        -11    1    4    4    0    0 -0.12817358136E+02 -0.51561203771E+01 -0.76699880351E+01  0.15801865828E+02  0.51100000000E-03 0.  1.
        -12    1    4    4    0    0 -0.12086512163E+02 -0.10014126343E+02  0.57115240961E+01  0.16702934179E+02  0.00000000000E+00 0.  1.
</event>
<event>
 8    1  0.1021894E-011  0.9118800E+02  0.7816164E-02  0.1184000E+00
        -11   -1    0    0    0    0  0.00000000000E+00  0.00000000000E+00  0.45593999997E+02  0.45594000000E+02  0.51100000000E-03 0. -1.
         11   -1    0    0    0    0 -0.00000000000E+00 -0.00000000000E+00 -0.45593999997E+02  0.45594000000E+02  0.51100000000E-03 0.  1.
         23    2    1    2    0    0  0.13322676296E-14  0.00000000000E+00  0.00000000000E+00  0.91188000000E+02  0.91188000000E+02 0.  0.
    9900012    2    3    3    0    0  0.22771740252E+01 -0.35216123565E+01 -0.40442299906E+02  0.50528844859E+02  0.29999954433E+02 0.  0.
         12    1    3    3    0    0 -0.22771740252E+01  0.35216123565E+01  0.40442299906E+02  0.40659155141E+02  0.00000000000E+00 0. -1.
         11    1    4    4    0    0  0.10753064989E+02 -0.21474356449E+01 -0.82144918712E+01  0.13701013228E+02  0.51100000000E-03 0. -1.
        -11    1    4    4    0    0 -0.12035913650E+02 -0.22138128328E+01 -0.15732069682E+02  0.19931437515E+02  0.51100000000E-03 0.  1.
        -12    1    4    4    0    0  0.35600226863E+01  0.83963612124E+00 -0.16495738352E+02  0.16896394116E+02  0.00000000000E+00 0.  1.
</event>
<event>
 8    1  0.1540330E-011  0.9118800E+02  0.7816164E-02  0.1184000E+00
        -11   -1    0    0    0    0  0.00000000000E+00  0.00000000000E+00  0.45593999997E+02  0.45594000000E+02  0.51100000000E-03 0. -1.
         11   -1    0    0    0    0 -0.00000000000E+00 -0.00000000000E+00 -0.45593999997E+02  0.45594000000E+02  0.51100000000E-03 0.  1.
         23    2    1    2    0    0  0.17763568394E-14  0.00000000000E+00  0.00000000000E+00  0.91188000000E+02  0.91188000000E+02 0.  0.
    9900012    2    3    3    0    0 -0.14441854732E+02  0.53794096408E+01 -0.37625294902E+02  0.50528830890E+02  0.29999911974E+02 0.  0.
         12    1    3    3    0    0  0.14441854732E+02 -0.53794096408E+01  0.37625294902E+02  0.40659169110E+02  0.00000000000E+00 0. -1.
         11    1    4    4    0    0  0.22916549834E+01 -0.67456402270E+01 -0.20255212382E+02  0.21471585259E+02  0.51100000000E-03 0. -1.
        -11    1    4    4    0    0 -0.13274419216E+02  0.70155320374E+01 -0.17272803507E+02  0.22886188773E+02  0.51100000000E-03 0.  1.
         12    1    4    4    0    0 -0.34590905002E+01  0.51095178304E+01 -0.97279013407E-01  0.61710568588E+01  0.00000000000E+00 0. -1.
</event>
<event>
 8    1  0.1021894E-011  0.9118800E+02  0.7816164E-02  0.1184000E+00
        -11   -1    0    0    0    0  0.00000000000E+00  0.00000000000E+00  0.45593999997E+02  0.45594000000E+02  0.51100000000E-03 0. -1.
         11   -1    0    0    0    0 -0.00000000000E+00 -0.00000000000E+00 -0.45593999997E+02  0.45594000000E+02  0.51100000000E-03 0.  1.
         23    2    1    2    0    0  0.00000000000E+00  0.00000000000E+00  0.00000000000E+00  0.91188000000E+02  0.91188000000E+02 0.  0.
    9900012    2    3    3    0    0  0.22224843372E+02  0.22131513861E+01  0.33975355380E+02  0.50528850043E+02  0.29999970192E+02 0.  0.
        -12    1    3    3    0    0 -0.22224843372E+02 -0.22131513861E+01 -0.33975355380E+02  0.40659149957E+02  0.00000000000E+00 0.  1.
         11    1    4    4    0    0  0.87968583236E+01 -0.11133815876E+01  0.28291089558E+02  0.29648104216E+02  0.51100000000E-03 0. -1.
        -11    1    4    4    0    0  0.52580436360E+01  0.68002621435E+01 -0.23455758202E+01  0.89102364888E+01  0.51100000000E-03 0.  1.
         12    1    4    4    0    0  0.81699414128E+01 -0.34737291698E+01  0.80298416422E+01  0.11970509339E+02  0.00000000000E+00 0. -1.
</event>
<event>
 8    1  0.1021894E-011  0.9118800E+02  0.7816164E-02  0.1184000E+00
        -11   -1    0    0    0    0  0.00000000000E+00  0.00000000000E+00  0.45593999997E+02  0.45594000000E+02  0.51100000000E-03 0. -1.
         11   -1    0    0    0    0 -0.00000000000E+00 -0.00000000000E+00 -0.45593999997E+02  0.45594000000E+02  0.51100000000E-03 0.  1.
         23    2    1    2    0    0  0.00000000000E+00  0.00000000000E+00  0.00000000000E+00  0.91188000000E+02  0.91188000000E+02 0.  0.
    9900012    2    3    3    0    0 -0.16207109451E+02 -0.29367535433E+02  0.22979183812E+02  0.50528862985E+02  0.30000009529E+02 0.  0.
        -12    1    3    3    0    0  0.16207109451E+02  0.29367535433E+02 -0.22979183812E+02  0.40659137015E+02  0.00000000000E+00 0.  1.
         11    1    4    4    0    0 -0.14970290060E+02 -0.25330378008E+02  0.28465029831E+02  0.40938924730E+02  0.51100000000E-03 0. -1.
        -11    1    4    4    0    0  0.21553924524E+01 -0.37810657122E+01 -0.22700520410E+01  0.49086974926E+01  0.51100000000E-03 0.  1.
         12    1    4    4    0    0 -0.33922118443E+01 -0.25609171264E+00 -0.32157939787E+01  0.46812407624E+01  0.00000000000E+00 0. -1.
</event>
<event>
 8    1  0.1021894E-011  0.9118800E+02  0.7816164E-02  0.1184000E+00
        -11   -1    0    0    0    0  0.00000000000E+00  0.00000000000E+00  0.45593999997E+02  0.45594000000E+02  0.51100000000E-03 0. -1.
         11   -1    0    0    0    0 -0.00000000000E+00 -0.00000000000E+00 -0.45593999997E+02  0.45594000000E+02  0.51100000000E-03 0.  1.
         23    2    1    2    0    0  0.88817841970E-15  0.35527136788E-14  0.00000000000E+00  0.91188000000E+02  0.91188000000E+02 0.  0.
    9900012    2    3    3    0    0 -0.53984605148E+01 -0.16120658707E+02 -0.36934404642E+02  0.50528815805E+02  0.29999866122E+02 0.  0.
         12    1    3    3    0    0  0.53984605148E+01  0.16120658707E+02  0.36934404642E+02  0.40659184195E+02  0.00000000000E+00 0. -1.
         11    1    4    4    0    0 -0.70465031897E+01 -0.14021946552E+02 -0.60759062952E+01  0.16828096442E+02  0.51100000000E-03 0. -1.
        -11    1    4    4    0    0  0.69664960033E+01  0.13590073046E+01 -0.14196375069E+02  0.15871862927E+02  0.51100000000E-03 0.  1.
         12    1    4    4    0    0 -0.53184533285E+01 -0.34577194600E+01 -0.16662123278E+02  0.17828856436E+02  0.00000000000E+00 0. -1.
</event>
<event>
 8    1  0.1021894E-011  0.9118800E+02  0.7816164E-02  0.1184000E+00
        -11   -1    0    0    0    0  0.00000000000E+00  0.00000000000E+00  0.45593999997E+02  0.45594000000E+02  0.51100000000E-03 0. -1.
         11   -1    0    0    0    0 -0.00000000000E+00 -0.00000000000E+00 -0.45593999997E+02  0.45594000000E+02  0.51100000000E-03 0.  1.
         23    2    1    2    0    0  0.00000000000E+00  0.00000000000E+00  0.00000000000E+00  0.91188000000E+02  0.91188000000E+02 0.  0.
    9900012    2    3    3    0    0  0.29585341325E+01 -0.33159193236E+02  0.23342681581E+02  0.50528858302E+02  0.29999995293E+02 0.  0.
        -12    1    3    3    0    0 -0.29585341325E+01  0.33159193236E+02 -0.23342681581E+02  0.40659141698E+02  0.00000000000E+00 0.  1.
         11    1    4    4    0    0 -0.11210064591E+02 -0.18459092166E+02  0.11788383573E+02  0.24604260185E+02  0.51100000000E-03 0. -1.
        -11    1    4    4    0    0  0.28115608360E+01 -0.27033785292E+01 -0.21559612217E+01  0.44566017162E+01  0.51100000000E-03 0.  1.
         12    1    4    4    0    0  0.11357037888E+02 -0.11996722540E+02  0.13710259229E+02  0.21467996400E+02  0.00000000000E+00 0. -1.
</event>
<event>
 8    1  0.1021894E-011  0.9118800E+02  0.7816164E-02  0.1184000E+00
        -11   -1    0    0    0    0  0.00000000000E+00  0.00000000000E+00  0.45593999997E+02  0.45594000000E+02  0.51100000000E-03 0. -1.
         11   -1    0    0    0    0 -0.00000000000E+00 -0.00000000000E+00 -0.45593999997E+02  0.45594000000E+02  0.51100000000E-03 0.  1.
         23    2    1    2    0    0  0.00000000000E+00 -0.35527136788E-14 -0.35527136788E-14  0.91188000000E+02  0.91188000000E+02 0.  0.
    9900012    2    3    3    0    0  0.17467024100E+02  0.22001006353E+02 -0.29394321018E+02  0.50528839659E+02  0.29999938628E+02 0.  0.
         12    1    3    3    0    0 -0.17467024100E+02 -0.22001006353E+02  0.29394321018E+02  0.40659160341E+02  0.00000000000E+00 0. -1.
         11    1    4    4    0    0  0.16121300613E+02  0.92075326538E+00 -0.14319993630E+02  0.21582547066E+02  0.51100000000E-03 0. -1.
        -11    1    4    4    0    0  0.57792655854E+01  0.84193847692E+01 -0.23981083440E+01  0.10489846257E+02  0.51100000000E-03 0.  1.
         12    1    4    4    0    0 -0.44335420980E+01  0.12660868319E+02 -0.12676219045E+02  0.18456446337E+02  0.00000000000E+00 0. -1.
</event>
<event>
 8    1  0.1021894E-011  0.9118800E+02  0.7816164E-02  0.1184000E+00
        -11   -1    0    0    0    0  0.00000000000E+00  0.00000000000E+00  0.45593999997E+02  0.45594000000E+02  0.51100000000E-03 0.  1.
         11   -1    0    0    0    0 -0.00000000000E+00 -0.00000000000E+00 -0.45593999997E+02  0.45594000000E+02  0.51100000000E-03 0. -1.
         23    2    1    2    0    0  0.00000000000E+00 -0.35527136788E-14  0.00000000000E+00  0.91188000000E+02  0.91188000000E+02 0.  0.
    9900012    2    3    3    0    0  0.25373113912E+02  0.18470153130E+02  0.25850059079E+02  0.50528843336E+02  0.29999949803E+02 0.  0.
        -12    1    3    3    0    0 -0.25373113912E+02 -0.18470153130E+02 -0.25850059079E+02  0.40659156664E+02  0.00000000000E+00 0.  1.
         11    1    4    4    0    0  0.42439419478E+01  0.18186687215E+02  0.15859443218E+02  0.24500787224E+02  0.51100000000E-03 0. -1.
        -11    1    4    4    0    0  0.14375769978E+02  0.16278472513E+01  0.12063166271E+02  0.18837001616E+02  0.51100000000E-03 0.  1.
         12    1    4    4    0    0  0.67534019866E+01 -0.13443813362E+01 -0.20725504102E+01  0.71910544965E+01  0.00000000000E+00 0. -1.
</event>
<event>
 8    1  0.1021894E-011  0.9118800E+02  0.7816164E-02  0.1184000E+00
        -11   -1    0    0    0    0  0.00000000000E+00  0.00000000000E+00  0.45593999997E+02  0.45594000000E+02  0.51100000000E-03 0. -1.
         11   -1    0    0    0    0 -0.00000000000E+00 -0.00000000000E+00 -0.45593999997E+02  0.45594000000E+02  0.51100000000E-03 0.  1.
         23    2    1    2    0    0  0.35527136788E-14  0.17763568394E-14 -0.35527136788E-14  0.91188000000E+02  0.91188000000E+02 0.  0.
    9900012    2    3    3    0    0 -0.30692160290E+02 -0.15183505794E+02  0.21923003896E+02  0.50528860175E+02  0.30000000988E+02 0.  0.
        -12    1    3    3    0    0  0.30692160290E+02  0.15183505794E+02 -0.21923003896E+02  0.40659139825E+02  0.00000000000E+00 0.  1.
         11    1    4    4    0    0 -0.19842434611E+02 -0.12205870325E+02  0.25941497719E+02  0.34866413436E+02  0.51100000000E-03 0. -1.
        -11    1    4    4    0    0  0.81865413717E+00  0.37534898088E+00 -0.33878399200E+01  0.35055015388E+01  0.51100000000E-03 0.  1.
         12    1    4    4    0    0 -0.11668379816E+02 -0.33529844499E+01 -0.63065390340E+00  0.12156945200E+02  0.00000000000E+00 0. -1.
</event>
<event>
 8    1  0.1021894E-011  0.9118800E+02  0.7816164E-02  0.1184000E+00
        -11   -1    0    0    0    0  0.00000000000E+00  0.00000000000E+00  0.45593999997E+02  0.45594000000E+02  0.51100000000E-03 0. -1.
         11   -1    0    0    0    0 -0.00000000000E+00 -0.00000000000E+00 -0.45593999997E+02  0.45594000000E+02  0.51100000000E-03 0.  1.
         23    2    1    2    0    0 -0.22204460493E-14  0.35527136788E-14 -0.35527136788E-14  0.91188000000E+02  0.91188000000E+02 0.  0.
    9900012    2    3    3    0    0  0.34076259279E+01  0.31881488366E+02 -0.25002500992E+02  0.50528852558E+02  0.29999977834E+02 0.  0.
         12    1    3    3    0    0 -0.34076259279E+01 -0.31881488366E+02  0.25002500992E+02  0.40659147442E+02  0.00000000000E+00 0. -1.
         11    1    4    4    0    0  0.11612239851E+02  0.66663113595E+01 -0.96751716973E+00  0.13424600971E+02  0.51100000000E-03 0. -1.
        -11    1    4    4    0    0 -0.84656250703E+01  0.11241941915E+02 -0.14362105119E+02  0.20107663454E+02  0.51100000000E-03 0.  1.
        -12    1    4    4    0    0  0.26101114712E+00  0.13973235092E+02 -0.96728787024E+01  0.16996588133E+02  0.00000000000E+00 0.  1.
</event>
<event>
 8    1  0.1021894E-011  0.9118800E+02  0.7816164E-02  0.1184000E+00
        -11   -1    0    0    0    0  0.00000000000E+00  0.00000000000E+00  0.45593999997E+02  0.45594000000E+02  0.51100000000E-03 0.  1.
         11   -1    0    0    0    0 -0.00000000000E+00 -0.00000000000E+00 -0.45593999997E+02  0.45594000000E+02  0.51100000000E-03 0. -1.
         23    2    1    2    0    0  0.71054273576E-14 -0.88817841970E-15 -0.88817841970E-15  0.91188000000E+02  0.91188000000E+02 0.  0.
    9900012    2    3    3    0    0  0.39607289753E+02  0.50464108668E+01  0.76785900609E+01  0.50528875446E+02  0.30000047405E+02 0.  0.
        -12    1    3    3    0    0 -0.39607289753E+02 -0.50464108668E+01 -0.76785900609E+01  0.40659124554E+02  0.00000000000E+00 0.  1.
         11    1    4    4    0    0  0.11666770623E+02  0.20566312927E+01 -0.23706278715E+01  0.12081520840E+02  0.51100000000E-03 0. -1.
        -11    1    4    4    0    0 -0.50517903957E+00 -0.51613934148E+01  0.69833666941E+01  0.86984250580E+01  0.51100000000E-03 0.  1.
        -12    1    4    4    0    0  0.28445698169E+02  0.81511729889E+01  0.30658512383E+01  0.29748929548E+02  0.00000000000E+00 0.  1.
</event>
<event>
 8    1  0.1021894E-011  0.9118800E+02  0.7816164E-02  0.1184000E+00
        -11   -1    0    0    0    0  0.00000000000E+00  0.00000000000E+00  0.45593999997E+02  0.45594000000E+02  0.51100000000E-03 0. -1.
         11   -1    0    0    0    0 -0.00000000000E+00 -0.00000000000E+00 -0.45593999997E+02  0.45594000000E+02  0.51100000000E-03 0.  1.
         23    2    1    2    0    0  0.00000000000E+00 -0.17763568394E-14  0.00000000000E+00  0.91188000000E+02  0.91188000000E+02 0.  0.
    9900012    2    3    3    0    0  0.33445751286E+02  0.92562122830E+01 -0.21186535434E+02  0.50528867832E+02  0.30000024262E+02 0.  0.
         12    1    3    3    0    0 -0.33445751286E+02 -0.92562122830E+01  0.21186535434E+02  0.40659132168E+02  0.00000000000E+00 0. -1.
         11    1    4    4    0    0  0.33668484455E+02  0.11708209747E+02 -0.21370901599E+02  0.41561574278E+02  0.51100000000E-03 0. -1.
        -11    1    4    4    0    0  0.17185502892E+00 -0.11883007464E+01 -0.42099875415E+01  0.43778520048E+01  0.51100000000E-03 0.  1.
         12    1    4    4    0    0 -0.39458819778E+00 -0.12636967178E+01  0.43943537065E+01  0.45894415497E+01  0.00000000000E+00 0. -1.
</event>
<event>
 8    1  0.1021894E-011  0.9118800E+02  0.7816164E-02  0.1184000E+00
        -11   -1    0    0    0    0  0.00000000000E+00  0.00000000000E+00  0.45593999997E+02  0.45594000000E+02  0.51100000000E-03 0. -1.
         11   -1    0    0    0    0 -0.00000000000E+00 -0.00000000000E+00 -0.45593999997E+02  0.45594000000E+02  0.51100000000E-03 0.  1.
         23    2    1    2    0    0  0.00000000000E+00  0.00000000000E+00  0.00000000000E+00  0.91188000000E+02  0.91188000000E+02 0.  0.
    9900012    2    3    3    0    0 -0.32637091812E+02 -0.10481502581E+02  0.21866090001E+02  0.50528836823E+02  0.29999930008E+02 0.  0.
        -12    1    3    3    0    0  0.32637091812E+02  0.10481502581E+02 -0.21866090001E+02  0.40659163177E+02  0.00000000000E+00 0.  1.
         11    1    4    4    0    0 -0.24849837088E+02 -0.12110899283E+02  0.61996190213E+01  0.28330611730E+02  0.51100000000E-03 0.  1.
        -11    1    4    4    0    0 -0.74915663551E+01 -0.36449997427E+00  0.17768031200E+02  0.19286247942E+02  0.51100000000E-03 0. -1.
        -12    1    4    4    0    0 -0.29568836910E+00  0.19938966769E+01 -0.21015602204E+01  0.29119771513E+01  0.00000000000E+00 0.  1.
</event>
<event>
 8    1  0.1021894E-011  0.9118800E+02  0.7816164E-02  0.1184000E+00
        -11   -1    0    0    0    0  0.00000000000E+00  0.00000000000E+00  0.45593999997E+02  0.45594000000E+02  0.51100000000E-03 0. -1.
         11   -1    0    0    0    0 -0.00000000000E+00 -0.00000000000E+00 -0.45593999997E+02  0.45594000000E+02  0.51100000000E-03 0.  1.
         23    2    1    2    0    0  0.00000000000E+00 -0.17763568394E-14  0.00000000000E+00  0.91188000000E+02  0.91188000000E+02 0.  0.
    9900012    2    3    3    0    0  0.32205706375E+02  0.10603657891E+02 -0.22439266625E+02  0.50528858709E+02  0.29999996533E+02 0.  0.
         12    1    3    3    0    0 -0.32205706375E+02 -0.10603657891E+02  0.22439266625E+02  0.40659141291E+02  0.00000000000E+00 0. -1.
         11    1    4    4    0    0 -0.31172081510E+01  0.11925088910E+01 -0.65275939963E+00  0.34007586222E+01  0.51100000000E-03 0. -1.
        -11    1    4    4    0    0  0.30461543479E+02  0.10943367995E+02 -0.25176737561E+02  0.41006475692E+02  0.51100000000E-03 0.  1.
        -12    1    4    4    0    0  0.48613710471E+01 -0.15322189951E+01  0.33902303352E+01  0.61216243948E+01  0.00000000000E+00 0.  1.
</event>
<event>
 8    1  0.1021894E-011  0.9118800E+02  0.7816164E-02  0.1184000E+00
        -11   -1    0    0    0    0  0.00000000000E+00  0.00000000000E+00  0.45593999997E+02  0.45594000000E+02  0.51100000000E-03 0. -1.
         11   -1    0    0    0    0 -0.00000000000E+00 -0.00000000000E+00 -0.45593999997E+02  0.45594000000E+02  0.51100000000E-03 0.  1.
         23    2    1    2    0    0  0.35527136788E-14 -0.35527136788E-14  0.35527136788E-14  0.91188000000E+02  0.91188000000E+02 0.  0.
    9900012    2    3    3    0    0  0.16799140648E+02 -0.25009371806E+02  0.27303583420E+02  0.50528862378E+02  0.30000007684E+02 0.  0.
        -12    1    3    3    0    0 -0.16799140648E+02  0.25009371806E+02 -0.27303583420E+02  0.40659137622E+02  0.00000000000E+00 0.  1.
         11    1    4    4    0    0 -0.85289808488E-01 -0.11285760693E+02  0.17918079298E+02  0.21176242225E+02  0.51100000000E-03 0. -1.
        -11    1    4    4    0    0  0.15278144918E+02 -0.18484591612E+01  0.78356693001E+01  0.17269517279E+02  0.51100000000E-03 0.  1.
         12    1    4    4    0    0  0.16062855384E+01 -0.11875151951E+02  0.15498348219E+01  0.12083102874E+02  0.00000000000E+00 0. -1.
</event>
<event>
 8    1  0.1021894E-011  0.9118800E+02  0.7816164E-02  0.1184000E+00
        -11   -1    0    0    0    0  0.00000000000E+00  0.00000000000E+00  0.45593999997E+02  0.45594000000E+02  0.51100000000E-03 0. -1.
         11   -1    0    0    0    0 -0.00000000000E+00 -0.00000000000E+00 -0.45593999997E+02  0.45594000000E+02  0.51100000000E-03 0.  1.
         23    2    1    2    0    0 -0.35527136788E-14  0.00000000000E+00  0.00000000000E+00  0.91188000000E+02  0.91188000000E+02 0.  0.
    9900012    2    3    3    0    0 -0.26249271590E+02  0.80205893359E+01  0.29996835371E+02  0.50528877474E+02  0.30000053570E+02 0.  0.
        -12    1    3    3    0    0  0.26249271590E+02 -0.80205893359E+01 -0.29996835371E+02  0.40659122526E+02  0.00000000000E+00 0.  1.
         11    1    4    4    0    0 -0.14023147538E+00  0.47188916712E+01  0.17844554368E+02  0.18458486512E+02  0.51100000000E-03 0.  1.
        -11    1    4    4    0    0 -0.78021174648E+01  0.29392180372E+01 -0.24060939276E+01  0.86776337705E+01  0.51100000000E-03 0. -1.
         12    1    4    4    0    0 -0.18306922650E+02  0.36247962759E+00  0.14558374932E+02  0.23392757192E+02  0.00000000000E+00 0. -1.
</event>
<event>
 8    1  0.1021894E-011  0.9118800E+02  0.7816164E-02  0.1184000E+00
        -11   -1    0    0    0    0  0.00000000000E+00  0.00000000000E+00  0.45593999997E+02  0.45594000000E+02  0.51100000000E-03 0. -1.
         11   -1    0    0    0    0 -0.00000000000E+00 -0.00000000000E+00 -0.45593999997E+02  0.45594000000E+02  0.51100000000E-03 0.  1.
         23    2    1    2    0    0  0.17763568394E-14  0.00000000000E+00  0.00000000000E+00  0.91188000000E+02  0.91188000000E+02 0.  0.
    9900012    2    3    3    0    0  0.11822404987E+02 -0.82124916564E+01  0.38025669144E+02  0.50528858436E+02  0.29999995701E+02 0.  0.
        -12    1    3    3    0    0 -0.11822404987E+02  0.82124916564E+01 -0.38025669144E+02  0.40659141564E+02  0.00000000000E+00 0.  1.
         11    1    4    4    0    0  0.14622423893E+02 -0.66222350028E+01  0.92378405185E+01  0.18520447475E+02  0.51100000000E-03 0. -1.
        -11    1    4    4    0    0 -0.64077381479E+01 -0.41626407223E+01  0.93658941989E+01  0.12087458805E+02  0.51100000000E-03 0.  1.
        -12    1    4    4    0    0  0.36077192410E+01  0.25723840686E+01  0.19421934427E+02  0.19920952156E+02  0.00000000000E+00 0.  1.
</event>
<event>
 8    1  0.1021894E-011  0.9118800E+02  0.7816164E-02  0.1184000E+00
        -11   -1    0    0    0    0  0.00000000000E+00  0.00000000000E+00  0.45593999997E+02  0.45594000000E+02  0.51100000000E-03 0. -1.
         11   -1    0    0    0    0 -0.00000000000E+00 -0.00000000000E+00 -0.45593999997E+02  0.45594000000E+02  0.51100000000E-03 0.  1.
         23    2    1    2    0    0  0.35527136788E-14  0.71054273576E-14  0.00000000000E+00  0.91188000000E+02  0.91188000000E+02 0.  0.
    9900012    2    3    3    0    0 -0.20297189751E+02 -0.34696830801E+02 -0.61089779411E+01  0.50528860918E+02  0.30000003246E+02 0.  0.
         12    1    3    3    0    0  0.20297189751E+02  0.34696830801E+02  0.61089779411E+01  0.40659139082E+02  0.00000000000E+00 0. -1.
         11    1    4    4    0    0 -0.45080623655E+01 -0.20080367733E+02 -0.46975162575E+01  0.21109487295E+02  0.51100000000E-03 0. -1.
        -11    1    4    4    0    0 -0.19047950761E+02 -0.10716787230E+02 -0.59008933899E+01  0.22638341365E+02  0.51100000000E-03 0.  1.
        -12    1    4    4    0    0  0.32588233751E+01 -0.38996758377E+01  0.44894317063E+01  0.67810322574E+01  0.00000000000E+00 0.  1.
</event>
<event>
 8    1  0.1021894E-011  0.9118800E+02  0.7816164E-02  0.1184000E+00
        -11   -1    0    0    0    0  0.00000000000E+00  0.00000000000E+00  0.45593999997E+02  0.45594000000E+02  0.51100000000E-03 0. -1.
         11   -1    0    0    0    0 -0.00000000000E+00 -0.00000000000E+00 -0.45593999997E+02  0.45594000000E+02  0.51100000000E-03 0.  1.
         23    2    1    2    0    0  0.00000000000E+00  0.00000000000E+00  0.00000000000E+00  0.91188000000E+02  0.91188000000E+02 0.  0.
    9900012    2    3    3    0    0 -0.29879992409E+02 -0.43601712568E+01  0.27227580365E+02  0.50528853769E+02  0.29999981515E+02 0.  0.
        -12    1    3    3    0    0  0.29879992409E+02  0.43601712568E+01 -0.27227580365E+02  0.40659146231E+02  0.00000000000E+00 0.  1.
         11    1    4    4    0    0 -0.11588049899E+02  0.55270042533E+01  0.10425879433E+02  0.16538731472E+02  0.51100000000E-03 0. -1.
        -11    1    4    4    0    0  0.16311183402E+01 -0.77158066238E+01  0.76105451408E-01  0.78866983711E+01  0.51100000000E-03 0.  1.
        -12    1    4    4    0    0 -0.19923060850E+02 -0.21713688863E+01  0.16725595480E+02  0.26103423926E+02  0.00000000000E+00 0.  1.
</event>
<event>
 8    1  0.1021894E-011  0.9118800E+02  0.7816164E-02  0.1184000E+00
        -11   -1    0    0    0    0  0.00000000000E+00  0.00000000000E+00  0.45593999997E+02  0.45594000000E+02  0.51100000000E-03 0. -1.
         11   -1    0    0    0    0 -0.00000000000E+00 -0.00000000000E+00 -0.45593999997E+02  0.45594000000E+02  0.51100000000E-03 0.  1.
         23    2    1    2    0    0  0.00000000000E+00  0.88817841970E-15 -0.71054273576E-14  0.91188000000E+02  0.91188000000E+02 0.  0.
    9900012    2    3    3    0    0 -0.21810870468E+02  0.61270333999E+01  0.33762562835E+02  0.50528865011E+02  0.30000015687E+02 0.  0.
        -12    1    3    3    0    0  0.21810870468E+02 -0.61270333999E+01 -0.33762562835E+02  0.40659134989E+02  0.00000000000E+00 0.  1.
         11    1    4    4    0    0 -0.13353638169E+02  0.14392867395E+01  0.15741289431E+02  0.20692496028E+02  0.51100000000E-03 0. -1.
        -11    1    4    4    0    0  0.27185056944E+01 -0.70575119583E+01  0.59704625914E+01  0.96356199629E+01  0.51100000000E-03 0.  1.
        -12    1    4    4    0    0 -0.11175737993E+02  0.11745258619E+02  0.12050810813E+02  0.20200749020E+02  0.00000000000E+00 0.  1.
</event>
<event>
 8    1  0.1021894E-011  0.9118800E+02  0.7816164E-02  0.1184000E+00
        -11   -1    0    0    0    0  0.00000000000E+00  0.00000000000E+00  0.45593999997E+02  0.45594000000E+02  0.51100000000E-03 0. -1.
         11   -1    0    0    0    0 -0.00000000000E+00 -0.00000000000E+00 -0.45593999997E+02  0.45594000000E+02  0.51100000000E-03 0.  1.
         23    2    1    2    0    0  0.00000000000E+00 -0.77715611724E-15  0.00000000000E+00  0.91188000000E+02  0.91188000000E+02 0.  0.
    9900012    2    3    3    0    0  0.32588586650E+02  0.70789347452E+00 -0.24303258762E+02  0.50528862288E+02  0.30000007411E+02 0.  0.
         12    1    3    3    0    0 -0.32588586650E+02 -0.70789347452E+00  0.24303258762E+02  0.40659137712E+02  0.00000000000E+00 0. -1.
         11    1    4    4    0    0  0.38873159062E+01  0.11548559371E+01 -0.11564853644E+02  0.12255233872E+02  0.51100000000E-03 0. -1.
        -11    1    4    4    0    0  0.28317632331E+02  0.65200313598E+01 -0.11099119699E+02  0.31106101783E+02  0.51100000000E-03 0.  1.
        -12    1    4    4    0    0  0.38363841253E+00 -0.69669938224E+01 -0.16392854190E+01  0.71675266333E+01  0.00000000000E+00 0.  1.
</event>
<event>
 8    1  0.1021894E-011  0.9118800E+02  0.7816164E-02  0.1184000E+00
        -11   -1    0    0    0    0  0.00000000000E+00  0.00000000000E+00  0.45593999997E+02  0.45594000000E+02  0.51100000000E-03 0. -1.
         11   -1    0    0    0    0 -0.00000000000E+00 -0.00000000000E+00 -0.45593999997E+02  0.45594000000E+02  0.51100000000E-03 0.  1.
         23    2    1    2    0    0  0.00000000000E+00  0.00000000000E+00  0.00000000000E+00  0.91188000000E+02  0.91188000000E+02 0.  0.
    9900012    2    3    3    0    0 -0.15655216861E+02 -0.24523685175E+02  0.28401926922E+02  0.50528850938E+02  0.29999972911E+02 0.  0.
        -12    1    3    3    0    0  0.15655216861E+02  0.24523685175E+02 -0.28401926922E+02  0.40659149062E+02  0.00000000000E+00 0.  1.
         11    1    4    4    0    0  0.62397427573E+01 -0.76578831899E+01  0.13471204363E+02  0.16704817026E+02  0.51100000000E-03 0. -1.
        -11    1    4    4    0    0 -0.79136715764E+01  0.61175037132E+00  0.32410628440E+01  0.85735013242E+01  0.51100000000E-03 0.  1.
         12    1    4    4    0    0 -0.13981288042E+02 -0.17477552356E+02  0.11689659716E+02  0.25250532588E+02  0.00000000000E+00 0. -1.
</event>
<event>
 8    1  0.1021894E-011  0.9118800E+02  0.7816164E-02  0.1184000E+00
        -11   -1    0    0    0    0  0.00000000000E+00  0.00000000000E+00  0.45593999997E+02  0.45594000000E+02  0.51100000000E-03 0.  1.
         11   -1    0    0    0    0 -0.00000000000E+00 -0.00000000000E+00 -0.45593999997E+02  0.45594000000E+02  0.51100000000E-03 0. -1.
         23    2    1    2    0    0 -0.88817841970E-15  0.00000000000E+00  0.00000000000E+00  0.91188000000E+02  0.91188000000E+02 0.  0.
    9900012    2    3    3    0    0 -0.64227867777E+01  0.37190716418E+02 -0.15124952352E+02  0.50528858822E+02  0.29999996875E+02 0.  0.
         12    1    3    3    0    0  0.64227867777E+01 -0.37190716418E+02  0.15124952352E+02  0.40659141178E+02  0.00000000000E+00 0. -1.
         11    1    4    4    0    0 -0.34954236512E+01  0.51833994575E+01 -0.13126943922E+02  0.14539679275E+02  0.51100000000E-03 0. -1.
        -11    1    4    4    0    0  0.24433517072E+01  0.30140275230E+02 -0.19678983741E+01  0.30303115067E+02  0.51100000000E-03 0.  1.
         12    1    4    4    0    0 -0.53707148337E+01  0.18670417312E+01 -0.30110055505E-01  0.56860644796E+01  0.00000000000E+00 0. -1.
</event>
<event>
 8    1  0.1021894E-011  0.9118800E+02  0.7816164E-02  0.1184000E+00
        -11   -1    0    0    0    0  0.00000000000E+00  0.00000000000E+00  0.45593999997E+02  0.45594000000E+02  0.51100000000E-03 0. -1.
         11   -1    0    0    0    0 -0.00000000000E+00 -0.00000000000E+00 -0.45593999997E+02  0.45594000000E+02  0.51100000000E-03 0.  1.
         23    2    1    2    0    0  0.35527136788E-14 -0.88817841970E-15 -0.35527136788E-14  0.91188000000E+02  0.91188000000E+02 0.  0.
    9900012    2    3    3    0    0 -0.31798099892E+02  0.77531272246E+01  0.24123319856E+02  0.50528871882E+02  0.30000036571E+02 0.  0.
        -12    1    3    3    0    0  0.31798099892E+02 -0.77531272246E+01 -0.24123319856E+02  0.40659128118E+02  0.00000000000E+00 0.  1.
         11    1    4    4    0    0 -0.17949670523E+02  0.13807004084E+02  0.38813307513E+01  0.22975829959E+02  0.51100000000E-03 0. -1.
        -11    1    4    4    0    0 -0.93848187857E+00  0.56026125417E+00  0.93491508571E+01  0.94128243859E+01  0.51100000000E-03 0.  1.
         12    1    4    4    0    0 -0.12909947490E+02 -0.66141381135E+01  0.10892838247E+02  0.18140217536E+02  0.00000000000E+00 0. -1.
</event>
<event>
 8    1  0.1021894E-011  0.9118800E+02  0.7816164E-02  0.1184000E+00
        -11   -1    0    0    0    0  0.00000000000E+00  0.00000000000E+00  0.45593999997E+02  0.45594000000E+02  0.51100000000E-03 0. -1.
         11   -1    0    0    0    0 -0.00000000000E+00 -0.00000000000E+00 -0.45593999997E+02  0.45594000000E+02  0.51100000000E-03 0.  1.
         23    2    1    2    0    0  0.35527136788E-14  0.00000000000E+00 -0.35527136788E-14  0.91188000000E+02  0.91188000000E+02 0.  0.
    9900012    2    3    3    0    0 -0.31040090749E+02 -0.88993138134E+01  0.24707869052E+02  0.50528882779E+02  0.30000069696E+02 0.  0.
        -12    1    3    3    0    0  0.31040090749E+02  0.88993138134E+01 -0.24707869052E+02  0.40659117221E+02  0.00000000000E+00 0.  1.
         11    1    4    4    0    0 -0.28351490338E+01  0.76431071622E+01  0.10115097609E+02  0.12991164576E+02  0.51100000000E-03 0. -1.
        -11    1    4    4    0    0 -0.15092659967E+02 -0.14713643708E+02  0.66660108221E+01  0.22106908345E+02  0.51100000000E-03 0.  1.
        -12    1    4    4    0    0 -0.13112281749E+02 -0.18287772679E+01  0.79267606208E+01  0.15430809859E+02  0.00000000000E+00 0.  1.
</event>
<event>
 8    1  0.1021894E-011  0.9118800E+02  0.7816164E-02  0.1184000E+00
        -11   -1    0    0    0    0  0.00000000000E+00  0.00000000000E+00  0.45593999997E+02  0.45594000000E+02  0.51100000000E-03 0. -1.
         11   -1    0    0    0    0 -0.00000000000E+00 -0.00000000000E+00 -0.45593999997E+02  0.45594000000E+02  0.51100000000E-03 0.  1.
         23    2    1    2    0    0  0.44408920985E-15  0.00000000000E+00 -0.35527136788E-14  0.91188000000E+02  0.91188000000E+02 0.  0.
    9900012    2    3    3    0    0 -0.18714381230E+01 -0.33166039179E+02 -0.23445189178E+02  0.50528864113E+02  0.30000012959E+02 0.  0.
         12    1    3    3    0    0  0.18714381230E+01  0.33166039179E+02  0.23445189178E+02  0.40659135887E+02  0.00000000000E+00 0. -1.
         11    1    4    4    0    0 -0.41232949446E+01 -0.29480692633E+02 -0.81013677007E+01  0.30850363988E+02  0.51100000000E-03 0. -1.
        -11    1    4    4    0    0 -0.40843552592E+00  0.36477426502E+01 -0.86607624675E+01  0.94064686680E+01  0.51100000000E-03 0.  1.
         12    1    4    4    0    0  0.26602923476E+01 -0.73330891961E+01 -0.66830590094E+01  0.10272031457E+02  0.00000000000E+00 0. -1.
</event>
<event>
 8    1  0.1021894E-011  0.9118800E+02  0.7816164E-02  0.1184000E+00
        -11   -1    0    0    0    0  0.00000000000E+00  0.00000000000E+00  0.45593999997E+02  0.45594000000E+02  0.51100000000E-03 0. -1.
         11   -1    0    0    0    0 -0.00000000000E+00 -0.00000000000E+00 -0.45593999997E+02  0.45594000000E+02  0.51100000000E-03 0.  1.
         23    2    1    2    0    0  0.00000000000E+00  0.35527136788E-14 -0.71054273576E-14  0.91188000000E+02  0.91188000000E+02 0.  0.
    9900012    2    3    3    0    0 -0.19322625475E+02  0.16939097389E+02 -0.31509837334E+02  0.50528846978E+02  0.29999960875E+02 0.  0.
         12    1    3    3    0    0  0.19322625475E+02 -0.16939097389E+02  0.31509837334E+02  0.40659153022E+02  0.00000000000E+00 0. -1.
         11    1    4    4    0    0  0.35930241559E+00 -0.11271947837E+01 -0.39372753043E+01  0.41111802915E+01  0.51100000000E-03 0. -1.
        -11    1    4    4    0    0 -0.13957819657E+02  0.16183935458E+02 -0.35666490669E+01  0.21667059845E+02  0.51100000000E-03 0.  1.
        -12    1    4    4    0    0 -0.57241082340E+01  0.18823567152E+01 -0.24005912963E+02  0.24750606842E+02  0.00000000000E+00 0.  1.
</event>
<event>
 8    1  0.1021894E-011  0.9118800E+02  0.7816164E-02  0.1184000E+00
        -11   -1    0    0    0    0  0.00000000000E+00  0.00000000000E+00  0.45593999997E+02  0.45594000000E+02  0.51100000000E-03 0. -1.
         11   -1    0    0    0    0 -0.00000000000E+00 -0.00000000000E+00 -0.45593999997E+02  0.45594000000E+02  0.51100000000E-03 0.  1.
         23    2    1    2    0    0  0.00000000000E+00  0.00000000000E+00  0.00000000000E+00  0.91188000000E+02  0.91188000000E+02 0.  0.
    9900012    2    3    3    0    0 -0.11655758415E+02 -0.32369733580E+02  0.21668243463E+02  0.50528817384E+02  0.29999870919E+02 0.  0.
        -12    1    3    3    0    0  0.11655758415E+02  0.32369733580E+02 -0.21668243463E+02  0.40659182616E+02  0.00000000000E+00 0.  1.
         11    1    4    4    0    0 -0.49176709778E+01 -0.15092898694E+02  0.81208086060E+01  0.17830496670E+02  0.51100000000E-03 0. -1.
        -11    1    4    4    0    0 -0.13521008744E+02 -0.33246594109E+01  0.88126737295E+01  0.16478296519E+02  0.51100000000E-03 0.  1.
        -12    1    4    4    0    0  0.67829213062E+01 -0.13952175475E+02  0.47347611273E+01  0.16220024195E+02  0.00000000000E+00 0.  1.
</event>
<event>
 8    1  0.1021894E-011  0.9118800E+02  0.7816164E-02  0.1184000E+00
        -11   -1    0    0    0    0  0.00000000000E+00  0.00000000000E+00  0.45593999997E+02  0.45594000000E+02  0.51100000000E-03 0. -1.
         11   -1    0    0    0    0 -0.00000000000E+00 -0.00000000000E+00 -0.45593999997E+02  0.45594000000E+02  0.51100000000E-03 0.  1.
         23    2    1    2    0    0  0.00000000000E+00  0.00000000000E+00  0.88817841970E-15  0.91188000000E+02  0.91188000000E+02 0.  0.
    9900012    2    3    3    0    0 -0.13680217295E+02 -0.37596479157E+02 -0.72471834212E+01  0.50528865014E+02  0.30000015697E+02 0.  0.
         12    1    3    3    0    0  0.13680217295E+02  0.37596479157E+02  0.72471834212E+01  0.40659134986E+02  0.00000000000E+00 0. -1.
         11    1    4    4    0    0 -0.15471632723E+01  0.27119069541E+01 -0.63417298977E+01  0.70686414448E+01  0.51100000000E-03 0. -1.
        -11    1    4    4    0    0 -0.56958648569E+01 -0.32463221534E+02  0.16326609763E+01  0.32999533496E+02  0.51100000000E-03 0.  1.
        -12    1    4    4    0    0 -0.64371891654E+01 -0.78451645772E+01 -0.25381144998E+01  0.10460690073E+02  0.00000000000E+00 0.  1.
</event>
<event>
 8    1  0.1021894E-011  0.9118800E+02  0.7816164E-02  0.1184000E+00
        -11   -1    0    0    0    0  0.00000000000E+00  0.00000000000E+00  0.45593999997E+02  0.45594000000E+02  0.51100000000E-03 0. -1.
         11   -1    0    0    0    0 -0.00000000000E+00 -0.00000000000E+00 -0.45593999997E+02  0.45594000000E+02  0.51100000000E-03 0.  1.
         23    2    1    2    0    0  0.35527136788E-14  0.00000000000E+00  0.00000000000E+00  0.91188000000E+02  0.91188000000E+02 0.  0.
    9900012    2    3    3    0    0 -0.23311586124E+02 -0.14684587616E+02  0.29901463811E+02  0.50528871884E+02  0.30000036580E+02 0.  0.
        -12    1    3    3    0    0  0.23311586124E+02  0.14684587616E+02 -0.29901463811E+02  0.40659128116E+02  0.00000000000E+00 0.  1.
         11    1    4    4    0    0 -0.15392906671E+02 -0.18548211653E+02  0.32974377134E+02  0.40844672590E+02  0.51100000000E-03 0. -1.
        -11    1    4    4    0    0 -0.14438617822E+01  0.18879176724E+01 -0.11880766926E+01  0.26571594744E+01  0.51100000000E-03 0.  1.
         12    1    4    4    0    0 -0.64748176710E+01  0.19757063645E+01 -0.18848366309E+01  0.70270398203E+01  0.00000000000E+00 0. -1.
</event>
<event>
 8    1  0.1021894E-011  0.9118800E+02  0.7816164E-02  0.1184000E+00
        -11   -1    0    0    0    0  0.00000000000E+00  0.00000000000E+00  0.45593999997E+02  0.45594000000E+02  0.51100000000E-03 0. -1.
         11   -1    0    0    0    0 -0.00000000000E+00 -0.00000000000E+00 -0.45593999997E+02  0.45594000000E+02  0.51100000000E-03 0.  1.
         23    2    1    2    0    0  0.35527136788E-14  0.00000000000E+00  0.00000000000E+00  0.91188000000E+02  0.91188000000E+02 0.  0.
    9900012    2    3    3    0    0 -0.78623417196E+01  0.65056769042E+01  0.39357660466E+02  0.50528859740E+02  0.29999999667E+02 0.  0.
        -12    1    3    3    0    0  0.78623417196E+01 -0.65056769042E+01 -0.39357660466E+02  0.40659140260E+02  0.00000000000E+00 0.  1.
         11    1    4    4    0    0 -0.13555474520E+02  0.34151407312E+01  0.20706626169E+02  0.24983563462E+02  0.51100000000E-03 0. -1.
        -11    1    4    4    0    0  0.71099316908E+01  0.40791349442E+01  0.15315131146E+01  0.83388250504E+01  0.51100000000E-03 0.  1.
        -12    1    4    4    0    0 -0.14167988906E+01 -0.98859877118E+00  0.17119521182E+02  0.17206471228E+02  0.00000000000E+00 0.  1.
</event>
<event>
 8    1  0.1021894E-011  0.9118800E+02  0.7816164E-02  0.1184000E+00
        -11   -1    0    0    0    0  0.00000000000E+00  0.00000000000E+00  0.45593999997E+02  0.45594000000E+02  0.51100000000E-03 0.  1.
         11   -1    0    0    0    0 -0.00000000000E+00 -0.00000000000E+00 -0.45593999997E+02  0.45594000000E+02  0.51100000000E-03 0. -1.
         23    2    1    2    0    0  0.00000000000E+00  0.00000000000E+00  0.00000000000E+00  0.91188000000E+02  0.91188000000E+02 0.  0.
    9900012    2    3    3    0    0  0.87019354844E+01 -0.35095271845E+02 -0.18594738549E+02  0.50528854796E+02  0.29999984637E+02 0.  0.
         12    1    3    3    0    0 -0.87019354844E+01  0.35095271845E+02  0.18594738549E+02  0.40659145204E+02  0.00000000000E+00 0. -1.
         11    1    4    4    0    0  0.98295845520E+01 -0.27717386156E+02 -0.19917352532E+02  0.35518659321E+02  0.51100000000E-03 0. -1.
        -11    1    4    4    0    0  0.26919776680E+01 -0.89504875398E+01  0.39150371156E+01  0.10133384767E+02  0.51100000000E-03 0.  1.
        -12    1    4    4    0    0 -0.38196267356E+01  0.15726018510E+01 -0.25924231321E+01  0.48768107075E+01  0.00000000000E+00 0.  1.
</event>
<event>
 8    1  0.2029220E-011  0.9118800E+02  0.7816164E-02  0.1184000E+00
        -11   -1    0    0    0    0  0.00000000000E+00  0.00000000000E+00  0.45593999997E+02  0.45594000000E+02  0.51100000000E-03 0. -1.
         11   -1    0    0    0    0 -0.00000000000E+00 -0.00000000000E+00 -0.45593999997E+02  0.45594000000E+02  0.51100000000E-03 0.  1.
         23    2    1    2    0    0  0.88817841970E-15  0.17763568394E-14  0.00000000000E+00  0.91188000000E+02  0.91188000000E+02 0.  0.
    9900012    2    3    3    0    0 -0.70222733998E+01  0.14713376575E+02 -0.37247405184E+02  0.50528868591E+02  0.30000026570E+02 0.  0.
         12    1    3    3    0    0  0.70222733998E+01 -0.14713376575E+02  0.37247405184E+02  0.40659131409E+02  0.00000000000E+00 0. -1.
         11    1    4    4    0    0 -0.12351783542E+02  0.26807438571E+00 -0.55393358501E+01  0.13539669954E+02  0.51100000000E-03 0. -1.
        -11    1    4    4    0    0  0.21037350657E+01  0.36435238120E+01 -0.21080764439E+02  0.21496501961E+02  0.51100000000E-03 0.  1.
         12    1    4    4    0    0  0.32257750765E+01  0.10801778377E+02 -0.10627304896E+02  0.15492696676E+02  0.00000000000E+00 0. -1.
</event>
<event>
 8    1  0.1021894E-011  0.9118800E+02  0.7816164E-02  0.1184000E+00
        -11   -1    0    0    0    0  0.00000000000E+00  0.00000000000E+00  0.45593999997E+02  0.45594000000E+02  0.51100000000E-03 0. -1.
         11   -1    0    0    0    0 -0.00000000000E+00 -0.00000000000E+00 -0.45593999997E+02  0.45594000000E+02  0.51100000000E-03 0.  1.
         23    2    1    2    0    0  0.00000000000E+00  0.11102230246E-15  0.35527136788E-14  0.91188000000E+02  0.91188000000E+02 0.  0.
    9900012    2    3    3    0    0 -0.37307063038E+02  0.59116153210E+00 -0.16155532122E+02  0.50528835687E+02  0.29999926554E+02 0.  0.
         12    1    3    3    0    0  0.37307063038E+02 -0.59116153210E+00  0.16155532122E+02  0.40659164313E+02  0.00000000000E+00 0. -1.
         11    1    4    4    0    0 -0.16876479449E+02 -0.50411574912E+00 -0.19048537641E+02  0.25454203539E+02  0.51100000000E-03 0.  1.
        -11    1    4    4    0    0 -0.38420322869E+01 -0.10092328026E+01  0.68251677303E+01  0.78970043530E+01  0.51100000000E-03 0. -1.
        -12    1    4    4    0    0 -0.16588551302E+02  0.21045100839E+01 -0.39321622112E+01  0.17177627795E+02  0.00000000000E+00 0.  1.
</event>
<event>
 8    1  0.1301586E-011  0.9118800E+02  0.7816164E-02  0.1184000E+00
        -11   -1    0    0    0    0  0.00000000000E+00  0.00000000000E+00  0.45593999997E+02  0.45594000000E+02  0.51100000000E-03 0. -1.
         11   -1    0    0    0    0 -0.00000000000E+00 -0.00000000000E+00 -0.45593999997E+02  0.45594000000E+02  0.51100000000E-03 0.  1.
         23    2    1    2    0    0  0.00000000000E+00  0.00000000000E+00  0.00000000000E+00  0.91188000000E+02  0.91188000000E+02 0.  0.
    9900012    2    3    3    0    0 -0.17603296191E+02  0.93526784630E+01 -0.35437498006E+02  0.50528869462E+02  0.30000029216E+02 0.  0.
         12    1    3    3    0    0  0.17603296191E+02 -0.93526784630E+01  0.35437498006E+02  0.40659130538E+02  0.00000000000E+00 0. -1.
         11    1    4    4    0    0 -0.12846667541E+02 -0.91462596290E-01  0.17836355275E+00  0.12848231245E+02  0.51100000000E-03 0. -1.
        -11    1    4    4    0    0 -0.45103870800E+01  0.65624562165E+01 -0.16208202104E+02  0.18058661050E+02  0.51100000000E-03 0.  1.
         12    1    4    4    0    0 -0.24624157006E+00  0.28816848428E+01 -0.19407659454E+02  0.19621977167E+02  0.00000000000E+00 0. -1.
</event>
<event>
 8    1  0.1021894E-011  0.9118800E+02  0.7816164E-02  0.1184000E+00
        -11   -1    0    0    0    0  0.00000000000E+00  0.00000000000E+00  0.45593999997E+02  0.45594000000E+02  0.51100000000E-03 0.  1.
         11   -1    0    0    0    0 -0.00000000000E+00 -0.00000000000E+00 -0.45593999997E+02  0.45594000000E+02  0.51100000000E-03 0. -1.
         23    2    1    2    0    0  0.00000000000E+00 -0.17763568394E-14  0.35527136788E-14  0.91188000000E+02  0.91188000000E+02 0.  0.
    9900012    2    3    3    0    0  0.34622739919E+02 -0.15540446086E+02  0.14591989950E+02  0.50528858903E+02  0.29999997121E+02 0.  0.
        -12    1    3    3    0    0 -0.34622739919E+02  0.15540446086E+02 -0.14591989950E+02  0.40659141097E+02  0.00000000000E+00 0.  1.
         11    1    4    4    0    0  0.10482127644E+01  0.17270989547E+01 -0.63173819747E+01  0.66325663264E+01  0.51100000000E-03 0. -1.
        -11    1    4    4    0    0  0.25905145575E+02 -0.96535590449E+01  0.16702926491E+02  0.32299466297E+02  0.51100000000E-03 0.  1.
         12    1    4    4    0    0  0.76693815799E+01 -0.76139859958E+01  0.42064454343E+01  0.11596826279E+02  0.00000000000E+00 0. -1.
</event>
<event>
 8    1  0.1021894E-011  0.9118800E+02  0.7816164E-02  0.1184000E+00
        -11   -1    0    0    0    0  0.00000000000E+00  0.00000000000E+00  0.45593999997E+02  0.45594000000E+02  0.51100000000E-03 0. -1.
         11   -1    0    0    0    0 -0.00000000000E+00 -0.00000000000E+00 -0.45593999997E+02  0.45594000000E+02  0.51100000000E-03 0.  1.
         23    2    1    2    0    0  0.00000000000E+00  0.35527136788E-14 -0.35527136788E-14  0.91188000000E+02  0.91188000000E+02 0.  0.
    9900012    2    3    3    0    0 -0.22419787996E+02 -0.24479525124E+02  0.23479147649E+02  0.50528875336E+02  0.30000047072E+02 0.  0.
        -12    1    3    3    0    0  0.22419787996E+02  0.24479525124E+02 -0.23479147649E+02  0.40659124664E+02  0.00000000000E+00 0.  1.
         11    1    4    4    0    0 -0.49624147202E+01 -0.21887607773E+02  0.11678502579E+02  0.25299809419E+02  0.51100000000E-03 0. -1.
        -11    1    4    4    0    0 -0.40322768188E+01  0.11403439717E+01  0.10414650549E+02  0.11226067300E+02  0.51100000000E-03 0.  1.
        -12    1    4    4    0    0 -0.13425096457E+02 -0.37322613235E+01  0.13859945211E+01  0.14002998617E+02  0.00000000000E+00 0.  1.
</event>
<event>
 8    1  0.1021894E-011  0.9118800E+02  0.7816164E-02  0.1184000E+00
        -11   -1    0    0    0    0  0.00000000000E+00  0.00000000000E+00  0.45593999997E+02  0.45594000000E+02  0.51100000000E-03 0. -1.
         11   -1    0    0    0    0 -0.00000000000E+00 -0.00000000000E+00 -0.45593999997E+02  0.45594000000E+02  0.51100000000E-03 0.  1.
         23    2    1    2    0    0  0.00000000000E+00 -0.35527136788E-14  0.00000000000E+00  0.91188000000E+02  0.91188000000E+02 0.  0.
    9900012    2    3    3    0    0  0.12245415599E+02  0.24754712813E+02 -0.29839893347E+02  0.50528865177E+02  0.30000016191E+02 0.  0.
         12    1    3    3    0    0 -0.12245415599E+02 -0.24754712813E+02  0.29839893347E+02  0.40659134823E+02  0.00000000000E+00 0. -1.
         11    1    4    4    0    0  0.89030638620E+01  0.12487513818E+02 -0.46899106417E+01  0.16037387866E+02  0.51100000000E-03 0. -1.
        -11    1    4    4    0    0 -0.82554940388E+01  0.42132036386E+01 -0.77395888015E+01  0.12074994899E+02  0.51100000000E-03 0.  1.
        -12    1    4    4    0    0  0.11597845776E+02  0.80539953559E+01 -0.17410393904E+02  0.22416482412E+02  0.00000000000E+00 0.  1.
</event>
<event>
 8    1  0.1021894E-011  0.9118800E+02  0.7816164E-02  0.1184000E+00
        -11   -1    0    0    0    0  0.00000000000E+00  0.00000000000E+00  0.45593999997E+02  0.45594000000E+02  0.51100000000E-03 0. -1.
         11   -1    0    0    0    0 -0.00000000000E+00 -0.00000000000E+00 -0.45593999997E+02  0.45594000000E+02  0.51100000000E-03 0.  1.
         23    2    1    2    0    0  0.00000000000E+00  0.00000000000E+00  0.00000000000E+00  0.91188000000E+02  0.91188000000E+02 0.  0.
    9900012    2    3    3    0    0  0.33296462016E+02  0.62761989188E+01  0.22474889010E+02  0.50528859679E+02  0.29999999481E+02 0.  0.
        -12    1    3    3    0    0 -0.33296462016E+02 -0.62761989188E+01 -0.22474889010E+02  0.40659140321E+02  0.00000000000E+00 0.  1.
         11    1    4    4    0    0  0.27258908006E+02  0.12382123184E+02  0.72658732788E+01  0.30808407212E+02  0.51100000000E-03 0. -1.
        -11    1    4    4    0    0  0.39196282415E+01  0.31253165691E+00  0.11181213833E+02  0.11852455637E+02  0.51100000000E-03 0.  1.
        -12    1    4    4    0    0  0.21179257687E+01 -0.64184559223E+01  0.40278018981E+01  0.78679968301E+01  0.00000000000E+00 0.  1.
</event>
<event>
 8    1  0.1021894E-011  0.9118800E+02  0.7816164E-02  0.1184000E+00
        -11   -1    0    0    0    0  0.00000000000E+00  0.00000000000E+00  0.45593999997E+02  0.45594000000E+02  0.51100000000E-03 0. -1.
         11   -1    0    0    0    0 -0.00000000000E+00 -0.00000000000E+00 -0.45593999997E+02  0.45594000000E+02  0.51100000000E-03 0.  1.
         23    2    1    2    0    0  0.00000000000E+00  0.44408920985E-15  0.00000000000E+00  0.91188000000E+02  0.91188000000E+02 0.  0.
    9900012    2    3    3    0    0  0.24237294846E+02  0.36070577383E+01 -0.32445463181E+02  0.50528863167E+02  0.30000010084E+02 0.  0.
         12    1    3    3    0    0 -0.24237294846E+02 -0.36070577383E+01  0.32445463181E+02  0.40659136833E+02  0.00000000000E+00 0. -1.
         11    1    4    4    0    0  0.23855514293E+02  0.10893088833E+02 -0.28264002380E+02  0.38556436263E+02  0.51100000000E-03 0. -1.
        -11    1    4    4    0    0 -0.40457276269E+01 -0.41258608827E+01 -0.21035179147E+01  0.61494250083E+01  0.51100000000E-03 0.  1.
        -12    1    4    4    0    0  0.44275081791E+01 -0.31601702117E+01 -0.20779428858E+01  0.58230018959E+01  0.00000000000E+00 0.  1.
</event>
<event>
 8    1  0.1021894E-011  0.9118800E+02  0.7816164E-02  0.1184000E+00
        -11   -1    0    0    0    0  0.00000000000E+00  0.00000000000E+00  0.45593999997E+02  0.45594000000E+02  0.51100000000E-03 0. -1.
         11   -1    0    0    0    0 -0.00000000000E+00 -0.00000000000E+00 -0.45593999997E+02  0.45594000000E+02  0.51100000000E-03 0.  1.
         23    2    1    2    0    0  0.35527136788E-14  0.00000000000E+00  0.35527136788E-14  0.91188000000E+02  0.91188000000E+02 0.  0.
    9900012    2    3    3    0    0  0.26188810833E+02  0.25310854129E+02 -0.18074094650E+02  0.50528855309E+02  0.29999986196E+02 0.  0.
         12    1    3    3    0    0 -0.26188810833E+02 -0.25310854129E+02  0.18074094650E+02  0.40659144691E+02  0.00000000000E+00 0. -1.
         11    1    4    4    0    0  0.69210195483E+00  0.89708190988E+01 -0.47498237232E+00  0.90100060452E+01  0.51100000000E-03 0. -1.
        -11    1    4    4    0    0  0.70801015508E+01  0.38626800018E+01 -0.17504619808E+02  0.19273293689E+02  0.51100000000E-03 0.  1.
        -12    1    4    4    0    0  0.18416607328E+02  0.12477355029E+02 -0.94492470138E-01  0.22245555574E+02  0.00000000000E+00 0.  1.
</event>
<event>
 8    1  0.1021894E-011  0.9118800E+02  0.7816164E-02  0.1184000E+00
        -11   -1    0    0    0    0  0.00000000000E+00  0.00000000000E+00  0.45593999997E+02  0.45594000000E+02  0.51100000000E-03 0. -1.
         11   -1    0    0    0    0 -0.00000000000E+00 -0.00000000000E+00 -0.45593999997E+02  0.45594000000E+02  0.51100000000E-03 0.  1.
         23    2    1    2    0    0  0.00000000000E+00  0.00000000000E+00  0.00000000000E+00  0.91188000000E+02  0.91188000000E+02 0.  0.
    9900012    2    3    3    0    0 -0.18675872492E+02  0.27930945131E+02 -0.22896291646E+02  0.50528854898E+02  0.29999984949E+02 0.  0.
         12    1    3    3    0    0  0.18675872492E+02 -0.27930945131E+02  0.22896291646E+02  0.40659145102E+02  0.00000000000E+00 0. -1.
         11    1    4    4    0    0 -0.21149793521E+00  0.16753657081E+02 -0.13355779662E+02  0.21426773150E+02  0.51100000000E-03 0. -1.
        -11    1    4    4    0    0 -0.13586091103E+02  0.31434948938E+01 -0.13021389089E+02  0.19079308312E+02  0.51100000000E-03 0.  1.
         12    1    4    4    0    0 -0.48782834544E+01  0.80337931566E+01  0.34808771049E+01  0.10022773437E+02  0.00000000000E+00 0. -1.
</event>
<event>
 8    1  0.1021894E-011  0.9118800E+02  0.7816164E-02  0.1184000E+00
        -11   -1    0    0    0    0  0.00000000000E+00  0.00000000000E+00  0.45593999997E+02  0.45594000000E+02  0.51100000000E-03 0. -1.
         11   -1    0    0    0    0 -0.00000000000E+00 -0.00000000000E+00 -0.45593999997E+02  0.45594000000E+02  0.51100000000E-03 0.  1.
         23    2    1    2    0    0  0.00000000000E+00  0.17763568394E-14 -0.71054273576E-14  0.91188000000E+02  0.91188000000E+02 0.  0.
    9900012    2    3    3    0    0  0.97997332811E+01 -0.14694411668E+02 -0.36622476506E+02  0.50528852295E+02  0.29999977036E+02 0.  0.
         12    1    3    3    0    0 -0.97997332811E+01  0.14694411668E+02  0.36622476506E+02  0.40659147705E+02  0.00000000000E+00 0. -1.
         11    1    4    4    0    0 -0.53712715029E+01 -0.12055103605E+02 -0.43578174882E+01  0.13898440704E+02  0.51100000000E-03 0. -1.
        -11    1    4    4    0    0  0.89259394100E+01 -0.30991567611E+01 -0.26442666786E+02  0.28080096047E+02  0.51100000000E-03 0.  1.
         12    1    4    4    0    0  0.62450653740E+01  0.45984869840E+00 -0.58219922315E+01  0.85503155436E+01  0.00000000000E+00 0. -1.
</event>
<event>
 8    1  0.1021894E-011  0.9118800E+02  0.7816164E-02  0.1184000E+00
        -11   -1    0    0    0    0  0.00000000000E+00  0.00000000000E+00  0.45593999997E+02  0.45594000000E+02  0.51100000000E-03 0. -1.
         11   -1    0    0    0    0 -0.00000000000E+00 -0.00000000000E+00 -0.45593999997E+02  0.45594000000E+02  0.51100000000E-03 0.  1.
         23    2    1    2    0    0 -0.71054273576E-14  0.17763568394E-14  0.00000000000E+00  0.91188000000E+02  0.91188000000E+02 0.  0.
    9900012    2    3    3    0    0 -0.30774309073E+02  0.13836994629E+02 -0.22685823869E+02  0.50528842066E+02  0.29999945944E+02 0.  0.
         12    1    3    3    0    0  0.30774309073E+02 -0.13836994629E+02  0.22685823869E+02  0.40659157934E+02  0.00000000000E+00 0. -1.
         11    1    4    4    0    0 -0.66477928253E+01 -0.14887080986E+01 -0.35140269198E+01  0.76653627902E+01  0.51100000000E-03 0. -1.
        -11    1    4    4    0    0  0.53321895892E-01  0.53938422424E+01  0.49301689058E+01  0.73077317317E+01  0.51100000000E-03 0.  1.
        -12    1    4    4    0    0 -0.24179838144E+02  0.99318604853E+01 -0.24101965855E+02  0.35555747544E+02  0.00000000000E+00 0.  1.
</event>
<event>
 8    1  0.1021894E-011  0.9118800E+02  0.7816164E-02  0.1184000E+00
        -11   -1    0    0    0    0  0.00000000000E+00  0.00000000000E+00  0.45593999997E+02  0.45594000000E+02  0.51100000000E-03 0. -1.
         11   -1    0    0    0    0 -0.00000000000E+00 -0.00000000000E+00 -0.45593999997E+02  0.45594000000E+02  0.51100000000E-03 0.  1.
         23    2    1    2    0    0  0.44408920985E-15 -0.35527136788E-14  0.00000000000E+00  0.91188000000E+02  0.91188000000E+02 0.  0.
    9900012    2    3    3    0    0  0.14541828503E+01 -0.22866688188E+02  0.33588180568E+02  0.50528856498E+02  0.29999989811E+02 0.  0.
        -12    1    3    3    0    0 -0.14541828503E+01  0.22866688188E+02 -0.33588180568E+02  0.40659143502E+02  0.00000000000E+00 0.  1.
         11    1    4    4    0    0 -0.66882862726E+01 -0.15946846662E+02  0.14078223892E+02  0.22298687852E+02  0.51100000000E-03 0. -1.
        -11    1    4    4    0    0  0.13563113390E+02 -0.62362520940E+01  0.14703099122E+02  0.20953042954E+02  0.51100000000E-03 0.  1.
        -12    1    4    4    0    0 -0.54206442671E+01 -0.68358943262E+00  0.48068575538E+01  0.72771256912E+01  0.00000000000E+00 0.  1.
</event>
<event>
 8    1  0.1021894E-011  0.9118800E+02  0.7816164E-02  0.1184000E+00
        -11   -1    0    0    0    0  0.00000000000E+00  0.00000000000E+00  0.45593999997E+02  0.45594000000E+02  0.51100000000E-03 0. -1.
         11   -1    0    0    0    0 -0.00000000000E+00 -0.00000000000E+00 -0.45593999997E+02  0.45594000000E+02  0.51100000000E-03 0.  1.
         23    2    1    2    0    0  0.00000000000E+00  0.00000000000E+00  0.00000000000E+00  0.91188000000E+02  0.91188000000E+02 0.  0.
    9900012    2    3    3    0    0 -0.30376943450E+02  0.12807024263E+02 -0.23798903986E+02  0.50528851032E+02  0.29999973198E+02 0.  0.
         12    1    3    3    0    0  0.30376943450E+02 -0.12807024263E+02  0.23798903986E+02  0.40659148968E+02  0.00000000000E+00 0. -1.
         11    1    4    4    0    0 -0.36200068445E+01  0.46550034280E+01  0.39324343714E+01  0.70878450050E+01  0.51100000000E-03 0. -1.
        -11    1    4    4    0    0 -0.29249085068E+02  0.72723207417E+01 -0.22609061973E+02  0.37677119182E+02  0.51100000000E-03 0.  1.
        -12    1    4    4    0    0  0.24921484624E+01  0.87970009362E+00 -0.51222763841E+01  0.57638868456E+01  0.00000000000E+00 0.  1.
</event>
<event>
 8    1  0.1021894E-011  0.9118800E+02  0.7816164E-02  0.1184000E+00
        -11   -1    0    0    0    0  0.00000000000E+00  0.00000000000E+00  0.45593999997E+02  0.45594000000E+02  0.51100000000E-03 0. -1.
         11   -1    0    0    0    0 -0.00000000000E+00 -0.00000000000E+00 -0.45593999997E+02  0.45594000000E+02  0.51100000000E-03 0.  1.
         23    2    1    2    0    0  0.17763568394E-14  0.00000000000E+00  0.00000000000E+00  0.91188000000E+02  0.91188000000E+02 0.  0.
    9900012    2    3    3    0    0  0.14586385746E+02  0.36569454466E+02  0.10152731264E+02  0.50528860792E+02  0.30000002862E+02 0.  0.
        -12    1    3    3    0    0 -0.14586385746E+02 -0.36569454466E+02 -0.10152731264E+02  0.40659139208E+02  0.00000000000E+00 0.  1.
         11    1    4    4    0    0  0.14117737665E+02  0.67732697387E+01  0.35300100489E+01  0.16051438283E+02  0.51100000000E-03 0. -1.
        -11    1    4    4    0    0 -0.26892933875E+01  0.30197253270E+02  0.73867864542E+01  0.31203701998E+02  0.51100000000E-03 0.  1.
        -12    1    4    4    0    0  0.31579414680E+01 -0.40106854345E+00 -0.76406523948E+00  0.32737205107E+01  0.00000000000E+00 0.  1.
</event>
<event>
 8    1  0.1021894E-011  0.9118800E+02  0.7816164E-02  0.1184000E+00
        -11   -1    0    0    0    0  0.00000000000E+00  0.00000000000E+00  0.45593999997E+02  0.45594000000E+02  0.51100000000E-03 0. -1.
         11   -1    0    0    0    0 -0.00000000000E+00 -0.00000000000E+00 -0.45593999997E+02  0.45594000000E+02  0.51100000000E-03 0.  1.
         23    2    1    2    0    0  0.71054273576E-14 -0.13877787808E-14 -0.35527136788E-14  0.91188000000E+02  0.91188000000E+02 0.  0.
    9900012    2    3    3    0    0  0.30796404801E+02  0.12812998220E+00 -0.26546764730E+02  0.50528859778E+02  0.29999999781E+02 0.  0.
         12    1    3    3    0    0 -0.30796404801E+02 -0.12812998220E+00  0.26546764730E+02  0.40659140222E+02  0.00000000000E+00 0. -1.
         11    1    4    4    0    0  0.10549690399E+02  0.81487275623E+01 -0.10403242711E+00  0.13330737092E+02  0.51100000000E-03 0. -1.
        -11    1    4    4    0    0  0.11597313156E+02 -0.63481992783E+01 -0.52104760631E+01  0.14210783496E+02  0.51100000000E-03 0.  1.
         12    1    4    4    0    0  0.86494012463E+01 -0.16723983018E+01 -0.21232256240E+02  0.22987339190E+02  0.00000000000E+00 0. -1.
</event>
<event>
 8    1  0.1021894E-011  0.9118800E+02  0.7816164E-02  0.1184000E+00
        -11   -1    0    0    0    0  0.00000000000E+00  0.00000000000E+00  0.45593999997E+02  0.45594000000E+02  0.51100000000E-03 0. -1.
         11   -1    0    0    0    0 -0.00000000000E+00 -0.00000000000E+00 -0.45593999997E+02  0.45594000000E+02  0.51100000000E-03 0.  1.
         23    2    1    2    0    0  0.71054273576E-14  0.35527136788E-14 -0.35527136788E-14  0.91188000000E+02  0.91188000000E+02 0.  0.
    9900012    2    3    3    0    0 -0.23273304222E+02 -0.11458066664E+02  0.31308654267E+02  0.50528858186E+02  0.29999994941E+02 0.  0.
        -12    1    3    3    0    0  0.23273304222E+02  0.11458066664E+02 -0.31308654267E+02  0.40659141814E+02  0.00000000000E+00 0.  1.
         11    1    4    4    0    0  0.35856597157E+01 -0.25113543504E+01  0.61823075669E+01  0.75752744758E+01  0.51100000000E-03 0.  1.
        -11    1    4    4    0    0 -0.26200720998E+02 -0.10165010410E+02  0.28057485480E+02  0.39711808183E+02  0.51100000000E-03 0. -1.
         12    1    4    4    0    0 -0.65824293989E+00  0.12182980960E+01 -0.29311387804E+01  0.32417755272E+01  0.00000000000E+00 0. -1.
</event>
<event>
 8    1  0.1021894E-011  0.9118800E+02  0.7816164E-02  0.1184000E+00
        -11   -1    0    0    0    0  0.00000000000E+00  0.00000000000E+00  0.45593999997E+02  0.45594000000E+02  0.51100000000E-03 0.  1.
         11   -1    0    0    0    0 -0.00000000000E+00 -0.00000000000E+00 -0.45593999997E+02  0.45594000000E+02  0.51100000000E-03 0. -1.
         23    2    1    2    0    0  0.00000000000E+00  0.00000000000E+00  0.88817841970E-15  0.91188000000E+02  0.91188000000E+02 0.  0.
    9900012    2    3    3    0    0  0.38252891982E+02  0.13521300845E+02 -0.26560836867E+01  0.50528879227E+02  0.30000058898E+02 0.  0.
        -12    1    3    3    0    0 -0.38252891982E+02 -0.13521300845E+02  0.26560836867E+01  0.40659120773E+02  0.00000000000E+00 0.  1.
         11    1    4    4    0    0  0.88346765233E+01  0.83443047176E+01  0.22668222263E+01  0.12361934062E+02  0.51100000000E-03 0. -1.
        -11    1    4    4    0    0  0.27511437132E+02 -0.27348381703E+01 -0.89859759603E+01  0.29070711672E+02  0.51100000000E-03 0.  1.
        -12    1    4    4    0    0  0.19067783260E+01  0.79118342978E+01  0.40630700472E+01  0.90962334924E+01  0.00000000000E+00 0.  1.
</event>
<event>
 8    1  0.1021894E-011  0.9118800E+02  0.7816164E-02  0.1184000E+00
        -11   -1    0    0    0    0  0.00000000000E+00  0.00000000000E+00  0.45593999997E+02  0.45594000000E+02  0.51100000000E-03 0.  1.
         11   -1    0    0    0    0 -0.00000000000E+00 -0.00000000000E+00 -0.45593999997E+02  0.45594000000E+02  0.51100000000E-03 0. -1.
         23    2    1    2    0    0  0.71054273576E-14  0.00000000000E+00 -0.44408920985E-15  0.91188000000E+02  0.91188000000E+02 0.  0.
    9900012    2    3    3    0    0 -0.35499071953E+02 -0.19792185430E+02  0.11184333429E+01  0.50528860723E+02  0.30000002652E+02 0.  0.
         12    1    3    3    0    0  0.35499071953E+02  0.19792185430E+02 -0.11184333429E+01  0.40659139277E+02  0.00000000000E+00 0. -1.
         11    1    4    4    0    0 -0.96909461403E+01 -0.10754777819E+01  0.77230505788E+01  0.12438512775E+02  0.51100000000E-03 0. -1.
        -11    1    4    4    0    0 -0.17723163721E+02 -0.15758155489E+02 -0.13294187083E+02  0.27187596568E+02  0.51100000000E-03 0.  1.
        -12    1    4    4    0    0 -0.80849620921E+01 -0.29585521599E+01  0.66895698467E+01  0.10902751380E+02  0.00000000000E+00 0.  1.
</event>
<event>
 8    1  0.1021894E-011  0.9118800E+02  0.7816164E-02  0.1184000E+00
        -11   -1    0    0    0    0  0.00000000000E+00  0.00000000000E+00  0.45593999997E+02  0.45594000000E+02  0.51100000000E-03 0. -1.
         11   -1    0    0    0    0 -0.00000000000E+00 -0.00000000000E+00 -0.45593999997E+02  0.45594000000E+02  0.51100000000E-03 0.  1.
         23    2    1    2    0    0  0.35527136788E-14 -0.13322676296E-14  0.00000000000E+00  0.91188000000E+02  0.91188000000E+02 0.  0.
    9900012    2    3    3    0    0  0.16058538090E+02  0.20824217026E+01  0.37295435044E+02  0.50528897688E+02  0.30000115011E+02 0.  0.
        -12    1    3    3    0    0 -0.16058538090E+02 -0.20824217026E+01 -0.37295435044E+02  0.40659102312E+02  0.00000000000E+00 0.  1.
         11    1    4    4    0    0  0.18278324374E+01 -0.10955987425E+02  0.25299393166E+02  0.27630308118E+02  0.51100000000E-03 0. -1.
        -11    1    4    4    0    0  0.13278817496E+02  0.11112712779E+02  0.10183029881E+02  0.20087644890E+02  0.51100000000E-03 0.  1.
         12    1    4    4    0    0  0.95188815583E+00  0.19256963491E+01  0.18130119970E+01  0.28109446795E+01  0.00000000000E+00 0. -1.
</event>
<event>
 8    1  0.1021894E-011  0.9118800E+02  0.7816164E-02  0.1184000E+00
        -11   -1    0    0    0    0  0.00000000000E+00  0.00000000000E+00  0.45593999997E+02  0.45594000000E+02  0.51100000000E-03 0. -1.
         11   -1    0    0    0    0 -0.00000000000E+00 -0.00000000000E+00 -0.45593999997E+02  0.45594000000E+02  0.51100000000E-03 0.  1.
         23    2    1    2    0    0  0.17763568394E-14  0.17763568394E-14  0.00000000000E+00  0.91188000000E+02  0.91188000000E+02 0.  0.
    9900012    2    3    3    0    0 -0.12821721567E+02  0.12530495549E+02  0.36493232677E+02  0.50528857192E+02  0.29999991921E+02 0.  0.
        -12    1    3    3    0    0  0.12821721567E+02 -0.12530495549E+02 -0.36493232677E+02  0.40659142808E+02  0.00000000000E+00 0.  1.
         11    1    4    4    0    0 -0.17930095318E+02  0.12534710717E+02  0.22520929118E+02  0.31397444792E+02  0.51100000000E-03 0. -1.
        -11    1    4    4    0    0  0.86609793623E+01  0.18553575867E+01  0.11090312923E+02  0.14193306742E+02  0.51100000000E-03 0.  1.
        -12    1    4    4    0    0 -0.35526056111E+01 -0.18595727545E+01  0.28819906362E+01  0.49381056575E+01  0.00000000000E+00 0.  1.
</event>
<event>
 8    1  0.1021894E-011  0.9118800E+02  0.7816164E-02  0.1184000E+00
        -11   -1    0    0    0    0  0.00000000000E+00  0.00000000000E+00  0.45593999997E+02  0.45594000000E+02  0.51100000000E-03 0. -1.
         11   -1    0    0    0    0 -0.00000000000E+00 -0.00000000000E+00 -0.45593999997E+02  0.45594000000E+02  0.51100000000E-03 0.  1.
         23    2    1    2    0    0  0.00000000000E+00 -0.17763568394E-14  0.00000000000E+00  0.91188000000E+02  0.91188000000E+02 0.  0.
    9900012    2    3    3    0    0 -0.22091613759E+02  0.14301389458E+02 -0.30993479760E+02  0.50528869087E+02  0.30000028078E+02 0.  0.
         12    1    3    3    0    0  0.22091613759E+02 -0.14301389458E+02  0.30993479760E+02  0.40659130913E+02  0.00000000000E+00 0. -1.
         11    1    4    4    0    0 -0.85404709997E+01  0.88104213559E+01  0.16146956605E+01  0.12376203445E+02  0.51100000000E-03 0. -1.
        -11    1    4    4    0    0 -0.85927568490E+01 -0.31501347829E+01 -0.10663321172E+02  0.14052232495E+02  0.51100000000E-03 0.  1.
         12    1    4    4    0    0 -0.49583859107E+01  0.86411028850E+01 -0.21944854248E+02  0.24100433147E+02  0.00000000000E+00 0. -1.
</event>
<event>
 8    1  0.1021894E-011  0.9118800E+02  0.7816164E-02  0.1184000E+00
        -11   -1    0    0    0    0  0.00000000000E+00  0.00000000000E+00  0.45593999997E+02  0.45594000000E+02  0.51100000000E-03 0. -1.
         11   -1    0    0    0    0 -0.00000000000E+00 -0.00000000000E+00 -0.45593999997E+02  0.45594000000E+02  0.51100000000E-03 0.  1.
         23    2    1    2    0    0 -0.14432899320E-14  0.00000000000E+00  0.00000000000E+00  0.91188000000E+02  0.91188000000E+02 0.  0.
    9900012    2    3    3    0    0  0.58050371220E+00 -0.34814945031E+01 -0.40505651470E+02  0.50528860934E+02  0.30000003296E+02 0.  0.
         12    1    3    3    0    0 -0.58050371220E+00  0.34814945031E+01  0.40505651470E+02  0.40659139066E+02  0.00000000000E+00 0. -1.
         11    1    4    4    0    0 -0.34982389413E-01 -0.19708641675E+01  0.10247752793E+01  0.22216421783E+01  0.51100000000E-03 0. -1.
        -11    1    4    4    0    0  0.11554054218E+02 -0.17198713674E+01 -0.30976502173E+02  0.33105857692E+02  0.51100000000E-03 0.  1.
        -12    1    4    4    0    0 -0.10938568116E+02  0.20924103181E+00 -0.10553924576E+02  0.15201361064E+02  0.00000000000E+00 0.  1.
</event>
<event>
 8    1  0.1021894E-011  0.9118800E+02  0.7816164E-02  0.1184000E+00
        -11   -1    0    0    0    0  0.00000000000E+00  0.00000000000E+00  0.45593999997E+02  0.45594000000E+02  0.51100000000E-03 0. -1.
         11   -1    0    0    0    0 -0.00000000000E+00 -0.00000000000E+00 -0.45593999997E+02  0.45594000000E+02  0.51100000000E-03 0.  1.
         23    2    1    2    0    0 -0.35527136788E-14  0.17763568394E-14  0.71054273576E-14  0.91188000000E+02  0.91188000000E+02 0.  0.
    9900012    2    3    3    0    0 -0.16181258276E+02  0.95808117741E+01  0.36049143158E+02  0.50528858395E+02  0.29999995576E+02 0.  0.
        -12    1    3    3    0    0  0.16181258276E+02 -0.95808117741E+01 -0.36049143158E+02  0.40659141605E+02  0.00000000000E+00 0.  1.
         11    1    4    4    0    0  0.45209703280E+01 -0.52745355530E+01  0.12228475357E+02  0.14063979089E+02  0.51100000000E-03 0. -1.
        -11    1    4    4    0    0 -0.20110177365E+02  0.11152397335E+02  0.16709002029E+02  0.28425093651E+02  0.51100000000E-03 0.  1.
        -12    1    4    4    0    0 -0.59205123839E+00  0.37029499919E+01  0.71116657730E+01  0.80397856550E+01  0.00000000000E+00 0.  1.
</event>
<event>
 8    1  0.1021894E-011  0.9118800E+02  0.7816164E-02  0.1184000E+00
        -11   -1    0    0    0    0  0.00000000000E+00  0.00000000000E+00  0.45593999997E+02  0.45594000000E+02  0.51100000000E-03 0. -1.
         11   -1    0    0    0    0 -0.00000000000E+00 -0.00000000000E+00 -0.45593999997E+02  0.45594000000E+02  0.51100000000E-03 0.  1.
         23    2    1    2    0    0  0.35527136788E-14 -0.35527136788E-14  0.00000000000E+00  0.91188000000E+02  0.91188000000E+02 0.  0.
    9900012    2    3    3    0    0  0.16868016542E+02 -0.23476990092E+02  0.28591368797E+02  0.50528863075E+02  0.30000009801E+02 0.  0.
        -12    1    3    3    0    0 -0.16868016542E+02  0.23476990092E+02 -0.28591368797E+02  0.40659136925E+02  0.00000000000E+00 0.  1.
         11    1    4    4    0    0  0.62896041247E+01  0.27648558659E+01  0.16433296947E+02  0.17811703928E+02  0.51100000000E-03 0. -1.
        -11    1    4    4    0    0  0.73435026585E+01 -0.97300016804E+01  0.41217157520E+00  0.12197124647E+02  0.51100000000E-03 0.  1.
        -12    1    4    4    0    0  0.32349097591E+01 -0.16511844277E+02  0.11745900275E+02  0.20520034499E+02  0.00000000000E+00 0.  1.
</event>
<event>
 8    1  0.1021894E-011  0.9118800E+02  0.7816164E-02  0.1184000E+00
        -11   -1    0    0    0    0  0.00000000000E+00  0.00000000000E+00  0.45593999997E+02  0.45594000000E+02  0.51100000000E-03 0. -1.
         11   -1    0    0    0    0 -0.00000000000E+00 -0.00000000000E+00 -0.45593999997E+02  0.45594000000E+02  0.51100000000E-03 0.  1.
         23    2    1    2    0    0 -0.17763568394E-14  0.00000000000E+00  0.35527136788E-14  0.91188000000E+02  0.91188000000E+02 0.  0.
    9900012    2    3    3    0    0 -0.13056821446E+02 -0.28611721101E+02  0.25769284986E+02  0.50528840892E+02  0.29999942377E+02 0.  0.
        -12    1    3    3    0    0  0.13056821446E+02  0.28611721101E+02 -0.25769284986E+02  0.40659159108E+02  0.00000000000E+00 0.  1.
         11    1    4    4    0    0 -0.76752570032E+00 -0.25422109779E+02  0.76678732029E+01  0.26564431879E+02  0.51100000000E-03 0. -1.
        -11    1    4    4    0    0 -0.70916381410E+01 -0.96726578797E+00  0.28583754056E+01  0.77069608049E+01  0.51100000000E-03 0.  1.
         12    1    4    4    0    0 -0.51976576042E+01 -0.22223455339E+01  0.15243036378E+02  0.16257448209E+02  0.00000000000E+00 0. -1.
</event>
<event>
 8    1  0.1021894E-011  0.9118800E+02  0.7816164E-02  0.1184000E+00
        -11   -1    0    0    0    0  0.00000000000E+00  0.00000000000E+00  0.45593999997E+02  0.45594000000E+02  0.51100000000E-03 0. -1.
         11   -1    0    0    0    0 -0.00000000000E+00 -0.00000000000E+00 -0.45593999997E+02  0.45594000000E+02  0.51100000000E-03 0.  1.
         23    2    1    2    0    0 -0.17763568394E-14  0.00000000000E+00  0.00000000000E+00  0.91188000000E+02  0.91188000000E+02 0.  0.
    9900012    2    3    3    0    0  0.14982584466E+02 -0.28425919104E+02  0.24912945122E+02  0.50528861435E+02  0.30000004817E+02 0.  0.
        -12    1    3    3    0    0 -0.14982584466E+02  0.28425919104E+02 -0.24912945122E+02  0.40659138565E+02  0.00000000000E+00 0.  1.
         11    1    4    4    0    0 -0.30054416721E+01 -0.18959830044E+02  0.15818910335E+02  0.24874600688E+02  0.51100000000E-03 0. -1.
        -11    1    4    4    0    0  0.18203875598E+02 -0.78481003317E+01  0.11370498894E+02  0.22853052553E+02  0.51100000000E-03 0.  1.
        -12    1    4    4    0    0 -0.21584945971E+00 -0.16179887291E+01 -0.22764641074E+01  0.28012081945E+01  0.00000000000E+00 0.  1.
</event>
<event>
 8    1  0.1021894E-011  0.9118800E+02  0.7816164E-02  0.1184000E+00
        -11   -1    0    0    0    0  0.00000000000E+00  0.00000000000E+00  0.45593999997E+02  0.45594000000E+02  0.51100000000E-03 0. -1.
         11   -1    0    0    0    0 -0.00000000000E+00 -0.00000000000E+00 -0.45593999997E+02  0.45594000000E+02  0.51100000000E-03 0.  1.
         23    2    1    2    0    0  0.00000000000E+00  0.00000000000E+00  0.00000000000E+00  0.91188000000E+02  0.91188000000E+02 0.  0.
    9900012    2    3    3    0    0 -0.36894459898E+02  0.11563060203E+02  0.12580092000E+02  0.50528877442E+02  0.30000053474E+02 0.  0.
        -12    1    3    3    0    0  0.36894459898E+02 -0.11563060203E+02 -0.12580092000E+02  0.40659122558E+02  0.00000000000E+00 0.  1.
         11    1    4    4    0    0 -0.23564111737E+02  0.61000043944E+01  0.20356497907E+02  0.31731127034E+02  0.51100000000E-03 0. -1.
        -11    1    4    4    0    0 -0.52069050969E+00 -0.70754611893E+00 -0.39875369985E+01  0.40831595233E+01  0.51100000000E-03 0.  1.
         12    1    4    4    0    0 -0.12809657651E+02  0.61706019279E+01 -0.37888689086E+01  0.14714590885E+02  0.00000000000E+00 0. -1.
</event>
<event>
 8    1  0.1021894E-011  0.9118800E+02  0.7816164E-02  0.1184000E+00
        -11   -1    0    0    0    0  0.00000000000E+00  0.00000000000E+00  0.45593999997E+02  0.45594000000E+02  0.51100000000E-03 0. -1.
         11   -1    0    0    0    0 -0.00000000000E+00 -0.00000000000E+00 -0.45593999997E+02  0.45594000000E+02  0.51100000000E-03 0.  1.
         23    2    1    2    0    0  0.00000000000E+00  0.00000000000E+00 -0.35527136788E-14  0.91188000000E+02  0.91188000000E+02 0.  0.
    9900012    2    3    3    0    0 -0.20672691733E+02 -0.19522895507E+02  0.29062883914E+02  0.50528992955E+02  0.30000404585E+02 0.  0.
        -12    1    3    3    0    0  0.20672691733E+02  0.19522895507E+02 -0.29062883914E+02  0.40659007045E+02  0.00000000000E+00 0.  1.
         11    1    4    4    0    0 -0.62492759945E+01 -0.17274336603E+02  0.28387267194E+01  0.18588021013E+02  0.51100000000E-03 0. -1.
        -11    1    4    4    0    0 -0.75202751751E+01  0.11226853046E+01  0.43567396961E+01  0.87633408038E+01  0.51100000000E-03 0.  1.
         12    1    4    4    0    0 -0.69031405635E+01 -0.33712442081E+01  0.21867417498E+02  0.23177631139E+02  0.00000000000E+00 0. -1.
</event>
<event>
 8    1  0.1021894E-011  0.9118800E+02  0.7816164E-02  0.1184000E+00
        -11   -1    0    0    0    0  0.00000000000E+00  0.00000000000E+00  0.45593999997E+02  0.45594000000E+02  0.51100000000E-03 0. -1.
         11   -1    0    0    0    0 -0.00000000000E+00 -0.00000000000E+00 -0.45593999997E+02  0.45594000000E+02  0.51100000000E-03 0.  1.
         23    2    1    2    0    0 -0.71054273576E-14  0.00000000000E+00  0.00000000000E+00  0.91188000000E+02  0.91188000000E+02 0.  0.
    9900012    2    3    3    0    0 -0.36237872414E+02  0.54548178770E+01  0.17613276269E+02  0.50528856673E+02  0.29999990343E+02 0.  0.
        -12    1    3    3    0    0  0.36237872414E+02 -0.54548178770E+01 -0.17613276269E+02  0.40659143327E+02  0.00000000000E+00 0.  1.
         11    1    4    4    0    0 -0.19845929134E+02  0.11935750763E+02  0.21220530699E+02  0.31410730219E+02  0.51100000000E-03 0. -1.
        -11    1    4    4    0    0 -0.11217163536E+01 -0.27349940599E+01  0.12325144563E+00  0.29586536238E+01  0.51100000000E-03 0.  1.
         12    1    4    4    0    0 -0.15270226926E+02 -0.37459388263E+01 -0.37305058752E+01  0.16159472830E+02  0.00000000000E+00 0. -1.
</event>
<event>
 8    1  0.1021894E-011  0.9118800E+02  0.7816164E-02  0.1184000E+00
        -11   -1    0    0    0    0  0.00000000000E+00  0.00000000000E+00  0.45593999997E+02  0.45594000000E+02  0.51100000000E-03 0. -1.
         11   -1    0    0    0    0 -0.00000000000E+00 -0.00000000000E+00 -0.45593999997E+02  0.45594000000E+02  0.51100000000E-03 0.  1.
         23    2    1    2    0    0  0.00000000000E+00  0.22204460493E-15 -0.17763568394E-14  0.91188000000E+02  0.91188000000E+02 0.  0.
    9900012    2    3    3    0    0 -0.39835255464E+02 -0.10761017432E+01  0.80721895063E+01  0.50528858147E+02  0.29999994822E+02 0.  0.
        -12    1    3    3    0    0  0.39835255464E+02  0.10761017432E+01 -0.80721895063E+01  0.40659141853E+02  0.00000000000E+00 0.  1.
         11    1    4    4    0    0 -0.95275784864E+01  0.36503013502E+01  0.10813389293E+02  0.14867038711E+02  0.51100000000E-03 0. -1.
        -11    1    4    4    0    0 -0.21370932340E+02 -0.11564251177E+02 -0.21383808417E+01  0.24393058998E+02  0.51100000000E-03 0.  1.
        -12    1    4    4    0    0 -0.89367446371E+01  0.68378480840E+01 -0.60281894511E+00  0.11268760438E+02  0.00000000000E+00 0.  1.
</event>
<event>
 8    1  0.1398998E-011  0.9118800E+02  0.7816164E-02  0.1184000E+00
        -11   -1    0    0    0    0  0.00000000000E+00  0.00000000000E+00  0.45593999997E+02  0.45594000000E+02  0.51100000000E-03 0. -1.
         11   -1    0    0    0    0 -0.00000000000E+00 -0.00000000000E+00 -0.45593999997E+02  0.45594000000E+02  0.51100000000E-03 0.  1.
         23    2    1    2    0    0 -0.22204460493E-15  0.00000000000E+00  0.35527136788E-14  0.91188000000E+02  0.91188000000E+02 0.  0.
    9900012    2    3    3    0    0 -0.53217168788E+00  0.33546722609E+02 -0.22967394322E+02  0.50528843510E+02  0.29999950334E+02 0.  0.
         12    1    3    3    0    0  0.53217168788E+00 -0.33546722609E+02  0.22967394322E+02  0.40659156490E+02  0.00000000000E+00 0. -1.
         11    1    4    4    0    0 -0.45923165208E+01 -0.17296346513E+01 -0.18946552248E+00  0.49108965067E+01  0.51100000000E-03 0. -1.
        -11    1    4    4    0    0 -0.26033690763E+01  0.22953352512E+02 -0.21487982339E+02  0.31549442267E+02  0.51100000000E-03 0.  1.
         12    1    4    4    0    0  0.66635139092E+01  0.12323004749E+02 -0.12899464601E+01  0.14068504737E+02  0.00000000000E+00 0. -1.
</event>
<event>
 8    1  0.1021894E-011  0.9118800E+02  0.7816164E-02  0.1184000E+00
        -11   -1    0    0    0    0  0.00000000000E+00  0.00000000000E+00  0.45593999997E+02  0.45594000000E+02  0.51100000000E-03 0. -1.
         11   -1    0    0    0    0 -0.00000000000E+00 -0.00000000000E+00 -0.45593999997E+02  0.45594000000E+02  0.51100000000E-03 0.  1.
         23    2    1    2    0    0 -0.35527136788E-14  0.00000000000E+00  0.35527136788E-14  0.91188000000E+02  0.91188000000E+02 0.  0.
    9900012    2    3    3    0    0  0.24720579063E+02  0.18182788078E+02 -0.26672923657E+02  0.50528859971E+02  0.30000000367E+02 0.  0.
         12    1    3    3    0    0 -0.24720579063E+02 -0.18182788078E+02  0.26672923657E+02  0.40659140029E+02  0.00000000000E+00 0. -1.
         11    1    4    4    0    0  0.15331521364E+02  0.11196045783E+02  0.37838857573E+00  0.18988158591E+02  0.51100000000E-03 0. -1.
        -11    1    4    4    0    0  0.44375994051E+01  0.71098211736E+00 -0.21103769785E+02  0.21576998944E+02  0.51100000000E-03 0.  1.
        -12    1    4    4    0    0  0.49514582945E+01  0.62757601774E+01 -0.59475424483E+01  0.99637024354E+01  0.00000000000E+00 0.  1.
</event>
<event>
 8    1  0.1021894E-011  0.9118800E+02  0.7816164E-02  0.1184000E+00
        -11   -1    0    0    0    0  0.00000000000E+00  0.00000000000E+00  0.45593999997E+02  0.45594000000E+02  0.51100000000E-03 0. -1.
         11   -1    0    0    0    0 -0.00000000000E+00 -0.00000000000E+00 -0.45593999997E+02  0.45594000000E+02  0.51100000000E-03 0.  1.
         23    2    1    2    0    0 -0.77715611724E-15 -0.88817841970E-15  0.00000000000E+00  0.91188000000E+02  0.91188000000E+02 0.  0.
    9900012    2    3    3    0    0  0.86389657730E+00 -0.57023593479E+01  0.40248012650E+02  0.50528859063E+02  0.29999997609E+02 0.  0.
        -12    1    3    3    0    0 -0.86389657730E+00  0.57023593479E+01 -0.40248012650E+02  0.40659140937E+02  0.00000000000E+00 0.  1.
         11    1    4    4    0    0 -0.10384940049E+02 -0.11163645705E+02  0.25935153545E+02  0.30084982216E+02  0.51100000000E-03 0. -1.
        -11    1    4    4    0    0  0.39723228099E+01  0.10410177529E+01  0.39100500854E+00  0.41250395932E+01  0.51100000000E-03 0.  1.
         12    1    4    4    0    0  0.72765138166E+01  0.44202686045E+01  0.13921854097E+02  0.16318837255E+02  0.00000000000E+00 0. -1.
</event>
<event>
 8    1  0.1021894E-011  0.9118800E+02  0.7816164E-02  0.1184000E+00
        -11   -1    0    0    0    0  0.00000000000E+00  0.00000000000E+00  0.45593999997E+02  0.45594000000E+02  0.51100000000E-03 0. -1.
         11   -1    0    0    0    0 -0.00000000000E+00 -0.00000000000E+00 -0.45593999997E+02  0.45594000000E+02  0.51100000000E-03 0.  1.
         23    2    1    2    0    0  0.17763568394E-14  0.00000000000E+00 -0.35527136788E-14  0.91188000000E+02  0.91188000000E+02 0.  0.
    9900012    2    3    3    0    0 -0.82615948854E+01 -0.28945843068E+02  0.27332232426E+02  0.50528847151E+02  0.29999961402E+02 0.  0.
        -12    1    3    3    0    0  0.82615948854E+01  0.28945843068E+02 -0.27332232426E+02  0.40659152849E+02  0.00000000000E+00 0.  1.
         11    1    4    4    0    0  0.58682405698E+01 -0.17140463284E+02  0.16988071803E+02  0.24835988259E+02  0.51100000000E-03 0. -1.
        -11    1    4    4    0    0 -0.55302490515E+01 -0.38692328115E+01 -0.34694831454E+01  0.75889347525E+01  0.51100000000E-03 0.  1.
         12    1    4    4    0    0 -0.85995864037E+01 -0.79361469723E+01  0.13813643769E+02  0.18103924140E+02  0.00000000000E+00 0. -1.
</event>
<event>
 8    1  0.1021894E-011  0.9118800E+02  0.7816164E-02  0.1184000E+00
        -11   -1    0    0    0    0  0.00000000000E+00  0.00000000000E+00  0.45593999997E+02  0.45594000000E+02  0.51100000000E-03 0. -1.
         11   -1    0    0    0    0 -0.00000000000E+00 -0.00000000000E+00 -0.45593999997E+02  0.45594000000E+02  0.51100000000E-03 0.  1.
         23    2    1    2    0    0  0.00000000000E+00  0.35527136788E-14  0.00000000000E+00  0.91188000000E+02  0.91188000000E+02 0.  0.
    9900012    2    3    3    0    0  0.45333122315E+01  0.25061242582E+02 -0.31694615998E+02  0.50528862247E+02  0.30000007286E+02 0.  0.
         12    1    3    3    0    0 -0.45333122315E+01 -0.25061242582E+02  0.31694615998E+02  0.40659137753E+02  0.00000000000E+00 0. -1.
         11    1    4    4    0    0 -0.70948860924E+01  0.72681866644E+01 -0.62366422715E+01  0.11918878015E+02  0.51100000000E-03 0. -1.
        -11    1    4    4    0    0  0.59113461301E+01 -0.30853140073E+01 -0.26794825384E+01  0.71862926832E+01  0.51100000000E-03 0.  1.
        -12    1    4    4    0    0  0.57168521938E+01  0.20878369925E+02 -0.22778491188E+02  0.31423691549E+02  0.00000000000E+00 0.  1.
</event>
<event>
 8    1  0.1021894E-011  0.9118800E+02  0.7816164E-02  0.1184000E+00
        -11   -1    0    0    0    0  0.00000000000E+00  0.00000000000E+00  0.45593999997E+02  0.45594000000E+02  0.51100000000E-03 0. -1.
         11   -1    0    0    0    0 -0.00000000000E+00 -0.00000000000E+00 -0.45593999997E+02  0.45594000000E+02  0.51100000000E-03 0.  1.
         23    2    1    2    0    0  0.00000000000E+00  0.00000000000E+00  0.35527136788E-14  0.91188000000E+02  0.91188000000E+02 0.  0.
    9900012    2    3    3    0    0 -0.16543337395E+02 -0.22562727847E+02  0.29502657439E+02  0.50528862085E+02  0.30000006792E+02 0.  0.
        -12    1    3    3    0    0  0.16543337395E+02  0.22562727847E+02 -0.29502657439E+02  0.40659137915E+02  0.00000000000E+00 0.  1.
         11    1    4    4    0    0  0.13018660308E+01 -0.56717833442E+01  0.22834579096E+02  0.23564422001E+02  0.51100000000E-03 0.  1.
        -11    1    4    4    0    0 -0.16645772319E+02 -0.11084537787E+02  0.65160751629E+01  0.21033495901E+02  0.51100000000E-03 0. -1.
        -12    1    4    4    0    0 -0.11994311067E+01 -0.58064067159E+01  0.15200318003E+00  0.59309441826E+01  0.00000000000E+00 0.  1.
</event>
<event>
 8    1  0.1021894E-011  0.9118800E+02  0.7816164E-02  0.1184000E+00
        -11   -1    0    0    0    0  0.00000000000E+00  0.00000000000E+00  0.45593999997E+02  0.45594000000E+02  0.51100000000E-03 0. -1.
         11   -1    0    0    0    0 -0.00000000000E+00 -0.00000000000E+00 -0.45593999997E+02  0.45594000000E+02  0.51100000000E-03 0.  1.
         23    2    1    2    0    0 -0.35527136788E-14  0.88817841970E-15  0.00000000000E+00  0.91188000000E+02  0.91188000000E+02 0.  0.
    9900012    2    3    3    0    0 -0.17390363147E+02 -0.53052155902E+01 -0.36367508930E+02  0.50528858978E+02  0.29999997350E+02 0.  0.
         12    1    3    3    0    0  0.17390363147E+02  0.53052155902E+01  0.36367508930E+02  0.40659141022E+02  0.00000000000E+00 0. -1.
         11    1    4    4    0    0  0.35322639061E+01 -0.37998470462E+01 -0.56084982960E+01  0.76400902661E+01  0.51100000000E-03 0. -1.
        -11    1    4    4    0    0 -0.22887215736E+02 -0.51712680942E+01 -0.30812194113E+02  0.38729290778E+02  0.51100000000E-03 0.  1.
        -12    1    4    4    0    0  0.19645886822E+01  0.36658995502E+01  0.53183479129E-01  0.41594779342E+01  0.00000000000E+00 0.  1.
</event>
<event>
 8    1  0.1021894E-011  0.9118800E+02  0.7816164E-02  0.1184000E+00
        -11   -1    0    0    0    0  0.00000000000E+00  0.00000000000E+00  0.45593999997E+02  0.45594000000E+02  0.51100000000E-03 0.  1.
         11   -1    0    0    0    0 -0.00000000000E+00 -0.00000000000E+00 -0.45593999997E+02  0.45594000000E+02  0.51100000000E-03 0. -1.
         23    2    1    2    0    0  0.00000000000E+00  0.35527136788E-14  0.00000000000E+00  0.91188000000E+02  0.91188000000E+02 0.  0.
    9900012    2    3    3    0    0 -0.26688496622E+02 -0.24869562199E+02 -0.17955496158E+02  0.50528796636E+02  0.29999807855E+02 0.  0.
         12    1    3    3    0    0  0.26688496622E+02  0.24869562199E+02  0.17955496158E+02  0.40659203364E+02  0.00000000000E+00 0. -1.
         11    1    4    4    0    0  0.43033498454E+01 -0.11763514900E+02 -0.55825775616E+01  0.13713652875E+02  0.51100000000E-03 0. -1.
        -11    1    4    4    0    0 -0.24659375376E+02 -0.12768637313E+02 -0.73498117404E+01  0.28725295919E+02  0.51100000000E-03 0.  1.
         12    1    4    4    0    0 -0.63324710908E+01 -0.33740998617E+00 -0.50231068563E+01  0.80898478418E+01  0.00000000000E+00 0. -1.
</event>
<event>
 8    1  0.1021894E-011  0.9118800E+02  0.7816164E-02  0.1184000E+00
        -11   -1    0    0    0    0  0.00000000000E+00  0.00000000000E+00  0.45593999997E+02  0.45594000000E+02  0.51100000000E-03 0. -1.
         11   -1    0    0    0    0 -0.00000000000E+00 -0.00000000000E+00 -0.45593999997E+02  0.45594000000E+02  0.51100000000E-03 0.  1.
         23    2    1    2    0    0 -0.17763568394E-14  0.00000000000E+00 -0.35527136788E-14  0.91188000000E+02  0.91188000000E+02 0.  0.
    9900012    2    3    3    0    0 -0.14068713991E+02 -0.26316638116E+02  0.27616549802E+02  0.50528831562E+02  0.29999914017E+02 0.  0.
        -12    1    3    3    0    0  0.14068713991E+02  0.26316638116E+02 -0.27616549802E+02  0.40659168438E+02  0.00000000000E+00 0.  1.
         11    1    4    4    0    0 -0.67123230579E+01 -0.37826560478E+01  0.23731084371E+02  0.24950513688E+02  0.51100000000E-03 0. -1.
        -11    1    4    4    0    0 -0.25481697749E+01 -0.56890723118E+01 -0.27929401041E+01  0.68307560092E+01  0.51100000000E-03 0.  1.
         12    1    4    4    0    0 -0.48082211585E+01 -0.16844909756E+02  0.66784055355E+01  0.18747561865E+02  0.00000000000E+00 0. -1.
</event>
<event>
 8    1  0.1021894E-011  0.9118800E+02  0.7816164E-02  0.1184000E+00
        -11   -1    0    0    0    0  0.00000000000E+00  0.00000000000E+00  0.45593999997E+02  0.45594000000E+02  0.51100000000E-03 0. -1.
         11   -1    0    0    0    0 -0.00000000000E+00 -0.00000000000E+00 -0.45593999997E+02  0.45594000000E+02  0.51100000000E-03 0.  1.
         23    2    1    2    0    0 -0.71054273576E-14 -0.49960036108E-15  0.35527136788E-14  0.91188000000E+02  0.91188000000E+02 0.  0.
    9900012    2    3    3    0    0 -0.35825335017E+02 -0.30134416054E+00  0.19225513342E+02  0.50528858339E+02  0.29999995406E+02 0.  0.
        -12    1    3    3    0    0  0.35825335017E+02  0.30134416054E+00 -0.19225513342E+02  0.40659141661E+02  0.00000000000E+00 0.  1.
         11    1    4    4    0    0 -0.26142490722E+02  0.62898642341E+01  0.52020576338E+01  0.27387106768E+02  0.51100000000E-03 0. -1.
        -11    1    4    4    0    0  0.52696979079E+00 -0.32371527785E+01  0.11694438265E+02  0.12145647033E+02  0.51100000000E-03 0.  1.
        -12    1    4    4    0    0 -0.10209814086E+02 -0.33540556162E+01  0.23290174438E+01  0.10996104537E+02  0.00000000000E+00 0.  1.
</event>
<event>
 8    1  0.1021894E-011  0.9118800E+02  0.7816164E-02  0.1184000E+00
        -11   -1    0    0    0    0  0.00000000000E+00  0.00000000000E+00  0.45593999997E+02  0.45594000000E+02  0.51100000000E-03 0. -1.
         11   -1    0    0    0    0 -0.00000000000E+00 -0.00000000000E+00 -0.45593999997E+02  0.45594000000E+02  0.51100000000E-03 0.  1.
         23    2    1    2    0    0 -0.71054273576E-14  0.35527136788E-14  0.00000000000E+00  0.91188000000E+02  0.91188000000E+02 0.  0.
    9900012    2    3    3    0    0  0.13626925412E+02 -0.12039738803E+02  0.36366412888E+02  0.50528875649E+02  0.30000048024E+02 0.  0.
        -12    1    3    3    0    0 -0.13626925412E+02  0.12039738803E+02 -0.36366412888E+02  0.40659124351E+02  0.00000000000E+00 0.  1.
         11    1    4    4    0    0  0.54377424382E+01 -0.14794133580E+01  0.14557677021E+02  0.15610370502E+02  0.51100000000E-03 0. -1.
        -11    1    4    4    0    0 -0.80948039383E+01 -0.18638900384E+01  0.38205691849E+01  0.91431223349E+01  0.51100000000E-03 0.  1.
        -12    1    4    4    0    0  0.16283986912E+02 -0.86964354071E+01  0.17988166682E+02  0.25775382813E+02  0.00000000000E+00 0.  1.
</event>
<event>
 8    1  0.1021894E-011  0.9118800E+02  0.7816164E-02  0.1184000E+00
        -11   -1    0    0    0    0  0.00000000000E+00  0.00000000000E+00  0.45593999997E+02  0.45594000000E+02  0.51100000000E-03 0. -1.
         11   -1    0    0    0    0 -0.00000000000E+00 -0.00000000000E+00 -0.45593999997E+02  0.45594000000E+02  0.51100000000E-03 0.  1.
         23    2    1    2    0    0  0.00000000000E+00  0.00000000000E+00  0.71054273576E-14  0.91188000000E+02  0.91188000000E+02 0.  0.
    9900012    2    3    3    0    0 -0.34468142192E+01  0.13460414912E+02  0.38211277897E+02  0.50528867491E+02  0.30000023226E+02 0.  0.
        -12    1    3    3    0    0  0.34468142192E+01 -0.13460414912E+02 -0.38211277897E+02  0.40659132509E+02  0.00000000000E+00 0.  1.
         11    1    4    4    0    0 -0.15688248344E+01 -0.26453127827E+01  0.16134076636E+02  0.16424594979E+02  0.51100000000E-03 0. -1.
        -11    1    4    4    0    0  0.22348274233E+01  0.14241281772E+02  0.32956504614E+01  0.14787490400E+02  0.51100000000E-03 0.  1.
        -12    1    4    4    0    0 -0.41128168082E+01  0.18644459229E+01  0.18781550800E+02  0.19316782111E+02  0.00000000000E+00 0.  1.
</event>
<event>
 8    1  0.1021894E-011  0.9118800E+02  0.7816164E-02  0.1184000E+00
        -11   -1    0    0    0    0  0.00000000000E+00  0.00000000000E+00  0.45593999997E+02  0.45594000000E+02  0.51100000000E-03 0. -1.
         11   -1    0    0    0    0 -0.00000000000E+00 -0.00000000000E+00 -0.45593999997E+02  0.45594000000E+02  0.51100000000E-03 0.  1.
         23    2    1    2    0    0  0.00000000000E+00  0.00000000000E+00  0.00000000000E+00  0.91188000000E+02  0.91188000000E+02 0.  0.
    9900012    2    3    3    0    0  0.35124343904E+02  0.11135045144E+02 -0.17188861370E+02  0.50528859327E+02  0.29999998411E+02 0.  0.
         12    1    3    3    0    0 -0.35124343904E+02 -0.11135045144E+02  0.17188861370E+02  0.40659140673E+02  0.00000000000E+00 0. -1.
         11    1    4    4    0    0  0.33179869426E+00 -0.23577754230E+01  0.48695743731E+01  0.54205119827E+01  0.51100000000E-03 0. -1.
        -11    1    4    4    0    0  0.20754571422E+02  0.58497203917E+01 -0.58460032858E+01  0.22341602857E+02  0.51100000000E-03 0.  1.
         12    1    4    4    0    0  0.14037973788E+02  0.76431001757E+01 -0.16212432457E+02  0.22766744487E+02  0.00000000000E+00 0. -1.
</event>
<event>
 8    1  0.1021894E-011  0.9118800E+02  0.7816164E-02  0.1184000E+00
        -11   -1    0    0    0    0  0.00000000000E+00  0.00000000000E+00  0.45593999997E+02  0.45594000000E+02  0.51100000000E-03 0. -1.
         11   -1    0    0    0    0 -0.00000000000E+00 -0.00000000000E+00 -0.45593999997E+02  0.45594000000E+02  0.51100000000E-03 0.  1.
         23    2    1    2    0    0 -0.35527136788E-14  0.35527136788E-14  0.00000000000E+00  0.91188000000E+02  0.91188000000E+02 0.  0.
    9900012    2    3    3    0    0  0.21080239097E+02 -0.20713279573E+02  0.27923980584E+02  0.50528866675E+02  0.30000020745E+02 0.  0.
        -12    1    3    3    0    0 -0.21080239097E+02  0.20713279573E+02 -0.27923980584E+02  0.40659133325E+02  0.00000000000E+00 0.  1.
         11    1    4    4    0    0  0.35926087901E+01 -0.58802523588E+01 -0.51681000222E+01  0.86135627834E+01  0.51100000000E-03 0. -1.
        -11    1    4    4    0    0 -0.53248734082E+00 -0.50059519555E+01  0.85439306482E+01  0.99167458841E+01  0.51100000000E-03 0.  1.
         12    1    4    4    0    0  0.18020117648E+02 -0.98270752587E+01  0.24548149958E+02  0.31998558008E+02  0.00000000000E+00 0. -1.
</event>
<event>
 8    1  0.1021894E-011  0.9118800E+02  0.7816164E-02  0.1184000E+00
        -11   -1    0    0    0    0  0.00000000000E+00  0.00000000000E+00  0.45593999997E+02  0.45594000000E+02  0.51100000000E-03 0.  1.
         11   -1    0    0    0    0 -0.00000000000E+00 -0.00000000000E+00 -0.45593999997E+02  0.45594000000E+02  0.51100000000E-03 0. -1.
         23    2    1    2    0    0  0.00000000000E+00  0.00000000000E+00  0.00000000000E+00  0.91188000000E+02  0.91188000000E+02 0.  0.
    9900012    2    3    3    0    0 -0.29750323210E+02  0.21675152323E+02 -0.17270536685E+02  0.50528863306E+02  0.30000010506E+02 0.  0.
        -12    1    3    3    0    0  0.29750323210E+02 -0.21675152323E+02  0.17270536685E+02  0.40659136694E+02  0.00000000000E+00 0.  1.
         11    1    4    4    0    0 -0.14887333359E+02  0.24746130343E+02 -0.43289637120E+01  0.29201773723E+02  0.51100000000E-03 0. -1.
        -11    1    4    4    0    0 -0.10860235043E+02 -0.60435062137E+00 -0.12552194436E+02  0.16609260377E+02  0.51100000000E-03 0.  1.
         12    1    4    4    0    0 -0.40027548082E+01 -0.24666273986E+01 -0.38937853747E+00  0.47178292067E+01  0.00000000000E+00 0. -1.
</event>
<event>
 8    1  0.1021894E-011  0.9118800E+02  0.7816164E-02  0.1184000E+00
        -11   -1    0    0    0    0  0.00000000000E+00  0.00000000000E+00  0.45593999997E+02  0.45594000000E+02  0.51100000000E-03 0. -1.
         11   -1    0    0    0    0 -0.00000000000E+00 -0.00000000000E+00 -0.45593999997E+02  0.45594000000E+02  0.51100000000E-03 0.  1.
         23    2    1    2    0    0 -0.26645352591E-14  0.71054273576E-14  0.00000000000E+00  0.91188000000E+02  0.91188000000E+02 0.  0.
    9900012    2    3    3    0    0 -0.79195019963E+01  0.30764857206E+02  0.25376555395E+02  0.50528874155E+02  0.30000043480E+02 0.  0.
        -12    1    3    3    0    0  0.79195019963E+01 -0.30764857206E+02 -0.25376555395E+02  0.40659125845E+02  0.00000000000E+00 0.  1.
         11    1    4    4    0    0  0.12264999954E+01  0.98638361245E+01  0.11164493741E+02  0.14948093059E+02  0.51100000000E-03 0. -1.
        -11    1    4    4    0    0  0.44623399547E+01 -0.24021035981E+01 -0.29229834692E-01  0.50678826162E+01  0.51100000000E-03 0.  1.
        -12    1    4    4    0    0 -0.13608341946E+02  0.23303124680E+02  0.14241291489E+02  0.30512898480E+02  0.00000000000E+00 0.  1.
</event>
<event>
 8    1  0.1021894E-011  0.9118800E+02  0.7816164E-02  0.1184000E+00
        -11   -1    0    0    0    0  0.00000000000E+00  0.00000000000E+00  0.45593999997E+02  0.45594000000E+02  0.51100000000E-03 0.  1.
         11   -1    0    0    0    0 -0.00000000000E+00 -0.00000000000E+00 -0.45593999997E+02  0.45594000000E+02  0.51100000000E-03 0. -1.
         23    2    1    2    0    0  0.00000000000E+00  0.00000000000E+00 -0.17763568394E-14  0.91188000000E+02  0.91188000000E+02 0.  0.
    9900012    2    3    3    0    0 -0.37105311718E+02  0.16242561116E+02  0.35412669748E+01  0.50528861776E+02  0.30000005855E+02 0.  0.
         12    1    3    3    0    0  0.37105311718E+02 -0.16242561116E+02 -0.35412669748E+01  0.40659138224E+02  0.00000000000E+00 0. -1.
         11    1    4    4    0    0 -0.78581177181E+01 -0.21383944699E+01  0.43993511491E-02  0.81438789649E+01  0.51100000000E-03 0. -1.
        -11    1    4    4    0    0 -0.11155025638E+02  0.19145817585E+02 -0.44377605247E+01  0.22598465583E+02  0.51100000000E-03 0.  1.
        -12    1    4    4    0    0 -0.18092168362E+02 -0.76486199844E+00  0.79746281484E+01  0.19786517228E+02  0.00000000000E+00 0.  1.
</event>
<event>
 8    1  0.1021894E-011  0.9118800E+02  0.7816164E-02  0.1184000E+00
        -11   -1    0    0    0    0  0.00000000000E+00  0.00000000000E+00  0.45593999997E+02  0.45594000000E+02  0.51100000000E-03 0. -1.
         11   -1    0    0    0    0 -0.00000000000E+00 -0.00000000000E+00 -0.45593999997E+02  0.45594000000E+02  0.51100000000E-03 0.  1.
         23    2    1    2    0    0  0.00000000000E+00  0.00000000000E+00  0.00000000000E+00  0.91188000000E+02  0.91188000000E+02 0.  0.
    9900012    2    3    3    0    0  0.16558207531E+02  0.99183621053E+01 -0.35785732665E+02  0.50528845977E+02  0.29999957832E+02 0.  0.
         12    1    3    3    0    0 -0.16558207531E+02 -0.99183621053E+01  0.35785732665E+02  0.40659154023E+02  0.00000000000E+00 0. -1.
         11    1    4    4    0    0  0.77035833663E+00  0.66958496996E+01 -0.25990174388E+02  0.26849897954E+02  0.51100000000E-03 0. -1.
        -11    1    4    4    0    0  0.46448232898E+01  0.64534566564E+01  0.76820043665E+00  0.79882174721E+01  0.51100000000E-03 0.  1.
        -12    1    4    4    0    0  0.11143025905E+02 -0.32309442507E+01 -0.10563758713E+02  0.15690730551E+02  0.00000000000E+00 0.  1.
</event>
<event>
 8    1  0.1021894E-011  0.9118800E+02  0.7816164E-02  0.1184000E+00
        -11   -1    0    0    0    0  0.00000000000E+00  0.00000000000E+00  0.45593999997E+02  0.45594000000E+02  0.51100000000E-03 0. -1.
         11   -1    0    0    0    0 -0.00000000000E+00 -0.00000000000E+00 -0.45593999997E+02  0.45594000000E+02  0.51100000000E-03 0.  1.
         23    2    1    2    0    0  0.00000000000E+00  0.35527136788E-14  0.00000000000E+00  0.91188000000E+02  0.91188000000E+02 0.  0.
    9900012    2    3    3    0    0 -0.20468825722E+02  0.20274762613E+02  0.28690184858E+02  0.50528861634E+02  0.30000005423E+02 0.  0.
        -12    1    3    3    0    0  0.20468825722E+02 -0.20274762613E+02 -0.28690184858E+02  0.40659138366E+02  0.00000000000E+00 0.  1.
         11    1    4    4    0    0 -0.15017668847E+02  0.10851725762E+01  0.23265154508E+02  0.27712368930E+02  0.51100000000E-03 0. -1.
        -11    1    4    4    0    0  0.20472592853E+01  0.90936670158E+01  0.40586783536E+01  0.10166558937E+02  0.51100000000E-03 0.  1.
         12    1    4    4    0    0 -0.74984161596E+01  0.10095923021E+02  0.13663519963E+01  0.12649933768E+02  0.00000000000E+00 0. -1.
</event>
<event>
 8    1  0.1021894E-011  0.9118800E+02  0.7816164E-02  0.1184000E+00
        -11   -1    0    0    0    0  0.00000000000E+00  0.00000000000E+00  0.45593999997E+02  0.45594000000E+02  0.51100000000E-03 0. -1.
         11   -1    0    0    0    0 -0.00000000000E+00 -0.00000000000E+00 -0.45593999997E+02  0.45594000000E+02  0.51100000000E-03 0.  1.
         23    2    1    2    0    0  0.00000000000E+00  0.44408920985E-15  0.00000000000E+00  0.91188000000E+02  0.91188000000E+02 0.  0.
    9900012    2    3    3    0    0 -0.36281189478E+02  0.21275172724E+01 -0.18229522337E+02  0.50528849439E+02  0.29999968355E+02 0.  0.
         12    1    3    3    0    0  0.36281189478E+02 -0.21275172724E+01  0.18229522337E+02  0.40659150561E+02  0.00000000000E+00 0. -1.
         11    1    4    4    0    0 -0.43150295781E+01  0.63963578662E+01  0.22603902485E+01  0.80400397107E+01  0.51100000000E-03 0.  1.
        -11    1    4    4    0    0 -0.25479452278E+02 -0.67578983374E+01 -0.69356521424E+01  0.27257566825E+02  0.51100000000E-03 0. -1.
        -12    1    4    4    0    0 -0.64867076226E+01  0.24890577436E+01 -0.13554260443E+02  0.15231242903E+02  0.00000000000E+00 0.  1.
</event>
<event>
 8    1  0.1021894E-011  0.9118800E+02  0.7816164E-02  0.1184000E+00
        -11   -1    0    0    0    0  0.00000000000E+00  0.00000000000E+00  0.45593999997E+02  0.45594000000E+02  0.51100000000E-03 0.  1.
         11   -1    0    0    0    0 -0.00000000000E+00 -0.00000000000E+00 -0.45593999997E+02  0.45594000000E+02  0.51100000000E-03 0. -1.
         23    2    1    2    0    0  0.00000000000E+00  0.00000000000E+00  0.00000000000E+00  0.91188000000E+02  0.91188000000E+02 0.  0.
    9900012    2    3    3    0    0 -0.97004297490E+01  0.36071890865E+02  0.16058808394E+02  0.50528868492E+02  0.30000026270E+02 0.  0.
         12    1    3    3    0    0  0.97004297490E+01 -0.36071890865E+02 -0.16058808394E+02  0.40659131508E+02  0.00000000000E+00 0. -1.
         11    1    4    4    0    0 -0.34310924860E+01  0.78940988202E+01  0.13852298821E+02  0.16308751476E+02  0.51100000000E-03 0. -1.
        -11    1    4    4    0    0 -0.87328428080E+01  0.25075117669E+02 -0.40051004020E+01  0.26852651622E+02  0.51100000000E-03 0.  1.
        -12    1    4    4    0    0  0.24635055450E+01  0.31026743758E+01  0.62116099748E+01  0.73674653940E+01  0.00000000000E+00 0.  1.
</event>
<event>
 8    1  0.1021894E-011  0.9118800E+02  0.7816164E-02  0.1184000E+00
        -11   -1    0    0    0    0  0.00000000000E+00  0.00000000000E+00  0.45593999997E+02  0.45594000000E+02  0.51100000000E-03 0.  1.
         11   -1    0    0    0    0 -0.00000000000E+00 -0.00000000000E+00 -0.45593999997E+02  0.45594000000E+02  0.51100000000E-03 0. -1.
         23    2    1    2    0    0 -0.35527136788E-14  0.17763568394E-14  0.00000000000E+00  0.91188000000E+02  0.91188000000E+02 0.  0.
    9900012    2    3    3    0    0 -0.30022642647E+02  0.96541876032E+01 -0.25663264014E+02  0.50528861671E+02  0.30000005536E+02 0.  0.
         12    1    3    3    0    0  0.30022642647E+02 -0.96541876032E+01  0.25663264014E+02  0.40659138329E+02  0.00000000000E+00 0. -1.
         11    1    4    4    0    0 -0.31017487320E+02  0.12385255684E+02 -0.18226422016E+02  0.38048410450E+02  0.51100000000E-03 0. -1.
        -11    1    4    4    0    0  0.49804766998E+01 -0.99234603838E+00 -0.18590441185E+01  0.54079519333E+01  0.51100000000E-03 0.  1.
        -12    1    4    4    0    0 -0.39856320261E+01 -0.17387220421E+01 -0.55777978803E+01  0.70724992881E+01  0.00000000000E+00 0.  1.
</event>
<event>
 8    1  0.1021894E-011  0.9118800E+02  0.7816164E-02  0.1184000E+00
        -11   -1    0    0    0    0  0.00000000000E+00  0.00000000000E+00  0.45593999997E+02  0.45594000000E+02  0.51100000000E-03 0.  1.
         11   -1    0    0    0    0 -0.00000000000E+00 -0.00000000000E+00 -0.45593999997E+02  0.45594000000E+02  0.51100000000E-03 0. -1.
         23    2    1    2    0    0 -0.35527136788E-14  0.17763568394E-14  0.00000000000E+00  0.91188000000E+02  0.91188000000E+02 0.  0.
    9900012    2    3    3    0    0  0.30679393124E+02 -0.80173307829E+01 -0.25449059312E+02  0.50528961950E+02  0.30000310340E+02 0.  0.
         12    1    3    3    0    0 -0.30679393124E+02  0.80173307829E+01  0.25449059312E+02  0.40659038050E+02  0.00000000000E+00 0. -1.
         11    1    4    4    0    0  0.13537267681E+02 -0.39618584172E+01 -0.10856046721E+02  0.17799092367E+02  0.51100000000E-03 0. -1.
        -11    1    4    4    0    0  0.11745641770E+01 -0.11274738193E+02 -0.85310934170E+01  0.14187278720E+02  0.51100000000E-03 0.  1.
        -12    1    4    4    0    0  0.15967561265E+02  0.72192658274E+01 -0.60619191736E+01  0.18542590863E+02  0.00000000000E+00 0.  1.
</event>
<event>
 8    1  0.1021894E-011  0.9118800E+02  0.7816164E-02  0.1184000E+00
        -11   -1    0    0    0    0  0.00000000000E+00  0.00000000000E+00  0.45593999997E+02  0.45594000000E+02  0.51100000000E-03 0.  1.
         11   -1    0    0    0    0 -0.00000000000E+00 -0.00000000000E+00 -0.45593999997E+02  0.45594000000E+02  0.51100000000E-03 0. -1.
         23    2    1    2    0    0 -0.71054273576E-14 -0.88817841970E-15 -0.17763568394E-14  0.91188000000E+02  0.91188000000E+02 0.  0.
    9900012    2    3    3    0    0  0.39605525196E+02  0.26502713614E+01  0.88059158925E+01  0.50528859342E+02  0.29999998457E+02 0.  0.
        -12    1    3    3    0    0 -0.39605525196E+02 -0.26502713614E+01 -0.88059158925E+01  0.40659140658E+02  0.00000000000E+00 0.  1.
         11    1    4    4    0    0  0.35757073453E+02  0.42060806709E+01 -0.95894090104E+00  0.36016371061E+02  0.51100000000E-03 0. -1.
        -11    1    4    4    0    0  0.18081864576E+01 -0.55392560607E+01  0.34473756272E+01  0.67703245821E+01  0.51100000000E-03 0.  1.
         12    1    4    4    0    0  0.20402652853E+01  0.39834467511E+01  0.63174811663E+01  0.77421636989E+01  0.00000000000E+00 0. -1.
</event>
<event>
 8    1  0.1021894E-011  0.9118800E+02  0.7816164E-02  0.1184000E+00
        -11   -1    0    0    0    0  0.00000000000E+00  0.00000000000E+00  0.45593999997E+02  0.45594000000E+02  0.51100000000E-03 0.  1.
         11   -1    0    0    0    0 -0.00000000000E+00 -0.00000000000E+00 -0.45593999997E+02  0.45594000000E+02  0.51100000000E-03 0. -1.
         23    2    1    2    0    0 -0.35527136788E-14 -0.35527136788E-14  0.00000000000E+00  0.91188000000E+02  0.91188000000E+02 0.  0.
    9900012    2    3    3    0    0 -0.12665116246E+02 -0.31591051438E+02 -0.22243341426E+02  0.50528856646E+02  0.29999990260E+02 0.  0.
        -12    1    3    3    0    0  0.12665116246E+02  0.31591051438E+02  0.22243341426E+02  0.40659143354E+02  0.00000000000E+00 0.  1.
         11    1    4    4    0    0 -0.69065070648E+01 -0.24136290425E+02 -0.20507374241E+02  0.32416242131E+02  0.51100000000E-03 0. -1.
        -11    1    4    4    0    0  0.43223152262E+01 -0.57409890058E+01  0.15895404462E+01  0.73598914918E+01  0.51100000000E-03 0.  1.
        -12    1    4    4    0    0 -0.10080924408E+02 -0.17137720068E+01 -0.33255076309E+01  0.10752723023E+02  0.00000000000E+00 0.  1.
</event>
<event>
 8    1  0.1021894E-011  0.9118800E+02  0.7816164E-02  0.1184000E+00
        -11   -1    0    0    0    0  0.00000000000E+00  0.00000000000E+00  0.45593999997E+02  0.45594000000E+02  0.51100000000E-03 0. -1.
         11   -1    0    0    0    0 -0.00000000000E+00 -0.00000000000E+00 -0.45593999997E+02  0.45594000000E+02  0.51100000000E-03 0.  1.
         23    2    1    2    0    0  0.00000000000E+00  0.48572257327E-16  0.00000000000E+00  0.91188000000E+02  0.91188000000E+02 0.  0.
    9900012    2    3    3    0    0 -0.15178079755E+02  0.61542969453E-01 -0.37719870025E+02  0.50528849894E+02  0.29999969738E+02 0.  0.
         12    1    3    3    0    0  0.15178079755E+02 -0.61542969453E-01  0.37719870025E+02  0.40659150106E+02  0.00000000000E+00 0. -1.
         11    1    4    4    0    0 -0.61745921773E+01  0.11191779668E+02 -0.35379302505E+01  0.13262672107E+02  0.51100000000E-03 0. -1.
        -11    1    4    4    0    0 -0.55727017282E+01 -0.74061522788E+01 -0.17109890570E+02  0.19459045498E+02  0.51100000000E-03 0.  1.
         12    1    4    4    0    0 -0.34307858498E+01 -0.37240844196E+01 -0.17072049205E+02  0.17807132289E+02  0.00000000000E+00 0. -1.
</event>
<event>
 8    1  0.1021894E-011  0.9118800E+02  0.7816164E-02  0.1184000E+00
        -11   -1    0    0    0    0  0.00000000000E+00  0.00000000000E+00  0.45593999997E+02  0.45594000000E+02  0.51100000000E-03 0.  1.
         11   -1    0    0    0    0 -0.00000000000E+00 -0.00000000000E+00 -0.45593999997E+02  0.45594000000E+02  0.51100000000E-03 0. -1.
         23    2    1    2    0    0  0.00000000000E+00  0.00000000000E+00  0.00000000000E+00  0.91188000000E+02  0.91188000000E+02 0.  0.
    9900012    2    3    3    0    0 -0.35656830854E+02 -0.16153972327E+02  0.10991138229E+02  0.50528861690E+02  0.30000005594E+02 0.  0.
        -12    1    3    3    0    0  0.35656830854E+02  0.16153972327E+02 -0.10991138229E+02  0.40659138310E+02  0.00000000000E+00 0.  1.
         11    1    4    4    0    0 -0.16787745283E+02  0.12257727975E+01  0.72361199453E+00  0.16847982823E+02  0.51100000000E-03 0. -1.
        -11    1    4    4    0    0 -0.22474728041E+02 -0.15650118197E+02  0.64152379369E+01  0.28128186543E+02  0.51100000000E-03 0.  1.
        -12    1    4    4    0    0  0.36056424699E+01 -0.17296269276E+01  0.38522882973E+01  0.55526923249E+01  0.00000000000E+00 0.  1.
</event>
<event>
 8    1  0.1021894E-011  0.9118800E+02  0.7816164E-02  0.1184000E+00
        -11   -1    0    0    0    0  0.00000000000E+00  0.00000000000E+00  0.45593999997E+02  0.45594000000E+02  0.51100000000E-03 0.  1.
         11   -1    0    0    0    0 -0.00000000000E+00 -0.00000000000E+00 -0.45593999997E+02  0.45594000000E+02  0.51100000000E-03 0. -1.
         23    2    1    2    0    0  0.00000000000E+00  0.00000000000E+00 -0.17763568394E-14  0.91188000000E+02  0.91188000000E+02 0.  0.
    9900012    2    3    3    0    0 -0.36420681371E+02  0.13999342911E+02 -0.11433224082E+02  0.50528852857E+02  0.29999978744E+02 0.  0.
         12    1    3    3    0    0  0.36420681371E+02 -0.13999342911E+02  0.11433224082E+02  0.40659147143E+02  0.00000000000E+00 0. -1.
         11    1    4    4    0    0 -0.21637312175E+02  0.18790182197E+01 -0.18777407079E+02  0.28710538214E+02  0.51100000000E-03 0. -1.
        -11    1    4    4    0    0 -0.15144553915E+02  0.12472004587E+02  0.62121306466E+01  0.20579090824E+02  0.51100000000E-03 0.  1.
         12    1    4    4    0    0  0.36118471875E+00 -0.35167989598E+00  0.11320523507E+01  0.12392238196E+01  0.00000000000E+00 0. -1.
</event>
<event>
 8    1  0.1021894E-011  0.9118800E+02  0.7816164E-02  0.1184000E+00
        -11   -1    0    0    0    0  0.00000000000E+00  0.00000000000E+00  0.45593999997E+02  0.45594000000E+02  0.51100000000E-03 0. -1.
         11   -1    0    0    0    0 -0.00000000000E+00 -0.00000000000E+00 -0.45593999997E+02  0.45594000000E+02  0.51100000000E-03 0.  1.
         23    2    1    2    0    0  0.00000000000E+00  0.00000000000E+00 -0.88817841970E-15  0.91188000000E+02  0.91188000000E+02 0.  0.
    9900012    2    3    3    0    0  0.34061374071E+02  0.20786956623E+02  0.78032740984E+01  0.50528857659E+02  0.29999993341E+02 0.  0.
        -12    1    3    3    0    0 -0.34061374071E+02 -0.20786956623E+02 -0.78032740984E+01  0.40659142341E+02  0.00000000000E+00 0.  1.
         11    1    4    4    0    0  0.22969484548E+02  0.25306894842E+02 -0.10423834176E+01  0.34192436450E+02  0.51100000000E-03 0. -1.
        -11    1    4    4    0    0  0.88959524933E+01 -0.39525908102E+00  0.69410587009E+01  0.11290371856E+02  0.51100000000E-03 0.  1.
         12    1    4    4    0    0  0.21959370296E+01 -0.41246791378E+01  0.19045988151E+01  0.50460493531E+01  0.00000000000E+00 0. -1.
</event>
<event>
 8    1  0.1021894E-011  0.9118800E+02  0.7816164E-02  0.1184000E+00
        -11   -1    0    0    0    0  0.00000000000E+00  0.00000000000E+00  0.45593999997E+02  0.45594000000E+02  0.51100000000E-03 0. -1.
         11   -1    0    0    0    0 -0.00000000000E+00 -0.00000000000E+00 -0.45593999997E+02  0.45594000000E+02  0.51100000000E-03 0.  1.
         23    2    1    2    0    0 -0.71054273576E-14 -0.17763568394E-14  0.00000000000E+00  0.91188000000E+02  0.91188000000E+02 0.  0.
    9900012    2    3    3    0    0 -0.40173911071E+02  0.58221399779E+01 -0.23076626587E+01  0.50528858941E+02  0.29999997239E+02 0.  0.
         12    1    3    3    0    0  0.40173911071E+02 -0.58221399779E+01  0.23076626587E+01  0.40659141059E+02  0.00000000000E+00 0. -1.
         11    1    4    4    0    0 -0.70957965658E+01 -0.81190015294E+01 -0.32308243779E+01  0.11256408893E+02  0.51100000000E-03 0. -1.
        -11    1    4    4    0    0 -0.10436995409E+02  0.12670431089E+02 -0.14099073246E+01  0.16475998789E+02  0.51100000000E-03 0.  1.
        -12    1    4    4    0    0 -0.22641119096E+02  0.12707104179E+01  0.23330690438E+01  0.22796451260E+02  0.00000000000E+00 0.  1.
</event>
<event>
 8    1  0.1021894E-011  0.9118800E+02  0.7816164E-02  0.1184000E+00
        -11   -1    0    0    0    0  0.00000000000E+00  0.00000000000E+00  0.45593999997E+02  0.45594000000E+02  0.51100000000E-03 0. -1.
         11   -1    0    0    0    0 -0.00000000000E+00 -0.00000000000E+00 -0.45593999997E+02  0.45594000000E+02  0.51100000000E-03 0.  1.
         23    2    1    2    0    0 -0.17763568394E-14 -0.44408920985E-15  0.00000000000E+00  0.91188000000E+02  0.91188000000E+02 0.  0.
    9900012    2    3    3    0    0  0.12700363914E+02  0.25282630659E+01 -0.38541855242E+02  0.50528856340E+02  0.29999989330E+02 0.  0.
         12    1    3    3    0    0 -0.12700363914E+02 -0.25282630659E+01  0.38541855242E+02  0.40659143660E+02  0.00000000000E+00 0. -1.
         11    1    4    4    0    0 -0.46553122594E+01  0.44205493913E+01 -0.37520565364E+01  0.74357997329E+01  0.51100000000E-03 0.  1.
        -11    1    4    4    0    0  0.19350642468E+02 -0.61847135069E+01 -0.24954480716E+02  0.32178007290E+02  0.51100000000E-03 0. -1.
         12    1    4    4    0    0 -0.19949662946E+01  0.42924271814E+01 -0.98353179902E+01  0.10915049317E+02  0.00000000000E+00 0. -1.
</event>
<event>
 8    1  0.1084244E-011  0.9118800E+02  0.7816164E-02  0.1184000E+00
        -11   -1    0    0    0    0  0.00000000000E+00  0.00000000000E+00  0.45593999997E+02  0.45594000000E+02  0.51100000000E-03 0. -1.
         11   -1    0    0    0    0 -0.00000000000E+00 -0.00000000000E+00 -0.45593999997E+02  0.45594000000E+02  0.51100000000E-03 0.  1.
         23    2    1    2    0    0  0.00000000000E+00  0.88817841970E-15 -0.14210854715E-13  0.91188000000E+02  0.91188000000E+02 0.  0.
    9900012    2    3    3    0    0 -0.45501757747E+01  0.55971344373E+01 -0.40014178056E+02  0.50528850243E+02  0.29999970797E+02 0.  0.
         12    1    3    3    0    0  0.45501757747E+01 -0.55971344373E+01  0.40014178056E+02  0.40659149757E+02  0.00000000000E+00 0. -1.
         11    1    4    4    0    0 -0.55520959075E+01  0.69707410347E+01  0.17464276203E+00  0.89133327041E+01  0.51100000000E-03 0. -1.
        -11    1    4    4    0    0  0.22297248519E+01 -0.54479848886E+01 -0.15856987808E+02  0.16914380712E+02  0.51100000000E-03 0.  1.
         12    1    4    4    0    0 -0.12278047190E+01  0.40743782912E+01 -0.24331833010E+02  0.24701136827E+02  0.00000000000E+00 0. -1.
</event>
<event>
 8    1  0.1021894E-011  0.9118800E+02  0.7816164E-02  0.1184000E+00
        -11   -1    0    0    0    0  0.00000000000E+00  0.00000000000E+00  0.45593999997E+02  0.45594000000E+02  0.51100000000E-03 0. -1.
         11   -1    0    0    0    0 -0.00000000000E+00 -0.00000000000E+00 -0.45593999997E+02  0.45594000000E+02  0.51100000000E-03 0.  1.
         23    2    1    2    0    0 -0.35527136788E-14  0.00000000000E+00  0.00000000000E+00  0.91188000000E+02  0.91188000000E+02 0.  0.
    9900012    2    3    3    0    0 -0.26920376354E+02 -0.30349786209E+02 -0.27109514167E+01  0.50528862730E+02  0.30000008755E+02 0.  0.
        -12    1    3    3    0    0  0.26920376354E+02  0.30349786209E+02  0.27109514167E+01  0.40659137270E+02  0.00000000000E+00 0.  1.
         11    1    4    4    0    0 -0.29904628376E+02 -0.26475333679E+02 -0.42769253569E+01  0.40168671654E+02  0.51100000000E-03 0. -1.
        -11    1    4    4    0    0  0.59358581000E+00  0.36157498243E+00 -0.33637312566E+01  0.34347880298E+01  0.51100000000E-03 0.  1.
         12    1    4    4    0    0  0.23906662122E+01 -0.42360275123E+01  0.49297051967E+01  0.69254030460E+01  0.00000000000E+00 0. -1.
</event>
<event>
 8    1  0.1021894E-011  0.9118800E+02  0.7816164E-02  0.1184000E+00
        -11   -1    0    0    0    0  0.00000000000E+00  0.00000000000E+00  0.45593999997E+02  0.45594000000E+02  0.51100000000E-03 0. -1.
         11   -1    0    0    0    0 -0.00000000000E+00 -0.00000000000E+00 -0.45593999997E+02  0.45594000000E+02  0.51100000000E-03 0.  1.
         23    2    1    2    0    0  0.00000000000E+00 -0.17763568394E-14 -0.71054273576E-14  0.91188000000E+02  0.91188000000E+02 0.  0.
    9900012    2    3    3    0    0 -0.10532789978E+02 -0.99062474230E+01 -0.38001217643E+02  0.50528856562E+02  0.29999990006E+02 0.  0.
         12    1    3    3    0    0  0.10532789978E+02  0.99062474230E+01  0.38001217643E+02  0.40659143438E+02  0.00000000000E+00 0. -1.
         11    1    4    4    0    0 -0.13587873135E+01 -0.16703319849E+02 -0.90108844750E+01  0.19027433780E+02  0.51100000000E-03 0. -1.
        -11    1    4    4    0    0 -0.39666981808E+01  0.10479521298E+01 -0.62661984253E+01  0.74898692305E+01  0.51100000000E-03 0.  1.
         12    1    4    4    0    0 -0.52073044834E+01  0.57491202965E+01 -0.22724134743E+02  0.24011553552E+02  0.00000000000E+00 0. -1.
</event>
<event>
 8    1  0.1021894E-011  0.9118800E+02  0.7816164E-02  0.1184000E+00
        -11   -1    0    0    0    0  0.00000000000E+00  0.00000000000E+00  0.45593999997E+02  0.45594000000E+02  0.51100000000E-03 0. -1.
         11   -1    0    0    0    0 -0.00000000000E+00 -0.00000000000E+00 -0.45593999997E+02  0.45594000000E+02  0.51100000000E-03 0.  1.
         23    2    1    2    0    0  0.00000000000E+00  0.88817841970E-15  0.00000000000E+00  0.91188000000E+02  0.91188000000E+02 0.  0.
    9900012    2    3    3    0    0 -0.26842245937E+02 -0.59562310231E+01 -0.29953008116E+02  0.50528861419E+02  0.30000004768E+02 0.  0.
         12    1    3    3    0    0  0.26842245937E+02  0.59562310231E+01  0.29953008116E+02  0.40659138581E+02  0.00000000000E+00 0. -1.
         11    1    4    4    0    0 -0.79501036064E+00  0.95596329403E+00  0.22852568248E+01  0.26015968768E+01  0.51100000000E-03 0. -1.
        -11    1    4    4    0    0 -0.20342854287E+02  0.60761085956E+01 -0.18099948703E+02  0.27899085281E+02  0.51100000000E-03 0.  1.
        -12    1    4    4    0    0 -0.57043812891E+01 -0.12988302913E+02 -0.14138316238E+02  0.20028179261E+02  0.00000000000E+00 0.  1.
</event>
<event>
 8    1  0.1021894E-011  0.9118800E+02  0.7816164E-02  0.1184000E+00
        -11   -1    0    0    0    0  0.00000000000E+00  0.00000000000E+00  0.45593999997E+02  0.45594000000E+02  0.51100000000E-03 0. -1.
         11   -1    0    0    0    0 -0.00000000000E+00 -0.00000000000E+00 -0.45593999997E+02  0.45594000000E+02  0.51100000000E-03 0.  1.
         23    2    1    2    0    0 -0.17763568394E-14  0.00000000000E+00  0.00000000000E+00  0.91188000000E+02  0.91188000000E+02 0.  0.
    9900012    2    3    3    0    0  0.14758824874E+02  0.22154786750E+02 -0.30732844649E+02  0.50528865383E+02  0.30000016820E+02 0.  0.
         12    1    3    3    0    0 -0.14758824874E+02 -0.22154786750E+02  0.30732844649E+02  0.40659134617E+02  0.00000000000E+00 0. -1.
         11    1    4    4    0    0  0.61439186981E+01  0.12344662833E+01  0.94502528732E+00  0.63375639664E+01  0.51100000000E-03 0. -1.
        -11    1    4    4    0    0  0.78649072281E+01  0.24663673582E+02 -0.30872089840E+02  0.40289446405E+02  0.51100000000E-03 0.  1.
        -12    1    4    4    0    0  0.74999894757E+00 -0.37433531158E+01 -0.80578009542E+00  0.39018550118E+01  0.00000000000E+00 0.  1.
</event>
<event>
 8    1  0.1021894E-011  0.9118800E+02  0.7816164E-02  0.1184000E+00
        -11   -1    0    0    0    0  0.00000000000E+00  0.00000000000E+00  0.45593999997E+02  0.45594000000E+02  0.51100000000E-03 0. -1.
         11   -1    0    0    0    0 -0.00000000000E+00 -0.00000000000E+00 -0.45593999997E+02  0.45594000000E+02  0.51100000000E-03 0.  1.
         23    2    1    2    0    0  0.00000000000E+00  0.00000000000E+00  0.35527136788E-14  0.91188000000E+02  0.91188000000E+02 0.  0.
    9900012    2    3    3    0    0 -0.36345394697E+02  0.11036211464E+01 -0.18192297862E+02  0.50528863305E+02  0.30000010501E+02 0.  0.
         12    1    3    3    0    0  0.36345394697E+02 -0.11036211464E+01  0.18192297862E+02  0.40659136695E+02  0.00000000000E+00 0. -1.
         11    1    4    4    0    0 -0.19554080775E+02 -0.86869730035E+00  0.63027681578E+01  0.20563112523E+02  0.51100000000E-03 0. -1.
        -11    1    4    4    0    0 -0.13268512242E+02  0.11547200785E+01 -0.21398081480E+02  0.25204457679E+02  0.51100000000E-03 0.  1.
         12    1    4    4    0    0 -0.35228016798E+01  0.81759836825E+00 -0.30969845397E+01  0.47612931023E+01  0.00000000000E+00 0. -1.
</event>
<event>
 8    1  0.1021894E-011  0.9118800E+02  0.7816164E-02  0.1184000E+00
        -11   -1    0    0    0    0  0.00000000000E+00  0.00000000000E+00  0.45593999997E+02  0.45594000000E+02  0.51100000000E-03 0. -1.
         11   -1    0    0    0    0 -0.00000000000E+00 -0.00000000000E+00 -0.45593999997E+02  0.45594000000E+02  0.51100000000E-03 0.  1.
         23    2    1    2    0    0 -0.17763568394E-14  0.88817841970E-15 -0.71054273576E-14  0.91188000000E+02  0.91188000000E+02 0.  0.
    9900012    2    3    3    0    0  0.50448867124E+01 -0.76543115885E+01  0.39612184323E+02  0.50528874152E+02  0.30000043473E+02 0.  0.
        -12    1    3    3    0    0 -0.50448867124E+01  0.76543115885E+01 -0.39612184323E+02  0.40659125848E+02  0.00000000000E+00 0.  1.
         11    1    4    4    0    0  0.14479834464E+02 -0.84745961807E+01  0.18913422083E+02  0.25282442954E+02  0.51100000000E-03 0. -1.
        -11    1    4    4    0    0 -0.58939065723E+01  0.44046526053E+01  0.53652477702E+01  0.91063155641E+01  0.51100000000E-03 0.  1.
         12    1    4    4    0    0 -0.35410411797E+01 -0.35843680131E+01  0.15333514470E+02  0.16140115634E+02  0.00000000000E+00 0. -1.
</event>
<event>
 8    1  0.1021894E-011  0.9118800E+02  0.7816164E-02  0.1184000E+00
        -11   -1    0    0    0    0  0.00000000000E+00  0.00000000000E+00  0.45593999997E+02  0.45594000000E+02  0.51100000000E-03 0. -1.
         11   -1    0    0    0    0 -0.00000000000E+00 -0.00000000000E+00 -0.45593999997E+02  0.45594000000E+02  0.51100000000E-03 0.  1.
         23    2    1    2    0    0  0.00000000000E+00  0.00000000000E+00  0.00000000000E+00  0.91188000000E+02  0.91188000000E+02 0.  0.
    9900012    2    3    3    0    0  0.75663461943E+01  0.36259080152E+02 -0.16768851872E+02  0.50528869644E+02  0.30000029771E+02 0.  0.
         12    1    3    3    0    0 -0.75663461943E+01 -0.36259080152E+02  0.16768851872E+02  0.40659130356E+02  0.00000000000E+00 0. -1.
         11    1    4    4    0    0 -0.10493689003E+01 -0.52525584810E-01  0.21798401395E+01  0.24198424166E+01  0.51100000000E-03 0. -1.
        -11    1    4    4    0    0  0.72663332151E+01  0.39696665488E+02 -0.15965435683E+02  0.43399539008E+02  0.51100000000E-03 0.  1.
        -12    1    4    4    0    0  0.13493818794E+01 -0.33850597515E+01 -0.29832563280E+01  0.47094882202E+01  0.00000000000E+00 0.  1.
</event>
<event>
 8    1  0.1021894E-011  0.9118800E+02  0.7816164E-02  0.1184000E+00
        -11   -1    0    0    0    0  0.00000000000E+00  0.00000000000E+00  0.45593999997E+02  0.45594000000E+02  0.51100000000E-03 0.  1.
         11   -1    0    0    0    0 -0.00000000000E+00 -0.00000000000E+00 -0.45593999997E+02  0.45594000000E+02  0.51100000000E-03 0. -1.
         23    2    1    2    0    0  0.35527136788E-14 -0.44408920985E-15  0.35527136788E-14  0.91188000000E+02  0.91188000000E+02 0.  0.
    9900012    2    3    3    0    0  0.27641425363E+02  0.28128722067E+01 -0.29685027661E+02  0.50528911061E+02  0.30000155661E+02 0.  0.
         12    1    3    3    0    0 -0.27641425363E+02 -0.28128722067E+01  0.29685027661E+02  0.40659088939E+02  0.00000000000E+00 0. -1.
         11    1    4    4    0    0 -0.13039474390E+01  0.41805853843E+01  0.34234404502E+01  0.55585535759E+01  0.51100000000E-03 0. -1.
        -11    1    4    4    0    0  0.24759096463E+02 -0.34301039139E+00 -0.22256493764E+02  0.33293873741E+02  0.51100000000E-03 0.  1.
         12    1    4    4    0    0  0.41862763386E+01 -0.10247027861E+01 -0.10851974347E+02  0.11676483744E+02  0.00000000000E+00 0. -1.
</event>
<event>
 8    1  0.1021894E-011  0.9118800E+02  0.7816164E-02  0.1184000E+00
        -11   -1    0    0    0    0  0.00000000000E+00  0.00000000000E+00  0.45593999997E+02  0.45594000000E+02  0.51100000000E-03 0. -1.
         11   -1    0    0    0    0 -0.00000000000E+00 -0.00000000000E+00 -0.45593999997E+02  0.45594000000E+02  0.51100000000E-03 0.  1.
         23    2    1    2    0    0  0.00000000000E+00  0.00000000000E+00  0.00000000000E+00  0.91188000000E+02  0.91188000000E+02 0.  0.
    9900012    2    3    3    0    0  0.85410051792E+01  0.20674296312E+02 -0.33952762100E+02  0.50528863860E+02  0.30000012188E+02 0.  0.
         12    1    3    3    0    0 -0.85410051792E+01 -0.20674296312E+02  0.33952762100E+02  0.40659136140E+02  0.00000000000E+00 0. -1.
         11    1    4    4    0    0 -0.10996020895E+01 -0.16627940592E+01 -0.17632433689E+02  0.17744766183E+02  0.51100000000E-03 0. -1.
        -11    1    4    4    0    0  0.26255247335E+01  0.21033387886E+02 -0.10979585817E+02  0.23871491178E+02  0.51100000000E-03 0.  1.
        -12    1    4    4    0    0  0.70150825352E+01  0.13037024849E+01 -0.53407425936E+01  0.89126064985E+01  0.00000000000E+00 0.  1.
</event>
<event>
 8    1  0.1021894E-011  0.9118800E+02  0.7816164E-02  0.1184000E+00
        -11   -1    0    0    0    0  0.00000000000E+00  0.00000000000E+00  0.45593999997E+02  0.45594000000E+02  0.51100000000E-03 0. -1.
         11   -1    0    0    0    0 -0.00000000000E+00 -0.00000000000E+00 -0.45593999997E+02  0.45594000000E+02  0.51100000000E-03 0.  1.
         23    2    1    2    0    0 -0.17763568394E-14  0.00000000000E+00  0.00000000000E+00  0.91188000000E+02  0.91188000000E+02 0.  0.
    9900012    2    3    3    0    0  0.30410656988E+01 -0.14058079960E+02  0.38030086241E+02  0.50528866312E+02  0.30000019642E+02 0.  0.
        -12    1    3    3    0    0 -0.30410656988E+01  0.14058079960E+02 -0.38030086241E+02  0.40659133688E+02  0.00000000000E+00 0.  1.
         11    1    4    4    0    0 -0.97243116358E+01 -0.35894757185E+01  0.83867035244E+01  0.13333543002E+02  0.51100000000E-03 0. -1.
        -11    1    4    4    0    0  0.15812328056E+02 -0.60613391533E+01  0.24382935139E+02  0.29686648129E+02  0.51100000000E-03 0.  1.
        -12    1    4    4    0    0 -0.30469507214E+01 -0.44072650878E+01  0.52604475781E+01  0.75086751811E+01  0.00000000000E+00 0.  1.
</event>
<event>
 8    1  0.1021894E-011  0.9118800E+02  0.7816164E-02  0.1184000E+00
        -11   -1    0    0    0    0  0.00000000000E+00  0.00000000000E+00  0.45593999997E+02  0.45594000000E+02  0.51100000000E-03 0. -1.
         11   -1    0    0    0    0 -0.00000000000E+00 -0.00000000000E+00 -0.45593999997E+02  0.45594000000E+02  0.51100000000E-03 0.  1.
         23    2    1    2    0    0  0.17763568394E-14  0.00000000000E+00  0.35527136788E-14  0.91188000000E+02  0.91188000000E+02 0.  0.
    9900012    2    3    3    0    0 -0.10220407130E+02  0.22925355128E+02 -0.31986513252E+02  0.50528860072E+02  0.30000000676E+02 0.  0.
         12    1    3    3    0    0  0.10220407130E+02 -0.22925355128E+02  0.31986513252E+02  0.40659139928E+02  0.00000000000E+00 0. -1.
         11    1    4    4    0    0 -0.89345624170E+01  0.64226956495E+01 -0.41928976463E+01  0.11775305343E+02  0.51100000000E-03 0. -1.
        -11    1    4    4    0    0  0.76909919527E+01  0.16017468253E+00 -0.44845770111E+01  0.89044058968E+01  0.51100000000E-03 0.  1.
        -12    1    4    4    0    0 -0.89768366659E+01  0.16342484795E+02 -0.23309038595E+02  0.29849148832E+02  0.00000000000E+00 0.  1.
</event>
<event>
 8    1  0.1021894E-011  0.9118800E+02  0.7816164E-02  0.1184000E+00
        -11   -1    0    0    0    0  0.00000000000E+00  0.00000000000E+00  0.45593999997E+02  0.45594000000E+02  0.51100000000E-03 0. -1.
         11   -1    0    0    0    0 -0.00000000000E+00 -0.00000000000E+00 -0.45593999997E+02  0.45594000000E+02  0.51100000000E-03 0.  1.
         23    2    1    2    0    0  0.00000000000E+00 -0.17763568394E-14  0.35527136788E-14  0.91188000000E+02  0.91188000000E+02 0.  0.
    9900012    2    3    3    0    0 -0.33261237525E+02  0.12037969520E+02 -0.20048509616E+02  0.50528863638E+02  0.30000011515E+02 0.  0.
         12    1    3    3    0    0  0.33261237525E+02 -0.12037969520E+02  0.20048509616E+02  0.40659136362E+02  0.00000000000E+00 0. -1.
         11    1    4    4    0    0 -0.48212762098E+01  0.68945082409E+01 -0.18535797152E+02  0.20355704962E+02  0.51100000000E-03 0. -1.
        -11    1    4    4    0    0 -0.20636995679E+02  0.73691859512E+01 -0.22347393254E+01  0.22026905192E+02  0.51100000000E-03 0.  1.
         12    1    4    4    0    0 -0.78029656359E+01 -0.22257246727E+01  0.72202686117E+00  0.81462534837E+01  0.00000000000E+00 0. -1.
</event>
<event>
 8    1  0.1021894E-011  0.9118800E+02  0.7816164E-02  0.1184000E+00
        -11   -1    0    0    0    0  0.00000000000E+00  0.00000000000E+00  0.45593999997E+02  0.45594000000E+02  0.51100000000E-03 0.  1.
         11   -1    0    0    0    0 -0.00000000000E+00 -0.00000000000E+00 -0.45593999997E+02  0.45594000000E+02  0.51100000000E-03 0. -1.
         23    2    1    2    0    0  0.00000000000E+00 -0.17763568394E-14 -0.35527136788E-14  0.91188000000E+02  0.91188000000E+02 0.  0.
    9900012    2    3    3    0    0 -0.33756415728E+02 -0.11414908043E+02 -0.19579847388E+02  0.50528854016E+02  0.29999982266E+02 0.  0.
         12    1    3    3    0    0  0.33756415728E+02  0.11414908043E+02  0.19579847388E+02  0.40659145984E+02  0.00000000000E+00 0. -1.
         11    1    4    4    0    0  0.38980210456E+01 -0.27665563634E+01 -0.36893355247E+01  0.60381784553E+01  0.51100000000E-03 0. -1.
        -11    1    4    4    0    0 -0.33589362838E+02 -0.12586174062E+02 -0.14263109080E+02  0.38601727349E+02  0.51100000000E-03 0.  1.
        -12    1    4    4    0    0 -0.40650739358E+01  0.39378223829E+01 -0.16274027828E+01  0.58889482117E+01  0.00000000000E+00 0.  1.
</event>
<event>
 8    1  0.1021894E-011  0.9118800E+02  0.7816164E-02  0.1184000E+00
        -11   -1    0    0    0    0  0.00000000000E+00  0.00000000000E+00  0.45593999997E+02  0.45594000000E+02  0.51100000000E-03 0. -1.
         11   -1    0    0    0    0 -0.00000000000E+00 -0.00000000000E+00 -0.45593999997E+02  0.45594000000E+02  0.51100000000E-03 0.  1.
         23    2    1    2    0    0  0.00000000000E+00  0.00000000000E+00  0.00000000000E+00  0.91188000000E+02  0.91188000000E+02 0.  0.
    9900012    2    3    3    0    0  0.49536823645E+01  0.32022797496E+02  0.24559478521E+02  0.50528849570E+02  0.29999968753E+02 0.  0.
        -12    1    3    3    0    0 -0.49536823645E+01 -0.32022797496E+02 -0.24559478521E+02  0.40659150430E+02  0.00000000000E+00 0.  1.
         11    1    4    4    0    0 -0.18432821160E+01  0.11776812788E+02  0.97311787163E+01  0.15387879902E+02  0.51100000000E-03 0. -1.
        -11    1    4    4    0    0  0.14532845359E+02  0.13440192359E+02  0.40022846051E+01  0.20195560086E+02  0.51100000000E-03 0.  1.
        -12    1    4    4    0    0 -0.77358808785E+01  0.68057923498E+01  0.10826015200E+02  0.14945409582E+02  0.00000000000E+00 0.  1.
</event>
<event>
 8    1  0.1021894E-011  0.9118800E+02  0.7816164E-02  0.1184000E+00
        -11   -1    0    0    0    0  0.00000000000E+00  0.00000000000E+00  0.45593999997E+02  0.45594000000E+02  0.51100000000E-03 0. -1.
         11   -1    0    0    0    0 -0.00000000000E+00 -0.00000000000E+00 -0.45593999997E+02  0.45594000000E+02  0.51100000000E-03 0.  1.
         23    2    1    2    0    0  0.00000000000E+00  0.00000000000E+00  0.71054273576E-14  0.91188000000E+02  0.91188000000E+02 0.  0.
    9900012    2    3    3    0    0  0.16852467857E+02  0.18129925071E+02 -0.32256248729E+02  0.50528862797E+02  0.30000008959E+02 0.  0.
         12    1    3    3    0    0 -0.16852467857E+02 -0.18129925071E+02  0.32256248729E+02  0.40659137203E+02  0.00000000000E+00 0. -1.
         11    1    4    4    0    0  0.68948895600E+01  0.27963727741E+00 -0.21895615766E+02  0.22957257874E+02  0.51100000000E-03 0.  1.
        -11    1    4    4    0    0  0.12039220315E+02  0.19458648855E+02 -0.88191092894E+01  0.24522612626E+02  0.51100000000E-03 0. -1.
         12    1    4    4    0    0 -0.20816420180E+01 -0.16083610616E+01 -0.15415236743E+01  0.30489922981E+01  0.00000000000E+00 0. -1.
</event>
<event>
 8    1  0.1021894E-011  0.9118800E+02  0.7816164E-02  0.1184000E+00
        -11   -1    0    0    0    0  0.00000000000E+00  0.00000000000E+00  0.45593999997E+02  0.45594000000E+02  0.51100000000E-03 0. -1.
         11   -1    0    0    0    0 -0.00000000000E+00 -0.00000000000E+00 -0.45593999997E+02  0.45594000000E+02  0.51100000000E-03 0.  1.
         23    2    1    2    0    0  0.00000000000E+00 -0.35527136788E-14  0.00000000000E+00  0.91188000000E+02  0.91188000000E+02 0.  0.
    9900012    2    3    3    0    0  0.26100656366E+02  0.15395157705E+02  0.27109235313E+02  0.50528858559E+02  0.29999996076E+02 0.  0.
        -12    1    3    3    0    0 -0.26100656366E+02 -0.15395157705E+02 -0.27109235313E+02  0.40659141441E+02  0.00000000000E+00 0.  1.
         11    1    4    4    0    0  0.87228835290E+01 -0.74045831520E+00  0.71326837225E+01  0.11292127918E+02  0.51100000000E-03 0. -1.
        -11    1    4    4    0    0  0.95782497208E+01  0.20563004009E+02  0.75419082218E+01  0.23905237532E+02  0.51100000000E-03 0.  1.
        -12    1    4    4    0    0  0.77995231159E+01 -0.44273879890E+01  0.12434643368E+02  0.15331493109E+02  0.00000000000E+00 0.  1.
</event>
<event>
 8    1  0.1021894E-011  0.9118800E+02  0.7816164E-02  0.1184000E+00
        -11   -1    0    0    0    0  0.00000000000E+00  0.00000000000E+00  0.45593999997E+02  0.45594000000E+02  0.51100000000E-03 0. -1.
         11   -1    0    0    0    0 -0.00000000000E+00 -0.00000000000E+00 -0.45593999997E+02  0.45594000000E+02  0.51100000000E-03 0.  1.
         23    2    1    2    0    0  0.88817841970E-15  0.00000000000E+00  0.00000000000E+00  0.91188000000E+02  0.91188000000E+02 0.  0.
    9900012    2    3    3    0    0  0.51207505000E+01 -0.57962683388E+01 -0.39916722046E+02  0.50528886492E+02  0.30000080982E+02 0.  0.
         12    1    3    3    0    0 -0.51207505000E+01  0.57962683388E+01  0.39916722046E+02  0.40659113508E+02  0.00000000000E+00 0. -1.
         11    1    4    4    0    0 -0.73987147144E+01  0.21082659147E+01 -0.18072196603E+01  0.79026456174E+01  0.51100000000E-03 0. -1.
        -11    1    4    4    0    0  0.11600337449E+02 -0.91680072592E+00 -0.27807472532E+02  0.30144052173E+02  0.51100000000E-03 0.  1.
        -12    1    4    4    0    0  0.91912776528E+00 -0.69877335276E+01 -0.10302029853E+02  0.12482188702E+02  0.00000000000E+00 0.  1.
</event>
<event>
 8    1  0.1021894E-011  0.9118800E+02  0.7816164E-02  0.1184000E+00
        -11   -1    0    0    0    0  0.00000000000E+00  0.00000000000E+00  0.45593999997E+02  0.45594000000E+02  0.51100000000E-03 0. -1.
         11   -1    0    0    0    0 -0.00000000000E+00 -0.00000000000E+00 -0.45593999997E+02  0.45594000000E+02  0.51100000000E-03 0.  1.
         23    2    1    2    0    0 -0.17763568394E-14  0.35527136788E-14  0.00000000000E+00  0.91188000000E+02  0.91188000000E+02 0.  0.
    9900012    2    3    3    0    0 -0.11346114799E+02 -0.21171943284E+02  0.32805183946E+02  0.50528860840E+02  0.30000003009E+02 0.  0.
        -12    1    3    3    0    0  0.11346114799E+02  0.21171943284E+02 -0.32805183946E+02  0.40659139160E+02  0.00000000000E+00 0.  1.
         11    1    4    4    0    0  0.71180385080E+01 -0.14376866063E+02  0.11691307480E+02  0.19850627719E+02  0.51100000000E-03 0. -1.
        -11    1    4    4    0    0 -0.92546922408E+01 -0.36510769649E+01  0.34846086639E+01  0.10541451004E+02  0.51100000000E-03 0.  1.
         12    1    4    4    0    0 -0.92094610667E+01 -0.31440002562E+01  0.17629267803E+02  0.20136782116E+02  0.00000000000E+00 0. -1.
</event>
<event>
 8    1  0.1021894E-011  0.9118800E+02  0.7816164E-02  0.1184000E+00
        -11   -1    0    0    0    0  0.00000000000E+00  0.00000000000E+00  0.45593999997E+02  0.45594000000E+02  0.51100000000E-03 0. -1.
         11   -1    0    0    0    0 -0.00000000000E+00 -0.00000000000E+00 -0.45593999997E+02  0.45594000000E+02  0.51100000000E-03 0.  1.
         23    2    1    2    0    0 -0.35527136788E-14  0.00000000000E+00 -0.35527136788E-14  0.91188000000E+02  0.91188000000E+02 0.  0.
    9900012    2    3    3    0    0 -0.20624817822E+02  0.23365247811E+02 -0.26112189765E+02  0.50528875934E+02  0.30000048890E+02 0.  0.
         12    1    3    3    0    0  0.20624817822E+02 -0.23365247811E+02  0.26112189765E+02  0.40659124066E+02  0.00000000000E+00 0. -1.
         11    1    4    4    0    0 -0.21017555150E+01  0.63492796230E+01 -0.88114315494E+00  0.67458981238E+01  0.51100000000E-03 0. -1.
        -11    1    4    4    0    0 -0.11485830230E+02  0.24459819919E+01 -0.24977641857E+02  0.27600538346E+02  0.51100000000E-03 0.  1.
        -12    1    4    4    0    0 -0.70372320765E+01  0.14569986197E+02 -0.25340475318E+00  0.16182439465E+02  0.00000000000E+00 0.  1.
</event>
<event>
 8    1  0.1021894E-011  0.9118800E+02  0.7816164E-02  0.1184000E+00
        -11   -1    0    0    0    0  0.00000000000E+00  0.00000000000E+00  0.45593999997E+02  0.45594000000E+02  0.51100000000E-03 0. -1.
         11   -1    0    0    0    0 -0.00000000000E+00 -0.00000000000E+00 -0.45593999997E+02  0.45594000000E+02  0.51100000000E-03 0.  1.
         23    2    1    2    0    0  0.00000000000E+00  0.00000000000E+00  0.00000000000E+00  0.91188000000E+02  0.91188000000E+02 0.  0.
    9900012    2    3    3    0    0  0.16749111685E+02  0.14688873538E+02 -0.34012793739E+02  0.50528857289E+02  0.29999992216E+02 0.  0.
         12    1    3    3    0    0 -0.16749111685E+02 -0.14688873538E+02  0.34012793739E+02  0.40659142711E+02  0.00000000000E+00 0. -1.
         11    1    4    4    0    0  0.35831453077E+01  0.25751293019E+01 -0.14363575434E+01  0.46404034815E+01  0.51100000000E-03 0. -1.
        -11    1    4    4    0    0  0.19316202974E+02  0.15946635353E+02 -0.24513158803E+02  0.35047194341E+02  0.51100000000E-03 0.  1.
        -12    1    4    4    0    0 -0.61502365967E+01 -0.38328911167E+01 -0.80632773925E+01  0.10841259466E+02  0.00000000000E+00 0.  1.
</event>
<event>
 8    1  0.1021894E-011  0.9118800E+02  0.7816164E-02  0.1184000E+00
        -11   -1    0    0    0    0  0.00000000000E+00  0.00000000000E+00  0.45593999997E+02  0.45594000000E+02  0.51100000000E-03 0. -1.
         11   -1    0    0    0    0 -0.00000000000E+00 -0.00000000000E+00 -0.45593999997E+02  0.45594000000E+02  0.51100000000E-03 0.  1.
         23    2    1    2    0    0 -0.88817841970E-15  0.00000000000E+00  0.00000000000E+00  0.91188000000E+02  0.91188000000E+02 0.  0.
    9900012    2    3    3    0    0 -0.69696066240E+01 -0.61971246568E+01  0.39575066969E+02  0.50528859624E+02  0.29999999313E+02 0.  0.
        -12    1    3    3    0    0  0.69696066240E+01  0.61971246568E+01 -0.39575066969E+02  0.40659140376E+02  0.00000000000E+00 0.  1.
         11    1    4    4    0    0 -0.35095088339E+01 -0.81200787134E-01  0.33575539079E+02  0.33758555516E+02  0.51100000000E-03 0. -1.
        -11    1    4    4    0    0 -0.87726688008E+01 -0.52951690941E+01  0.33761886758E+01  0.10788752655E+02  0.51100000000E-03 0.  1.
         12    1    4    4    0    0  0.53125710107E+01 -0.82075477564E+00  0.26233392144E+01  0.59815514526E+01  0.00000000000E+00 0. -1.
</event>
<event>
 8    1  0.1021894E-011  0.9118800E+02  0.7816164E-02  0.1184000E+00
        -11   -1    0    0    0    0  0.00000000000E+00  0.00000000000E+00  0.45593999997E+02  0.45594000000E+02  0.51100000000E-03 0. -1.
         11   -1    0    0    0    0 -0.00000000000E+00 -0.00000000000E+00 -0.45593999997E+02  0.45594000000E+02  0.51100000000E-03 0.  1.
         23    2    1    2    0    0  0.00000000000E+00  0.00000000000E+00 -0.17763568394E-14  0.91188000000E+02  0.91188000000E+02 0.  0.
    9900012    2    3    3    0    0 -0.21589397399E+02  0.32742389946E+02  0.10723791213E+02  0.50528857395E+02  0.29999992536E+02 0.  0.
        -12    1    3    3    0    0  0.21589397399E+02 -0.32742389946E+02 -0.10723791213E+02  0.40659142605E+02  0.00000000000E+00 0.  1.
         11    1    4    4    0    0 -0.21256948488E+02  0.10741559494E+02  0.89173896332E+01  0.25431452918E+02  0.51100000000E-03 0. -1.
        -11    1    4    4    0    0 -0.24822779459E+01  0.99594092842E+01 -0.46476191300E+01  0.11267293416E+02  0.51100000000E-03 0.  1.
         12    1    4    4    0    0  0.21498290351E+01  0.12041421168E+02  0.64540207094E+01  0.13830111060E+02  0.00000000000E+00 0. -1.
</event>
<event>
 8    1  0.1021894E-011  0.9118800E+02  0.7816164E-02  0.1184000E+00
        -11   -1    0    0    0    0  0.00000000000E+00  0.00000000000E+00  0.45593999997E+02  0.45594000000E+02  0.51100000000E-03 0. -1.
         11   -1    0    0    0    0 -0.00000000000E+00 -0.00000000000E+00 -0.45593999997E+02  0.45594000000E+02  0.51100000000E-03 0.  1.
         23    2    1    2    0    0  0.83266726847E-15  0.22204460493E-15  0.00000000000E+00  0.91188000000E+02  0.91188000000E+02 0.  0.
    9900012    2    3    3    0    0  0.42028414527E+00 -0.19377111179E+01 -0.40610767385E+02  0.50528858460E+02  0.29999995775E+02 0.  0.
         12    1    3    3    0    0 -0.42028414527E+00  0.19377111179E+01  0.40610767385E+02  0.40659141540E+02  0.00000000000E+00 0. -1.
         11    1    4    4    0    0  0.26013216323E+01  0.23379194398E+01  0.15983000939E+01  0.38454265034E+01  0.51100000000E-03 0. -1.
        -11    1    4    4    0    0 -0.96611443141E+01 -0.49305561331E+01 -0.15356536409E+02  0.18800832534E+02  0.51100000000E-03 0.  1.
        -12    1    4    4    0    0  0.74801068271E+01  0.65492557543E+00 -0.26852531071E+02  0.27882599422E+02  0.00000000000E+00 0.  1.
</event>
<event>
 8    1  0.1021894E-011  0.9118800E+02  0.7816164E-02  0.1184000E+00
        -11   -1    0    0    0    0  0.00000000000E+00  0.00000000000E+00  0.45593999997E+02  0.45594000000E+02  0.51100000000E-03 0. -1.
         11   -1    0    0    0    0 -0.00000000000E+00 -0.00000000000E+00 -0.45593999997E+02  0.45594000000E+02  0.51100000000E-03 0.  1.
         23    2    1    2    0    0  0.00000000000E+00 -0.44408920985E-15 -0.71054273576E-14  0.91188000000E+02  0.91188000000E+02 0.  0.
    9900012    2    3    3    0    0 -0.11797174176E+02  0.13547586541E+01  0.38886482421E+02  0.50528841073E+02  0.29999942925E+02 0.  0.
        -12    1    3    3    0    0  0.11797174176E+02 -0.13547586541E+01 -0.38886482421E+02  0.40659158927E+02  0.00000000000E+00 0.  1.
         11    1    4    4    0    0 -0.60215378136E+01  0.31535925584E+01  0.41006742714E+02  0.41566296587E+02  0.51100000000E-03 0. -1.
        -11    1    4    4    0    0 -0.49939026283E+01 -0.33991346831E+01 -0.32437614193E+01  0.68567607849E+01  0.51100000000E-03 0.  1.
         12    1    4    4    0    0 -0.78173373445E+00  0.16003007789E+01  0.11235011261E+01  0.21057837008E+01  0.00000000000E+00 0. -1.
</event>
<event>
 8    1  0.1021894E-011  0.9118800E+02  0.7816164E-02  0.1184000E+00
        -11   -1    0    0    0    0  0.00000000000E+00  0.00000000000E+00  0.45593999997E+02  0.45594000000E+02  0.51100000000E-03 0. -1.
         11   -1    0    0    0    0 -0.00000000000E+00 -0.00000000000E+00 -0.45593999997E+02  0.45594000000E+02  0.51100000000E-03 0.  1.
         23    2    1    2    0    0  0.00000000000E+00  0.00000000000E+00 -0.35527136788E-14  0.91188000000E+02  0.91188000000E+02 0.  0.
    9900012    2    3    3    0    0 -0.28183171951E+02 -0.23628769312E+02 -0.17336567152E+02  0.50528849972E+02  0.29999969975E+02 0.  0.
         12    1    3    3    0    0  0.28183171951E+02  0.23628769312E+02  0.17336567152E+02  0.40659150028E+02  0.00000000000E+00 0. -1.
         11    1    4    4    0    0 -0.29205100905E+02 -0.28712216956E+02 -0.16325765573E+02  0.44089227065E+02  0.51100000000E-03 0.  1.
        -11    1    4    4    0    0  0.21691488793E+01  0.46021527860E+01 -0.56915769005E+00  0.51194685138E+01  0.51100000000E-03 0. -1.
        -12    1    4    4    0    0 -0.11472199253E+01  0.48129485836E+00 -0.44164388897E+00  0.13201543934E+01  0.00000000000E+00 0.  1.
</event>
<event>
 8    1  0.1021894E-011  0.9118800E+02  0.7816164E-02  0.1184000E+00
        -11   -1    0    0    0    0  0.00000000000E+00  0.00000000000E+00  0.45593999997E+02  0.45594000000E+02  0.51100000000E-03 0. -1.
         11   -1    0    0    0    0 -0.00000000000E+00 -0.00000000000E+00 -0.45593999997E+02  0.45594000000E+02  0.51100000000E-03 0.  1.
         23    2    1    2    0    0 -0.88817841970E-15  0.00000000000E+00  0.00000000000E+00  0.91188000000E+02  0.91188000000E+02 0.  0.
    9900012    2    3    3    0    0 -0.79165558254E+01 -0.34803236806E+02  0.19473774153E+02  0.50528867840E+02  0.30000024286E+02 0.  0.
        -12    1    3    3    0    0  0.79165558254E+01  0.34803236806E+02 -0.19473774153E+02  0.40659132160E+02  0.00000000000E+00 0.  1.
         11    1    4    4    0    0 -0.14175773062E+02 -0.22064606398E+02  0.51329557921E+01  0.26723522089E+02  0.51100000000E-03 0. -1.
        -11    1    4    4    0    0  0.18875972694E+01 -0.11649012564E+02  0.15174896426E+02  0.19223423185E+02  0.51100000000E-03 0.  1.
         12    1    4    4    0    0  0.43716199670E+01 -0.10896178437E+01 -0.83407806519E+00  0.45819225659E+01  0.00000000000E+00 0. -1.
</event>
<event>
 8    1  0.1021894E-011  0.9118800E+02  0.7816164E-02  0.1184000E+00
        -11   -1    0    0    0    0  0.00000000000E+00  0.00000000000E+00  0.45593999997E+02  0.45594000000E+02  0.51100000000E-03 0. -1.
         11   -1    0    0    0    0 -0.00000000000E+00 -0.00000000000E+00 -0.45593999997E+02  0.45594000000E+02  0.51100000000E-03 0.  1.
         23    2    1    2    0    0  0.00000000000E+00  0.00000000000E+00  0.00000000000E+00  0.91188000000E+02  0.91188000000E+02 0.  0.
    9900012    2    3    3    0    0  0.96797188145E+01  0.10615707828E+02  0.38036508118E+02  0.50528853934E+02  0.29999982019E+02 0.  0.
        -12    1    3    3    0    0 -0.96797188145E+01 -0.10615707828E+02 -0.38036508118E+02  0.40659146066E+02  0.00000000000E+00 0.  1.
         11    1    4    4    0    0  0.10392354649E+02  0.14204347518E+02  0.70727208530E+01  0.18968075920E+02  0.51100000000E-03 0.  1.
        -11    1    4    4    0    0 -0.25391688886E+01 -0.77641926976E+00  0.16580874137E+02  0.16792128899E+02  0.51100000000E-03 0. -1.
         12    1    4    4    0    0  0.18265330538E+01 -0.28122204200E+01  0.14382913127E+02  0.14768649116E+02  0.00000000000E+00 0. -1.
</event>
<event>
 8    1  0.1021894E-011  0.9118800E+02  0.7816164E-02  0.1184000E+00
        -11   -1    0    0    0    0  0.00000000000E+00  0.00000000000E+00  0.45593999997E+02  0.45594000000E+02  0.51100000000E-03 0. -1.
         11   -1    0    0    0    0 -0.00000000000E+00 -0.00000000000E+00 -0.45593999997E+02  0.45594000000E+02  0.51100000000E-03 0.  1.
         23    2    1    2    0    0  0.00000000000E+00  0.00000000000E+00  0.22204460493E-15  0.91188000000E+02  0.91188000000E+02 0.  0.
    9900012    2    3    3    0    0  0.16958118277E+02 -0.36905718342E+02 -0.18857560729E+01  0.50528857144E+02  0.29999991774E+02 0.  0.
         12    1    3    3    0    0 -0.16958118277E+02  0.36905718342E+02  0.18857560729E+01  0.40659142856E+02  0.00000000000E+00 0. -1.
         11    1    4    4    0    0  0.11884155698E+01 -0.21815127102E+01  0.58126894927E+01  0.63212885293E+01  0.51100000000E-03 0. -1.
        -11    1    4    4    0    0  0.19159779867E+02 -0.20951266663E+02 -0.72092354655E+00  0.28400219548E+02  0.51100000000E-03 0.  1.
        -12    1    4    4    0    0 -0.33900771598E+01 -0.13772938969E+02 -0.69775220190E+01  0.15807349067E+02  0.00000000000E+00 0.  1.
</event>
<event>
 8    1  0.1021894E-011  0.9118800E+02  0.7816164E-02  0.1184000E+00
        -11   -1    0    0    0    0  0.00000000000E+00  0.00000000000E+00  0.45593999997E+02  0.45594000000E+02  0.51100000000E-03 0. -1.
         11   -1    0    0    0    0 -0.00000000000E+00 -0.00000000000E+00 -0.45593999997E+02  0.45594000000E+02  0.51100000000E-03 0.  1.
         23    2    1    2    0    0  0.00000000000E+00  0.35527136788E-14  0.35527136788E-14  0.91188000000E+02  0.91188000000E+02 0.  0.
    9900012    2    3    3    0    0  0.17714289529E+02  0.31118755380E+02 -0.19261148076E+02  0.50528870458E+02  0.30000032246E+02 0.  0.
         12    1    3    3    0    0 -0.17714289529E+02 -0.31118755380E+02  0.19261148076E+02  0.40659129542E+02  0.00000000000E+00 0. -1.
         11    1    4    4    0    0  0.19052361393E+02  0.59725641971E+01 -0.43951402742E+01  0.20444589896E+02  0.51100000000E-03 0. -1.
        -11    1    4    4    0    0 -0.20467767118E+01  0.54830280237E+01 -0.63758912235E+01  0.86547605612E+01  0.51100000000E-03 0.  1.
         12    1    4    4    0    0  0.70870484761E+00  0.19663163159E+02 -0.84901165779E+01  0.21429520001E+02  0.00000000000E+00 0. -1.
</event>
<event>
 8    1  0.1021894E-011  0.9118800E+02  0.7816164E-02  0.1184000E+00
        -11   -1    0    0    0    0  0.00000000000E+00  0.00000000000E+00  0.45593999997E+02  0.45594000000E+02  0.51100000000E-03 0. -1.
         11   -1    0    0    0    0 -0.00000000000E+00 -0.00000000000E+00 -0.45593999997E+02  0.45594000000E+02  0.51100000000E-03 0.  1.
         23    2    1    2    0    0 -0.35527136788E-14 -0.44408920985E-15 -0.71054273576E-14  0.91188000000E+02  0.91188000000E+02 0.  0.
    9900012    2    3    3    0    0 -0.24744796839E+02 -0.14210657347E+01  0.32231057790E+02  0.50528862224E+02  0.30000007217E+02 0.  0.
        -12    1    3    3    0    0  0.24744796839E+02  0.14210657347E+01 -0.32231057790E+02  0.40659137776E+02  0.00000000000E+00 0.  1.
         11    1    4    4    0    0 -0.19587960735E+02 -0.54119112496E+01  0.30095062472E+02  0.36313768389E+02  0.51100000000E-03 0. -1.
        -11    1    4    4    0    0 -0.71198518664E+01  0.59670943757E+01 -0.17307178212E+01  0.94495444507E+01  0.51100000000E-03 0.  1.
        -12    1    4    4    0    0  0.19630157622E+01 -0.19762488608E+01  0.38667131386E+01  0.47655493847E+01  0.00000000000E+00 0.  1.
</event>
<event>
 8    1  0.1021894E-011  0.9118800E+02  0.7816164E-02  0.1184000E+00
        -11   -1    0    0    0    0  0.00000000000E+00  0.00000000000E+00  0.45593999997E+02  0.45594000000E+02  0.51100000000E-03 0.  1.
         11   -1    0    0    0    0 -0.00000000000E+00 -0.00000000000E+00 -0.45593999997E+02  0.45594000000E+02  0.51100000000E-03 0. -1.
         23    2    1    2    0    0  0.00000000000E+00  0.00000000000E+00  0.00000000000E+00  0.91188000000E+02  0.91188000000E+02 0.  0.
    9900012    2    3    3    0    0  0.76412587131E+01  0.33137027665E+02 -0.22287086623E+02  0.50528859978E+02  0.30000000388E+02 0.  0.
         12    1    3    3    0    0 -0.76412587131E+01 -0.33137027665E+02  0.22287086623E+02  0.40659140022E+02  0.00000000000E+00 0. -1.
         11    1    4    4    0    0 -0.57854271362E+01  0.66187191215E+01 -0.69646217846E+01  0.11215371899E+02  0.51100000000E-03 0. -1.
        -11    1    4    4    0    0  0.12586154857E+02  0.11397115832E+02 -0.17059916985E+02  0.24069613856E+02  0.51100000000E-03 0.  1.
        -12    1    4    4    0    0  0.84053099252E+00  0.15121192712E+02  0.17374521464E+01  0.15243874223E+02  0.00000000000E+00 0.  1.
</event>
<event>
 8    1  0.1021894E-011  0.9118800E+02  0.7816164E-02  0.1184000E+00
        -11   -1    0    0    0    0  0.00000000000E+00  0.00000000000E+00  0.45593999997E+02  0.45594000000E+02  0.51100000000E-03 0. -1.
         11   -1    0    0    0    0 -0.00000000000E+00 -0.00000000000E+00 -0.45593999997E+02  0.45594000000E+02  0.51100000000E-03 0.  1.
         23    2    1    2    0    0  0.00000000000E+00  0.00000000000E+00  0.00000000000E+00  0.91188000000E+02  0.91188000000E+02 0.  0.
    9900012    2    3    3    0    0  0.19636095246E+02 -0.13311438531E+02  0.33021115063E+02  0.50528872214E+02  0.30000037583E+02 0.  0.
        -12    1    3    3    0    0 -0.19636095246E+02  0.13311438531E+02 -0.33021115063E+02  0.40659127786E+02  0.00000000000E+00 0.  1.
         11    1    4    4    0    0  0.91533899585E+01  0.21757153263E+01  0.17329228505E+02  0.19718530517E+02  0.51100000000E-03 0. -1.
        -11    1    4    4    0    0  0.10518821688E+02 -0.18283559606E+02  0.78873525721E+01  0.22519868837E+02  0.51100000000E-03 0.  1.
         12    1    4    4    0    0 -0.36116400194E-01  0.27964057492E+01  0.78045339865E+01  0.82904728607E+01  0.00000000000E+00 0. -1.
</event>
<event>
 8    1  0.1021894E-011  0.9118800E+02  0.7816164E-02  0.1184000E+00
        -11   -1    0    0    0    0  0.00000000000E+00  0.00000000000E+00  0.45593999997E+02  0.45594000000E+02  0.51100000000E-03 0. -1.
         11   -1    0    0    0    0 -0.00000000000E+00 -0.00000000000E+00 -0.45593999997E+02  0.45594000000E+02  0.51100000000E-03 0.  1.
         23    2    1    2    0    0  0.71054273576E-14  0.55511151231E-16 -0.35527136788E-14  0.91188000000E+02  0.91188000000E+02 0.  0.
    9900012    2    3    3    0    0  0.35892408462E+02 -0.33252036223E+00 -0.19099450124E+02  0.50528873717E+02  0.30000042151E+02 0.  0.
         12    1    3    3    0    0 -0.35892408462E+02  0.33252036223E+00  0.19099450124E+02  0.40659126283E+02  0.00000000000E+00 0. -1.
         11    1    4    4    0    0 -0.11568698799E+01 -0.31065176419E+00 -0.14166611786E+01  0.18552039225E+01  0.51100000000E-03 0. -1.
        -11    1    4    4    0    0  0.38416835656E+02 -0.64912148547E-01 -0.21913401356E+02  0.44227306436E+02  0.51100000000E-03 0.  1.
        -12    1    4    4    0    0 -0.13675573136E+01  0.43043550510E-01  0.42306124099E+01  0.44463633586E+01  0.00000000000E+00 0.  1.
</event>
<event>
 8    1  0.1021894E-011  0.9118800E+02  0.7816164E-02  0.1184000E+00
        -11   -1    0    0    0    0  0.00000000000E+00  0.00000000000E+00  0.45593999997E+02  0.45594000000E+02  0.51100000000E-03 0. -1.
         11   -1    0    0    0    0 -0.00000000000E+00 -0.00000000000E+00 -0.45593999997E+02  0.45594000000E+02  0.51100000000E-03 0.  1.
         23    2    1    2    0    0  0.71054273576E-14 -0.95756735874E-15  0.00000000000E+00  0.91188000000E+02  0.91188000000E+02 0.  0.
    9900012    2    3    3    0    0 -0.40009327813E+02  0.10303059215E+00  0.72393914190E+01  0.50528859386E+02  0.29999998591E+02 0.  0.
        -12    1    3    3    0    0  0.40009327813E+02 -0.10303059215E+00 -0.72393914190E+01  0.40659140614E+02  0.00000000000E+00 0.  1.
         11    1    4    4    0    0 -0.16867281512E+02 -0.65109521941E+01  0.11505251440E+02  0.21430550507E+02  0.51100000000E-03 0.  1.
        -11    1    4    4    0    0 -0.85560073815E+01  0.98170602601E+01 -0.54523593786E+01  0.14117654108E+02  0.51100000000E-03 0. -1.
         12    1    4    4    0    0 -0.14586038919E+02 -0.32030774738E+01  0.11864993577E+01  0.14980654771E+02  0.00000000000E+00 0. -1.
</event>
<event>
 8    1  0.1021894E-011  0.9118800E+02  0.7816164E-02  0.1184000E+00
        -11   -1    0    0    0    0  0.00000000000E+00  0.00000000000E+00  0.45593999997E+02  0.45594000000E+02  0.51100000000E-03 0. -1.
         11   -1    0    0    0    0 -0.00000000000E+00 -0.00000000000E+00 -0.45593999997E+02  0.45594000000E+02  0.51100000000E-03 0.  1.
         23    2    1    2    0    0  0.33306690739E-15  0.00000000000E+00  0.00000000000E+00  0.91188000000E+02  0.91188000000E+02 0.  0.
    9900012    2    3    3    0    0 -0.91530579425E+00  0.22116108480E+02  0.34105807679E+02  0.50528853963E+02  0.29999982106E+02 0.  0.
        -12    1    3    3    0    0  0.91530579425E+00 -0.22116108480E+02 -0.34105807679E+02  0.40659146037E+02  0.00000000000E+00 0.  1.
         11    1    4    4    0    0 -0.34894655511E+01  0.14944729118E+02  0.30470960822E+02  0.34117455238E+02  0.51100000000E-03 0. -1.
        -11    1    4    4    0    0 -0.30490431080E+01 -0.16771468223E+01 -0.24810900425E+01  0.42737914547E+01  0.51100000000E-03 0.  1.
         12    1    4    4    0    0  0.56232028648E+01  0.88485261840E+01  0.61159368999E+01  0.12137607270E+02  0.00000000000E+00 0. -1.
</event>
<event>
 8    1  0.1021894E-011  0.9118800E+02  0.7816164E-02  0.1184000E+00
        -11   -1    0    0    0    0  0.00000000000E+00  0.00000000000E+00  0.45593999997E+02  0.45594000000E+02  0.51100000000E-03 0. -1.
         11   -1    0    0    0    0 -0.00000000000E+00 -0.00000000000E+00 -0.45593999997E+02  0.45594000000E+02  0.51100000000E-03 0.  1.
         23    2    1    2    0    0  0.00000000000E+00  0.35527136788E-14 -0.22204460493E-15  0.91188000000E+02  0.91188000000E+02 0.  0.
    9900012    2    3    3    0    0  0.36060338529E+02 -0.18723167252E+02  0.15034703934E+01  0.50528862896E+02  0.30000009259E+02 0.  0.
        -12    1    3    3    0    0 -0.36060338529E+02  0.18723167252E+02 -0.15034703934E+01  0.40659137104E+02  0.00000000000E+00 0.  1.
         11    1    4    4    0    0  0.13560936530E+02 -0.18059604914E+02 -0.32333238339E+01  0.22814528540E+02  0.51100000000E-03 0. -1.
        -11    1    4    4    0    0 -0.52931714489E+00 -0.15310217363E+01  0.43762623767E+01  0.46664629912E+01  0.51100000000E-03 0.  1.
         12    1    4    4    0    0  0.23028719144E+02  0.86745939856E+00  0.36053185058E+00  0.23047871365E+02  0.00000000000E+00 0. -1.
</event>
<event>
 8    1  0.1021894E-011  0.9118800E+02  0.7816164E-02  0.1184000E+00
        -11   -1    0    0    0    0  0.00000000000E+00  0.00000000000E+00  0.45593999997E+02  0.45594000000E+02  0.51100000000E-03 0. -1.
         11   -1    0    0    0    0 -0.00000000000E+00 -0.00000000000E+00 -0.45593999997E+02  0.45594000000E+02  0.51100000000E-03 0.  1.
         23    2    1    2    0    0  0.17763568394E-14  0.35527136788E-14  0.00000000000E+00  0.91188000000E+02  0.91188000000E+02 0.  0.
    9900012    2    3    3    0    0  0.64612302813E+01  0.21568850020E+02 -0.33855612139E+02  0.50528864972E+02  0.30000015568E+02 0.  0.
         12    1    3    3    0    0 -0.64612302813E+01 -0.21568850020E+02  0.33855612139E+02  0.40659135028E+02  0.00000000000E+00 0. -1.
         11    1    4    4    0    0  0.87167393873E+00  0.77634475563E+01 -0.16689515512E-01  0.78122475777E+01  0.51100000000E-03 0. -1.
        -11    1    4    4    0    0 -0.62990953203E+01  0.18010900260E+01 -0.19452855735E+02  0.20526473726E+02  0.51100000000E-03 0.  1.
        -12    1    4    4    0    0  0.11888651663E+02  0.12004312437E+02 -0.14386066889E+02  0.22190143668E+02  0.00000000000E+00 0.  1.
</event>
<event>
 8    1  0.1021894E-011  0.9118800E+02  0.7816164E-02  0.1184000E+00
        -11   -1    0    0    0    0  0.00000000000E+00  0.00000000000E+00  0.45593999997E+02  0.45594000000E+02  0.51100000000E-03 0. -1.
         11   -1    0    0    0    0 -0.00000000000E+00 -0.00000000000E+00 -0.45593999997E+02  0.45594000000E+02  0.51100000000E-03 0.  1.
         23    2    1    2    0    0  0.00000000000E+00  0.00000000000E+00  0.00000000000E+00  0.91188000000E+02  0.91188000000E+02 0.  0.
    9900012    2    3    3    0    0  0.25513064097E+02 -0.18374201311E+02 -0.25780556034E+02  0.50528870855E+02  0.30000033450E+02 0.  0.
         12    1    3    3    0    0 -0.25513064097E+02  0.18374201311E+02  0.25780556034E+02  0.40659129145E+02  0.00000000000E+00 0. -1.
         11    1    4    4    0    0  0.49928011047E+01 -0.86919964436E+01  0.26612709572E+01  0.10371172953E+02  0.51100000000E-03 0. -1.
        -11    1    4    4    0    0  0.19021505982E+02 -0.15538741149E+01 -0.24341348205E+02  0.30931108084E+02  0.51100000000E-03 0.  1.
        -12    1    4    4    0    0  0.14987570106E+01 -0.81283307530E+01 -0.41004787857E+01  0.92265898185E+01  0.00000000000E+00 0.  1.
</event>
<event>
 8    1  0.1021894E-011  0.9118800E+02  0.7816164E-02  0.1184000E+00
        -11   -1    0    0    0    0  0.00000000000E+00  0.00000000000E+00  0.45593999997E+02  0.45594000000E+02  0.51100000000E-03 0. -1.
         11   -1    0    0    0    0 -0.00000000000E+00 -0.00000000000E+00 -0.45593999997E+02  0.45594000000E+02  0.51100000000E-03 0.  1.
         23    2    1    2    0    0  0.00000000000E+00  0.00000000000E+00  0.17763568394E-14  0.91188000000E+02  0.91188000000E+02 0.  0.
    9900012    2    3    3    0    0 -0.37723524771E+02 -0.70349481758E+01  0.13439249556E+02  0.50528828272E+02  0.29999904015E+02 0.  0.
        -12    1    3    3    0    0  0.37723524771E+02  0.70349481758E+01 -0.13439249556E+02  0.40659171728E+02  0.00000000000E+00 0.  1.
         11    1    4    4    0    0 -0.23027594616E+02 -0.38546144124E+01 -0.56171989854E+01  0.24014185199E+02  0.51100000000E-03 0. -1.
        -11    1    4    4    0    0  0.60286690300E+00 -0.17308018962E+01  0.62420701681E+01  0.65055794478E+01  0.51100000000E-03 0.  1.
         12    1    4    4    0    0 -0.15298797058E+02 -0.14495318672E+01  0.12814378373E+02  0.20009063625E+02  0.00000000000E+00 0. -1.
</event>
<event>
 8    1  0.1021894E-011  0.9118800E+02  0.7816164E-02  0.1184000E+00
        -11   -1    0    0    0    0  0.00000000000E+00  0.00000000000E+00  0.45593999997E+02  0.45594000000E+02  0.51100000000E-03 0. -1.
         11   -1    0    0    0    0 -0.00000000000E+00 -0.00000000000E+00 -0.45593999997E+02  0.45594000000E+02  0.51100000000E-03 0.  1.
         23    2    1    2    0    0  0.00000000000E+00  0.72164496601E-15 -0.71054273576E-14  0.91188000000E+02  0.91188000000E+02 0.  0.
    9900012    2    3    3    0    0  0.14922118116E+02  0.33520258975E+00  0.37820414279E+02  0.50528859502E+02  0.29999998941E+02 0.  0.
        -12    1    3    3    0    0 -0.14922118116E+02 -0.33520258975E+00 -0.37820414279E+02  0.40659140498E+02  0.00000000000E+00 0.  1.
         11    1    4    4    0    0  0.48924834384E+01  0.95164358657E+01  0.11710596254E+02  0.15863070657E+02  0.51100000000E-03 0. -1.
        -11    1    4    4    0    0  0.33251543909E+01 -0.10169253060E+02  0.25744341486E+02  0.27879050887E+02  0.51100000000E-03 0.  1.
        -12    1    4    4    0    0  0.67044802867E+01  0.98801978447E+00  0.36547653880E+00  0.67867379580E+01  0.00000000000E+00 0.  1.
</event>
<event>
 8    1  0.1021894E-011  0.9118800E+02  0.7816164E-02  0.1184000E+00
        -11   -1    0    0    0    0  0.00000000000E+00  0.00000000000E+00  0.45593999997E+02  0.45594000000E+02  0.51100000000E-03 0. -1.
         11   -1    0    0    0    0 -0.00000000000E+00 -0.00000000000E+00 -0.45593999997E+02  0.45594000000E+02  0.51100000000E-03 0.  1.
         23    2    1    2    0    0  0.17763568394E-14  0.00000000000E+00  0.00000000000E+00  0.91188000000E+02  0.91188000000E+02 0.  0.
    9900012    2    3    3    0    0 -0.13739205580E+02 -0.24602251970E+02 -0.29310937814E+02  0.50528835628E+02  0.29999926374E+02 0.  0.
         12    1    3    3    0    0  0.13739205580E+02  0.24602251970E+02  0.29310937814E+02  0.40659164372E+02  0.00000000000E+00 0. -1.
         11    1    4    4    0    0  0.30548819482E+01 -0.66353410906E+01  0.13453160224E+01  0.74276463679E+01  0.51100000000E-03 0. -1.
        -11    1    4    4    0    0 -0.45649228314E+01 -0.69426326867E+01 -0.23901818529E+02  0.25304853256E+02  0.51100000000E-03 0.  1.
        -12    1    4    4    0    0 -0.12229164696E+02 -0.11024278192E+02 -0.67544353077E+01  0.17796336004E+02  0.00000000000E+00 0.  1.
</event>
<event>
 8    1  0.1021894E-011  0.9118800E+02  0.7816164E-02  0.1184000E+00
        -11   -1    0    0    0    0  0.00000000000E+00  0.00000000000E+00  0.45593999997E+02  0.45594000000E+02  0.51100000000E-03 0. -1.
         11   -1    0    0    0    0 -0.00000000000E+00 -0.00000000000E+00 -0.45593999997E+02  0.45594000000E+02  0.51100000000E-03 0.  1.
         23    2    1    2    0    0  0.00000000000E+00  0.00000000000E+00  0.35527136788E-14  0.91188000000E+02  0.91188000000E+02 0.  0.
    9900012    2    3    3    0    0 -0.25272705631E+02 -0.20618900200E+02  0.24275842302E+02  0.50528865542E+02  0.30000017303E+02 0.  0.
        -12    1    3    3    0    0  0.25272705631E+02  0.20618900200E+02 -0.24275842302E+02  0.40659134458E+02  0.00000000000E+00 0.  1.
         11    1    4    4    0    0 -0.26065326963E+02 -0.17763109648E+02  0.27685291567E+02  0.41969092240E+02  0.51100000000E-03 0. -1.
        -11    1    4    4    0    0  0.33041182517E+01 -0.12309903943E+01  0.58010141041E+00  0.35733811271E+01  0.51100000000E-03 0.  1.
         12    1    4    4    0    0 -0.25114969197E+01 -0.16248001575E+01 -0.39895506755E+01  0.49863921749E+01  0.00000000000E+00 0. -1.
</event>
<event>
 8    1  0.1021894E-011  0.9118800E+02  0.7816164E-02  0.1184000E+00
        -11   -1    0    0    0    0  0.00000000000E+00  0.00000000000E+00  0.45593999997E+02  0.45594000000E+02  0.51100000000E-03 0. -1.
         11   -1    0    0    0    0 -0.00000000000E+00 -0.00000000000E+00 -0.45593999997E+02  0.45594000000E+02  0.51100000000E-03 0.  1.
         23    2    1    2    0    0  0.00000000000E+00  0.17763568394E-14  0.35527136788E-14  0.91188000000E+02  0.91188000000E+02 0.  0.
    9900012    2    3    3    0    0  0.29140262725E+02 -0.14028261079E+01 -0.28320359646E+02  0.50528860766E+02  0.30000002786E+02 0.  0.
         12    1    3    3    0    0 -0.29140262725E+02  0.14028261079E+01  0.28320359646E+02  0.40659139234E+02  0.00000000000E+00 0. -1.
         11    1    4    4    0    0  0.74028384637E+01  0.11419073652E+02 -0.38060078809E+01  0.14130922003E+02  0.51100000000E-03 0. -1.
        -11    1    4    4    0    0  0.13672211541E+02 -0.29506783309E+01 -0.14861821031E+02  0.20408566722E+02  0.51100000000E-03 0.  1.
         12    1    4    4    0    0  0.80652127196E+01 -0.98712214291E+01 -0.96525307344E+01  0.15989372042E+02  0.00000000000E+00 0. -1.
</event>
<event>
 8    1  0.1021894E-011  0.9118800E+02  0.7816164E-02  0.1184000E+00
        -11   -1    0    0    0    0  0.00000000000E+00  0.00000000000E+00  0.45593999997E+02  0.45594000000E+02  0.51100000000E-03 0. -1.
         11   -1    0    0    0    0 -0.00000000000E+00 -0.00000000000E+00 -0.45593999997E+02  0.45594000000E+02  0.51100000000E-03 0.  1.
         23    2    1    2    0    0  0.00000000000E+00  0.00000000000E+00  0.00000000000E+00  0.91188000000E+02  0.91188000000E+02 0.  0.
    9900012    2    3    3    0    0 -0.75136749524E+01 -0.18588061093E+02 -0.35372291936E+02  0.50528802230E+02  0.29999824857E+02 0.  0.
         12    1    3    3    0    0  0.75136749524E+01  0.18588061093E+02  0.35372291936E+02  0.40659197770E+02  0.00000000000E+00 0. -1.
         11    1    4    4    0    0  0.19929357252E+01  0.60369067646E+00  0.25082357312E+01  0.32599818991E+01  0.51100000000E-03 0. -1.
        -11    1    4    4    0    0 -0.13028969342E+02 -0.91435181336E+01 -0.14306679918E+02  0.21401847035E+02  0.51100000000E-03 0.  1.
        -12    1    4    4    0    0  0.35223586640E+01 -0.10048233636E+02 -0.23573847749E+02  0.25866973295E+02  0.00000000000E+00 0.  1.
</event>
<event>
 8    1  0.1021894E-011  0.9118800E+02  0.7816164E-02  0.1184000E+00
        -11   -1    0    0    0    0  0.00000000000E+00  0.00000000000E+00  0.45593999997E+02  0.45594000000E+02  0.51100000000E-03 0. -1.
         11   -1    0    0    0    0 -0.00000000000E+00 -0.00000000000E+00 -0.45593999997E+02  0.45594000000E+02  0.51100000000E-03 0.  1.
         23    2    1    2    0    0 -0.88817841970E-15 -0.17763568394E-14 -0.71054273576E-14  0.91188000000E+02  0.91188000000E+02 0.  0.
    9900012    2    3    3    0    0  0.48578216039E+01  0.69106556867E+01  0.39771979281E+02  0.50528856764E+02  0.29999990620E+02 0.  0.
        -12    1    3    3    0    0 -0.48578216039E+01 -0.69106556867E+01 -0.39771979281E+02  0.40659143236E+02  0.00000000000E+00 0.  1.
         11    1    4    4    0    0  0.97388158743E+01  0.12120989950E+01  0.28632558396E+02  0.30267757089E+02  0.51100000000E-03 0. -1.
        -11    1    4    4    0    0 -0.74228276716E+01  0.88624290848E+01  0.11345298516E+02  0.16197432469E+02  0.51100000000E-03 0.  1.
        -12    1    4    4    0    0  0.25418334011E+01 -0.31638723931E+01 -0.20587763127E+00  0.40636672056E+01  0.00000000000E+00 0.  1.
</event>
<event>
 8    1  0.1572429E-011  0.9118800E+02  0.7816164E-02  0.1184000E+00
        -11   -1    0    0    0    0  0.00000000000E+00  0.00000000000E+00  0.45593999997E+02  0.45594000000E+02  0.51100000000E-03 0. -1.
         11   -1    0    0    0    0 -0.00000000000E+00 -0.00000000000E+00 -0.45593999997E+02  0.45594000000E+02  0.51100000000E-03 0.  1.
         23    2    1    2    0    0 -0.17763568394E-14  0.00000000000E+00 -0.71054273576E-14  0.91188000000E+02  0.91188000000E+02 0.  0.
    9900012    2    3    3    0    0 -0.50112906269E+01  0.22376741011E+02 -0.33575797573E+02  0.50528858904E+02  0.29999997124E+02 0.  0.
         12    1    3    3    0    0  0.50112906269E+01 -0.22376741011E+02  0.33575797573E+02  0.40659141096E+02  0.00000000000E+00 0. -1.
         11    1    4    4    0    0  0.24033512872E+01  0.63844929484E+01  0.31035597372E+01  0.74946601605E+01  0.51100000000E-03 0. -1.
        -11    1    4    4    0    0  0.31076308703E+01  0.75972414898E+01 -0.19874944288E+02  0.21503229027E+02  0.51100000000E-03 0.  1.
         12    1    4    4    0    0 -0.10522272784E+02  0.83950065723E+01 -0.16804413023E+02  0.21530969716E+02  0.00000000000E+00 0. -1.
</event>
<event>
 8    1  0.1021894E-011  0.9118800E+02  0.7816164E-02  0.1184000E+00
        -11   -1    0    0    0    0  0.00000000000E+00  0.00000000000E+00  0.45593999997E+02  0.45594000000E+02  0.51100000000E-03 0. -1.
         11   -1    0    0    0    0 -0.00000000000E+00 -0.00000000000E+00 -0.45593999997E+02  0.45594000000E+02  0.51100000000E-03 0.  1.
         23    2    1    2    0    0  0.00000000000E+00 -0.11102230246E-15  0.00000000000E+00  0.91188000000E+02  0.91188000000E+02 0.  0.
    9900012    2    3    3    0    0  0.10743353047E+02  0.74800993399E+00 -0.39206977748E+02  0.50528852718E+02  0.29999978321E+02 0.  0.
         12    1    3    3    0    0 -0.10743353047E+02 -0.74800993399E+00  0.39206977748E+02  0.40659147282E+02  0.00000000000E+00 0. -1.
         11    1    4    4    0    0  0.13366684659E+02 -0.45637134397E+01 -0.14959095185E+02  0.20573533195E+02  0.51100000000E-03 0.  1.
        -11    1    4    4    0    0 -0.46982952526E+01  0.11876385423E+00 -0.23894158375E+02  0.24351979136E+02  0.51100000000E-03 0. -1.
        -12    1    4    4    0    0  0.20749636411E+01  0.51929595194E+01 -0.35372418780E+00  0.56033403862E+01  0.00000000000E+00 0.  1.
</event>
<event>
 8    1  0.1021894E-011  0.9118800E+02  0.7816164E-02  0.1184000E+00
        -11   -1    0    0    0    0  0.00000000000E+00  0.00000000000E+00  0.45593999997E+02  0.45594000000E+02  0.51100000000E-03 0.  1.
         11   -1    0    0    0    0 -0.00000000000E+00 -0.00000000000E+00 -0.45593999997E+02  0.45594000000E+02  0.51100000000E-03 0. -1.
         23    2    1    2    0    0  0.27755575616E-14  0.00000000000E+00  0.44408920985E-15  0.91188000000E+02  0.91188000000E+02 0.  0.
    9900012    2    3    3    0    0  0.23737534936E+00 -0.40572363657E+02 -0.26443354231E+01  0.50528861426E+02  0.30000004789E+02 0.  0.
         12    1    3    3    0    0 -0.23737534936E+00  0.40572363657E+02  0.26443354231E+01  0.40659138574E+02  0.00000000000E+00 0. -1.
         11    1    4    4    0    0  0.10119459224E+00 -0.14334327043E+02 -0.39129722476E+01  0.14859156241E+02  0.51100000000E-03 0. -1.
        -11    1    4    4    0    0  0.11934513490E+02 -0.10532940003E+02  0.18015453247E+01  0.16019394594E+02  0.51100000000E-03 0.  1.
        -12    1    4    4    0    0 -0.11798332733E+02 -0.15705096611E+02 -0.53290850013E+00  0.19650310590E+02  0.00000000000E+00 0.  1.
</event>
<event>
 8    1  0.1021894E-011  0.9118800E+02  0.7816164E-02  0.1184000E+00
        -11   -1    0    0    0    0  0.00000000000E+00  0.00000000000E+00  0.45593999997E+02  0.45594000000E+02  0.51100000000E-03 0.  1.
         11   -1    0    0    0    0 -0.00000000000E+00 -0.00000000000E+00 -0.45593999997E+02  0.45594000000E+02  0.51100000000E-03 0. -1.
         23    2    1    2    0    0  0.26645352591E-14  0.00000000000E+00  0.00000000000E+00  0.91188000000E+02  0.91188000000E+02 0.  0.
    9900012    2    3    3    0    0 -0.49887175015E+01  0.39042546697E+02 -0.10195960359E+02  0.50528863727E+02  0.30000011783E+02 0.  0.
         12    1    3    3    0    0  0.49887175015E+01 -0.39042546697E+02  0.10195960359E+02  0.40659136273E+02  0.00000000000E+00 0. -1.
         11    1    4    4    0    0  0.11381967358E+02  0.22150664061E+02 -0.67111908962E+01  0.25792269826E+02  0.51100000000E-03 0. -1.
        -11    1    4    4    0    0 -0.63492741151E+01  0.84817234494E+01 -0.47137151477E+01  0.11596207363E+02  0.51100000000E-03 0.  1.
         12    1    4    4    0    0 -0.10021410744E+02  0.84101591865E+01  0.12289456852E+01  0.13140386537E+02  0.00000000000E+00 0. -1.
</event>
<event>
 8    1  0.1021894E-011  0.9118800E+02  0.7816164E-02  0.1184000E+00
        -11   -1    0    0    0    0  0.00000000000E+00  0.00000000000E+00  0.45593999997E+02  0.45594000000E+02  0.51100000000E-03 0. -1.
         11   -1    0    0    0    0 -0.00000000000E+00 -0.00000000000E+00 -0.45593999997E+02  0.45594000000E+02  0.51100000000E-03 0.  1.
         23    2    1    2    0    0  0.00000000000E+00  0.71054273576E-14  0.94368957093E-15  0.91188000000E+02  0.91188000000E+02 0.  0.
    9900012    2    3    3    0    0 -0.19083254217E+02  0.35900859642E+02  0.33646170549E+00  0.50528984751E+02  0.30000379647E+02 0.  0.
        -12    1    3    3    0    0  0.19083254217E+02 -0.35900859642E+02 -0.33646170549E+00  0.40659015249E+02  0.00000000000E+00 0.  1.
         11    1    4    4    0    0 -0.14159782101E+02  0.10744280216E+02 -0.68308390618E+00  0.17787793297E+02  0.51100000000E-03 0. -1.
        -11    1    4    4    0    0  0.23820159483E+01  0.38752675875E+01  0.79829469519E+01  0.91879889612E+01  0.51100000000E-03 0.  1.
        -12    1    4    4    0    0 -0.73054880640E+01  0.21281311839E+02 -0.69634013403E+01  0.23553202492E+02  0.00000000000E+00 0.  1.
</event>
<event>
 8    1  0.1021894E-011  0.9118800E+02  0.7816164E-02  0.1184000E+00
        -11   -1    0    0    0    0  0.00000000000E+00  0.00000000000E+00  0.45593999997E+02  0.45594000000E+02  0.51100000000E-03 0.  1.
         11   -1    0    0    0    0 -0.00000000000E+00 -0.00000000000E+00 -0.45593999997E+02  0.45594000000E+02  0.51100000000E-03 0. -1.
         23    2    1    2    0    0  0.00000000000E+00 -0.35527136788E-14  0.00000000000E+00  0.91188000000E+02  0.91188000000E+02 0.  0.
    9900012    2    3    3    0    0 -0.38106173069E+02 -0.98542127147E+01 -0.10197077529E+02  0.50528851898E+02  0.29999975831E+02 0.  0.
         12    1    3    3    0    0  0.38106173069E+02  0.98542127147E+01  0.10197077529E+02  0.40659148102E+02  0.00000000000E+00 0. -1.
         11    1    4    4    0    0 -0.55056573468E+01  0.68424549593E+01  0.13197841927E+01  0.88810631834E+01  0.51100000000E-03 0. -1.
        -11    1    4    4    0    0 -0.20874005450E+02 -0.18491221492E+02 -0.10278447567E+02  0.29720293748E+02  0.51100000000E-03 0.  1.
        -12    1    4    4    0    0 -0.11726510273E+02  0.17945538181E+01 -0.12384141545E+01  0.11927494968E+02  0.00000000000E+00 0.  1.
</event>
<event>
 8    1  0.1021894E-011  0.9118800E+02  0.7816164E-02  0.1184000E+00
        -11   -1    0    0    0    0  0.00000000000E+00  0.00000000000E+00  0.45593999997E+02  0.45594000000E+02  0.51100000000E-03 0. -1.
         11   -1    0    0    0    0 -0.00000000000E+00 -0.00000000000E+00 -0.45593999997E+02  0.45594000000E+02  0.51100000000E-03 0.  1.
         23    2    1    2    0    0 -0.17763568394E-14  0.00000000000E+00  0.00000000000E+00  0.91188000000E+02  0.91188000000E+02 0.  0.
    9900012    2    3    3    0    0 -0.10879821347E+02  0.25347494430E+01 -0.39094386953E+02  0.50528849018E+02  0.29999967076E+02 0.  0.
         12    1    3    3    0    0  0.10879821347E+02 -0.25347494430E+01  0.39094386953E+02  0.40659150982E+02  0.00000000000E+00 0. -1.
         11    1    4    4    0    0 -0.72959397781E+01 -0.28641824027E+00 -0.30016161815E+01  0.78944583485E+01  0.51100000000E-03 0. -1.
        -11    1    4    4    0    0  0.35388400866E+01  0.57808480967E+01 -0.33962785953E+02  0.34632534182E+02  0.51100000000E-03 0.  1.
        -12    1    4    4    0    0 -0.71227216554E+01 -0.29596804135E+01 -0.21299848188E+01  0.80018564883E+01  0.00000000000E+00 0.  1.
</event>
<event>
 8    1  0.1021894E-011  0.9118800E+02  0.7816164E-02  0.1184000E+00
        -11   -1    0    0    0    0  0.00000000000E+00  0.00000000000E+00  0.45593999997E+02  0.45594000000E+02  0.51100000000E-03 0. -1.
         11   -1    0    0    0    0 -0.00000000000E+00 -0.00000000000E+00 -0.45593999997E+02  0.45594000000E+02  0.51100000000E-03 0.  1.
         23    2    1    2    0    0  0.00000000000E+00  0.00000000000E+00  0.17763568394E-14  0.91188000000E+02  0.91188000000E+02 0.  0.
    9900012    2    3    3    0    0  0.25947451815E+02 -0.29671531835E+02  0.99747972609E+01  0.50528848047E+02  0.29999964124E+02 0.  0.
        -12    1    3    3    0    0 -0.25947451815E+02  0.29671531835E+02 -0.99747972609E+01  0.40659151953E+02  0.00000000000E+00 0.  1.
         11    1    4    4    0    0  0.34584060055E+01 -0.89753465956E+01  0.11012472381E+02  0.14621626682E+02  0.51100000000E-03 0. -1.
        -11    1    4    4    0    0  0.14594477775E+02 -0.23277566479E+02 -0.19928011781E+01  0.27546599418E+02  0.51100000000E-03 0.  1.
        -12    1    4    4    0    0  0.78945680350E+01  0.25813812398E+01  0.95512605794E+00  0.83606219476E+01  0.00000000000E+00 0.  1.
</event>
<event>
 8    1  0.1021894E-011  0.9118800E+02  0.7816164E-02  0.1184000E+00
        -11   -1    0    0    0    0  0.00000000000E+00  0.00000000000E+00  0.45593999997E+02  0.45594000000E+02  0.51100000000E-03 0. -1.
         11   -1    0    0    0    0 -0.00000000000E+00 -0.00000000000E+00 -0.45593999997E+02  0.45594000000E+02  0.51100000000E-03 0.  1.
         23    2    1    2    0    0  0.00000000000E+00  0.00000000000E+00 -0.35527136788E-14  0.91188000000E+02  0.91188000000E+02 0.  0.
    9900012    2    3    3    0    0  0.14595206710E+01  0.28480170461E+02  0.28981312491E+02  0.50528846248E+02  0.29999958657E+02 0.  0.
        -12    1    3    3    0    0 -0.14595206710E+01 -0.28480170461E+02 -0.28981312491E+02  0.40659153752E+02  0.00000000000E+00 0.  1.
         11    1    4    4    0    0 -0.93292285968E+01  0.86688651874E+01  0.39587967392E+01  0.13336258911E+02  0.51100000000E-03 0. -1.
        -11    1    4    4    0    0  0.10408042914E+02  0.11330909727E+02  0.24182756964E+02  0.28662215671E+02  0.51100000000E-03 0.  1.
        -12    1    4    4    0    0  0.38070635344E+00  0.84803955462E+01  0.83975878867E+00  0.85303716667E+01  0.00000000000E+00 0.  1.
</event>
<event>
 8    1  0.1021894E-011  0.9118800E+02  0.7816164E-02  0.1184000E+00
        -11   -1    0    0    0    0  0.00000000000E+00  0.00000000000E+00  0.45593999997E+02  0.45594000000E+02  0.51100000000E-03 0. -1.
         11   -1    0    0    0    0 -0.00000000000E+00 -0.00000000000E+00 -0.45593999997E+02  0.45594000000E+02  0.51100000000E-03 0.  1.
         23    2    1    2    0    0  0.00000000000E+00  0.35527136788E-14 -0.71054273576E-14  0.91188000000E+02  0.91188000000E+02 0.  0.
    9900012    2    3    3    0    0  0.16048136716E+02  0.13248156148E+02 -0.34930104875E+02  0.50528824406E+02  0.29999892264E+02 0.  0.
         12    1    3    3    0    0 -0.16048136716E+02 -0.13248156148E+02  0.34930104875E+02  0.40659175594E+02  0.00000000000E+00 0. -1.
         11    1    4    4    0    0 -0.47174993138E+01  0.42276176115E+01 -0.61695508035E+01  0.88425622883E+01  0.51100000000E-03 0. -1.
        -11    1    4    4    0    0  0.12287269490E+02 -0.41736755521E+01 -0.19651335063E+02  0.23549342436E+02  0.51100000000E-03 0.  1.
        -12    1    4    4    0    0  0.84783665398E+01  0.13194214089E+02 -0.91092190087E+01  0.18136919682E+02  0.00000000000E+00 0.  1.
</event>
<event>
 8    1  0.1021894E-011  0.9118800E+02  0.7816164E-02  0.1184000E+00
        -11   -1    0    0    0    0  0.00000000000E+00  0.00000000000E+00  0.45593999997E+02  0.45594000000E+02  0.51100000000E-03 0. -1.
         11   -1    0    0    0    0 -0.00000000000E+00 -0.00000000000E+00 -0.45593999997E+02  0.45594000000E+02  0.51100000000E-03 0.  1.
         23    2    1    2    0    0  0.00000000000E+00  0.00000000000E+00  0.00000000000E+00  0.91188000000E+02  0.91188000000E+02 0.  0.
    9900012    2    3    3    0    0  0.83455427117E+01 -0.97538916319E+01  0.38579537162E+02  0.50528841465E+02  0.29999944117E+02 0.  0.
        -12    1    3    3    0    0 -0.83455427117E+01  0.97538916319E+01 -0.38579537162E+02  0.40659158535E+02  0.00000000000E+00 0.  1.
         11    1    4    4    0    0  0.10117287486E+02 -0.84661809173E+01  0.41821422091E+01  0.13839293303E+02  0.51100000000E-03 0. -1.
        -11    1    4    4    0    0 -0.63932774678E+01  0.19255652204E+01  0.23419241841E+02  0.24352467777E+02  0.51100000000E-03 0.  1.
         12    1    4    4    0    0  0.46215326937E+01 -0.32132759351E+01  0.10978153112E+02  0.12337080385E+02  0.00000000000E+00 0. -1.
</event>
<event>
 8    1  0.1021894E-011  0.9118800E+02  0.7816164E-02  0.1184000E+00
        -11   -1    0    0    0    0  0.00000000000E+00  0.00000000000E+00  0.45593999997E+02  0.45594000000E+02  0.51100000000E-03 0. -1.
         11   -1    0    0    0    0 -0.00000000000E+00 -0.00000000000E+00 -0.45593999997E+02  0.45594000000E+02  0.51100000000E-03 0.  1.
         23    2    1    2    0    0  0.17763568394E-14  0.88817841970E-15  0.71054273576E-14  0.91188000000E+02  0.91188000000E+02 0.  0.
    9900012    2    3    3    0    0  0.84584703711E+01  0.42479095309E+01  0.39542096554E+02  0.50528833060E+02  0.29999918568E+02 0.  0.
        -12    1    3    3    0    0 -0.84584703711E+01 -0.42479095309E+01 -0.39542096554E+02  0.40659166940E+02  0.00000000000E+00 0.  1.
         11    1    4    4    0    0  0.62854514412E+01 -0.25974039175E+01  0.29786174949E+02  0.30552735152E+02  0.51100000000E-03 0. -1.
        -11    1    4    4    0    0 -0.17592603618E+01 -0.24498094141E+01 -0.26280063173E+01  0.40003725640E+01  0.51100000000E-03 0.  1.
        -12    1    4    4    0    0  0.39322792917E+01  0.92951228626E+01  0.12383927923E+02  0.15975725343E+02  0.00000000000E+00 0.  1.
</event>
<event>
 8    1  0.1021894E-011  0.9118800E+02  0.7816164E-02  0.1184000E+00
        -11   -1    0    0    0    0  0.00000000000E+00  0.00000000000E+00  0.45593999997E+02  0.45594000000E+02  0.51100000000E-03 0.  1.
         11   -1    0    0    0    0 -0.00000000000E+00 -0.00000000000E+00 -0.45593999997E+02  0.45594000000E+02  0.51100000000E-03 0. -1.
         23    2    1    2    0    0  0.22204460493E-14  0.00000000000E+00  0.00000000000E+00  0.91188000000E+02  0.91188000000E+02 0.  0.
    9900012    2    3    3    0    0 -0.31790837203E+01 -0.37095971942E+02  0.16338541232E+02  0.50528860349E+02  0.30000001516E+02 0.  0.
        -12    1    3    3    0    0  0.31790837203E+01  0.37095971942E+02 -0.16338541232E+02  0.40659139651E+02  0.00000000000E+00 0.  1.
         11    1    4    4    0    0  0.43025172296E+01 -0.85058092553E+01 -0.22450386118E+01  0.97928874307E+01  0.51100000000E-03 0. -1.
        -11    1    4    4    0    0 -0.97575225962E+01 -0.12986747771E+02  0.18954953711E+02  0.24963075438E+02  0.51100000000E-03 0.  1.
        -12    1    4    4    0    0  0.22759216463E+01 -0.15603414915E+02 -0.37137386718E+00  0.15772897480E+02  0.00000000000E+00 0.  1.
</event>
<event>
 8    1  0.1021894E-011  0.9118800E+02  0.7816164E-02  0.1184000E+00
        -11   -1    0    0    0    0  0.00000000000E+00  0.00000000000E+00  0.45593999997E+02  0.45594000000E+02  0.51100000000E-03 0. -1.
         11   -1    0    0    0    0 -0.00000000000E+00 -0.00000000000E+00 -0.45593999997E+02  0.45594000000E+02  0.51100000000E-03 0.  1.
         23    2    1    2    0    0  0.00000000000E+00  0.35527136788E-14  0.35527136788E-14  0.91188000000E+02  0.91188000000E+02 0.  0.
    9900012    2    3    3    0    0  0.10562372690E+02 -0.25670740481E+02 -0.29708815404E+02  0.50528876222E+02  0.30000049765E+02 0.  0.
         12    1    3    3    0    0 -0.10562372690E+02  0.25670740481E+02  0.29708815404E+02  0.40659123778E+02  0.00000000000E+00 0. -1.
         11    1    4    4    0    0 -0.71166442073E+01 -0.13483147154E+02 -0.58076708850E+01  0.16314745580E+02  0.51100000000E-03 0. -1.
        -11    1    4    4    0    0  0.19075596672E+02 -0.93596839360E+01 -0.21681803720E+02  0.30357580348E+02  0.51100000000E-03 0.  1.
        -12    1    4    4    0    0 -0.13965797755E+01 -0.28279093909E+01 -0.22193407988E+01  0.38565502944E+01  0.00000000000E+00 0.  1.
</event>
<event>
 8    1  0.1021894E-011  0.9118800E+02  0.7816164E-02  0.1184000E+00
        -11   -1    0    0    0    0  0.00000000000E+00  0.00000000000E+00  0.45593999997E+02  0.45594000000E+02  0.51100000000E-03 0. -1.
         11   -1    0    0    0    0 -0.00000000000E+00 -0.00000000000E+00 -0.45593999997E+02  0.45594000000E+02  0.51100000000E-03 0.  1.
         23    2    1    2    0    0  0.00000000000E+00  0.00000000000E+00  0.00000000000E+00  0.91188000000E+02  0.91188000000E+02 0.  0.
    9900012    2    3    3    0    0  0.32861423405E+02 -0.45678628593E+01  0.23503767671E+02  0.50528860634E+02  0.30000002382E+02 0.  0.
        -12    1    3    3    0    0 -0.32861423405E+02  0.45678628593E+01 -0.23503767671E+02  0.40659139366E+02  0.00000000000E+00 0.  1.
         11    1    4    4    0    0  0.28954340095E+02 -0.19119042023E+01  0.16708397625E+02  0.33484022152E+02  0.51100000000E-03 0. -1.
        -11    1    4    4    0    0  0.44986822688E+01 -0.83344380411E+01  0.22182035042E+01  0.97273545563E+01  0.51100000000E-03 0.  1.
         12    1    4    4    0    0 -0.59159895897E+00  0.56784793842E+01  0.45771665424E+01  0.73174839256E+01  0.00000000000E+00 0. -1.
</event>
<event>
 8    1  0.1021894E-011  0.9118800E+02  0.7816164E-02  0.1184000E+00
        -11   -1    0    0    0    0  0.00000000000E+00  0.00000000000E+00  0.45593999997E+02  0.45594000000E+02  0.51100000000E-03 0. -1.
         11   -1    0    0    0    0 -0.00000000000E+00 -0.00000000000E+00 -0.45593999997E+02  0.45594000000E+02  0.51100000000E-03 0.  1.
         23    2    1    2    0    0 -0.17763568394E-14 -0.71054273576E-14  0.17763568394E-14  0.91188000000E+02  0.91188000000E+02 0.  0.
    9900012    2    3    3    0    0  0.13903305834E+02  0.34893059690E+02  0.15567044261E+02  0.50528924818E+02  0.30000197475E+02 0.  0.
        -12    1    3    3    0    0 -0.13903305834E+02 -0.34893059690E+02 -0.15567044261E+02  0.40659075182E+02  0.00000000000E+00 0.  1.
         11    1    4    4    0    0  0.13494379985E+02  0.28392356985E+02  0.20892925710E+01  0.31505386366E+02  0.51100000000E-03 0.  1.
        -11    1    4    4    0    0 -0.60504947944E+00  0.97122673357E+01  0.80189683151E+01  0.12609443872E+02  0.51100000000E-03 0. -1.
         12    1    4    4    0    0  0.10139753281E+01 -0.32115646301E+01  0.54587833752E+01  0.64140945797E+01  0.00000000000E+00 0. -1.
</event>
<event>
 8    1  0.1021894E-011  0.9118800E+02  0.7816164E-02  0.1184000E+00
        -11   -1    0    0    0    0  0.00000000000E+00  0.00000000000E+00  0.45593999997E+02  0.45594000000E+02  0.51100000000E-03 0. -1.
         11   -1    0    0    0    0 -0.00000000000E+00 -0.00000000000E+00 -0.45593999997E+02  0.45594000000E+02  0.51100000000E-03 0.  1.
         23    2    1    2    0    0  0.17763568394E-14  0.00000000000E+00  0.00000000000E+00  0.91188000000E+02  0.91188000000E+02 0.  0.
    9900012    2    3    3    0    0 -0.88888181940E+01  0.14351101310E+02 -0.36989196668E+02  0.50528857513E+02  0.29999992895E+02 0.  0.
         12    1    3    3    0    0  0.88888181940E+01 -0.14351101310E+02  0.36989196668E+02  0.40659142487E+02  0.00000000000E+00 0. -1.
         11    1    4    4    0    0  0.61719654353E+01 -0.95374549010E+00  0.16282825727E+00  0.62473435232E+01  0.51100000000E-03 0. -1.
        -11    1    4    4    0    0 -0.99700028665E+01  0.60370929920E+01 -0.27879730383E+02  0.30217988276E+02  0.51100000000E-03 0.  1.
        -12    1    4    4    0    0 -0.50907807627E+01  0.92677538084E+01 -0.92722945422E+01  0.14063525714E+02  0.00000000000E+00 0.  1.
</event>
<event>
 8    1  0.1021894E-011  0.9118800E+02  0.7816164E-02  0.1184000E+00
        -11   -1    0    0    0    0  0.00000000000E+00  0.00000000000E+00  0.45593999997E+02  0.45594000000E+02  0.51100000000E-03 0. -1.
         11   -1    0    0    0    0 -0.00000000000E+00 -0.00000000000E+00 -0.45593999997E+02  0.45594000000E+02  0.51100000000E-03 0.  1.
         23    2    1    2    0    0  0.35527136788E-14  0.00000000000E+00  0.00000000000E+00  0.91188000000E+02  0.91188000000E+02 0.  0.
    9900012    2    3    3    0    0 -0.26330289858E+02 -0.19378120649E+02  0.24173734988E+02  0.50528865883E+02  0.30000018337E+02 0.  0.
        -12    1    3    3    0    0  0.26330289858E+02  0.19378120649E+02 -0.24173734988E+02  0.40659134117E+02  0.00000000000E+00 0.  1.
         11    1    4    4    0    0 -0.19548672265E+02 -0.23641901820E+02  0.21011739519E+02  0.37183105127E+02  0.51100000000E-03 0. -1.
        -11    1    4    4    0    0 -0.83493884931E+01 -0.60281827531E-01  0.17139922201E+01  0.85237134923E+01  0.51100000000E-03 0.  1.
         12    1    4    4    0    0  0.15677709000E+01  0.43240629979E+01  0.14480032483E+01  0.48220472635E+01  0.00000000000E+00 0. -1.
</event>
<event>
 8    1  0.1021894E-011  0.9118800E+02  0.7816164E-02  0.1184000E+00
        -11   -1    0    0    0    0  0.00000000000E+00  0.00000000000E+00  0.45593999997E+02  0.45594000000E+02  0.51100000000E-03 0. -1.
         11   -1    0    0    0    0 -0.00000000000E+00 -0.00000000000E+00 -0.45593999997E+02  0.45594000000E+02  0.51100000000E-03 0.  1.
         23    2    1    2    0    0 -0.71054273576E-14  0.35527136788E-14 -0.35527136788E-14  0.91188000000E+02  0.91188000000E+02 0.  0.
    9900012    2    3    3    0    0 -0.24579071642E+02  0.26733657871E+02 -0.18285159323E+02  0.50528852475E+02  0.29999977583E+02 0.  0.
         12    1    3    3    0    0  0.24579071642E+02 -0.26733657871E+02  0.18285159323E+02  0.40659147525E+02  0.00000000000E+00 0. -1.
         11    1    4    4    0    0 -0.57675308471E+01 -0.25623830667E+00  0.27757207244E+01  0.64058329625E+01  0.51100000000E-03 0. -1.
        -11    1    4    4    0    0 -0.42347691974E+01  0.16198381820E+02 -0.19818196815E+02  0.25943819476E+02  0.51100000000E-03 0.  1.
        -12    1    4    4    0    0 -0.14576771598E+02  0.10791514358E+02 -0.12426832321E+01  0.18179200037E+02  0.00000000000E+00 0.  1.
</event>
<event>
 8    1  0.1021894E-011  0.9118800E+02  0.7816164E-02  0.1184000E+00
        -11   -1    0    0    0    0  0.00000000000E+00  0.00000000000E+00  0.45593999997E+02  0.45594000000E+02  0.51100000000E-03 0. -1.
         11   -1    0    0    0    0 -0.00000000000E+00 -0.00000000000E+00 -0.45593999997E+02  0.45594000000E+02  0.51100000000E-03 0.  1.
         23    2    1    2    0    0  0.00000000000E+00  0.00000000000E+00  0.35527136788E-14  0.91188000000E+02  0.91188000000E+02 0.  0.
    9900012    2    3    3    0    0 -0.67098934117E+01 -0.34375962529E+02  0.20650355278E+02  0.50528847986E+02  0.29999963937E+02 0.  0.
        -12    1    3    3    0    0  0.67098934117E+01  0.34375962529E+02 -0.20650355278E+02  0.40659152014E+02  0.00000000000E+00 0.  1.
         11    1    4    4    0    0  0.97886477530E+01 -0.16274079292E+02  0.14221953943E+02  0.23726088086E+02  0.51100000000E-03 0. -1.
        -11    1    4    4    0    0 -0.13637036209E+02 -0.94744392320E+01  0.21076009968E+01  0.16738450870E+02  0.51100000000E-03 0.  1.
         12    1    4    4    0    0 -0.28615049560E+01 -0.86274440054E+01  0.43208003379E+01  0.10064309029E+02  0.00000000000E+00 0. -1.
</event>
<event>
 8    1  0.1021894E-011  0.9118800E+02  0.7816164E-02  0.1184000E+00
        -11   -1    0    0    0    0  0.00000000000E+00  0.00000000000E+00  0.45593999997E+02  0.45594000000E+02  0.51100000000E-03 0. -1.
         11   -1    0    0    0    0 -0.00000000000E+00 -0.00000000000E+00 -0.45593999997E+02  0.45594000000E+02  0.51100000000E-03 0.  1.
         23    2    1    2    0    0  0.00000000000E+00  0.00000000000E+00  0.00000000000E+00  0.91188000000E+02  0.91188000000E+02 0.  0.
    9900012    2    3    3    0    0 -0.10462229350E+02 -0.21576538175E+02  0.32835367542E+02  0.50528848457E+02  0.29999965371E+02 0.  0.
        -12    1    3    3    0    0  0.10462229350E+02  0.21576538175E+02 -0.32835367542E+02  0.40659151543E+02  0.00000000000E+00 0.  1.
         11    1    4    4    0    0  0.47229327567E+01 -0.84063469269E+00  0.87900429327E+01  0.10013871156E+02  0.51100000000E-03 0. -1.
        -11    1    4    4    0    0 -0.71403757766E+01 -0.21659183238E+02  0.22931240162E+02  0.32341103265E+02  0.51100000000E-03 0.  1.
        -12    1    4    4    0    0 -0.80447863299E+01  0.92327975634E+00  0.11140844474E+01  0.81738740362E+01  0.00000000000E+00 0.  1.
</event>
<event>
 8    1  0.1021894E-011  0.9118800E+02  0.7816164E-02  0.1184000E+00
        -11   -1    0    0    0    0  0.00000000000E+00  0.00000000000E+00  0.45593999997E+02  0.45594000000E+02  0.51100000000E-03 0. -1.
         11   -1    0    0    0    0 -0.00000000000E+00 -0.00000000000E+00 -0.45593999997E+02  0.45594000000E+02  0.51100000000E-03 0.  1.
         23    2    1    2    0    0  0.00000000000E+00  0.00000000000E+00  0.00000000000E+00  0.91188000000E+02  0.91188000000E+02 0.  0.
    9900012    2    3    3    0    0  0.12657273056E+02 -0.14787554464E+02  0.35697282313E+02  0.50528753908E+02  0.29999677978E+02 0.  0.
        -12    1    3    3    0    0 -0.12657273056E+02  0.14787554464E+02 -0.35697282313E+02  0.40659246092E+02  0.00000000000E+00 0.  1.
         11    1    4    4    0    0  0.68082030074E+01 -0.66573690526E+01 -0.37638127731E+00  0.95296303192E+01  0.51100000000E-03 0. -1.
        -11    1    4    4    0    0 -0.12575860212E+01  0.30924387951E+01  0.19379568529E+02  0.19665003863E+02  0.51100000000E-03 0.  1.
         12    1    4    4    0    0  0.71066560700E+01 -0.11222624206E+02  0.16694095061E+02  0.21334119726E+02  0.00000000000E+00 0. -1.
</event>
<event>
 8    1  0.1021894E-011  0.9118800E+02  0.7816164E-02  0.1184000E+00
        -11   -1    0    0    0    0  0.00000000000E+00  0.00000000000E+00  0.45593999997E+02  0.45594000000E+02  0.51100000000E-03 0. -1.
         11   -1    0    0    0    0 -0.00000000000E+00 -0.00000000000E+00 -0.45593999997E+02  0.45594000000E+02  0.51100000000E-03 0.  1.
         23    2    1    2    0    0  0.00000000000E+00  0.88817841970E-15  0.00000000000E+00  0.91188000000E+02  0.91188000000E+02 0.  0.
    9900012    2    3    3    0    0  0.84817093415E+01  0.55373015476E+01  0.39377228224E+02  0.50528841077E+02  0.29999942936E+02 0.  0.
        -12    1    3    3    0    0 -0.84817093415E+01 -0.55373015476E+01 -0.39377228224E+02  0.40659158923E+02  0.00000000000E+00 0.  1.
         11    1    4    4    0    0  0.74454744578E+01 -0.38140709674E+01  0.38787566982E+02  0.39679435227E+02  0.51100000000E-03 0. -1.
        -11    1    4    4    0    0 -0.15605718095E+01  0.50337660202E+01  0.19685229621E+01  0.56257681815E+01  0.51100000000E-03 0.  1.
        -12    1    4    4    0    0  0.25968066932E+01  0.43176064949E+01 -0.13788617206E+01  0.52236376684E+01  0.00000000000E+00 0.  1.
</event>
<event>
 8    1  0.1021894E-011  0.9118800E+02  0.7816164E-02  0.1184000E+00
        -11   -1    0    0    0    0  0.00000000000E+00  0.00000000000E+00  0.45593999997E+02  0.45594000000E+02  0.51100000000E-03 0. -1.
         11   -1    0    0    0    0 -0.00000000000E+00 -0.00000000000E+00 -0.45593999997E+02  0.45594000000E+02  0.51100000000E-03 0.  1.
         23    2    1    2    0    0  0.00000000000E+00  0.00000000000E+00  0.00000000000E+00  0.91188000000E+02  0.91188000000E+02 0.  0.
    9900012    2    3    3    0    0 -0.26807126609E+02 -0.10447495340E+02 -0.28729674440E+02  0.50528851099E+02  0.29999973400E+02 0.  0.
         12    1    3    3    0    0  0.26807126609E+02  0.10447495340E+02  0.28729674440E+02  0.40659148901E+02  0.00000000000E+00 0. -1.
         11    1    4    4    0    0 -0.90250270386E+01 -0.51745021668E+01  0.51756188328E+01  0.11619535975E+02  0.51100000000E-03 0. -1.
        -11    1    4    4    0    0 -0.62984455417E+01  0.32753409008E+00 -0.11621587922E+02  0.13222669962E+02  0.51100000000E-03 0.  1.
         12    1    4    4    0    0 -0.11483654029E+02 -0.56005272635E+01 -0.22283705351E+02  0.25686645161E+02  0.00000000000E+00 0. -1.
</event>
<event>
 8    1  0.1021894E-011  0.9118800E+02  0.7816164E-02  0.1184000E+00
        -11   -1    0    0    0    0  0.00000000000E+00  0.00000000000E+00  0.45593999997E+02  0.45594000000E+02  0.51100000000E-03 0. -1.
         11   -1    0    0    0    0 -0.00000000000E+00 -0.00000000000E+00 -0.45593999997E+02  0.45594000000E+02  0.51100000000E-03 0.  1.
         23    2    1    2    0    0 -0.17763568394E-14  0.00000000000E+00  0.71054273576E-14  0.91188000000E+02  0.91188000000E+02 0.  0.
    9900012    2    3    3    0    0 -0.42851158420E+01 -0.90613595858E+01  0.39404254950E+02  0.50528858796E+02  0.29999996796E+02 0.  0.
        -12    1    3    3    0    0  0.42851158420E+01  0.90613595858E+01 -0.39404254950E+02  0.40659141204E+02  0.00000000000E+00 0.  1.
         11    1    4    4    0    0 -0.31645487231E+01 -0.87358505065E+01  0.33234616898E+02  0.34508972939E+02  0.51100000000E-03 0. -1.
        -11    1    4    4    0    0  0.59157356558E+01 -0.16098885016E+01 -0.61463770417E+00  0.61616109180E+01  0.51100000000E-03 0.  1.
        -12    1    4    4    0    0 -0.70363027746E+01  0.12843794223E+01  0.67842757559E+01  0.98582749388E+01  0.00000000000E+00 0.  1.
</event>
<event>
 8    1  0.1021894E-011  0.9118800E+02  0.7816164E-02  0.1184000E+00
        -11   -1    0    0    0    0  0.00000000000E+00  0.00000000000E+00  0.45593999997E+02  0.45594000000E+02  0.51100000000E-03 0. -1.
         11   -1    0    0    0    0 -0.00000000000E+00 -0.00000000000E+00 -0.45593999997E+02  0.45594000000E+02  0.51100000000E-03 0.  1.
         23    2    1    2    0    0  0.00000000000E+00  0.00000000000E+00  0.00000000000E+00  0.91188000000E+02  0.91188000000E+02 0.  0.
    9900012    2    3    3    0    0  0.30515341898E+02  0.69336473004E+01  0.25959670668E+02  0.50528855183E+02  0.29999985814E+02 0.  0.
        -12    1    3    3    0    0 -0.30515341898E+02 -0.69336473004E+01 -0.25959670668E+02  0.40659144817E+02  0.00000000000E+00 0.  1.
         11    1    4    4    0    0  0.29050679215E+02  0.19212788672E+01  0.24902129098E+02  0.38311216494E+02  0.51100000000E-03 0. -1.
        -11    1    4    4    0    0  0.49482832071E+00 -0.35325875646E+01  0.46787680347E+00  0.35976296269E+01  0.51100000000E-03 0.  1.
         12    1    4    4    0    0  0.96983436283E+00  0.85449559978E+01  0.58966476597E+00  0.86200090622E+01  0.00000000000E+00 0. -1.
</event>
<event>
 8    1  0.1021894E-011  0.9118800E+02  0.7816164E-02  0.1184000E+00
        -11   -1    0    0    0    0  0.00000000000E+00  0.00000000000E+00  0.45593999997E+02  0.45594000000E+02  0.51100000000E-03 0.  1.
         11   -1    0    0    0    0 -0.00000000000E+00 -0.00000000000E+00 -0.45593999997E+02  0.45594000000E+02  0.51100000000E-03 0. -1.
         23    2    1    2    0    0  0.26645352591E-14 -0.71054273576E-14 -0.17763568394E-14  0.91188000000E+02  0.91188000000E+02 0.  0.
    9900012    2    3    3    0    0  0.57735281242E+01  0.39268118195E+02  0.88231001347E+01  0.50528857983E+02  0.29999994326E+02 0.  0.
        -12    1    3    3    0    0 -0.57735281242E+01 -0.39268118195E+02 -0.88231001347E+01  0.40659142017E+02  0.00000000000E+00 0.  1.
         11    1    4    4    0    0 -0.53992342330E+01  0.15003107832E+02  0.48837407475E+01  0.16676207569E+02  0.51100000000E-03 0. -1.
        -11    1    4    4    0    0  0.16212239360E+02  0.12626116909E+02 -0.76478883028E-01  0.20548999551E+02  0.51100000000E-03 0.  1.
        -12    1    4    4    0    0 -0.50394770031E+01  0.11638893453E+02  0.40158382703E+01  0.13303650863E+02  0.00000000000E+00 0.  1.
</event>
<event>
 8    1  0.1021894E-011  0.9118800E+02  0.7816164E-02  0.1184000E+00
        -11   -1    0    0    0    0  0.00000000000E+00  0.00000000000E+00  0.45593999997E+02  0.45594000000E+02  0.51100000000E-03 0. -1.
         11   -1    0    0    0    0 -0.00000000000E+00 -0.00000000000E+00 -0.45593999997E+02  0.45594000000E+02  0.51100000000E-03 0.  1.
         23    2    1    2    0    0  0.00000000000E+00 -0.88817841970E-15  0.00000000000E+00  0.91188000000E+02  0.91188000000E+02 0.  0.
    9900012    2    3    3    0    0 -0.12215983251E+02 -0.66294064796E+01 -0.38209767351E+02  0.50528860830E+02  0.30000002979E+02 0.  0.
         12    1    3    3    0    0  0.12215983251E+02  0.66294064796E+01  0.38209767351E+02  0.40659139170E+02  0.00000000000E+00 0. -1.
         11    1    4    4    0    0 -0.83711956499E+01 -0.17740548310E+01  0.21849011401E+01  0.88316465285E+01  0.51100000000E-03 0. -1.
        -11    1    4    4    0    0 -0.14327569051E+01 -0.68153175219E+01 -0.23155424067E+02  0.24180053955E+02  0.51100000000E-03 0.  1.
        -12    1    4    4    0    0 -0.24120306958E+01  0.19599658734E+01 -0.17239244424E+02  0.17517160347E+02  0.00000000000E+00 0.  1.
</event>
<event>
 8    1  0.1021894E-011  0.9118800E+02  0.7816164E-02  0.1184000E+00
        -11   -1    0    0    0    0  0.00000000000E+00  0.00000000000E+00  0.45593999997E+02  0.45594000000E+02  0.51100000000E-03 0. -1.
         11   -1    0    0    0    0 -0.00000000000E+00 -0.00000000000E+00 -0.45593999997E+02  0.45594000000E+02  0.51100000000E-03 0.  1.
         23    2    1    2    0    0 -0.35527136788E-14  0.35527136788E-14  0.00000000000E+00  0.91188000000E+02  0.91188000000E+02 0.  0.
    9900012    2    3    3    0    0 -0.23653289071E+02 -0.18547032707E+02 -0.27380535214E+02  0.50528877842E+02  0.30000054688E+02 0.  0.
         12    1    3    3    0    0  0.23653289071E+02  0.18547032707E+02  0.27380535214E+02  0.40659122158E+02  0.00000000000E+00 0. -1.
         11    1    4    4    0    0  0.13330746383E+01 -0.70310983971E+01  0.12142517406E-01  0.71563664218E+01  0.51100000000E-03 0. -1.
        -11    1    4    4    0    0 -0.22099356480E+02 -0.84842253522E+01 -0.10372048106E+02  0.25844593610E+02  0.51100000000E-03 0.  1.
         12    1    4    4    0    0 -0.28870072290E+01 -0.30317089577E+01 -0.17020629625E+02  0.17527917810E+02  0.00000000000E+00 0. -1.
</event>
<event>
 8    1  0.1021894E-011  0.9118800E+02  0.7816164E-02  0.1184000E+00
        -11   -1    0    0    0    0  0.00000000000E+00  0.00000000000E+00  0.45593999997E+02  0.45594000000E+02  0.51100000000E-03 0. -1.
         11   -1    0    0    0    0 -0.00000000000E+00 -0.00000000000E+00 -0.45593999997E+02  0.45594000000E+02  0.51100000000E-03 0.  1.
         23    2    1    2    0    0  0.00000000000E+00 -0.17763568394E-14  0.00000000000E+00  0.91188000000E+02  0.91188000000E+02 0.  0.
    9900012    2    3    3    0    0 -0.22598430975E+02 -0.91980595524E+01  0.32524957869E+02  0.50528852610E+02  0.29999977995E+02 0.  0.
        -12    1    3    3    0    0  0.22598430975E+02  0.91980595524E+01 -0.32524957869E+02  0.40659147390E+02  0.00000000000E+00 0.  1.
         11    1    4    4    0    0 -0.19013113554E+02 -0.11646323680E+02  0.28241013752E+02  0.35981803739E+02  0.51100000000E-03 0. -1.
        -11    1    4    4    0    0 -0.15413426052E+01  0.58620024276E+01  0.73478399089E+01  0.95252066159E+01  0.51100000000E-03 0.  1.
         12    1    4    4    0    0 -0.20439748152E+01 -0.34137382997E+01 -0.30638957913E+01  0.50218422560E+01  0.00000000000E+00 0. -1.
</event>
<event>
 8    1  0.1021894E-011  0.9118800E+02  0.7816164E-02  0.1184000E+00
        -11   -1    0    0    0    0  0.00000000000E+00  0.00000000000E+00  0.45593999997E+02  0.45594000000E+02  0.51100000000E-03 0. -1.
         11   -1    0    0    0    0 -0.00000000000E+00 -0.00000000000E+00 -0.45593999997E+02  0.45594000000E+02  0.51100000000E-03 0.  1.
         23    2    1    2    0    0  0.66613381478E-15  0.00000000000E+00  0.17763568394E-14  0.91188000000E+02  0.91188000000E+02 0.  0.
    9900012    2    3    3    0    0  0.69794259892E+00 -0.39692771240E+02  0.87842090218E+01  0.50528861535E+02  0.30000005120E+02 0.  0.
        -12    1    3    3    0    0 -0.69794259892E+00  0.39692771240E+02 -0.87842090218E+01  0.40659138465E+02  0.00000000000E+00 0.  1.
         11    1    4    4    0    0 -0.85353178089E+01 -0.34858626956E+02  0.12043181529E+02  0.37855168008E+02  0.51100000000E-03 0. -1.
        -11    1    4    4    0    0  0.29340773545E+01 -0.29475969046E+01 -0.43385921086E+01  0.60100348735E+01  0.51100000000E-03 0.  1.
         12    1    4    4    0    0  0.62991830533E+01 -0.18865473800E+01  0.10796196018E+01  0.66636586528E+01  0.00000000000E+00 0. -1.
</event>
<event>
 8    1  0.1021894E-011  0.9118800E+02  0.7816164E-02  0.1184000E+00
        -11   -1    0    0    0    0  0.00000000000E+00  0.00000000000E+00  0.45593999997E+02  0.45594000000E+02  0.51100000000E-03 0. -1.
         11   -1    0    0    0    0 -0.00000000000E+00 -0.00000000000E+00 -0.45593999997E+02  0.45594000000E+02  0.51100000000E-03 0.  1.
         23    2    1    2    0    0  0.13322676296E-14  0.00000000000E+00  0.00000000000E+00  0.91188000000E+02  0.91188000000E+02 0.  0.
    9900012    2    3    3    0    0  0.16420939629E+01  0.47762290877E+01 -0.40344225534E+02  0.50528863624E+02  0.30000011471E+02 0.  0.
         12    1    3    3    0    0 -0.16420939629E+01 -0.47762290877E+01  0.40344225534E+02  0.40659136376E+02  0.00000000000E+00 0. -1.
         11    1    4    4    0    0 -0.12313164718E+02  0.45141502336E+01 -0.27629695048E+02  0.30584172809E+02  0.51100000000E-03 0. -1.
        -11    1    4    4    0    0  0.53894175032E+01 -0.16788156103E+01 -0.17785202463E+01  0.59183931439E+01  0.51100000000E-03 0.  1.
         12    1    4    4    0    0  0.85658411772E+01  0.19408944644E+01 -0.10936010240E+02  0.14026297672E+02  0.00000000000E+00 0. -1.
</event>
<event>
 8    1  0.1021894E-011  0.9118800E+02  0.7816164E-02  0.1184000E+00
        -11   -1    0    0    0    0  0.00000000000E+00  0.00000000000E+00  0.45593999997E+02  0.45594000000E+02  0.51100000000E-03 0. -1.
         11   -1    0    0    0    0 -0.00000000000E+00 -0.00000000000E+00 -0.45593999997E+02  0.45594000000E+02  0.51100000000E-03 0.  1.
         23    2    1    2    0    0  0.00000000000E+00  0.88817841970E-15  0.00000000000E+00  0.91188000000E+02  0.91188000000E+02 0.  0.
    9900012    2    3    3    0    0  0.80948327296E+01  0.52081099578E+01  0.39503312380E+02  0.50528899970E+02  0.30000121948E+02 0.  0.
        -12    1    3    3    0    0 -0.80948327296E+01 -0.52081099578E+01 -0.39503312380E+02  0.40659100030E+02  0.00000000000E+00 0.  1.
         11    1    4    4    0    0  0.22024375813E+00  0.11530199127E+02  0.20930837154E+02  0.23897571915E+02  0.51100000000E-03 0. -1.
        -11    1    4    4    0    0  0.39026621725E+01 -0.11613617807E+02  0.10078493000E+02  0.15864517390E+02  0.51100000000E-03 0.  1.
        -12    1    4    4    0    0  0.39719267989E+01  0.52915286380E+01  0.84939822260E+01  0.10766810664E+02  0.00000000000E+00 0.  1.
</event>
<event>
 8    1  0.1021894E-011  0.9118800E+02  0.7816164E-02  0.1184000E+00
        -11   -1    0    0    0    0  0.00000000000E+00  0.00000000000E+00  0.45593999997E+02  0.45594000000E+02  0.51100000000E-03 0. -1.
         11   -1    0    0    0    0 -0.00000000000E+00 -0.00000000000E+00 -0.45593999997E+02  0.45594000000E+02  0.51100000000E-03 0.  1.
         23    2    1    2    0    0  0.00000000000E+00  0.00000000000E+00  0.35527136788E-14  0.91188000000E+02  0.91188000000E+02 0.  0.
    9900012    2    3    3    0    0 -0.26358712181E+02 -0.58063672264E+01 -0.30408388988E+02  0.50528859219E+02  0.29999998082E+02 0.  0.
         12    1    3    3    0    0  0.26358712181E+02  0.58063672264E+01  0.30408388988E+02  0.40659140781E+02  0.00000000000E+00 0. -1.
         11    1    4    4    0    0 -0.16618075413E+02  0.90972454637E+01 -0.76008788447E+01  0.20413075832E+02  0.51100000000E-03 0. -1.
        -11    1    4    4    0    0 -0.21927163438E+01 -0.78948688448E+01 -0.15347804605E+02  0.17398047749E+02  0.51100000000E-03 0.  1.
         12    1    4    4    0    0 -0.75479204243E+01 -0.70087438453E+01 -0.74597055386E+01  0.12717735637E+02  0.00000000000E+00 0. -1.
</event>
<event>
 8    1  0.1021894E-011  0.9118800E+02  0.7816164E-02  0.1184000E+00
        -11   -1    0    0    0    0  0.00000000000E+00  0.00000000000E+00  0.45593999997E+02  0.45594000000E+02  0.51100000000E-03 0. -1.
         11   -1    0    0    0    0 -0.00000000000E+00 -0.00000000000E+00 -0.45593999997E+02  0.45594000000E+02  0.51100000000E-03 0.  1.
         23    2    1    2    0    0  0.35527136788E-14 -0.17763568394E-14  0.00000000000E+00  0.91188000000E+02  0.91188000000E+02 0.  0.
    9900012    2    3    3    0    0 -0.24889707532E+02  0.11324887535E+02  0.30090153682E+02  0.50528831694E+02  0.29999914418E+02 0.  0.
        -12    1    3    3    0    0  0.24889707532E+02 -0.11324887535E+02 -0.30090153682E+02  0.40659168306E+02  0.00000000000E+00 0.  1.
         11    1    4    4    0    0 -0.17400750762E+02  0.18185389131E+02  0.23622383632E+02  0.34518277965E+02  0.51100000000E-03 0. -1.
        -11    1    4    4    0    0 -0.94248247282E+01 -0.41156101766E+01  0.72236467024E+01  0.12567682373E+02  0.51100000000E-03 0.  1.
         12    1    4    4    0    0  0.19358679591E+01 -0.27448914203E+01 -0.75587665175E+00  0.34428713564E+01  0.00000000000E+00 0. -1.
</event>
<event>
 8    1  0.1021894E-011  0.9118800E+02  0.7816164E-02  0.1184000E+00
        -11   -1    0    0    0    0  0.00000000000E+00  0.00000000000E+00  0.45593999997E+02  0.45594000000E+02  0.51100000000E-03 0. -1.
         11   -1    0    0    0    0 -0.00000000000E+00 -0.00000000000E+00 -0.45593999997E+02  0.45594000000E+02  0.51100000000E-03 0.  1.
         23    2    1    2    0    0  0.71054273576E-14 -0.88817841970E-15  0.35527136788E-14  0.91188000000E+02  0.91188000000E+02 0.  0.
    9900012    2    3    3    0    0 -0.37005850798E+02  0.69125701218E+01 -0.15360626170E+02  0.50528862586E+02  0.30000008315E+02 0.  0.
         12    1    3    3    0    0  0.37005850798E+02 -0.69125701218E+01  0.15360626170E+02  0.40659137414E+02  0.00000000000E+00 0. -1.
         11    1    4    4    0    0 -0.17508748978E+01 -0.58360775567E+01 -0.23841116344E+01  0.65428856556E+01  0.51100000000E-03 0. -1.
        -11    1    4    4    0    0 -0.92441939490E+01  0.11909524712E+02 -0.39853251354E+00  0.15081469724E+02  0.51100000000E-03 0.  1.
        -12    1    4    4    0    0 -0.26010781951E+02  0.83912296692E+00 -0.12577982022E+02  0.28904507206E+02  0.00000000000E+00 0.  1.
</event>
<event>
 8    1  0.1021894E-011  0.9118800E+02  0.7816164E-02  0.1184000E+00
        -11   -1    0    0    0    0  0.00000000000E+00  0.00000000000E+00  0.45593999997E+02  0.45594000000E+02  0.51100000000E-03 0. -1.
         11   -1    0    0    0    0 -0.00000000000E+00 -0.00000000000E+00 -0.45593999997E+02  0.45594000000E+02  0.51100000000E-03 0.  1.
         23    2    1    2    0    0  0.71054273576E-14  0.17763568394E-14 -0.71054273576E-14  0.91188000000E+02  0.91188000000E+02 0.  0.
    9900012    2    3    3    0    0  0.20692127838E+02 -0.63339662995E+01 -0.34422120747E+02  0.50528859819E+02  0.29999999906E+02 0.  0.
         12    1    3    3    0    0 -0.20692127838E+02  0.63339662995E+01  0.34422120747E+02  0.40659140181E+02  0.00000000000E+00 0. -1.
         11    1    4    4    0    0  0.41720813624E+01 -0.10901603900E+02 -0.89871976956E+00  0.11707216919E+02  0.51100000000E-03 0. -1.
        -11    1    4    4    0    0  0.82610557042E+01  0.68557860366E+01 -0.21798204215E+02  0.24298324033E+02  0.51100000000E-03 0.  1.
         12    1    4    4    0    0  0.82589907713E+01 -0.22881484357E+01 -0.11725196762E+02  0.14523318868E+02  0.00000000000E+00 0. -1.
</event>
<event>
 8    1  0.1168381E-011  0.9118800E+02  0.7816164E-02  0.1184000E+00
        -11   -1    0    0    0    0  0.00000000000E+00  0.00000000000E+00  0.45593999997E+02  0.45594000000E+02  0.51100000000E-03 0. -1.
         11   -1    0    0    0    0 -0.00000000000E+00 -0.00000000000E+00 -0.45593999997E+02  0.45594000000E+02  0.51100000000E-03 0.  1.
         23    2    1    2    0    0  0.88817841970E-15 -0.35527136788E-14  0.00000000000E+00  0.91188000000E+02  0.91188000000E+02 0.  0.
    9900012    2    3    3    0    0  0.16439985860E+01  0.31077705903E+02 -0.26165604684E+02  0.50528863216E+02  0.30000010232E+02 0.  0.
         12    1    3    3    0    0 -0.16439985860E+01 -0.31077705903E+02  0.26165604684E+02  0.40659136784E+02  0.00000000000E+00 0. -1.
         11    1    4    4    0    0 -0.24572855670E+01  0.11709881054E+02  0.43393526833E+01  0.12727511486E+02  0.51100000000E-03 0. -1.
        -11    1    4    4    0    0  0.20114565137E+01  0.17056410888E+02 -0.17859373469E+02  0.24777496457E+02  0.51100000000E-03 0.  1.
         12    1    4    4    0    0  0.20898276392E+01  0.23114139610E+01 -0.12645583898E+02  0.13023855273E+02  0.00000000000E+00 0. -1.
</event>
<event>
 8    1  0.1021894E-011  0.9118800E+02  0.7816164E-02  0.1184000E+00
        -11   -1    0    0    0    0  0.00000000000E+00  0.00000000000E+00  0.45593999997E+02  0.45594000000E+02  0.51100000000E-03 0.  1.
         11   -1    0    0    0    0 -0.00000000000E+00 -0.00000000000E+00 -0.45593999997E+02  0.45594000000E+02  0.51100000000E-03 0. -1.
         23    2    1    2    0    0 -0.17763568394E-14  0.71054273576E-14  0.00000000000E+00  0.91188000000E+02  0.91188000000E+02 0.  0.
    9900012    2    3    3    0    0 -0.93716819957E+01  0.39337815660E+02 -0.42276991883E+01  0.50528860748E+02  0.30000002729E+02 0.  0.
        -12    1    3    3    0    0  0.93716819957E+01 -0.39337815660E+02  0.42276991883E+01  0.40659139252E+02  0.00000000000E+00 0.  1.
         11    1    4    4    0    0 -0.77577769321E+01  0.33778519245E+02  0.76535928510E+01  0.35492942244E+02  0.51100000000E-03 0. -1.
        -11    1    4    4    0    0 -0.43329991144E+01  0.21114719702E+01 -0.64320356808E+01  0.80376786740E+01  0.51100000000E-03 0.  1.
         12    1    4    4    0    0  0.27190940509E+01  0.34478244442E+01 -0.54492563586E+01  0.69982398299E+01  0.00000000000E+00 0. -1.
</event>
<event>
 8    1  0.1021894E-011  0.9118800E+02  0.7816164E-02  0.1184000E+00
        -11   -1    0    0    0    0  0.00000000000E+00  0.00000000000E+00  0.45593999997E+02  0.45594000000E+02  0.51100000000E-03 0. -1.
         11   -1    0    0    0    0 -0.00000000000E+00 -0.00000000000E+00 -0.45593999997E+02  0.45594000000E+02  0.51100000000E-03 0.  1.
         23    2    1    2    0    0  0.00000000000E+00  0.44408920985E-15  0.00000000000E+00  0.91188000000E+02  0.91188000000E+02 0.  0.
    9900012    2    3    3    0    0 -0.58081560975E+01 -0.28855024612E+01  0.40138565057E+02  0.50528865644E+02  0.30000017612E+02 0.  0.
        -12    1    3    3    0    0  0.58081560975E+01  0.28855024612E+01 -0.40138565057E+02  0.40659134356E+02  0.00000000000E+00 0.  1.
         11    1    4    4    0    0 -0.23566378856E+01  0.10838783674E+02  0.74566547240E+01  0.13365428298E+02  0.51100000000E-03 0. -1.
        -11    1    4    4    0    0  0.14021173013E+01 -0.10309164428E+02  0.27049804240E+02  0.28981661681E+02  0.51100000000E-03 0.  1.
        -12    1    4    4    0    0 -0.48536355132E+01 -0.34151217082E+01  0.56321060934E+01  0.81817756645E+01  0.00000000000E+00 0.  1.
</event>
<event>
 8    1  0.1021894E-011  0.9118800E+02  0.7816164E-02  0.1184000E+00
        -11   -1    0    0    0    0  0.00000000000E+00  0.00000000000E+00  0.45593999997E+02  0.45594000000E+02  0.51100000000E-03 0. -1.
         11   -1    0    0    0    0 -0.00000000000E+00 -0.00000000000E+00 -0.45593999997E+02  0.45594000000E+02  0.51100000000E-03 0.  1.
         23    2    1    2    0    0  0.00000000000E+00 -0.66613381478E-15  0.00000000000E+00  0.91188000000E+02  0.91188000000E+02 0.  0.
    9900012    2    3    3    0    0 -0.27871626473E+01 -0.17677783300E+01 -0.40524945364E+02  0.50528874178E+02  0.30000043551E+02 0.  0.
         12    1    3    3    0    0  0.27871626473E+01  0.17677783300E+01  0.40524945364E+02  0.40659125822E+02  0.00000000000E+00 0. -1.
         11    1    4    4    0    0 -0.30095881215E+01 -0.13930802369E+02 -0.23944876685E+02  0.27865426518E+02  0.51100000000E-03 0. -1.
        -11    1    4    4    0    0 -0.26155740894E+01  0.93149561574E+01 -0.60976462465E+01  0.11436386057E+02  0.51100000000E-03 0.  1.
        -12    1    4    4    0    0  0.28379995636E+01  0.28480678813E+01 -0.10482422433E+02  0.11227061603E+02  0.00000000000E+00 0.  1.
</event>
<event>
 8    1  0.1021894E-011  0.9118800E+02  0.7816164E-02  0.1184000E+00
        -11   -1    0    0    0    0  0.00000000000E+00  0.00000000000E+00  0.45593999997E+02  0.45594000000E+02  0.51100000000E-03 0. -1.
         11   -1    0    0    0    0 -0.00000000000E+00 -0.00000000000E+00 -0.45593999997E+02  0.45594000000E+02  0.51100000000E-03 0.  1.
         23    2    1    2    0    0  0.00000000000E+00  0.00000000000E+00  0.71054273576E-14  0.91188000000E+02  0.91188000000E+02 0.  0.
    9900012    2    3    3    0    0 -0.77346598435E+01 -0.28111714346E+01 -0.39817572572E+02  0.50528846870E+02  0.29999960547E+02 0.  0.
         12    1    3    3    0    0  0.77346598435E+01  0.28111714346E+01  0.39817572572E+02  0.40659153130E+02  0.00000000000E+00 0. -1.
         11    1    4    4    0    0 -0.11801116205E+02 -0.47879743215E+01 -0.17647498908E+02  0.21762933161E+02  0.51100000000E-03 0.  1.
        -11    1    4    4    0    0  0.95724281448E+01 -0.36841058097E+01 -0.10529403786E+02  0.14699400007E+02  0.51100000000E-03 0. -1.
        -12    1    4    4    0    0 -0.55059717832E+01  0.56609086966E+01 -0.11640669878E+02  0.14066513703E+02  0.00000000000E+00 0.  1.
</event>
<event>
 8    1  0.1021894E-011  0.9118800E+02  0.7816164E-02  0.1184000E+00
        -11   -1    0    0    0    0  0.00000000000E+00  0.00000000000E+00  0.45593999997E+02  0.45594000000E+02  0.51100000000E-03 0. -1.
         11   -1    0    0    0    0 -0.00000000000E+00 -0.00000000000E+00 -0.45593999997E+02  0.45594000000E+02  0.51100000000E-03 0.  1.
         23    2    1    2    0    0  0.88817841970E-15  0.35527136788E-14  0.00000000000E+00  0.91188000000E+02  0.91188000000E+02 0.  0.
    9900012    2    3    3    0    0  0.48863729296E+01 -0.19962097780E+02  0.35082818979E+02  0.50528853727E+02  0.29999981388E+02 0.  0.
        -12    1    3    3    0    0 -0.48863729296E+01  0.19962097780E+02 -0.35082818979E+02  0.40659146273E+02  0.00000000000E+00 0.  1.
         11    1    4    4    0    0 -0.19202015643E+01 -0.16358639710E+02  0.27990108160E+02  0.32476736633E+02  0.51100000000E-03 0. -1.
        -11    1    4    4    0    0  0.37118046268E+00 -0.26794624202E+01 -0.42151705985E+01  0.50084885178E+01  0.51100000000E-03 0.  1.
        -12    1    4    4    0    0  0.64353940312E+01 -0.92399564922E+00  0.11307881417E+02  0.13043628576E+02  0.00000000000E+00 0.  1.
</event>
<event>
 8    1  0.1021894E-011  0.9118800E+02  0.7816164E-02  0.1184000E+00
        -11   -1    0    0    0    0  0.00000000000E+00  0.00000000000E+00  0.45593999997E+02  0.45594000000E+02  0.51100000000E-03 0. -1.
         11   -1    0    0    0    0 -0.00000000000E+00 -0.00000000000E+00 -0.45593999997E+02  0.45594000000E+02  0.51100000000E-03 0.  1.
         23    2    1    2    0    0  0.17763568394E-14  0.00000000000E+00  0.00000000000E+00  0.91188000000E+02  0.91188000000E+02 0.  0.
    9900012    2    3    3    0    0 -0.12543404694E+02 -0.14233257629E+02 -0.35961688774E+02  0.50528859779E+02  0.29999999783E+02 0.  0.
         12    1    3    3    0    0  0.12543404694E+02  0.14233257629E+02  0.35961688774E+02  0.40659140221E+02  0.00000000000E+00 0. -1.
         11    1    4    4    0    0 -0.79306873139E+01  0.18852222398E+01 -0.42629685019E+01  0.91990632607E+01  0.51100000000E-03 0. -1.
        -11    1    4    4    0    0 -0.60555741614E+01 -0.20406298955E+02 -0.21915646792E+02  0.30551310774E+02  0.51100000000E-03 0.  1.
        -12    1    4    4    0    0  0.14428567815E+01  0.42878190855E+01 -0.97830734808E+01  0.10778485744E+02  0.00000000000E+00 0.  1.
</event>
<event>
 8    1  0.1021894E-011  0.9118800E+02  0.7816164E-02  0.1184000E+00
        -11   -1    0    0    0    0  0.00000000000E+00  0.00000000000E+00  0.45593999997E+02  0.45594000000E+02  0.51100000000E-03 0. -1.
         11   -1    0    0    0    0 -0.00000000000E+00 -0.00000000000E+00 -0.45593999997E+02  0.45594000000E+02  0.51100000000E-03 0.  1.
         23    2    1    2    0    0  0.35527136788E-14  0.35527136788E-14 -0.33306690739E-14  0.91188000000E+02  0.91188000000E+02 0.  0.
    9900012    2    3    3    0    0 -0.30107155307E+02  0.27316173531E+02 -0.74334220873E+00  0.50528847345E+02  0.29999961988E+02 0.  0.
         12    1    3    3    0    0  0.30107155307E+02 -0.27316173531E+02  0.74334220873E+00  0.40659152655E+02  0.00000000000E+00 0. -1.
         11    1    4    4    0    0 -0.12763189231E+02  0.62029755018E+01 -0.11581383371E+02  0.18316777704E+02  0.51100000000E-03 0. -1.
        -11    1    4    4    0    0 -0.12093034774E+02  0.13507795104E+02  0.21493439224E+00  0.18131415159E+02  0.51100000000E-03 0.  1.
         12    1    4    4    0    0 -0.52509313020E+01  0.76054029254E+01  0.10623106770E+02  0.14080654482E+02  0.00000000000E+00 0. -1.
</event>
<event>
 8    1  0.1021894E-011  0.9118800E+02  0.7816164E-02  0.1184000E+00
        -11   -1    0    0    0    0  0.00000000000E+00  0.00000000000E+00  0.45593999997E+02  0.45594000000E+02  0.51100000000E-03 0.  1.
         11   -1    0    0    0    0 -0.00000000000E+00 -0.00000000000E+00 -0.45593999997E+02  0.45594000000E+02  0.51100000000E-03 0. -1.
         23    2    1    2    0    0  0.13322676296E-14  0.00000000000E+00 -0.44408920985E-15  0.91188000000E+02  0.91188000000E+02 0.  0.
    9900012    2    3    3    0    0  0.63148799257E+00  0.40560820560E+02  0.27543348505E+01  0.50528864470E+02  0.30000014043E+02 0.  0.
        -12    1    3    3    0    0 -0.63148799257E+00 -0.40560820560E+02 -0.27543348505E+01  0.40659135530E+02  0.00000000000E+00 0.  1.
         11    1    4    4    0    0 -0.55717031499E+01  0.18141784982E+02 -0.84910536718E+01  0.20791013228E+02  0.51100000000E-03 0. -1.
        -11    1    4    4    0    0  0.73744230821E+01  0.28810461896E+01  0.25255690262E+01  0.83102973537E+01  0.51100000000E-03 0.  1.
        -12    1    4    4    0    0 -0.11712319396E+01  0.19537989389E+02  0.87198194961E+01  0.21427553889E+02  0.00000000000E+00 0.  1.
</event>
<event>
 8    1  0.1021894E-011  0.9118800E+02  0.7816164E-02  0.1184000E+00
        -11   -1    0    0    0    0  0.00000000000E+00  0.00000000000E+00  0.45593999997E+02  0.45594000000E+02  0.51100000000E-03 0. -1.
         11   -1    0    0    0    0 -0.00000000000E+00 -0.00000000000E+00 -0.45593999997E+02  0.45594000000E+02  0.51100000000E-03 0.  1.
         23    2    1    2    0    0  0.35527136788E-14  0.00000000000E+00  0.00000000000E+00  0.91188000000E+02  0.91188000000E+02 0.  0.
    9900012    2    3    3    0    0 -0.21078683027E+02  0.12527126009E+02  0.32433393735E+02  0.50528870725E+02  0.30000033057E+02 0.  0.
        -12    1    3    3    0    0  0.21078683027E+02 -0.12527126009E+02 -0.32433393735E+02  0.40659129275E+02  0.00000000000E+00 0.  1.
         11    1    4    4    0    0 -0.12567403809E+02 -0.47412405074E+01  0.18314712149E+02  0.22712280409E+02  0.51100000000E-03 0. -1.
        -11    1    4    4    0    0 -0.90007996238E+01  0.19592450427E+02  0.13127294035E+02  0.25242907054E+02  0.51100000000E-03 0.  1.
         12    1    4    4    0    0  0.48952040550E+00 -0.23240839112E+01  0.99138755099E+00  0.25736832614E+01  0.00000000000E+00 0. -1.
</event>
<event>
 8    1  0.1021894E-011  0.9118800E+02  0.7816164E-02  0.1184000E+00
        -11   -1    0    0    0    0  0.00000000000E+00  0.00000000000E+00  0.45593999997E+02  0.45594000000E+02  0.51100000000E-03 0. -1.
         11   -1    0    0    0    0 -0.00000000000E+00 -0.00000000000E+00 -0.45593999997E+02  0.45594000000E+02  0.51100000000E-03 0.  1.
         23    2    1    2    0    0  0.00000000000E+00  0.00000000000E+00  0.00000000000E+00  0.91188000000E+02  0.91188000000E+02 0.  0.
    9900012    2    3    3    0    0 -0.14483834409E+02  0.32013898580E+02  0.20457019512E+02  0.50528919725E+02  0.30000181995E+02 0.  0.
        -12    1    3    3    0    0  0.14483834409E+02 -0.32013898580E+02 -0.20457019512E+02  0.40659080275E+02  0.00000000000E+00 0.  1.
         11    1    4    4    0    0 -0.22561716479E+01  0.28056221333E+02  0.36738091992E+01  0.28385537519E+02  0.51100000000E-03 0. -1.
        -11    1    4    4    0    0 -0.98852337979E+01  0.42305886635E+01  0.90357352590E+01  0.14044936440E+02  0.51100000000E-03 0.  1.
         12    1    4    4    0    0 -0.23424289637E+01 -0.27291141607E+00  0.77474750543E+01  0.80984457650E+01  0.00000000000E+00 0. -1.
</event>
<event>
 8    1  0.1021894E-011  0.9118800E+02  0.7816164E-02  0.1184000E+00
        -11   -1    0    0    0    0  0.00000000000E+00  0.00000000000E+00  0.45593999997E+02  0.45594000000E+02  0.51100000000E-03 0. -1.
         11   -1    0    0    0    0 -0.00000000000E+00 -0.00000000000E+00 -0.45593999997E+02  0.45594000000E+02  0.51100000000E-03 0.  1.
         23    2    1    2    0    0  0.17763568394E-14  0.00000000000E+00  0.00000000000E+00  0.91188000000E+02  0.91188000000E+02 0.  0.
    9900012    2    3    3    0    0 -0.98987718544E+01  0.12471763874E+02  0.37411695815E+02  0.50528861272E+02  0.30000004322E+02 0.  0.
        -12    1    3    3    0    0  0.98987718545E+01 -0.12471763874E+02 -0.37411695815E+02  0.40659138728E+02  0.00000000000E+00 0.  1.
         11    1    4    4    0    0 -0.35003955267E+01 -0.38772097611E+01  0.11964199417E+02  0.13054791929E+02  0.51100000000E-03 0. -1.
        -11    1    4    4    0    0 -0.10201367471E+02  0.15445185758E+02  0.90254423044E+01  0.20593209328E+02  0.51100000000E-03 0.  1.
        -12    1    4    4    0    0  0.38029911433E+01  0.90378787715E+00  0.16422054094E+02  0.16880860015E+02  0.00000000000E+00 0.  1.
</event>
<event>
 8    1  0.1021894E-011  0.9118800E+02  0.7816164E-02  0.1184000E+00
        -11   -1    0    0    0    0  0.00000000000E+00  0.00000000000E+00  0.45593999997E+02  0.45594000000E+02  0.51100000000E-03 0. -1.
         11   -1    0    0    0    0 -0.00000000000E+00 -0.00000000000E+00 -0.45593999997E+02  0.45594000000E+02  0.51100000000E-03 0.  1.
         23    2    1    2    0    0  0.00000000000E+00  0.00000000000E+00  0.00000000000E+00  0.91188000000E+02  0.91188000000E+02 0.  0.
    9900012    2    3    3    0    0 -0.16734292561E+02  0.14076141099E+02  0.34278197294E+02  0.50528817698E+02  0.29999871875E+02 0.  0.
        -12    1    3    3    0    0  0.16734292561E+02 -0.14076141099E+02 -0.34278197294E+02  0.40659182302E+02  0.00000000000E+00 0.  1.
         11    1    4    4    0    0 -0.10960523112E+02  0.44732183958E+00  0.14919605003E+02  0.18518309248E+02  0.51100000000E-03 0. -1.
        -11    1    4    4    0    0 -0.23604343421E+01  0.10239602037E+02 -0.14908587092E+01  0.10613376470E+02  0.51100000000E-03 0.  1.
        -12    1    4    4    0    0 -0.34133351065E+01  0.33892172231E+01  0.20849451000E+02  0.21397131980E+02  0.00000000000E+00 0.  1.
</event>
<event>
 8    1  0.1021894E-011  0.9118800E+02  0.7816164E-02  0.1184000E+00
        -11   -1    0    0    0    0  0.00000000000E+00  0.00000000000E+00  0.45593999997E+02  0.45594000000E+02  0.51100000000E-03 0. -1.
         11   -1    0    0    0    0 -0.00000000000E+00 -0.00000000000E+00 -0.45593999997E+02  0.45594000000E+02  0.51100000000E-03 0.  1.
         23    2    1    2    0    0 -0.88817841970E-15 -0.10547118734E-14  0.00000000000E+00  0.91188000000E+02  0.91188000000E+02 0.  0.
    9900012    2    3    3    0    0  0.58027342072E+01 -0.13414710173E+00  0.40242712961E+02  0.50528859992E+02  0.30000000432E+02 0.  0.
        -12    1    3    3    0    0 -0.58027342072E+01  0.13414710173E+00 -0.40242712961E+02  0.40659140008E+02  0.00000000000E+00 0.  1.
         11    1    4    4    0    0  0.91562816421E+01  0.32163223533E+01  0.29197506012E+02  0.30768109798E+02  0.51100000000E-03 0. -1.
        -11    1    4    4    0    0 -0.85334520904E+01  0.12347538509E+01  0.91834351679E+01  0.12596821162E+02  0.51100000000E-03 0.  1.
         12    1    4    4    0    0  0.51799046554E+01 -0.45852233059E+01  0.18617717810E+01  0.71639290315E+01  0.00000000000E+00 0. -1.
</event>
<event>
 8    1  0.1021894E-011  0.9118800E+02  0.7816164E-02  0.1184000E+00
        -11   -1    0    0    0    0  0.00000000000E+00  0.00000000000E+00  0.45593999997E+02  0.45594000000E+02  0.51100000000E-03 0. -1.
         11   -1    0    0    0    0 -0.00000000000E+00 -0.00000000000E+00 -0.45593999997E+02  0.45594000000E+02  0.51100000000E-03 0.  1.
         23    2    1    2    0    0  0.00000000000E+00 -0.38857805862E-15  0.00000000000E+00  0.91188000000E+02  0.91188000000E+02 0.  0.
    9900012    2    3    3    0    0  0.18653089532E+02 -0.34107463870E+00 -0.36126306879E+02  0.50528878887E+02  0.30000057865E+02 0.  0.
         12    1    3    3    0    0 -0.18653089532E+02  0.34107463870E+00  0.36126306879E+02  0.40659121113E+02  0.00000000000E+00 0. -1.
         11    1    4    4    0    0  0.18574255865E+02  0.13344461830E+01 -0.31859164266E+02  0.36902439968E+02  0.51100000000E-03 0. -1.
        -11    1    4    4    0    0 -0.47287933451E+01 -0.47612669985E+01 -0.38913383111E+00  0.67217985191E+01  0.51100000000E-03 0.  1.
         12    1    4    4    0    0  0.48076270114E+01  0.30857461768E+01 -0.38780087814E+01  0.69046404002E+01  0.00000000000E+00 0. -1.
</event>
<event>
 8    1  0.1021894E-011  0.9118800E+02  0.7816164E-02  0.1184000E+00
        -11   -1    0    0    0    0  0.00000000000E+00  0.00000000000E+00  0.45593999997E+02  0.45594000000E+02  0.51100000000E-03 0. -1.
         11   -1    0    0    0    0 -0.00000000000E+00 -0.00000000000E+00 -0.45593999997E+02  0.45594000000E+02  0.51100000000E-03 0.  1.
         23    2    1    2    0    0  0.88817841970E-15  0.00000000000E+00 -0.71054273576E-14  0.91188000000E+02  0.91188000000E+02 0.  0.
    9900012    2    3    3    0    0  0.76264550023E+01  0.13113051330E+02 -0.37723358946E+02  0.50528846772E+02  0.29999960248E+02 0.  0.
         12    1    3    3    0    0 -0.76264550023E+01 -0.13113051330E+02  0.37723358946E+02  0.40659153228E+02  0.00000000000E+00 0. -1.
         11    1    4    4    0    0 -0.57772913384E+01 -0.26059275426E-01 -0.37732104242E+01  0.69003544446E+01  0.51100000000E-03 0. -1.
        -11    1    4    4    0    0  0.15411867259E+02  0.77726300985E+01 -0.12202308981E+02  0.21138490386E+02  0.51100000000E-03 0.  1.
        -12    1    4    4    0    0 -0.20081209182E+01  0.53664805065E+01 -0.21747839541E+02  0.22490001942E+02  0.00000000000E+00 0.  1.
</event>
<event>
 8    1  0.1021894E-011  0.9118800E+02  0.7816164E-02  0.1184000E+00
        -11   -1    0    0    0    0  0.00000000000E+00  0.00000000000E+00  0.45593999997E+02  0.45594000000E+02  0.51100000000E-03 0. -1.
         11   -1    0    0    0    0 -0.00000000000E+00 -0.00000000000E+00 -0.45593999997E+02  0.45594000000E+02  0.51100000000E-03 0.  1.
         23    2    1    2    0    0 -0.44408920985E-15 -0.17763568394E-14 -0.71054273576E-14  0.91188000000E+02  0.91188000000E+02 0.  0.
    9900012    2    3    3    0    0  0.16711771667E+01  0.12874185079E+02  0.38530876696E+02  0.50528856704E+02  0.29999990438E+02 0.  0.
        -12    1    3    3    0    0 -0.16711771667E+01 -0.12874185079E+02 -0.38530876696E+02  0.40659143296E+02  0.00000000000E+00 0.  1.
         11    1    4    4    0    0 -0.99552448386E+01  0.24537713353E+01  0.20029580702E+02  0.22501377667E+02  0.51100000000E-03 0.  1.
        -11    1    4    4    0    0  0.52047531223E+01  0.11075021198E+02  0.53058650730E+01  0.13337831684E+02  0.51100000000E-03 0. -1.
         12    1    4    4    0    0  0.64216688831E+01 -0.65460745459E+00  0.13195430921E+02  0.14689647353E+02  0.00000000000E+00 0. -1.
</event>
<event>
 8    1  0.1021894E-011  0.9118800E+02  0.7816164E-02  0.1184000E+00
        -11   -1    0    0    0    0  0.00000000000E+00  0.00000000000E+00  0.45593999997E+02  0.45594000000E+02  0.51100000000E-03 0. -1.
         11   -1    0    0    0    0 -0.00000000000E+00 -0.00000000000E+00 -0.45593999997E+02  0.45594000000E+02  0.51100000000E-03 0.  1.
         23    2    1    2    0    0  0.00000000000E+00  0.17763568394E-14  0.00000000000E+00  0.91188000000E+02  0.91188000000E+02 0.  0.
    9900012    2    3    3    0    0 -0.20895534785E+02 -0.12728412927E+02  0.32473543906E+02  0.50528844531E+02  0.29999953438E+02 0.  0.
        -12    1    3    3    0    0  0.20895534785E+02  0.12728412927E+02 -0.32473543906E+02  0.40659155469E+02  0.00000000000E+00 0.  1.
         11    1    4    4    0    0 -0.10249025598E+02 -0.10657376518E+01  0.14163203217E+02  0.17514983531E+02  0.51100000000E-03 0. -1.
        -11    1    4    4    0    0 -0.30586408612E+01  0.29647312667E+01 -0.36147779779E+01  0.55867285143E+01  0.51100000000E-03 0.  1.
        -12    1    4    4    0    0 -0.75878683258E+01 -0.14627406542E+02  0.21925118667E+02  0.27427132487E+02  0.00000000000E+00 0.  1.
</event>
<event>
 8    1  0.1021894E-011  0.9118800E+02  0.7816164E-02  0.1184000E+00
        -11   -1    0    0    0    0  0.00000000000E+00  0.00000000000E+00  0.45593999997E+02  0.45594000000E+02  0.51100000000E-03 0. -1.
         11   -1    0    0    0    0 -0.00000000000E+00 -0.00000000000E+00 -0.45593999997E+02  0.45594000000E+02  0.51100000000E-03 0.  1.
         23    2    1    2    0    0 -0.88817841970E-15  0.71054273576E-14  0.00000000000E+00  0.91188000000E+02  0.91188000000E+02 0.  0.
    9900012    2    3    3    0    0  0.46935867585E+01  0.36645510368E+02  0.16977692973E+02  0.50528865166E+02  0.30000016157E+02 0.  0.
        -12    1    3    3    0    0 -0.46935867585E+01 -0.36645510368E+02 -0.16977692973E+02  0.40659134834E+02  0.00000000000E+00 0.  1.
         11    1    4    4    0    0  0.80224579953E+01  0.27411647777E+02  0.66333041683E+01  0.29321647133E+02  0.51100000000E-03 0. -1.
        -11    1    4    4    0    0 -0.17358023624E+01  0.64029377998E+01  0.14492394537E+02  0.15938636139E+02  0.51100000000E-03 0.  1.
         12    1    4    4    0    0 -0.15930688743E+01  0.28309247912E+01 -0.41480057322E+01  0.52685818933E+01  0.00000000000E+00 0. -1.
</event>
<event>
 8    1  0.1021894E-011  0.9118800E+02  0.7816164E-02  0.1184000E+00
        -11   -1    0    0    0    0  0.00000000000E+00  0.00000000000E+00  0.45593999997E+02  0.45594000000E+02  0.51100000000E-03 0. -1.
         11   -1    0    0    0    0 -0.00000000000E+00 -0.00000000000E+00 -0.45593999997E+02  0.45594000000E+02  0.51100000000E-03 0.  1.
         23    2    1    2    0    0  0.88817841970E-15 -0.35527136788E-14  0.00000000000E+00  0.91188000000E+02  0.91188000000E+02 0.  0.
    9900012    2    3    3    0    0 -0.44634933051E+01  0.22863159619E+02 -0.33324453367E+02  0.50528855488E+02  0.29999986741E+02 0.  0.
         12    1    3    3    0    0  0.44634933051E+01 -0.22863159619E+02  0.33324453367E+02  0.40659144512E+02  0.00000000000E+00 0. -1.
         11    1    4    4    0    0  0.20251132022E+01  0.39099687228E+01  0.25999875663E+01  0.51135970217E+01  0.51100000000E-03 0. -1.
        -11    1    4    4    0    0 -0.66346575506E+01  0.22204382411E+02 -0.25327389103E+02  0.34329723537E+02  0.51100000000E-03 0.  1.
        -12    1    4    4    0    0  0.14605104333E+00 -0.32511915149E+01 -0.10597051830E+02  0.11085534929E+02  0.00000000000E+00 0.  1.
</event>
<event>
 8    1  0.1021894E-011  0.9118800E+02  0.7816164E-02  0.1184000E+00
        -11   -1    0    0    0    0  0.00000000000E+00  0.00000000000E+00  0.45593999997E+02  0.45594000000E+02  0.51100000000E-03 0. -1.
         11   -1    0    0    0    0 -0.00000000000E+00 -0.00000000000E+00 -0.45593999997E+02  0.45594000000E+02  0.51100000000E-03 0.  1.
         23    2    1    2    0    0  0.00000000000E+00 -0.17763568394E-14  0.00000000000E+00  0.91188000000E+02  0.91188000000E+02 0.  0.
    9900012    2    3    3    0    0 -0.31145161702E+02  0.57601607202E+01 -0.25494365960E+02  0.50528889770E+02  0.30000090944E+02 0.  0.
         12    1    3    3    0    0  0.31145161702E+02 -0.57601607202E+01  0.25494365960E+02  0.40659110230E+02  0.00000000000E+00 0. -1.
         11    1    4    4    0    0 -0.12643401340E+02 -0.10929626043E+02 -0.58897044509E+01  0.17720071717E+02  0.51100000000E-03 0. -1.
        -11    1    4    4    0    0 -0.99166291568E+01  0.69366958484E+01 -0.45664216059E+01  0.12934816955E+02  0.51100000000E-03 0.  1.
         12    1    4    4    0    0 -0.85851312057E+01  0.97530909151E+01 -0.15038239903E+02  0.19874001097E+02  0.00000000000E+00 0. -1.
</event>
<event>
 8    1  0.1021894E-011  0.9118800E+02  0.7816164E-02  0.1184000E+00
        -11   -1    0    0    0    0  0.00000000000E+00  0.00000000000E+00  0.45593999997E+02  0.45594000000E+02  0.51100000000E-03 0. -1.
         11   -1    0    0    0    0 -0.00000000000E+00 -0.00000000000E+00 -0.45593999997E+02  0.45594000000E+02  0.51100000000E-03 0.  1.
         23    2    1    2    0    0  0.00000000000E+00  0.00000000000E+00  0.35527136788E-14  0.91188000000E+02  0.91188000000E+02 0.  0.
    9900012    2    3    3    0    0 -0.17142544336E+02 -0.26706498166E+02 -0.25417746013E+02  0.50528859785E+02  0.29999999804E+02 0.  0.
         12    1    3    3    0    0  0.17142544336E+02  0.26706498166E+02  0.25417746013E+02  0.40659140215E+02  0.00000000000E+00 0. -1.
         11    1    4    4    0    0  0.30123651853E+01 -0.11180143095E+02 -0.46512699401E+00  0.11588196020E+02  0.51100000000E-03 0. -1.
        -11    1    4    4    0    0 -0.10809092564E+02 -0.69073169310E+00 -0.15815421577E+02  0.19168754582E+02  0.51100000000E-03 0.  1.
         12    1    4    4    0    0 -0.93458169576E+01 -0.14835623378E+02 -0.91371974424E+01  0.19771909183E+02  0.00000000000E+00 0. -1.
</event>
<event>
 8    1  0.1635196E-011  0.9118800E+02  0.7816164E-02  0.1184000E+00
        -11   -1    0    0    0    0  0.00000000000E+00  0.00000000000E+00  0.45593999997E+02  0.45594000000E+02  0.51100000000E-03 0. -1.
         11   -1    0    0    0    0 -0.00000000000E+00 -0.00000000000E+00 -0.45593999997E+02  0.45594000000E+02  0.51100000000E-03 0.  1.
         23    2    1    2    0    0  0.00000000000E+00  0.00000000000E+00  0.00000000000E+00  0.91188000000E+02  0.91188000000E+02 0.  0.
    9900012    2    3    3    0    0  0.18501871733E+02  0.23841739578E+01 -0.36127032048E+02  0.50528856039E+02  0.29999988416E+02 0.  0.
         12    1    3    3    0    0 -0.18501871733E+02 -0.23841739578E+01  0.36127032048E+02  0.40659143961E+02  0.00000000000E+00 0. -1.
         11    1    4    4    0    0 -0.14522165117E+01 -0.66514056278E+01 -0.17536760099E+02  0.18811913371E+02  0.51100000000E-03 0. -1.
        -11    1    4    4    0    0  0.17309346390E+02  0.16941045085E+01 -0.15590289886E+02  0.23356810603E+02  0.51100000000E-03 0.  1.
         12    1    4    4    0    0  0.26447418541E+01  0.73414750770E+01 -0.29999820625E+01  0.83601320657E+01  0.00000000000E+00 0. -1.
</event>
<event>
 8    1  0.1021894E-011  0.9118800E+02  0.7816164E-02  0.1184000E+00
        -11   -1    0    0    0    0  0.00000000000E+00  0.00000000000E+00  0.45593999997E+02  0.45594000000E+02  0.51100000000E-03 0. -1.
         11   -1    0    0    0    0 -0.00000000000E+00 -0.00000000000E+00 -0.45593999997E+02  0.45594000000E+02  0.51100000000E-03 0.  1.
         23    2    1    2    0    0  0.00000000000E+00 -0.17763568394E-14  0.00000000000E+00  0.91188000000E+02  0.91188000000E+02 0.  0.
    9900012    2    3    3    0    0  0.12879823436E+02  0.98982083129E+01 -0.37273341417E+02  0.50528851460E+02  0.29999974499E+02 0.  0.
         12    1    3    3    0    0 -0.12879823436E+02 -0.98982083129E+01  0.37273341417E+02  0.40659148540E+02  0.00000000000E+00 0. -1.
         11    1    4    4    0    0  0.21658981455E+01  0.51550224839E+01  0.38849311625E+01  0.68086754941E+01  0.51100000000E-03 0. -1.
        -11    1    4    4    0    0  0.11086650067E+02  0.32827704193E+01 -0.40421144739E+02  0.42042351666E+02  0.51100000000E-03 0.  1.
        -12    1    4    4    0    0 -0.37272477689E+00  0.14604154097E+01 -0.73712784079E+00  0.16778243001E+01  0.00000000000E+00 0.  1.
</event>
<event>
 8    1  0.1021894E-011  0.9118800E+02  0.7816164E-02  0.1184000E+00
        -11   -1    0    0    0    0  0.00000000000E+00  0.00000000000E+00  0.45593999997E+02  0.45594000000E+02  0.51100000000E-03 0.  1.
         11   -1    0    0    0    0 -0.00000000000E+00 -0.00000000000E+00 -0.45593999997E+02  0.45594000000E+02  0.51100000000E-03 0. -1.
         23    2    1    2    0    0  0.35527136788E-14  0.35527136788E-14  0.00000000000E+00  0.91188000000E+02  0.91188000000E+02 0.  0.
    9900012    2    3    3    0    0  0.29238995781E+02  0.27737049906E+02  0.53760956144E+01  0.50528865530E+02  0.30000017265E+02 0.  0.
         12    1    3    3    0    0 -0.29238995781E+02 -0.27737049906E+02 -0.53760956144E+01  0.40659134470E+02  0.00000000000E+00 0. -1.
         11    1    4    4    0    0  0.15946015084E+02  0.15199961964E+02  0.13550685904E+02  0.25863784130E+02  0.51100000000E-03 0. -1.
        -11    1    4    4    0    0  0.15287074044E+02  0.79806189886E+01 -0.30294144308E+01  0.17508919564E+02  0.51100000000E-03 0.  1.
         12    1    4    4    0    0 -0.19940933469E+01  0.45564689533E+01 -0.51451758590E+01  0.71561618357E+01  0.00000000000E+00 0. -1.
</event>
<event>
 8    1  0.1021894E-011  0.9118800E+02  0.7816164E-02  0.1184000E+00
        -11   -1    0    0    0    0  0.00000000000E+00  0.00000000000E+00  0.45593999997E+02  0.45594000000E+02  0.51100000000E-03 0.  1.
         11   -1    0    0    0    0 -0.00000000000E+00 -0.00000000000E+00 -0.45593999997E+02  0.45594000000E+02  0.51100000000E-03 0. -1.
         23    2    1    2    0    0  0.35527136788E-14  0.71054273576E-14  0.44408920985E-15  0.91188000000E+02  0.91188000000E+02 0.  0.
    9900012    2    3    3    0    0  0.26096708814E+02  0.31020347018E+02  0.31409803344E+01  0.50528857148E+02  0.29999991786E+02 0.  0.
         12    1    3    3    0    0 -0.26096708814E+02 -0.31020347018E+02 -0.31409803344E+01  0.40659142852E+02  0.00000000000E+00 0. -1.
         11    1    4    4    0    0  0.12946141930E+01  0.22674876525E+02  0.55203790834E+00  0.22718512219E+02  0.51100000000E-03 0. -1.
        -11    1    4    4    0    0  0.21621402313E+02  0.79359641043E+01 -0.92836396366E+00  0.23050518957E+02  0.51100000000E-03 0.  1.
         12    1    4    4    0    0  0.31806923078E+01  0.40950638810E+00  0.35173063897E+01  0.47598259714E+01  0.00000000000E+00 0. -1.
</event>
<event>
 8    1  0.1021894E-011  0.9118800E+02  0.7816164E-02  0.1184000E+00
        -11   -1    0    0    0    0  0.00000000000E+00  0.00000000000E+00  0.45593999997E+02  0.45594000000E+02  0.51100000000E-03 0.  1.
         11   -1    0    0    0    0 -0.00000000000E+00 -0.00000000000E+00 -0.45593999997E+02  0.45594000000E+02  0.51100000000E-03 0. -1.
         23    2    1    2    0    0  0.00000000000E+00  0.00000000000E+00  0.22204460493E-15  0.91188000000E+02  0.91188000000E+02 0.  0.
    9900012    2    3    3    0    0 -0.40286007687E+02 -0.54526783735E+01  0.68679593737E+00  0.50528858279E+02  0.29999995225E+02 0.  0.
         12    1    3    3    0    0  0.40286007687E+02  0.54526783735E+01 -0.68679593737E+00  0.40659141721E+02  0.00000000000E+00 0. -1.
         11    1    4    4    0    0 -0.87536884961E+01  0.89486260375E+01  0.15445174183E+01  0.12613108442E+02  0.51100000000E-03 0. -1.
        -11    1    4    4    0    0 -0.27301543232E+02 -0.74813538596E+01  0.38011895534E+01  0.28562107077E+02  0.51100000000E-03 0.  1.
        -12    1    4    4    0    0 -0.42307759593E+01 -0.69199505514E+01 -0.46589110344E+01  0.93536427598E+01  0.00000000000E+00 0.  1.
</event>
<event>
 8    1  0.1021894E-011  0.9118800E+02  0.7816164E-02  0.1184000E+00
        -11   -1    0    0    0    0  0.00000000000E+00  0.00000000000E+00  0.45593999997E+02  0.45594000000E+02  0.51100000000E-03 0. -1.
         11   -1    0    0    0    0 -0.00000000000E+00 -0.00000000000E+00 -0.45593999997E+02  0.45594000000E+02  0.51100000000E-03 0.  1.
         23    2    1    2    0    0  0.00000000000E+00  0.00000000000E+00  0.35527136788E-14  0.91188000000E+02  0.91188000000E+02 0.  0.
    9900012    2    3    3    0    0  0.32495711943E+02  0.59036832489E+01 -0.23713722775E+02  0.50528863039E+02  0.30000009692E+02 0.  0.
         12    1    3    3    0    0 -0.32495711943E+02 -0.59036832489E+01  0.23713722775E+02  0.40659136961E+02  0.00000000000E+00 0. -1.
         11    1    4    4    0    0  0.24842191135E+01 -0.63506572062E+01  0.18411445018E+01  0.70634272766E+01  0.51100000000E-03 0. -1.
        -11    1    4    4    0    0  0.20013474722E+02  0.14329208564E+02 -0.15235204148E+02  0.28947829525E+02  0.51100000000E-03 0.  1.
        -12    1    4    4    0    0  0.99980181078E+01 -0.20748681093E+01 -0.10319663129E+02  0.14517606237E+02  0.00000000000E+00 0.  1.
</event>
<event>
 8    1  0.1021894E-011  0.9118800E+02  0.7816164E-02  0.1184000E+00
        -11   -1    0    0    0    0  0.00000000000E+00  0.00000000000E+00  0.45593999997E+02  0.45594000000E+02  0.51100000000E-03 0. -1.
         11   -1    0    0    0    0 -0.00000000000E+00 -0.00000000000E+00 -0.45593999997E+02  0.45594000000E+02  0.51100000000E-03 0.  1.
         23    2    1    2    0    0  0.88817841970E-15 -0.35527136788E-14  0.00000000000E+00  0.91188000000E+02  0.91188000000E+02 0.  0.
    9900012    2    3    3    0    0 -0.78239698131E+01  0.24611666112E+02  0.31404102963E+02  0.50528852256E+02  0.29999976916E+02 0.  0.
        -12    1    3    3    0    0  0.78239698131E+01 -0.24611666112E+02 -0.31404102963E+02  0.40659147744E+02  0.00000000000E+00 0.  1.
         11    1    4    4    0    0  0.60700872417E+01  0.11239476183E+01  0.87558202228E+01  0.10713244392E+02  0.51100000000E-03 0. -1.
        -11    1    4    4    0    0 -0.26390647400E+01  0.18717260980E+02  0.74652959649E+01  0.20323168193E+02  0.51100000000E-03 0.  1.
        -12    1    4    4    0    0 -0.11254992315E+02  0.47704575128E+01  0.15182986775E+02  0.19492439670E+02  0.00000000000E+00 0.  1.
</event>
<event>
 8    1  0.1021894E-011  0.9118800E+02  0.7816164E-02  0.1184000E+00
        -11   -1    0    0    0    0  0.00000000000E+00  0.00000000000E+00  0.45593999997E+02  0.45594000000E+02  0.51100000000E-03 0. -1.
         11   -1    0    0    0    0 -0.00000000000E+00 -0.00000000000E+00 -0.45593999997E+02  0.45594000000E+02  0.51100000000E-03 0.  1.
         23    2    1    2    0    0  0.00000000000E+00 -0.35527136788E-14 -0.35527136788E-14  0.91188000000E+02  0.91188000000E+02 0.  0.
    9900012    2    3    3    0    0  0.18888165714E+02  0.24429205934E+02 -0.26450211615E+02  0.50528897685E+02  0.30000115002E+02 0.  0.
         12    1    3    3    0    0 -0.18888165714E+02 -0.24429205934E+02  0.26450211615E+02  0.40659102315E+02  0.00000000000E+00 0. -1.
         11    1    4    4    0    0  0.10866104126E+01 -0.30216113798E+01  0.42448131591E+01  0.53225272696E+01  0.51100000000E-03 0. -1.
        -11    1    4    4    0    0  0.17103784161E+02  0.23285059571E+02 -0.27727601409E+02  0.40044391767E+02  0.51100000000E-03 0.  1.
         12    1    4    4    0    0  0.69777114074E+00  0.41657577427E+01 -0.29674233650E+01  0.51619786480E+01  0.00000000000E+00 0. -1.
</event>
<event>
 8    1  0.1021894E-011  0.9118800E+02  0.7816164E-02  0.1184000E+00
        -11   -1    0    0    0    0  0.00000000000E+00  0.00000000000E+00  0.45593999997E+02  0.45594000000E+02  0.51100000000E-03 0. -1.
         11   -1    0    0    0    0 -0.00000000000E+00 -0.00000000000E+00 -0.45593999997E+02  0.45594000000E+02  0.51100000000E-03 0.  1.
         23    2    1    2    0    0  0.00000000000E+00  0.00000000000E+00  0.35527136788E-14  0.91188000000E+02  0.91188000000E+02 0.  0.
    9900012    2    3    3    0    0  0.18459218008E+02  0.28337683925E+02  0.22569835734E+02  0.50528873783E+02  0.30000042350E+02 0.  0.
        -12    1    3    3    0    0 -0.18459218008E+02 -0.28337683925E+02 -0.22569835734E+02  0.40659126217E+02  0.00000000000E+00 0.  1.
         11    1    4    4    0    0  0.17800005119E+02  0.11075266167E+02  0.23316714368E+02  0.31355555681E+02  0.51100000000E-03 0. -1.
        -11    1    4    4    0    0 -0.10762199477E+01 -0.54098447660E+00 -0.44157639790E+00  0.12829277283E+01  0.51100000000E-03 0.  1.
         12    1    4    4    0    0  0.17354328376E+01  0.17803402234E+02 -0.30530223628E+00  0.17890390373E+02  0.00000000000E+00 0. -1.
</event>
<event>
 8    1  0.1021894E-011  0.9118800E+02  0.7816164E-02  0.1184000E+00
        -11   -1    0    0    0    0  0.00000000000E+00  0.00000000000E+00  0.45593999997E+02  0.45594000000E+02  0.51100000000E-03 0. -1.
         11   -1    0    0    0    0 -0.00000000000E+00 -0.00000000000E+00 -0.45593999997E+02  0.45594000000E+02  0.51100000000E-03 0.  1.
         23    2    1    2    0    0  0.00000000000E+00  0.00000000000E+00  0.00000000000E+00  0.91188000000E+02  0.91188000000E+02 0.  0.
    9900012    2    3    3    0    0 -0.33228895738E+02 -0.87479991105E+01  0.21736574570E+02  0.50528859891E+02  0.30000000124E+02 0.  0.
        -12    1    3    3    0    0  0.33228895738E+02  0.87479991105E+01 -0.21736574570E+02  0.40659140109E+02  0.00000000000E+00 0.  1.
         11    1    4    4    0    0 -0.17436771952E+02  0.46633501362E+01  0.66466409246E+01  0.19234492103E+02  0.51100000000E-03 0.  1.
        -11    1    4    4    0    0  0.34706204748E+01 -0.11831057433E+01 -0.44189069708E+00  0.36932659435E+01  0.51100000000E-03 0. -1.
         12    1    4    4    0    0 -0.19262744260E+02 -0.12228243503E+02  0.15531824343E+02  0.27601101844E+02  0.00000000000E+00 0. -1.
</event>
<event>
 8    1  0.1021894E-011  0.9118800E+02  0.7816164E-02  0.1184000E+00
        -11   -1    0    0    0    0  0.00000000000E+00  0.00000000000E+00  0.45593999997E+02  0.45594000000E+02  0.51100000000E-03 0. -1.
         11   -1    0    0    0    0 -0.00000000000E+00 -0.00000000000E+00 -0.45593999997E+02  0.45594000000E+02  0.51100000000E-03 0.  1.
         23    2    1    2    0    0 -0.44408920985E-15  0.88817841970E-15  0.00000000000E+00  0.91188000000E+02  0.91188000000E+02 0.  0.
    9900012    2    3    3    0    0 -0.25511541082E+01  0.79343883509E+01 -0.39795761705E+02  0.50528861353E+02  0.30000004570E+02 0.  0.
         12    1    3    3    0    0  0.25511541082E+01 -0.79343883509E+01  0.39795761705E+02  0.40659138647E+02  0.00000000000E+00 0. -1.
         11    1    4    4    0    0  0.73341249499E+00  0.52939239213E+00  0.14076482641E+01  0.16732077244E+01  0.51100000000E-03 0. -1.
        -11    1    4    4    0    0 -0.16833650496E+01  0.17087900929E+01 -0.42687948617E+02  0.42755287847E+02  0.51100000000E-03 0.  1.
        -12    1    4    4    0    0 -0.16012015535E+01  0.56962058658E+01  0.14845386475E+01  0.61003657822E+01  0.00000000000E+00 0.  1.
</event>
<event>
 8    1  0.1021894E-011  0.9118800E+02  0.7816164E-02  0.1184000E+00
        -11   -1    0    0    0    0  0.00000000000E+00  0.00000000000E+00  0.45593999997E+02  0.45594000000E+02  0.51100000000E-03 0.  1.
         11   -1    0    0    0    0 -0.00000000000E+00 -0.00000000000E+00 -0.45593999997E+02  0.45594000000E+02  0.51100000000E-03 0. -1.
         23    2    1    2    0    0  0.00000000000E+00  0.00000000000E+00  0.00000000000E+00  0.91188000000E+02  0.91188000000E+02 0.  0.
    9900012    2    3    3    0    0  0.15342278104E+02 -0.19387921342E+02  0.32278306537E+02  0.50528855096E+02  0.29999985551E+02 0.  0.
        -12    1    3    3    0    0 -0.15342278104E+02  0.19387921342E+02 -0.32278306537E+02  0.40659144904E+02  0.00000000000E+00 0.  1.
         11    1    4    4    0    0  0.13373119419E+02 -0.96888571848E+00  0.60016117607E+01  0.14690078507E+02  0.51100000000E-03 0. -1.
        -11    1    4    4    0    0  0.21405031620E+01 -0.17948664776E+02  0.28396031141E+02  0.33661118607E+02  0.51100000000E-03 0.  1.
        -12    1    4    4    0    0 -0.17134447717E+00 -0.47037084700E+00 -0.21193363646E+01  0.21776579828E+01  0.00000000000E+00 0.  1.
</event>
<event>
 8    1  0.1021894E-011  0.9118800E+02  0.7816164E-02  0.1184000E+00
        -11   -1    0    0    0    0  0.00000000000E+00  0.00000000000E+00  0.45593999997E+02  0.45594000000E+02  0.51100000000E-03 0. -1.
         11   -1    0    0    0    0 -0.00000000000E+00 -0.00000000000E+00 -0.45593999997E+02  0.45594000000E+02  0.51100000000E-03 0.  1.
         23    2    1    2    0    0 -0.17763568394E-14  0.88817841970E-15 -0.71054273576E-14  0.91188000000E+02  0.91188000000E+02 0.  0.
    9900012    2    3    3    0    0 -0.13132125134E+02  0.65924731074E+01 -0.37911115435E+02  0.50528854832E+02  0.29999984749E+02 0.  0.
         12    1    3    3    0    0  0.13132125134E+02 -0.65924731074E+01  0.37911115435E+02  0.40659145168E+02  0.00000000000E+00 0. -1.
         11    1    4    4    0    0 -0.49743622667E+01 -0.25647120234E+01 -0.38194842221E+01  0.67757278360E+01  0.51100000000E-03 0. -1.
        -11    1    4    4    0    0  0.55676353686E+01  0.12160287048E+02 -0.16649610441E+02  0.21356045345E+02  0.51100000000E-03 0.  1.
        -12    1    4    4    0    0 -0.13725398236E+02 -0.30031019174E+01 -0.17442020772E+02  0.22397081651E+02  0.00000000000E+00 0.  1.
</event>
<event>
 8    1  0.1021894E-011  0.9118800E+02  0.7816164E-02  0.1184000E+00
        -11   -1    0    0    0    0  0.00000000000E+00  0.00000000000E+00  0.45593999997E+02  0.45594000000E+02  0.51100000000E-03 0. -1.
         11   -1    0    0    0    0 -0.00000000000E+00 -0.00000000000E+00 -0.45593999997E+02  0.45594000000E+02  0.51100000000E-03 0.  1.
         23    2    1    2    0    0  0.00000000000E+00  0.00000000000E+00  0.00000000000E+00  0.91188000000E+02  0.91188000000E+02 0.  0.
    9900012    2    3    3    0    0 -0.23359959872E+02 -0.49582687788E+01  0.32907337953E+02  0.50528867623E+02  0.30000023627E+02 0.  0.
        -12    1    3    3    0    0  0.23359959872E+02  0.49582687788E+01 -0.32907337953E+02  0.40659132377E+02  0.00000000000E+00 0.  1.
         11    1    4    4    0    0 -0.88191548181E+01  0.90034690265E+00  0.16452825837E+02  0.18689130385E+02  0.51100000000E-03 0. -1.
        -11    1    4    4    0    0 -0.11099073610E+02 -0.86773579374E+01 -0.71167533305E+00  0.14106468651E+02  0.51100000000E-03 0.  1.
        -12    1    4    4    0    0 -0.34417314440E+01  0.28187422559E+01  0.17166187449E+02  0.17733268587E+02  0.00000000000E+00 0.  1.
</event>
<event>
 8    1  0.1021894E-011  0.9118800E+02  0.7816164E-02  0.1184000E+00
        -11   -1    0    0    0    0  0.00000000000E+00  0.00000000000E+00  0.45593999997E+02  0.45594000000E+02  0.51100000000E-03 0. -1.
         11   -1    0    0    0    0 -0.00000000000E+00 -0.00000000000E+00 -0.45593999997E+02  0.45594000000E+02  0.51100000000E-03 0.  1.
         23    2    1    2    0    0  0.00000000000E+00  0.00000000000E+00 -0.71054273576E-14  0.91188000000E+02  0.91188000000E+02 0.  0.
    9900012    2    3    3    0    0  0.26951839854E+02  0.61599470629E+01  0.29813083695E+02  0.50528848770E+02  0.29999966322E+02 0.  0.
        -12    1    3    3    0    0 -0.26951839854E+02 -0.61599470629E+01 -0.29813083695E+02  0.40659151230E+02  0.00000000000E+00 0.  1.
         11    1    4    4    0    0  0.91850929513E+01 -0.31517112970E+01 -0.24273791944E+01  0.10009564758E+02  0.51100000000E-03 0. -1.
        -11    1    4    4    0    0  0.16827598274E+02  0.64594730609E+01  0.32836049640E+02  0.37457963268E+02  0.51100000000E-03 0.  1.
        -12    1    4    4    0    0  0.93914862846E+00  0.28521852990E+01 -0.59558675102E+00  0.30613207450E+01  0.00000000000E+00 0.  1.
</event>
<event>
 8    1  0.1021894E-011  0.9118800E+02  0.7816164E-02  0.1184000E+00
        -11   -1    0    0    0    0  0.00000000000E+00  0.00000000000E+00  0.45593999997E+02  0.45594000000E+02  0.51100000000E-03 0. -1.
         11   -1    0    0    0    0 -0.00000000000E+00 -0.00000000000E+00 -0.45593999997E+02  0.45594000000E+02  0.51100000000E-03 0.  1.
         23    2    1    2    0    0  0.00000000000E+00 -0.17763568394E-14  0.00000000000E+00  0.91188000000E+02  0.91188000000E+02 0.  0.
    9900012    2    3    3    0    0  0.32965151727E+02 -0.79179201746E+01  0.22444815407E+02  0.50528875232E+02  0.30000046754E+02 0.  0.
        -12    1    3    3    0    0 -0.32965151727E+02  0.79179201746E+01 -0.22444815407E+02  0.40659124768E+02  0.00000000000E+00 0.  1.
         11    1    4    4    0    0  0.88954772588E+01  0.45137510850E+01  0.92923697799E+00  0.10018330507E+02  0.51100000000E-03 0. -1.
        -11    1    4    4    0    0  0.13948097976E+02 -0.16855642179E+02  0.85806709300E+01  0.23500851565E+02  0.51100000000E-03 0.  1.
        -12    1    4    4    0    0  0.10121576492E+02  0.44239709192E+01  0.12934907499E+02  0.17009693160E+02  0.00000000000E+00 0.  1.
</event>
<event>
 8    1  0.1021894E-011  0.9118800E+02  0.7816164E-02  0.1184000E+00
        -11   -1    0    0    0    0  0.00000000000E+00  0.00000000000E+00  0.45593999997E+02  0.45594000000E+02  0.51100000000E-03 0. -1.
         11   -1    0    0    0    0 -0.00000000000E+00 -0.00000000000E+00 -0.45593999997E+02  0.45594000000E+02  0.51100000000E-03 0.  1.
         23    2    1    2    0    0 -0.55511151231E-15  0.00000000000E+00  0.00000000000E+00  0.91188000000E+02  0.91188000000E+02 0.  0.
    9900012    2    3    3    0    0 -0.76034830715E+00 -0.35984561879E+02  0.18912941279E+02  0.50528853784E+02  0.29999981562E+02 0.  0.
        -12    1    3    3    0    0  0.76034830715E+00  0.35984561879E+02 -0.18912941279E+02  0.40659146216E+02  0.00000000000E+00 0.  1.
         11    1    4    4    0    0  0.10713866497E+01 -0.10021548081E+02  0.11198029221E+02  0.15065694606E+02  0.51100000000E-03 0. -1.
        -11    1    4    4    0    0  0.13996242732E+01  0.37267517261E+01 -0.14289774585E+01  0.42296103098E+01  0.51100000000E-03 0.  1.
        -12    1    4    4    0    0 -0.32313592300E+01 -0.29689765524E+02  0.91438895172E+01  0.31233548868E+02  0.00000000000E+00 0.  1.
</event>
<event>
 8    1  0.1021894E-011  0.9118800E+02  0.7816164E-02  0.1184000E+00
        -11   -1    0    0    0    0  0.00000000000E+00  0.00000000000E+00  0.45593999997E+02  0.45594000000E+02  0.51100000000E-03 0. -1.
         11   -1    0    0    0    0 -0.00000000000E+00 -0.00000000000E+00 -0.45593999997E+02  0.45594000000E+02  0.51100000000E-03 0.  1.
         23    2    1    2    0    0  0.00000000000E+00  0.17763568394E-14 -0.71054273576E-14  0.91188000000E+02  0.91188000000E+02 0.  0.
    9900012    2    3    3    0    0  0.14020969271E+02  0.12288307241E+02  0.36132752044E+02  0.50528857800E+02  0.29999993769E+02 0.  0.
        -12    1    3    3    0    0 -0.14020969271E+02 -0.12288307241E+02 -0.36132752044E+02  0.40659142200E+02  0.00000000000E+00 0.  1.
         11    1    4    4    0    0  0.58212452497E+01  0.47921911638E+01  0.11308143531E+02  0.13591398118E+02  0.51100000000E-03 0. -1.
        -11    1    4    4    0    0  0.59246185403E+01 -0.64829839301E+01  0.50814652323E+00  0.87970676158E+01  0.51100000000E-03 0.  1.
        -12    1    4    4    0    0  0.22751054814E+01  0.13979100007E+02  0.24316461990E+02  0.28140392067E+02  0.00000000000E+00 0.  1.
</event>
<event>
 8    1  0.1021894E-011  0.9118800E+02  0.7816164E-02  0.1184000E+00
        -11   -1    0    0    0    0  0.00000000000E+00  0.00000000000E+00  0.45593999997E+02  0.45594000000E+02  0.51100000000E-03 0.  1.
         11   -1    0    0    0    0 -0.00000000000E+00 -0.00000000000E+00 -0.45593999997E+02  0.45594000000E+02  0.51100000000E-03 0. -1.
         23    2    1    2    0    0  0.00000000000E+00 -0.35527136788E-14  0.00000000000E+00  0.91188000000E+02  0.91188000000E+02 0.  0.
    9900012    2    3    3    0    0  0.31606571027E+02 -0.25232861250E+02 -0.41825115648E+01  0.50528855617E+02  0.29999987134E+02 0.  0.
         12    1    3    3    0    0 -0.31606571027E+02  0.25232861250E+02  0.41825115648E+01  0.40659144383E+02  0.00000000000E+00 0. -1.
         11    1    4    4    0    0  0.84266716497E+01 -0.34227562703E+00 -0.11454153071E+02  0.14224049020E+02  0.51100000000E-03 0. -1.
        -11    1    4    4    0    0  0.13874504880E+02 -0.75492275604E+01  0.19322338558E+01  0.15913084250E+02  0.51100000000E-03 0.  1.
         12    1    4    4    0    0  0.93053944974E+01 -0.17341358063E+02  0.53394076500E+01  0.20391722347E+02  0.00000000000E+00 0. -1.
</event>
<event>
 8    1  0.1021894E-011  0.9118800E+02  0.7816164E-02  0.1184000E+00
        -11   -1    0    0    0    0  0.00000000000E+00  0.00000000000E+00  0.45593999997E+02  0.45594000000E+02  0.51100000000E-03 0. -1.
         11   -1    0    0    0    0 -0.00000000000E+00 -0.00000000000E+00 -0.45593999997E+02  0.45594000000E+02  0.51100000000E-03 0.  1.
         23    2    1    2    0    0 -0.71054273576E-14  0.17763568394E-14 -0.35527136788E-14  0.91188000000E+02  0.91188000000E+02 0.  0.
    9900012    2    3    3    0    0  0.38824302203E+02 -0.85476180455E+01  0.85309869654E+01  0.50528856448E+02  0.29999989658E+02 0.  0.
        -12    1    3    3    0    0 -0.38824302203E+02  0.85476180455E+01 -0.85309869654E+01  0.40659143552E+02  0.00000000000E+00 0.  1.
         11    1    4    4    0    0  0.12667613451E+02 -0.11587092997E+02  0.12908530271E+01  0.17216139418E+02  0.51100000000E-03 0. -1.
        -11    1    4    4    0    0  0.19712904442E+02  0.68576170358E+01 -0.25053356383E+01  0.21021470450E+02  0.51100000000E-03 0.  1.
        -12    1    4    4    0    0  0.64437843103E+01 -0.38181420840E+01  0.97454695767E+01  0.12291246580E+02  0.00000000000E+00 0.  1.
</event>
<event>
 8    1  0.1021894E-011  0.9118800E+02  0.7816164E-02  0.1184000E+00
        -11   -1    0    0    0    0  0.00000000000E+00  0.00000000000E+00  0.45593999997E+02  0.45594000000E+02  0.51100000000E-03 0. -1.
         11   -1    0    0    0    0 -0.00000000000E+00 -0.00000000000E+00 -0.45593999997E+02  0.45594000000E+02  0.51100000000E-03 0.  1.
         23    2    1    2    0    0 -0.17763568394E-14  0.00000000000E+00  0.00000000000E+00  0.91188000000E+02  0.91188000000E+02 0.  0.
    9900012    2    3    3    0    0 -0.69833619202E+01  0.20892739598E+02  0.34174445853E+02  0.50528847759E+02  0.29999963249E+02 0.  0.
        -12    1    3    3    0    0  0.69833619202E+01 -0.20892739598E+02 -0.34174445853E+02  0.40659152241E+02  0.00000000000E+00 0.  1.
         11    1    4    4    0    0  0.71066792192E+01  0.12971721327E+02  0.19814989527E+02  0.24726590018E+02  0.51100000000E-03 0. -1.
        -11    1    4    4    0    0 -0.12951539310E+02  0.32701214828E+01  0.15905456754E+02  0.20770643221E+02  0.51100000000E-03 0.  1.
         12    1    4    4    0    0 -0.11385018298E+01  0.46508967884E+01 -0.15460004288E+01  0.50316145200E+01  0.00000000000E+00 0. -1.
</event>
<event>
 8    1  0.1021894E-011  0.9118800E+02  0.7816164E-02  0.1184000E+00
        -11   -1    0    0    0    0  0.00000000000E+00  0.00000000000E+00  0.45593999997E+02  0.45594000000E+02  0.51100000000E-03 0.  1.
         11   -1    0    0    0    0 -0.00000000000E+00 -0.00000000000E+00 -0.45593999997E+02  0.45594000000E+02  0.51100000000E-03 0. -1.
         23    2    1    2    0    0  0.00000000000E+00  0.35527136788E-14 -0.44408920985E-15  0.91188000000E+02  0.91188000000E+02 0.  0.
    9900012    2    3    3    0    0  0.32787638223E+02  0.23815048991E+02  0.33135888967E+01  0.50528860190E+02  0.30000001034E+02 0.  0.
        -12    1    3    3    0    0 -0.32787638223E+02 -0.23815048991E+02 -0.33135888967E+01  0.40659139810E+02  0.00000000000E+00 0.  1.
         11    1    4    4    0    0  0.10348829401E+02  0.21404995424E+02 -0.72385147348E+01  0.24852931314E+02  0.51100000000E-03 0. -1.
        -11    1    4    4    0    0  0.59101453077E+01 -0.19775512579E+01  0.19300767233E+01  0.65242411785E+01  0.51100000000E-03 0.  1.
         12    1    4    4    0    0  0.16528663514E+02  0.43876048251E+01  0.86220269082E+01  0.19151687697E+02  0.00000000000E+00 0. -1.
</event>
<event>
 8    1  0.1021894E-011  0.9118800E+02  0.7816164E-02  0.1184000E+00
        -11   -1    0    0    0    0  0.00000000000E+00  0.00000000000E+00  0.45593999997E+02  0.45594000000E+02  0.51100000000E-03 0. -1.
         11   -1    0    0    0    0 -0.00000000000E+00 -0.00000000000E+00 -0.45593999997E+02  0.45594000000E+02  0.51100000000E-03 0.  1.
         23    2    1    2    0    0  0.17763568394E-14  0.00000000000E+00  0.00000000000E+00  0.91188000000E+02  0.91188000000E+02 0.  0.
    9900012    2    3    3    0    0  0.89512772945E+01 -0.18603218982E+02  0.35027977346E+02  0.50528876563E+02  0.30000050800E+02 0.  0.
        -12    1    3    3    0    0 -0.89512772945E+01  0.18603218982E+02 -0.35027977346E+02  0.40659123437E+02  0.00000000000E+00 0.  1.
         11    1    4    4    0    0 -0.21088806201E+01 -0.97804807254E+01  0.75411313872E+01  0.12528920287E+02  0.51100000000E-03 0. -1.
        -11    1    4    4    0    0  0.30777531097E+01  0.73732580193E+01  0.10631518134E+02  0.13299123134E+02  0.51100000000E-03 0.  1.
        -12    1    4    4    0    0  0.79824048049E+01 -0.16195996276E+02  0.16855327825E+02  0.24700833142E+02  0.00000000000E+00 0.  1.
</event>
<event>
 8    1  0.1021894E-011  0.9118800E+02  0.7816164E-02  0.1184000E+00
        -11   -1    0    0    0    0  0.00000000000E+00  0.00000000000E+00  0.45593999997E+02  0.45594000000E+02  0.51100000000E-03 0. -1.
         11   -1    0    0    0    0 -0.00000000000E+00 -0.00000000000E+00 -0.45593999997E+02  0.45594000000E+02  0.51100000000E-03 0.  1.
         23    2    1    2    0    0  0.35527136788E-14 -0.88817841970E-15  0.00000000000E+00  0.91188000000E+02  0.91188000000E+02 0.  0.
    9900012    2    3    3    0    0  0.27001145215E+02 -0.55472824535E+01  0.29888645867E+02  0.50528864036E+02  0.30000012725E+02 0.  0.
        -12    1    3    3    0    0 -0.27001145215E+02  0.55472824535E+01 -0.29888645867E+02  0.40659135964E+02  0.00000000000E+00 0.  1.
         11    1    4    4    0    0  0.26031954781E+01  0.43617931374E+01  0.93266753071E+01  0.10620204264E+02  0.51100000000E-03 0. -1.
        -11    1    4    4    0    0  0.87561752529E+01 -0.91327548339E+01 -0.16197597659E+01  0.12755447380E+02  0.51100000000E-03 0.  1.
        -12    1    4    4    0    0  0.15641774484E+02 -0.77632075710E+00  0.22181730326E+02  0.27153212392E+02  0.00000000000E+00 0.  1.
</event>
<event>
 8    1  0.1021894E-011  0.9118800E+02  0.7816164E-02  0.1184000E+00
        -11   -1    0    0    0    0  0.00000000000E+00  0.00000000000E+00  0.45593999997E+02  0.45594000000E+02  0.51100000000E-03 0.  1.
         11   -1    0    0    0    0 -0.00000000000E+00 -0.00000000000E+00 -0.45593999997E+02  0.45594000000E+02  0.51100000000E-03 0. -1.
         23    2    1    2    0    0  0.00000000000E+00 -0.71054273576E-14 -0.66613381478E-15  0.91188000000E+02  0.91188000000E+02 0.  0.
    9900012    2    3    3    0    0 -0.19040919665E+02  0.35911090639E+02 -0.10016963488E+01  0.50528850376E+02  0.29999971202E+02 0.  0.
        -12    1    3    3    0    0  0.19040919665E+02 -0.35911090639E+02  0.10016963488E+01  0.40659149624E+02  0.00000000000E+00 0.  1.
         11    1    4    4    0    0 -0.20766633453E+02  0.16778218065E+02 -0.75776743897E+01  0.27752167768E+02  0.51100000000E-03 0. -1.
        -11    1    4    4    0    0 -0.66701252721E+00  0.17493834285E+02  0.83299413348E+01  0.19387291368E+02  0.51100000000E-03 0.  1.
         12    1    4    4    0    0  0.23927263154E+01  0.16390382895E+01 -0.17539632940E+01  0.33893912391E+01  0.00000000000E+00 0. -1.
</event>
<event>
 8    1  0.1021894E-011  0.9118800E+02  0.7816164E-02  0.1184000E+00
        -11   -1    0    0    0    0  0.00000000000E+00  0.00000000000E+00  0.45593999997E+02  0.45594000000E+02  0.51100000000E-03 0. -1.
         11   -1    0    0    0    0 -0.00000000000E+00 -0.00000000000E+00 -0.45593999997E+02  0.45594000000E+02  0.51100000000E-03 0.  1.
         23    2    1    2    0    0 -0.35527136788E-14  0.00000000000E+00  0.00000000000E+00  0.91188000000E+02  0.91188000000E+02 0.  0.
    9900012    2    3    3    0    0 -0.16594581118E+02 -0.18202277519E+02  0.32349060531E+02  0.50528871300E+02  0.30000034804E+02 0.  0.
        -12    1    3    3    0    0  0.16594581118E+02  0.18202277519E+02 -0.32349060531E+02  0.40659128700E+02  0.00000000000E+00 0.  1.
         11    1    4    4    0    0 -0.47109642891E+01  0.18360608252E+01  0.16608393518E+02  0.17360963090E+02  0.51100000000E-03 0. -1.
        -11    1    4    4    0    0 -0.16042512265E+02 -0.17943476194E+02  0.10808426492E+02  0.26384704304E+02  0.51100000000E-03 0.  1.
        -12    1    4    4    0    0  0.41588954366E+01 -0.20948621502E+01  0.49322405208E+01  0.67832039064E+01  0.00000000000E+00 0.  1.
</event>
<event>
 8    1  0.1021894E-011  0.9118800E+02  0.7816164E-02  0.1184000E+00
        -11   -1    0    0    0    0  0.00000000000E+00  0.00000000000E+00  0.45593999997E+02  0.45594000000E+02  0.51100000000E-03 0. -1.
         11   -1    0    0    0    0 -0.00000000000E+00 -0.00000000000E+00 -0.45593999997E+02  0.45594000000E+02  0.51100000000E-03 0.  1.
         23    2    1    2    0    0 -0.11102230246E-14  0.88817841970E-15  0.71054273576E-14  0.91188000000E+02  0.91188000000E+02 0.  0.
    9900012    2    3    3    0    0 -0.68682748771E+00 -0.50808805754E+01  0.40334587817E+02  0.50528855225E+02  0.29999985943E+02 0.  0.
        -12    1    3    3    0    0  0.68682748771E+00  0.50808805754E+01 -0.40334587817E+02  0.40659144775E+02  0.00000000000E+00 0.  1.
         11    1    4    4    0    0 -0.13922937207E+02 -0.49753149377E+01  0.19446828330E+02  0.24429102963E+02  0.51100000000E-03 0. -1.
        -11    1    4    4    0    0  0.87583104764E+01  0.26660926819E+01  0.79273122138E+01  0.12110257296E+02  0.51100000000E-03 0.  1.
        -12    1    4    4    0    0  0.44777992426E+01 -0.27716583197E+01  0.12960447273E+02  0.13989494966E+02  0.00000000000E+00 0.  1.
</event>
<event>
 8    1  0.1021894E-011  0.9118800E+02  0.7816164E-02  0.1184000E+00
        -11   -1    0    0    0    0  0.00000000000E+00  0.00000000000E+00  0.45593999997E+02  0.45594000000E+02  0.51100000000E-03 0. -1.
         11   -1    0    0    0    0 -0.00000000000E+00 -0.00000000000E+00 -0.45593999997E+02  0.45594000000E+02  0.51100000000E-03 0.  1.
         23    2    1    2    0    0  0.17763568394E-14  0.00000000000E+00  0.00000000000E+00  0.91188000000E+02  0.91188000000E+02 0.  0.
    9900012    2    3    3    0    0 -0.11556633485E+02  0.10906970132E+02 -0.37425221923E+02  0.50528868050E+02  0.30000024924E+02 0.  0.
         12    1    3    3    0    0  0.11556633485E+02 -0.10906970132E+02  0.37425221923E+02  0.40659131950E+02  0.00000000000E+00 0. -1.
         11    1    4    4    0    0  0.25980516996E+01  0.30032410642E+01 -0.20852517783E+02  0.21227266138E+02  0.51100000000E-03 0. -1.
        -11    1    4    4    0    0 -0.13174139127E+02  0.95773747870E+01 -0.42578036250E+01  0.16834872780E+02  0.51100000000E-03 0.  1.
        -12    1    4    4    0    0 -0.98054605809E+00 -0.16736457196E+01 -0.12314900515E+02  0.12466729132E+02  0.00000000000E+00 0.  1.
</event>
<event>
 8    1  0.1021894E-011  0.9118800E+02  0.7816164E-02  0.1184000E+00
        -11   -1    0    0    0    0  0.00000000000E+00  0.00000000000E+00  0.45593999997E+02  0.45594000000E+02  0.51100000000E-03 0.  1.
         11   -1    0    0    0    0 -0.00000000000E+00 -0.00000000000E+00 -0.45593999997E+02  0.45594000000E+02  0.51100000000E-03 0. -1.
         23    2    1    2    0    0  0.00000000000E+00  0.00000000000E+00  0.44408920985E-15  0.91188000000E+02  0.91188000000E+02 0.  0.
    9900012    2    3    3    0    0 -0.37367985772E+01 -0.40404709690E+02 -0.25808000691E+01  0.50528871163E+02  0.30000034388E+02 0.  0.
         12    1    3    3    0    0  0.37367985772E+01  0.40404709690E+02  0.25808000691E+01  0.40659128837E+02  0.00000000000E+00 0. -1.
         11    1    4    4    0    0 -0.26672483014E+01  0.27437908926E+01 -0.18518386063E+01  0.42511067322E+01  0.51100000000E-03 0. -1.
        -11    1    4    4    0    0 -0.68261048518E+01 -0.34751555065E+02  0.27420752794E+01  0.35521616855E+02  0.51100000000E-03 0.  1.
         12    1    4    4    0    0  0.57565545759E+01 -0.83969455180E+01 -0.34710367422E+01  0.10756147576E+02  0.00000000000E+00 0. -1.
</event>
<event>
 8    1  0.1021894E-011  0.9118800E+02  0.7816164E-02  0.1184000E+00
        -11   -1    0    0    0    0  0.00000000000E+00  0.00000000000E+00  0.45593999997E+02  0.45594000000E+02  0.51100000000E-03 0. -1.
         11   -1    0    0    0    0 -0.00000000000E+00 -0.00000000000E+00 -0.45593999997E+02  0.45594000000E+02  0.51100000000E-03 0.  1.
         23    2    1    2    0    0  0.00000000000E+00 -0.35527136788E-14  0.00000000000E+00  0.91188000000E+02  0.91188000000E+02 0.  0.
    9900012    2    3    3    0    0  0.17221317751E+02  0.10790868927E+02  0.35215780736E+02  0.50528833135E+02  0.29999918797E+02 0.  0.
        -12    1    3    3    0    0 -0.17221317751E+02 -0.10790868927E+02 -0.35215780736E+02  0.40659166865E+02  0.00000000000E+00 0.  1.
         11    1    4    4    0    0  0.20494720744E+02 -0.34634686371E+01  0.19489318383E+02  0.28493204886E+02  0.51100000000E-03 0. -1.
        -11    1    4    4    0    0 -0.88635618117E+00  0.36619471860E+01  0.75684254127E+01  0.84543804008E+01  0.51100000000E-03 0.  1.
         12    1    4    4    0    0 -0.23870468114E+01  0.10592390378E+02  0.81580369405E+01  0.13581247848E+02  0.00000000000E+00 0. -1.
</event>
<event>
 8    1  0.1021894E-011  0.9118800E+02  0.7816164E-02  0.1184000E+00
        -11   -1    0    0    0    0  0.00000000000E+00  0.00000000000E+00  0.45593999997E+02  0.45594000000E+02  0.51100000000E-03 0.  1.
         11   -1    0    0    0    0 -0.00000000000E+00 -0.00000000000E+00 -0.45593999997E+02  0.45594000000E+02  0.51100000000E-03 0. -1.
         23    2    1    2    0    0  0.00000000000E+00 -0.17763568394E-14  0.17763568394E-14  0.91188000000E+02  0.91188000000E+02 0.  0.
    9900012    2    3    3    0    0 -0.35827202115E+02 -0.12530633334E+02  0.14579486423E+02  0.50528848417E+02  0.29999965247E+02 0.  0.
        -12    1    3    3    0    0  0.35827202115E+02  0.12530633334E+02 -0.14579486423E+02  0.40659151583E+02  0.00000000000E+00 0.  1.
         11    1    4    4    0    0 -0.31907105453E+02 -0.70479953790E+01  0.13605998301E+02  0.35395773862E+02  0.51100000000E-03 0. -1.
        -11    1    4    4    0    0  0.46549387641E+01 -0.32451356202E+01 -0.16165167270E+01  0.59002107319E+01  0.51100000000E-03 0.  1.
        -12    1    4    4    0    0 -0.85750354255E+01 -0.22375023347E+01  0.25900048490E+01  0.92328638224E+01  0.00000000000E+00 0.  1.
</event>
<event>
 8    1  0.1021894E-011  0.9118800E+02  0.7816164E-02  0.1184000E+00
        -11   -1    0    0    0    0  0.00000000000E+00  0.00000000000E+00  0.45593999997E+02  0.45594000000E+02  0.51100000000E-03 0. -1.
         11   -1    0    0    0    0 -0.00000000000E+00 -0.00000000000E+00 -0.45593999997E+02  0.45594000000E+02  0.51100000000E-03 0.  1.
         23    2    1    2    0    0  0.00000000000E+00  0.71054273576E-14  0.00000000000E+00  0.91188000000E+02  0.91188000000E+02 0.  0.
    9900012    2    3    3    0    0  0.10909144126E+02  0.38840319831E+02  0.50583745866E+01  0.50528843299E+02  0.29999949693E+02 0.  0.
        -12    1    3    3    0    0 -0.10909144126E+02 -0.38840319831E+02 -0.50583745866E+01  0.40659156701E+02  0.00000000000E+00 0.  1.
         11    1    4    4    0    0  0.31499288113E+01 -0.21319966462E+01  0.75466699651E+01  0.84510170417E+01  0.51100000000E-03 0. -1.
        -11    1    4    4    0    0  0.24842794234E+01  0.20663017606E+02 -0.33363234846E+01  0.21077547188E+02  0.51100000000E-03 0.  1.
         12    1    4    4    0    0  0.52749358911E+01  0.20309298872E+02  0.84802810606E+00  0.21000279069E+02  0.00000000000E+00 0. -1.
</event>
<event>
 8    1  0.1021894E-011  0.9118800E+02  0.7816164E-02  0.1184000E+00
        -11   -1    0    0    0    0  0.00000000000E+00  0.00000000000E+00  0.45593999997E+02  0.45594000000E+02  0.51100000000E-03 0. -1.
         11   -1    0    0    0    0 -0.00000000000E+00 -0.00000000000E+00 -0.45593999997E+02  0.45594000000E+02  0.51100000000E-03 0.  1.
         23    2    1    2    0    0  0.00000000000E+00  0.35527136788E-14  0.00000000000E+00  0.91188000000E+02  0.91188000000E+02 0.  0.
    9900012    2    3    3    0    0  0.16381859182E+02 -0.24332949471E+02 -0.28155150717E+02  0.50528803597E+02  0.29999829014E+02 0.  0.
         12    1    3    3    0    0 -0.16381859182E+02  0.24332949471E+02  0.28155150717E+02  0.40659196403E+02  0.00000000000E+00 0. -1.
         11    1    4    4    0    0  0.43418264114E+01  0.69470329086E+01 -0.55835086307E+01  0.99140451739E+01  0.51100000000E-03 0. -1.
        -11    1    4    4    0    0  0.71923727833E+01 -0.17493065901E+02 -0.10331703013E+02  0.21551836772E+02  0.51100000000E-03 0.  1.
         12    1    4    4    0    0  0.48476599871E+01 -0.13786916479E+02 -0.12239939073E+02  0.19062921651E+02  0.00000000000E+00 0. -1.
</event>
<event>
 8    1  0.1021894E-011  0.9118800E+02  0.7816164E-02  0.1184000E+00
        -11   -1    0    0    0    0  0.00000000000E+00  0.00000000000E+00  0.45593999997E+02  0.45594000000E+02  0.51100000000E-03 0. -1.
         11   -1    0    0    0    0 -0.00000000000E+00 -0.00000000000E+00 -0.45593999997E+02  0.45594000000E+02  0.51100000000E-03 0.  1.
         23    2    1    2    0    0  0.00000000000E+00  0.44408920985E-15  0.17763568394E-14  0.91188000000E+02  0.91188000000E+02 0.  0.
    9900012    2    3    3    0    0  0.38180782750E+02  0.23273242037E+01  0.13783477861E+02  0.50528771389E+02  0.29999731112E+02 0.  0.
        -12    1    3    3    0    0 -0.38180782750E+02 -0.23273242037E+01 -0.13783477861E+02  0.40659228611E+02  0.00000000000E+00 0.  1.
         11    1    4    4    0    0  0.16849282779E+02  0.89488062980E+01  0.36614267138E+00  0.19081758961E+02  0.51100000000E-03 0.  1.
        -11    1    4    4    0    0  0.14281675536E+02 -0.12374464790E+02  0.63832412688E+01  0.19945911970E+02  0.51100000000E-03 0. -1.
         12    1    4    4    0    0  0.70498244349E+01  0.57529826956E+01  0.70340939209E+01  0.11501100458E+02  0.00000000000E+00 0. -1.
</event>
<event>
 8    1  0.1021894E-011  0.9118800E+02  0.7816164E-02  0.1184000E+00
        -11   -1    0    0    0    0  0.00000000000E+00  0.00000000000E+00  0.45593999997E+02  0.45594000000E+02  0.51100000000E-03 0.  1.
         11   -1    0    0    0    0 -0.00000000000E+00 -0.00000000000E+00 -0.45593999997E+02  0.45594000000E+02  0.51100000000E-03 0. -1.
         23    2    1    2    0    0  0.00000000000E+00  0.17763568394E-14  0.00000000000E+00  0.91188000000E+02  0.91188000000E+02 0.  0.
    9900012    2    3    3    0    0 -0.34631815952E+02 -0.14780509680E+02  0.15340788603E+02  0.50528856656E+02  0.29999990290E+02 0.  0.
        -12    1    3    3    0    0  0.34631815952E+02  0.14780509680E+02 -0.15340788603E+02  0.40659143344E+02  0.00000000000E+00 0.  1.
         11    1    4    4    0    0 -0.34003263973E+02 -0.74476315398E+01  0.17394816416E+02  0.38913607064E+02  0.51100000000E-03 0. -1.
        -11    1    4    4    0    0 -0.26799784309E+01 -0.46658153063E+01 -0.48473208345E+01  0.72421430804E+01  0.51100000000E-03 0.  1.
         12    1    4    4    0    0  0.20514264519E+01 -0.26670628342E+01  0.27932930219E+01  0.43731065108E+01  0.00000000000E+00 0. -1.
</event>
<event>
 8    1  0.1021894E-011  0.9118800E+02  0.7816164E-02  0.1184000E+00
        -11   -1    0    0    0    0  0.00000000000E+00  0.00000000000E+00  0.45593999997E+02  0.45594000000E+02  0.51100000000E-03 0. -1.
         11   -1    0    0    0    0 -0.00000000000E+00 -0.00000000000E+00 -0.45593999997E+02  0.45594000000E+02  0.51100000000E-03 0.  1.
         23    2    1    2    0    0  0.71054273576E-14 -0.35527136788E-14 -0.35527136788E-14  0.91188000000E+02  0.91188000000E+02 0.  0.
    9900012    2    3    3    0    0  0.19549133289E+02 -0.18881282687E+02 -0.30240599549E+02  0.50528864380E+02  0.30000013770E+02 0.  0.
         12    1    3    3    0    0 -0.19549133289E+02  0.18881282687E+02  0.30240599549E+02  0.40659135620E+02  0.00000000000E+00 0. -1.
         11    1    4    4    0    0  0.79588047254E+01 -0.13262780460E+01  0.13760212682E+01  0.81850486196E+01  0.51100000000E-03 0. -1.
        -11    1    4    4    0    0  0.13760952404E+02 -0.19899463936E+02 -0.30561819653E+02  0.38979190561E+02  0.51100000000E-03 0.  1.
        -12    1    4    4    0    0 -0.21706238402E+01  0.23444592946E+01 -0.10548011638E+01  0.33646251998E+01  0.00000000000E+00 0.  1.
</event>
<event>
 8    1  0.1021894E-011  0.9118800E+02  0.7816164E-02  0.1184000E+00
        -11   -1    0    0    0    0  0.00000000000E+00  0.00000000000E+00  0.45593999997E+02  0.45594000000E+02  0.51100000000E-03 0. -1.
         11   -1    0    0    0    0 -0.00000000000E+00 -0.00000000000E+00 -0.45593999997E+02  0.45594000000E+02  0.51100000000E-03 0.  1.
         23    2    1    2    0    0  0.00000000000E+00 -0.35527136788E-14  0.00000000000E+00  0.91188000000E+02  0.91188000000E+02 0.  0.
    9900012    2    3    3    0    0 -0.27291675189E+02 -0.23197065985E+02  0.19241273577E+02  0.50528855717E+02  0.29999987439E+02 0.  0.
        -12    1    3    3    0    0  0.27291675189E+02  0.23197065985E+02 -0.19241273577E+02  0.40659144283E+02  0.00000000000E+00 0.  1.
         11    1    4    4    0    0 -0.46221276959E+01 -0.10920422838E+02  0.47446632915E+01  0.12772295386E+02  0.51100000000E-03 0. -1.
        -11    1    4    4    0    0 -0.67946461258E+01  0.59678345538E+01  0.93948341612E+01  0.13040137055E+02  0.51100000000E-03 0.  1.
        -12    1    4    4    0    0 -0.15874901368E+02 -0.18244477700E+02  0.51017761240E+01  0.24716423277E+02  0.00000000000E+00 0.  1.
</event>
<event>
 8    1  0.1021894E-011  0.9118800E+02  0.7816164E-02  0.1184000E+00
        -11   -1    0    0    0    0  0.00000000000E+00  0.00000000000E+00  0.45593999997E+02  0.45594000000E+02  0.51100000000E-03 0. -1.
         11   -1    0    0    0    0 -0.00000000000E+00 -0.00000000000E+00 -0.45593999997E+02  0.45594000000E+02  0.51100000000E-03 0.  1.
         23    2    1    2    0    0  0.00000000000E+00  0.00000000000E+00 -0.35527136788E-14  0.91188000000E+02  0.91188000000E+02 0.  0.
    9900012    2    3    3    0    0 -0.22401513253E+02  0.14286763233E+02  0.30777037243E+02  0.50528863005E+02  0.30000009590E+02 0.  0.
        -12    1    3    3    0    0  0.22401513253E+02 -0.14286763233E+02 -0.30777037243E+02  0.40659136995E+02  0.00000000000E+00 0.  1.
         11    1    4    4    0    0 -0.25849691804E+02  0.18180235211E+02  0.31633942265E+02  0.44715029041E+02  0.51100000000E-03 0. -1.
        -11    1    4    4    0    0  0.13035860765E+01 -0.31462786075E+01 -0.57222150387E-01  0.34061239511E+01  0.51100000000E-03 0.  1.
         12    1    4    4    0    0  0.21445924739E+01 -0.74719337027E+00 -0.79968287105E+00  0.24077100128E+01  0.00000000000E+00 0. -1.
</event>
<event>
 8    1  0.1021894E-011  0.9118800E+02  0.7816164E-02  0.1184000E+00
        -11   -1    0    0    0    0  0.00000000000E+00  0.00000000000E+00  0.45593999997E+02  0.45594000000E+02  0.51100000000E-03 0. -1.
         11   -1    0    0    0    0 -0.00000000000E+00 -0.00000000000E+00 -0.45593999997E+02  0.45594000000E+02  0.51100000000E-03 0.  1.
         23    2    1    2    0    0  0.00000000000E+00  0.00000000000E+00  0.35527136788E-14  0.91188000000E+02  0.91188000000E+02 0.  0.
    9900012    2    3    3    0    0  0.30582186022E+02  0.68887665142E+01  0.25892865256E+02  0.50528859857E+02  0.30000000022E+02 0.  0.
        -12    1    3    3    0    0 -0.30582186022E+02 -0.68887665142E+01 -0.25892865256E+02  0.40659140143E+02  0.00000000000E+00 0.  1.
         11    1    4    4    0    0  0.26253125594E+02 -0.42180573057E+01  0.68962809892E+01  0.27469570485E+02  0.51100000000E-03 0. -1.
        -11    1    4    4    0    0 -0.26028196393E+00  0.43863355941E+01  0.37496567183E+01  0.57764705843E+01  0.51100000000E-03 0.  1.
         12    1    4    4    0    0  0.45893423919E+01  0.67204882258E+01  0.15246927549E+02  0.17282818788E+02  0.00000000000E+00 0. -1.
</event>
<event>
 8    1  0.1021894E-011  0.9118800E+02  0.7816164E-02  0.1184000E+00
        -11   -1    0    0    0    0  0.00000000000E+00  0.00000000000E+00  0.45593999997E+02  0.45594000000E+02  0.51100000000E-03 0. -1.
         11   -1    0    0    0    0 -0.00000000000E+00 -0.00000000000E+00 -0.45593999997E+02  0.45594000000E+02  0.51100000000E-03 0.  1.
         23    2    1    2    0    0  0.00000000000E+00  0.17763568394E-14  0.71054273576E-14  0.91188000000E+02  0.91188000000E+02 0.  0.
    9900012    2    3    3    0    0  0.51873499283E+01  0.72294592251E+01 -0.39673563663E+02  0.50528864081E+02  0.30000012861E+02 0.  0.
         12    1    3    3    0    0 -0.51873499283E+01 -0.72294592251E+01  0.39673563663E+02  0.40659135919E+02  0.00000000000E+00 0. -1.
         11    1    4    4    0    0 -0.10525379707E+01  0.13620130342E+02 -0.12707268887E+02  0.18657182787E+02  0.51100000000E-03 0. -1.
        -11    1    4    4    0    0  0.75802350082E+01 -0.97622375488E+01 -0.15381400091E+02  0.19731921188E+02  0.51100000000E-03 0.  1.
        -12    1    4    4    0    0 -0.13403471092E+01  0.33715664316E+01 -0.11584894685E+02  0.12139760107E+02  0.00000000000E+00 0.  1.
</event>
<event>
 8    1  0.1021894E-011  0.9118800E+02  0.7816164E-02  0.1184000E+00
        -11   -1    0    0    0    0  0.00000000000E+00  0.00000000000E+00  0.45593999997E+02  0.45594000000E+02  0.51100000000E-03 0.  1.
         11   -1    0    0    0    0 -0.00000000000E+00 -0.00000000000E+00 -0.45593999997E+02  0.45594000000E+02  0.51100000000E-03 0. -1.
         23    2    1    2    0    0  0.00000000000E+00 -0.71054273576E-14  0.00000000000E+00  0.91188000000E+02  0.91188000000E+02 0.  0.
    9900012    2    3    3    0    0  0.15913392639E+02  0.35271224510E+02  0.12484798513E+02  0.50528861573E+02  0.30000005236E+02 0.  0.
        -12    1    3    3    0    0 -0.15913392639E+02 -0.35271224510E+02 -0.12484798513E+02  0.40659138427E+02  0.00000000000E+00 0.  1.
         11    1    4    4    0    0  0.36002988893E+01  0.14884076803E+01 -0.47794646645E+01  0.61661002469E+01  0.51100000000E-03 0. -1.
        -11    1    4    4    0    0  0.10757810245E+02  0.29484731135E+02  0.21569914861E+02  0.38083343849E+02  0.51100000000E-03 0.  1.
        -12    1    4    4    0    0  0.15552835045E+01  0.42980856950E+01 -0.43056516838E+01  0.62794174764E+01  0.00000000000E+00 0.  1.
</event>
<event>
 8    1  0.1021894E-011  0.9118800E+02  0.7816164E-02  0.1184000E+00
        -11   -1    0    0    0    0  0.00000000000E+00  0.00000000000E+00  0.45593999997E+02  0.45594000000E+02  0.51100000000E-03 0. -1.
         11   -1    0    0    0    0 -0.00000000000E+00 -0.00000000000E+00 -0.45593999997E+02  0.45594000000E+02  0.51100000000E-03 0.  1.
         23    2    1    2    0    0  0.00000000000E+00  0.00000000000E+00  0.00000000000E+00  0.91188000000E+02  0.91188000000E+02 0.  0.
    9900012    2    3    3    0    0  0.11640653911E+02 -0.10652469853E+02  0.37472465238E+02  0.50528860948E+02  0.30000003338E+02 0.  0.
        -12    1    3    3    0    0 -0.11640653911E+02  0.10652469853E+02 -0.37472465238E+02  0.40659139052E+02  0.00000000000E+00 0.  1.
         11    1    4    4    0    0 -0.49204176559E+01  0.29655232934E+01  0.53127253840E+01  0.78249530081E+01  0.51100000000E-03 0. -1.
        -11    1    4    4    0    0  0.19349142994E+02 -0.14941248997E+02  0.30823080921E+02  0.39340724116E+02  0.51100000000E-03 0.  1.
        -12    1    4    4    0    0 -0.27880714278E+01  0.13232558508E+01  0.13366589325E+01  0.33631838241E+01  0.00000000000E+00 0.  1.
</event>
<event>
 8    1  0.1021894E-011  0.9118800E+02  0.7816164E-02  0.1184000E+00
        -11   -1    0    0    0    0  0.00000000000E+00  0.00000000000E+00  0.45593999997E+02  0.45594000000E+02  0.51100000000E-03 0. -1.
         11   -1    0    0    0    0 -0.00000000000E+00 -0.00000000000E+00 -0.45593999997E+02  0.45594000000E+02  0.51100000000E-03 0.  1.
         23    2    1    2    0    0 -0.71054273576E-14  0.61062266354E-15 -0.35527136788E-14  0.91188000000E+02  0.91188000000E+02 0.  0.
    9900012    2    3    3    0    0 -0.29945511130E+02  0.36080129344E+00  0.27500951694E+02  0.50528853938E+02  0.29999982031E+02 0.  0.
        -12    1    3    3    0    0  0.29945511130E+02 -0.36080129344E+00 -0.27500951694E+02  0.40659146062E+02  0.00000000000E+00 0.  1.
         11    1    4    4    0    0 -0.19939281525E+02 -0.82005254473E+01  0.17214840514E+02  0.27589387444E+02  0.51100000000E-03 0. -1.
        -11    1    4    4    0    0 -0.96541446091E-01  0.10304268853E+02  0.38775586021E+01  0.11010119792E+02  0.51100000000E-03 0.  1.
        -12    1    4    4    0    0 -0.99096881588E+01 -0.17429421125E+01  0.64085525779E+01  0.11929346703E+02  0.00000000000E+00 0.  1.
</event>
<event>
 8    1  0.1021894E-011  0.9118800E+02  0.7816164E-02  0.1184000E+00
        -11   -1    0    0    0    0  0.00000000000E+00  0.00000000000E+00  0.45593999997E+02  0.45594000000E+02  0.51100000000E-03 0.  1.
         11   -1    0    0    0    0 -0.00000000000E+00 -0.00000000000E+00 -0.45593999997E+02  0.45594000000E+02  0.51100000000E-03 0. -1.
         23    2    1    2    0    0  0.00000000000E+00  0.35527136788E-14  0.00000000000E+00  0.91188000000E+02  0.91188000000E+02 0.  0.
    9900012    2    3    3    0    0 -0.28423129567E+02  0.28535646820E+02  0.55684542032E+01  0.50528866757E+02  0.30000020996E+02 0.  0.
        -12    1    3    3    0    0  0.28423129567E+02 -0.28535646820E+02 -0.55684542032E+01  0.40659133243E+02  0.00000000000E+00 0.  1.
         11    1    4    4    0    0 -0.11355674114E+02  0.15033676388E+02 -0.69887949150E+01  0.20094925105E+02  0.51100000000E-03 0. -1.
        -11    1    4    4    0    0 -0.17370927360E+02  0.52646291199E+01  0.12761778410E+02  0.22188475061E+02  0.51100000000E-03 0.  1.
        -12    1    4    4    0    0  0.30347190648E+00  0.82373413118E+01 -0.20452929142E+00  0.82454665917E+01  0.00000000000E+00 0.  1.
</event>
<event>
 8    1  0.1021894E-011  0.9118800E+02  0.7816164E-02  0.1184000E+00
        -11   -1    0    0    0    0  0.00000000000E+00  0.00000000000E+00  0.45593999997E+02  0.45594000000E+02  0.51100000000E-03 0. -1.
         11   -1    0    0    0    0 -0.00000000000E+00 -0.00000000000E+00 -0.45593999997E+02  0.45594000000E+02  0.51100000000E-03 0.  1.
         23    2    1    2    0    0  0.00000000000E+00 -0.11102230246E-15 -0.35527136788E-14  0.91188000000E+02  0.91188000000E+02 0.  0.
    9900012    2    3    3    0    0 -0.35875897937E+02  0.85422722911E+00 -0.19114289714E+02  0.50528858000E+02  0.29999994376E+02 0.  0.
         12    1    3    3    0    0  0.35875897937E+02 -0.85422722911E+00  0.19114289714E+02  0.40659142000E+02  0.00000000000E+00 0. -1.
         11    1    4    4    0    0 -0.77786765450E+00  0.90081584437E+00  0.35505238884E+01  0.37446985749E+01  0.51100000000E-03 0. -1.
        -11    1    4    4    0    0 -0.13052519671E+02  0.22984025736E+01 -0.20630987773E+02  0.24521186368E+02  0.51100000000E-03 0.  1.
        -12    1    4    4    0    0 -0.22045510612E+02 -0.23449911889E+01 -0.20338258291E+01  0.22262973056E+02  0.00000000000E+00 0.  1.
</event>
<event>
 8    1  0.1021894E-011  0.9118800E+02  0.7816164E-02  0.1184000E+00
        -11   -1    0    0    0    0  0.00000000000E+00  0.00000000000E+00  0.45593999997E+02  0.45594000000E+02  0.51100000000E-03 0.  1.
         11   -1    0    0    0    0 -0.00000000000E+00 -0.00000000000E+00 -0.45593999997E+02  0.45594000000E+02  0.51100000000E-03 0. -1.
         23    2    1    2    0    0 -0.71054273576E-14  0.17763568394E-14  0.17763568394E-14  0.91188000000E+02  0.91188000000E+02 0.  0.
    9900012    2    3    3    0    0  0.37969446286E+02 -0.11457176298E+02 -0.89565456644E+01  0.50528862648E+02  0.30000008505E+02 0.  0.
        -12    1    3    3    0    0 -0.37969446286E+02  0.11457176298E+02  0.89565456644E+01  0.40659137352E+02  0.00000000000E+00 0.  1.
         11    1    4    4    0    0  0.50161251041E+01 -0.74845571155E+01  0.29030852299E+01  0.94661507694E+01  0.51100000000E-03 0. -1.
        -11    1    4    4    0    0  0.66119130721E+01  0.78504683635E+01 -0.14268702825E+01  0.10362586891E+02  0.51100000000E-03 0.  1.
        -12    1    4    4    0    0  0.26341408109E+02 -0.11823087546E+02 -0.10432760612E+02  0.30700124988E+02  0.00000000000E+00 0.  1.
</event>
<event>
 8    1  0.1021894E-011  0.9118800E+02  0.7816164E-02  0.1184000E+00
        -11   -1    0    0    0    0  0.00000000000E+00  0.00000000000E+00  0.45593999997E+02  0.45594000000E+02  0.51100000000E-03 0.  1.
         11   -1    0    0    0    0 -0.00000000000E+00 -0.00000000000E+00 -0.45593999997E+02  0.45594000000E+02  0.51100000000E-03 0. -1.
         23    2    1    2    0    0  0.88817841970E-15  0.00000000000E+00  0.00000000000E+00  0.91188000000E+02  0.91188000000E+02 0.  0.
    9900012    2    3    3    0    0 -0.49424733357E+01  0.20504159592E+02  0.34760884303E+02  0.50528835218E+02  0.29999925128E+02 0.  0.
        -12    1    3    3    0    0  0.49424733357E+01 -0.20504159592E+02 -0.34760884303E+02  0.40659164782E+02  0.00000000000E+00 0.  1.
         11    1    4    4    0    0 -0.13969833281E+02  0.11269997320E+02  0.21971782385E+02  0.28371258395E+02  0.51100000000E-03 0. -1.
        -11    1    4    4    0    0  0.65326898194E+01  0.59407606585E+01  0.15049066590E+02  0.17448297308E+02  0.51100000000E-03 0.  1.
         12    1    4    4    0    0  0.24946701258E+01  0.32934016138E+01 -0.22599646719E+01  0.47092795144E+01  0.00000000000E+00 0. -1.
</event>
<event>
 8    1  0.1021894E-011  0.9118800E+02  0.7816164E-02  0.1184000E+00
        -11   -1    0    0    0    0  0.00000000000E+00  0.00000000000E+00  0.45593999997E+02  0.45594000000E+02  0.51100000000E-03 0. -1.
         11   -1    0    0    0    0 -0.00000000000E+00 -0.00000000000E+00 -0.45593999997E+02  0.45594000000E+02  0.51100000000E-03 0.  1.
         23    2    1    2    0    0  0.00000000000E+00  0.00000000000E+00 -0.88817841970E-15  0.91188000000E+02  0.91188000000E+02 0.  0.
    9900012    2    3    3    0    0 -0.12897755289E+02 -0.37839104441E+02 -0.74170169939E+01  0.50528904370E+02  0.30000135321E+02 0.  0.
         12    1    3    3    0    0  0.12897755289E+02  0.37839104441E+02  0.74170169939E+01  0.40659095630E+02  0.00000000000E+00 0. -1.
         11    1    4    4    0    0 -0.84272771377E+01 -0.29998728904E+02  0.76815711703E+00  0.31169420935E+02  0.51100000000E-03 0. -1.
        -11    1    4    4    0    0 -0.76451446110E+01  0.73098597050E+00 -0.65077500003E+01  0.10066448576E+02  0.51100000000E-03 0.  1.
         12    1    4    4    0    0  0.31746664598E+01 -0.85713615078E+01 -0.16774241106E+01  0.92930348582E+01  0.00000000000E+00 0. -1.
</event>
<event>
 8    1  0.1021894E-011  0.9118800E+02  0.7816164E-02  0.1184000E+00
        -11   -1    0    0    0    0  0.00000000000E+00  0.00000000000E+00  0.45593999997E+02  0.45594000000E+02  0.51100000000E-03 0. -1.
         11   -1    0    0    0    0 -0.00000000000E+00 -0.00000000000E+00 -0.45593999997E+02  0.45594000000E+02  0.51100000000E-03 0.  1.
         23    2    1    2    0    0  0.00000000000E+00  0.88817841970E-15  0.00000000000E+00  0.91188000000E+02  0.91188000000E+02 0.  0.
    9900012    2    3    3    0    0 -0.19221814841E+02 -0.77362477178E+01  0.34983401005E+02  0.50528855390E+02  0.29999986444E+02 0.  0.
        -12    1    3    3    0    0  0.19221814841E+02  0.77362477178E+01 -0.34983401005E+02  0.40659144610E+02  0.00000000000E+00 0.  1.
         11    1    4    4    0    0 -0.19966080559E+02  0.11718459908E+01  0.32275949403E+02  0.37970442531E+02  0.51100000000E-03 0. -1.
        -11    1    4    4    0    0  0.20248420140E+01 -0.97766781028E+00 -0.21992767608E+01  0.31452564379E+01  0.51100000000E-03 0.  1.
         12    1    4    4    0    0 -0.12805762963E+01 -0.79304258983E+01  0.49067283631E+01  0.94131564211E+01  0.00000000000E+00 0. -1.
</event>
<event>
 8    1  0.1021894E-011  0.9118800E+02  0.7816164E-02  0.1184000E+00
        -11   -1    0    0    0    0  0.00000000000E+00  0.00000000000E+00  0.45593999997E+02  0.45594000000E+02  0.51100000000E-03 0. -1.
         11   -1    0    0    0    0 -0.00000000000E+00 -0.00000000000E+00 -0.45593999997E+02  0.45594000000E+02  0.51100000000E-03 0.  1.
         23    2    1    2    0    0  0.00000000000E+00  0.00000000000E+00  0.00000000000E+00  0.91188000000E+02  0.91188000000E+02 0.  0.
    9900012    2    3    3    0    0  0.25765834400E+02  0.59422566035E+01  0.30886521049E+02  0.50528858120E+02  0.29999994742E+02 0.  0.
        -12    1    3    3    0    0 -0.25765834400E+02 -0.59422566035E+01 -0.30886521049E+02  0.40659141880E+02  0.00000000000E+00 0.  1.
         11    1    4    4    0    0 -0.42687568359E+01  0.41256145591E+01  0.87610237987E+01  0.10582935258E+02  0.51100000000E-03 0. -1.
        -11    1    4    4    0    0  0.63783382570E+00 -0.14054413772E+01  0.61362389216E+01  0.63273632595E+01  0.51100000000E-03 0.  1.
         12    1    4    4    0    0  0.29396757410E+02  0.32220834216E+01  0.15989258329E+02  0.33618559602E+02  0.00000000000E+00 0. -1.
</event>
<event>
 8    1  0.1021894E-011  0.9118800E+02  0.7816164E-02  0.1184000E+00
        -11   -1    0    0    0    0  0.00000000000E+00  0.00000000000E+00  0.45593999997E+02  0.45594000000E+02  0.51100000000E-03 0. -1.
         11   -1    0    0    0    0 -0.00000000000E+00 -0.00000000000E+00 -0.45593999997E+02  0.45594000000E+02  0.51100000000E-03 0.  1.
         23    2    1    2    0    0  0.00000000000E+00 -0.44408920985E-15  0.00000000000E+00  0.91188000000E+02  0.91188000000E+02 0.  0.
    9900012    2    3    3    0    0 -0.24378776894E+02 -0.10905163921E+01 -0.32521561379E+02  0.50528856584E+02  0.29999990071E+02 0.  0.
         12    1    3    3    0    0  0.24378776894E+02  0.10905163921E+01  0.32521561379E+02  0.40659143416E+02  0.00000000000E+00 0. -1.
         11    1    4    4    0    0  0.35933159721E+01  0.18656094643E+01 -0.62396358487E+01  0.74381095807E+01  0.51100000000E-03 0. -1.
        -11    1    4    4    0    0 -0.29181518547E+02 -0.66031656035E+01 -0.25148690262E+02  0.39084772519E+02  0.51100000000E-03 0.  1.
        -12    1    4    4    0    0  0.12094256807E+01  0.36470397470E+01 -0.11332352674E+01  0.40059744838E+01  0.00000000000E+00 0.  1.
</event>
<event>
 8    1  0.1021894E-011  0.9118800E+02  0.7816164E-02  0.1184000E+00
        -11   -1    0    0    0    0  0.00000000000E+00  0.00000000000E+00  0.45593999997E+02  0.45594000000E+02  0.51100000000E-03 0. -1.
         11   -1    0    0    0    0 -0.00000000000E+00 -0.00000000000E+00 -0.45593999997E+02  0.45594000000E+02  0.51100000000E-03 0.  1.
         23    2    1    2    0    0 -0.17763568394E-14  0.17763568394E-14  0.00000000000E+00  0.91188000000E+02  0.91188000000E+02 0.  0.
    9900012    2    3    3    0    0  0.14335555529E+02 -0.11928841245E+02 -0.36129769552E+02  0.50528860146E+02  0.30000000900E+02 0.  0.
         12    1    3    3    0    0 -0.14335555529E+02  0.11928841245E+02  0.36129769552E+02  0.40659139854E+02  0.00000000000E+00 0. -1.
         11    1    4    4    0    0  0.38892707293E+01 -0.68090090433E+00  0.10416090847E+01  0.40835037154E+01  0.51100000000E-03 0. -1.
        -11    1    4    4    0    0  0.16992303001E+02 -0.50337764704E+01 -0.30297303362E+02  0.35099912508E+02  0.51100000000E-03 0.  1.
        -12    1    4    4    0    0 -0.65460182019E+01 -0.62141638703E+01 -0.68740752753E+01  0.11345443922E+02  0.00000000000E+00 0.  1.
</event>
<event>
 8    1  0.1021894E-011  0.9118800E+02  0.7816164E-02  0.1184000E+00
        -11   -1    0    0    0    0  0.00000000000E+00  0.00000000000E+00  0.45593999997E+02  0.45594000000E+02  0.51100000000E-03 0. -1.
         11   -1    0    0    0    0 -0.00000000000E+00 -0.00000000000E+00 -0.45593999997E+02  0.45594000000E+02  0.51100000000E-03 0.  1.
         23    2    1    2    0    0 -0.88817841970E-15  0.00000000000E+00 -0.71054273576E-14  0.91188000000E+02  0.91188000000E+02 0.  0.
    9900012    2    3    3    0    0  0.75442690619E+01 -0.20984500239E+02  0.33998522553E+02  0.50528870869E+02  0.30000033493E+02 0.  0.
        -12    1    3    3    0    0 -0.75442690619E+01  0.20984500239E+02 -0.33998522553E+02  0.40659129131E+02  0.00000000000E+00 0.  1.
         11    1    4    4    0    0 -0.85577031400E+01 -0.12437222632E+02  0.18836302497E+02  0.24139699291E+02  0.51100000000E-03 0. -1.
        -11    1    4    4    0    0  0.15787350394E+02 -0.10918027979E+02  0.13753045587E+02  0.23613344333E+02  0.51100000000E-03 0.  1.
        -12    1    4    4    0    0  0.31462180744E+00  0.23707503721E+01  0.14091744685E+01  0.27758272445E+01  0.00000000000E+00 0.  1.
</event>
<event>
 8    1  0.1021894E-011  0.9118800E+02  0.7816164E-02  0.1184000E+00
        -11   -1    0    0    0    0  0.00000000000E+00  0.00000000000E+00  0.45593999997E+02  0.45594000000E+02  0.51100000000E-03 0.  1.
         11   -1    0    0    0    0 -0.00000000000E+00 -0.00000000000E+00 -0.45593999997E+02  0.45594000000E+02  0.51100000000E-03 0. -1.
         23    2    1    2    0    0  0.26645352591E-14  0.00000000000E+00 -0.44408920985E-15  0.91188000000E+02  0.91188000000E+02 0.  0.
    9900012    2    3    3    0    0  0.78596286953E+01 -0.39739236209E+02 -0.34906817778E+01  0.50528861827E+02  0.30000006009E+02 0.  0.
        -12    1    3    3    0    0 -0.78596286953E+01  0.39739236209E+02  0.34906817778E+01  0.40659138173E+02  0.00000000000E+00 0.  1.
         11    1    4    4    0    0 -0.69517630543E+01 -0.14860884641E+02 -0.16546947284E+01  0.16489721549E+02  0.51100000000E-03 0. -1.
        -11    1    4    4    0    0  0.17061232299E+02 -0.15595924816E+02 -0.55817506426E+01  0.23779706872E+02  0.51100000000E-03 0.  1.
        -12    1    4    4    0    0 -0.22498405493E+01 -0.92824267519E+01  0.37457635932E+01  0.10259433405E+02  0.00000000000E+00 0.  1.
</event>
<event>
 8    1  0.1021894E-011  0.9118800E+02  0.7816164E-02  0.1184000E+00
        -11   -1    0    0    0    0  0.00000000000E+00  0.00000000000E+00  0.45593999997E+02  0.45594000000E+02  0.51100000000E-03 0. -1.
         11   -1    0    0    0    0 -0.00000000000E+00 -0.00000000000E+00 -0.45593999997E+02  0.45594000000E+02  0.51100000000E-03 0.  1.
         23    2    1    2    0    0  0.88817841970E-15  0.88817841970E-15  0.00000000000E+00  0.91188000000E+02  0.91188000000E+02 0.  0.
    9900012    2    3    3    0    0 -0.71270864874E+01  0.41818173349E+01 -0.39810613759E+02  0.50528832203E+02  0.29999915965E+02 0.  0.
         12    1    3    3    0    0  0.71270864874E+01 -0.41818173349E+01  0.39810613759E+02  0.40659167797E+02  0.00000000000E+00 0. -1.
         11    1    4    4    0    0 -0.11731777789E+01 -0.75991451865E+00  0.28433646720E+01  0.31683653665E+01  0.51100000000E-03 0. -1.
        -11    1    4    4    0    0 -0.98063611167E+01  0.74612839482E+01 -0.40395495874E+02  0.42233062447E+02  0.51100000000E-03 0.  1.
        -12    1    4    4    0    0  0.38524524082E+01 -0.25195520947E+01 -0.22584825578E+01  0.51274043900E+01  0.00000000000E+00 0.  1.
</event>
<event>
 8    1  0.1021894E-011  0.9118800E+02  0.7816164E-02  0.1184000E+00
        -11   -1    0    0    0    0  0.00000000000E+00  0.00000000000E+00  0.45593999997E+02  0.45594000000E+02  0.51100000000E-03 0. -1.
         11   -1    0    0    0    0 -0.00000000000E+00 -0.00000000000E+00 -0.45593999997E+02  0.45594000000E+02  0.51100000000E-03 0.  1.
         23    2    1    2    0    0  0.71054273576E-14  0.00000000000E+00  0.00000000000E+00  0.91188000000E+02  0.91188000000E+02 0.  0.
    9900012    2    3    3    0    0 -0.23658503846E+02  0.18509946637E+02 -0.27401141008E+02  0.50528862561E+02  0.30000008241E+02 0.  0.
         12    1    3    3    0    0  0.23658503846E+02 -0.18509946637E+02  0.27401141008E+02  0.40659137439E+02  0.00000000000E+00 0. -1.
         11    1    4    4    0    0 -0.18325653732E+01  0.98835364146E+01  0.16206371894E+01  0.10181800090E+02  0.51100000000E-03 0. -1.
        -11    1    4    4    0    0 -0.49431681166E+01 -0.44439015776E+01 -0.77145371301E+01  0.10183184946E+02  0.51100000000E-03 0.  1.
         12    1    4    4    0    0 -0.16882770356E+02  0.13070311800E+02 -0.21307241068E+02  0.30163877525E+02  0.00000000000E+00 0. -1.
</event>
<event>
 8    1  0.1021894E-011  0.9118800E+02  0.7816164E-02  0.1184000E+00
        -11   -1    0    0    0    0  0.00000000000E+00  0.00000000000E+00  0.45593999997E+02  0.45594000000E+02  0.51100000000E-03 0.  1.
         11   -1    0    0    0    0 -0.00000000000E+00 -0.00000000000E+00 -0.45593999997E+02  0.45594000000E+02  0.51100000000E-03 0. -1.
         23    2    1    2    0    0 -0.17763568394E-14  0.00000000000E+00  0.88817841970E-15  0.91188000000E+02  0.91188000000E+02 0.  0.
    9900012    2    3    3    0    0 -0.13969323399E+02 -0.37578401876E+02  0.67740857935E+01  0.50528849467E+02  0.29999968438E+02 0.  0.
         12    1    3    3    0    0  0.13969323399E+02  0.37578401876E+02 -0.67740857935E+01  0.40659150533E+02  0.00000000000E+00 0. -1.
         11    1    4    4    0    0 -0.13205274393E+02 -0.43965776998E+01 -0.47742068197E+01  0.14714014350E+02  0.51100000000E-03 0. -1.
        -11    1    4    4    0    0 -0.81560864084E+00 -0.26579251450E+02  0.12046791349E+02  0.29193269895E+02  0.51100000000E-03 0.  1.
        -12    1    4    4    0    0  0.51559634583E-01 -0.66025727260E+01 -0.49849873543E+00  0.66215652219E+01  0.00000000000E+00 0.  1.
</event>
<event>
 8    1  0.1021894E-011  0.9118800E+02  0.7816164E-02  0.1184000E+00
        -11   -1    0    0    0    0  0.00000000000E+00  0.00000000000E+00  0.45593999997E+02  0.45594000000E+02  0.51100000000E-03 0. -1.
         11   -1    0    0    0    0 -0.00000000000E+00 -0.00000000000E+00 -0.45593999997E+02  0.45594000000E+02  0.51100000000E-03 0.  1.
         23    2    1    2    0    0  0.00000000000E+00  0.00000000000E+00  0.00000000000E+00  0.91188000000E+02  0.91188000000E+02 0.  0.
    9900012    2    3    3    0    0 -0.36142597210E+02 -0.81557553068E+01  0.16743992855E+02  0.50528868499E+02  0.30000026289E+02 0.  0.
        -12    1    3    3    0    0  0.36142597210E+02  0.81557553068E+01 -0.16743992855E+02  0.40659131501E+02  0.00000000000E+00 0.  1.
         11    1    4    4    0    0 -0.18359097216E+01  0.45224561907E+01  0.29015396661E+01  0.56782133808E+01  0.51100000000E-03 0. -1.
        -11    1    4    4    0    0 -0.12845217019E+02 -0.12681046178E+02  0.14838004673E+02  0.23366106124E+02  0.51100000000E-03 0.  1.
        -12    1    4    4    0    0 -0.21461470469E+02  0.28346807274E-02 -0.99555148406E+00  0.21484548994E+02  0.00000000000E+00 0.  1.
</event>
<event>
 8    1  0.1021894E-011  0.9118800E+02  0.7816164E-02  0.1184000E+00
        -11   -1    0    0    0    0  0.00000000000E+00  0.00000000000E+00  0.45593999997E+02  0.45594000000E+02  0.51100000000E-03 0. -1.
         11   -1    0    0    0    0 -0.00000000000E+00 -0.00000000000E+00 -0.45593999997E+02  0.45594000000E+02  0.51100000000E-03 0.  1.
         23    2    1    2    0    0  0.00000000000E+00  0.00000000000E+00 -0.71054273576E-14  0.91188000000E+02  0.91188000000E+02 0.  0.
    9900012    2    3    3    0    0 -0.19048769180E+02  0.86133365903E+01  0.34872922775E+02  0.50528856903E+02  0.29999991042E+02 0.  0.
        -12    1    3    3    0    0  0.19048769180E+02 -0.86133365903E+01 -0.34872922775E+02  0.40659143097E+02  0.00000000000E+00 0.  1.
         11    1    4    4    0    0  0.58886734965E+01  0.12952548084E+01  0.13275741276E+02  0.14580791036E+02  0.51100000000E-03 0. -1.
        -11    1    4    4    0    0 -0.95857717926E+01  0.91789043442E+01  0.97986702416E+01  0.16497067757E+02  0.51100000000E-03 0.  1.
         12    1    4    4    0    0 -0.15351670884E+02 -0.18608225623E+01  0.11798511258E+02  0.19450998109E+02  0.00000000000E+00 0. -1.
</event>
<event>
 8    1  0.1021894E-011  0.9118800E+02  0.7816164E-02  0.1184000E+00
        -11   -1    0    0    0    0  0.00000000000E+00  0.00000000000E+00  0.45593999997E+02  0.45594000000E+02  0.51100000000E-03 0. -1.
         11   -1    0    0    0    0 -0.00000000000E+00 -0.00000000000E+00 -0.45593999997E+02  0.45594000000E+02  0.51100000000E-03 0.  1.
         23    2    1    2    0    0  0.17763568394E-14 -0.35527136788E-14 -0.71054273576E-14  0.91188000000E+02  0.91188000000E+02 0.  0.
    9900012    2    3    3    0    0 -0.10588847612E+02  0.23307900903E+02  0.31587717219E+02  0.50528858133E+02  0.29999994781E+02 0.  0.
        -12    1    3    3    0    0  0.10588847612E+02 -0.23307900903E+02 -0.31587717219E+02  0.40659141867E+02  0.00000000000E+00 0.  1.
         11    1    4    4    0    0 -0.69357101773E+01  0.17029400779E+02  0.35163161402E+01  0.18720818519E+02  0.51100000000E-03 0. -1.
        -11    1    4    4    0    0 -0.31948433509E+01 -0.28701982722E+01  0.33583070366E+01  0.54519068748E+01  0.51100000000E-03 0.  1.
         12    1    4    4    0    0 -0.45829408365E+00  0.91486983958E+01  0.24713094043E+02  0.26356132739E+02  0.00000000000E+00 0. -1.
</event>
<event>
 8    1  0.1021894E-011  0.9118800E+02  0.7816164E-02  0.1184000E+00
        -11   -1    0    0    0    0  0.00000000000E+00  0.00000000000E+00  0.45593999997E+02  0.45594000000E+02  0.51100000000E-03 0. -1.
         11   -1    0    0    0    0 -0.00000000000E+00 -0.00000000000E+00 -0.45593999997E+02  0.45594000000E+02  0.51100000000E-03 0.  1.
         23    2    1    2    0    0  0.17763568394E-14  0.00000000000E+00  0.71054273576E-14  0.91188000000E+02  0.91188000000E+02 0.  0.
    9900012    2    3    3    0    0  0.13844524879E+01 -0.17454703443E+02  0.36695692804E+02  0.50528963472E+02  0.30000314968E+02 0.  0.
        -12    1    3    3    0    0 -0.13844524879E+01  0.17454703443E+02 -0.36695692804E+02  0.40659036528E+02  0.00000000000E+00 0.  1.
         11    1    4    4    0    0  0.81012477153E+01 -0.12715456221E+02  0.39073911942E+02  0.41881781673E+02  0.51100000000E-03 0. -1.
        -11    1    4    4    0    0 -0.14556440325E+01 -0.51526461635E+00 -0.69536593392E+00  0.16934967427E+01  0.51100000000E-03 0.  1.
         12    1    4    4    0    0 -0.52611511949E+01 -0.42239826060E+01 -0.16828532034E+01  0.69536850559E+01  0.00000000000E+00 0. -1.
</event>
<event>
 8    1  0.1021894E-011  0.9118800E+02  0.7816164E-02  0.1184000E+00
        -11   -1    0    0    0    0  0.00000000000E+00  0.00000000000E+00  0.45593999997E+02  0.45594000000E+02  0.51100000000E-03 0. -1.
         11   -1    0    0    0    0 -0.00000000000E+00 -0.00000000000E+00 -0.45593999997E+02  0.45594000000E+02  0.51100000000E-03 0.  1.
         23    2    1    2    0    0  0.17763568394E-14 -0.17763568394E-14  0.00000000000E+00  0.91188000000E+02  0.91188000000E+02 0.  0.
    9900012    2    3    3    0    0  0.93442239466E+01 -0.12749682340E+02  0.37460607626E+02  0.50528855338E+02  0.29999986286E+02 0.  0.
        -12    1    3    3    0    0 -0.93442239466E+01  0.12749682340E+02 -0.37460607626E+02  0.40659144662E+02  0.00000000000E+00 0.  1.
         11    1    4    4    0    0  0.99054820744E+01  0.59082048099E+01  0.21841713089E+02  0.24699916804E+02  0.51100000000E-03 0. -1.
        -11    1    4    4    0    0  0.30820595371E+01 -0.76500560498E+01  0.32220430219E+01  0.88546038901E+01  0.51100000000E-03 0.  1.
         12    1    4    4    0    0 -0.36433176648E+01 -0.11007831100E+02  0.12396851515E+02  0.16974334644E+02  0.00000000000E+00 0. -1.
</event>
<event>
 8    1  0.1021894E-011  0.9118800E+02  0.7816164E-02  0.1184000E+00
        -11   -1    0    0    0    0  0.00000000000E+00  0.00000000000E+00  0.45593999997E+02  0.45594000000E+02  0.51100000000E-03 0. -1.
         11   -1    0    0    0    0 -0.00000000000E+00 -0.00000000000E+00 -0.45593999997E+02  0.45594000000E+02  0.51100000000E-03 0.  1.
         23    2    1    2    0    0  0.35527136788E-14  0.35527136788E-14  0.00000000000E+00  0.91188000000E+02  0.91188000000E+02 0.  0.
    9900012    2    3    3    0    0 -0.25138834175E+02 -0.26443729218E+02 -0.17942516787E+02  0.50528859487E+02  0.29999998895E+02 0.  0.
         12    1    3    3    0    0  0.25138834175E+02  0.26443729218E+02  0.17942516787E+02  0.40659140513E+02  0.00000000000E+00 0. -1.
         11    1    4    4    0    0 -0.13490618299E+01  0.37237243492E+01 -0.17130519545E+01  0.43151637408E+01  0.51100000000E-03 0. -1.
        -11    1    4    4    0    0 -0.16475209982E+02 -0.17678229187E+02 -0.19874583991E+02  0.31288199377E+02  0.51100000000E-03 0.  1.
        -12    1    4    4    0    0 -0.73145623631E+01 -0.12489224380E+02  0.36451191589E+01  0.14925496369E+02  0.00000000000E+00 0.  1.
</event>
<event>
 8    1  0.1021894E-011  0.9118800E+02  0.7816164E-02  0.1184000E+00
        -11   -1    0    0    0    0  0.00000000000E+00  0.00000000000E+00  0.45593999997E+02  0.45594000000E+02  0.51100000000E-03 0. -1.
         11   -1    0    0    0    0 -0.00000000000E+00 -0.00000000000E+00 -0.45593999997E+02  0.45594000000E+02  0.51100000000E-03 0.  1.
         23    2    1    2    0    0 -0.16653345369E-15  0.00000000000E+00  0.00000000000E+00  0.91188000000E+02  0.91188000000E+02 0.  0.
    9900012    2    3    3    0    0 -0.41652669065E+00  0.39440814704E+02  0.98699066708E+01  0.50528850763E+02  0.29999972379E+02 0.  0.
        -12    1    3    3    0    0  0.41652669065E+00 -0.39440814704E+02 -0.98699066708E+01  0.40659149237E+02  0.00000000000E+00 0.  1.
         11    1    4    4    0    0 -0.64733725239E+01  0.35978610713E+02  0.15674185595E+02  0.39774930232E+02  0.51100000000E-03 0. -1.
        -11    1    4    4    0    0  0.26858905733E+00  0.14315560054E+01 -0.41536082055E+01  0.44015854035E+01  0.51100000000E-03 0.  1.
         12    1    4    4    0    0  0.57882567759E+01  0.20306479858E+01 -0.16506707191E+01  0.63523351273E+01  0.00000000000E+00 0. -1.
</event>
<event>
 8    1  0.1021894E-011  0.9118800E+02  0.7816164E-02  0.1184000E+00
        -11   -1    0    0    0    0  0.00000000000E+00  0.00000000000E+00  0.45593999997E+02  0.45594000000E+02  0.51100000000E-03 0. -1.
         11   -1    0    0    0    0 -0.00000000000E+00 -0.00000000000E+00 -0.45593999997E+02  0.45594000000E+02  0.51100000000E-03 0.  1.
         23    2    1    2    0    0 -0.71054273576E-14  0.00000000000E+00  0.35527136788E-14  0.91188000000E+02  0.91188000000E+02 0.  0.
    9900012    2    3    3    0    0 -0.29793328518E+02  0.69593986709E+01  0.26778542920E+02  0.50528855703E+02  0.29999987395E+02 0.  0.
        -12    1    3    3    0    0  0.29793328518E+02 -0.69593986709E+01 -0.26778542920E+02  0.40659144297E+02  0.00000000000E+00 0.  1.
         11    1    4    4    0    0 -0.17547964006E+02  0.61617949785E+01  0.53728785905E+01  0.19358888984E+02  0.51100000000E-03 0. -1.
        -11    1    4    4    0    0  0.47705759072E+01 -0.48998015604E+00  0.16660797575E+01  0.50768392785E+01  0.51100000000E-03 0.  1.
        -12    1    4    4    0    0 -0.17015940420E+02  0.12875838484E+01  0.19739584572E+02  0.26093127440E+02  0.00000000000E+00 0.  1.
</event>
<event>
 8    1  0.1021894E-011  0.9118800E+02  0.7816164E-02  0.1184000E+00
        -11   -1    0    0    0    0  0.00000000000E+00  0.00000000000E+00  0.45593999997E+02  0.45594000000E+02  0.51100000000E-03 0. -1.
         11   -1    0    0    0    0 -0.00000000000E+00 -0.00000000000E+00 -0.45593999997E+02  0.45594000000E+02  0.51100000000E-03 0.  1.
         23    2    1    2    0    0  0.35527136788E-14  0.00000000000E+00 -0.35527136788E-14  0.91188000000E+02  0.91188000000E+02 0.  0.
    9900012    2    3    3    0    0 -0.26935110987E+02 -0.21564250304E+02  0.21509268689E+02  0.50528859151E+02  0.29999997876E+02 0.  0.
        -12    1    3    3    0    0  0.26935110987E+02  0.21564250304E+02 -0.21509268689E+02  0.40659140849E+02  0.00000000000E+00 0.  1.
         11    1    4    4    0    0 -0.10508131746E+01  0.52582327186E+01  0.11728206563E+00  0.53634853403E+01  0.51100000000E-03 0.  1.
        -11    1    4    4    0    0 -0.40787197763E+01 -0.70310387372E+01  0.11535426299E+02  0.14111609437E+02  0.51100000000E-03 0. -1.
         12    1    4    4    0    0 -0.21805578036E+02 -0.19791444285E+02  0.98565603244E+01  0.31053764374E+02  0.00000000000E+00 0. -1.
</event>
<event>
 8    1  0.1021894E-011  0.9118800E+02  0.7816164E-02  0.1184000E+00
        -11   -1    0    0    0    0  0.00000000000E+00  0.00000000000E+00  0.45593999997E+02  0.45594000000E+02  0.51100000000E-03 0. -1.
         11   -1    0    0    0    0 -0.00000000000E+00 -0.00000000000E+00 -0.45593999997E+02  0.45594000000E+02  0.51100000000E-03 0.  1.
         23    2    1    2    0    0  0.71054273576E-14  0.88817841970E-15  0.00000000000E+00  0.91188000000E+02  0.91188000000E+02 0.  0.
    9900012    2    3    3    0    0 -0.38022590634E+02 -0.46019994480E+01  0.13648067678E+02  0.50528861436E+02  0.30000004820E+02 0.  0.
        -12    1    3    3    0    0  0.38022590634E+02  0.46019994480E+01 -0.13648067678E+02  0.40659138564E+02  0.00000000000E+00 0.  1.
         11    1    4    4    0    0 -0.17114543803E+02 -0.36694214235E+01  0.94724298361E+01  0.19902240839E+02  0.51100000000E-03 0. -1.
        -11    1    4    4    0    0  0.34638020858E+01  0.40199317537E+01  0.19653157981E+01  0.56586431803E+01  0.51100000000E-03 0.  1.
        -12    1    4    4    0    0 -0.24371848917E+02 -0.49525097782E+01  0.22103220439E+01  0.24967977416E+02  0.00000000000E+00 0.  1.
</event>
<event>
 8    1  0.1021894E-011  0.9118800E+02  0.7816164E-02  0.1184000E+00
        -11   -1    0    0    0    0  0.00000000000E+00  0.00000000000E+00  0.45593999997E+02  0.45594000000E+02  0.51100000000E-03 0. -1.
         11   -1    0    0    0    0 -0.00000000000E+00 -0.00000000000E+00 -0.45593999997E+02  0.45594000000E+02  0.51100000000E-03 0.  1.
         23    2    1    2    0    0 -0.35527136788E-14  0.17763568394E-14  0.00000000000E+00  0.91188000000E+02  0.91188000000E+02 0.  0.
    9900012    2    3    3    0    0 -0.20298701205E+02  0.11745690720E+02  0.33213941065E+02  0.50528875536E+02  0.30000047679E+02 0.  0.
        -12    1    3    3    0    0  0.20298701205E+02 -0.11745690720E+02 -0.33213941065E+02  0.40659124464E+02  0.00000000000E+00 0.  1.
         11    1    4    4    0    0 -0.16003205831E+02  0.95517466024E+01  0.19502232523E+02  0.26975461695E+02  0.51100000000E-03 0. -1.
        -11    1    4    4    0    0  0.43012561065E+01 -0.18230490092E+01 -0.20929046915E+01  0.51190391767E+01  0.51100000000E-03 0.  1.
        -12    1    4    4    0    0 -0.85967514807E+01  0.40169931269E+01  0.15804613234E+02  0.18434374664E+02  0.00000000000E+00 0.  1.
</event>
<event>
 8    1  0.1021894E-011  0.9118800E+02  0.7816164E-02  0.1184000E+00
        -11   -1    0    0    0    0  0.00000000000E+00  0.00000000000E+00  0.45593999997E+02  0.45594000000E+02  0.51100000000E-03 0. -1.
         11   -1    0    0    0    0 -0.00000000000E+00 -0.00000000000E+00 -0.45593999997E+02  0.45594000000E+02  0.51100000000E-03 0.  1.
         23    2    1    2    0    0 -0.17763568394E-14  0.00000000000E+00  0.00000000000E+00  0.91188000000E+02  0.91188000000E+02 0.  0.
    9900012    2    3    3    0    0 -0.15533265981E+02  0.23557266301E+01  0.37501119246E+02  0.50528859026E+02  0.29999997496E+02 0.  0.
        -12    1    3    3    0    0  0.15533265981E+02 -0.23557266301E+01 -0.37501119246E+02  0.40659140974E+02  0.00000000000E+00 0.  1.
         11    1    4    4    0    0  0.41561609507E+01  0.35243778507E+01  0.12126762502E+02  0.13294859237E+02  0.51100000000E-03 0. -1.
        -11    1    4    4    0    0 -0.15052596924E+02 -0.28124381562E+01  0.47527369498E+01  0.16033683024E+02  0.51100000000E-03 0.  1.
        -12    1    4    4    0    0 -0.46368300073E+01  0.16437869356E+01  0.20621619794E+02  0.21200316765E+02  0.00000000000E+00 0.  1.
</event>
<event>
 8    1  0.1021894E-011  0.9118800E+02  0.7816164E-02  0.1184000E+00
        -11   -1    0    0    0    0  0.00000000000E+00  0.00000000000E+00  0.45593999997E+02  0.45594000000E+02  0.51100000000E-03 0. -1.
         11   -1    0    0    0    0 -0.00000000000E+00 -0.00000000000E+00 -0.45593999997E+02  0.45594000000E+02  0.51100000000E-03 0.  1.
         23    2    1    2    0    0  0.35527136788E-14  0.00000000000E+00  0.35527136788E-14  0.91188000000E+02  0.91188000000E+02 0.  0.
    9900012    2    3    3    0    0  0.22046005808E+02 -0.27425731675E+02 -0.20370776479E+02  0.50528860014E+02  0.30000000499E+02 0.  0.
         12    1    3    3    0    0 -0.22046005808E+02  0.27425731675E+02  0.20370776479E+02  0.40659139986E+02  0.00000000000E+00 0. -1.
         11    1    4    4    0    0  0.15832785528E+02 -0.17679587085E+02 -0.24126826374E+02  0.33842999988E+02  0.51100000000E-03 0. -1.
        -11    1    4    4    0    0  0.89290681932E+01 -0.86061392300E+01  0.66945904976E+00  0.12419422971E+02  0.51100000000E-03 0.  1.
         12    1    4    4    0    0 -0.27158479126E+01 -0.11400053598E+01  0.30865908448E+01  0.42664370554E+01  0.00000000000E+00 0. -1.
</event>
<event>
 8    1  0.1021894E-011  0.9118800E+02  0.7816164E-02  0.1184000E+00
        -11   -1    0    0    0    0  0.00000000000E+00  0.00000000000E+00  0.45593999997E+02  0.45594000000E+02  0.51100000000E-03 0. -1.
         11   -1    0    0    0    0 -0.00000000000E+00 -0.00000000000E+00 -0.45593999997E+02  0.45594000000E+02  0.51100000000E-03 0.  1.
         23    2    1    2    0    0  0.00000000000E+00  0.35527136788E-14  0.35527136788E-14  0.91188000000E+02  0.91188000000E+02 0.  0.
    9900012    2    3    3    0    0 -0.32749945837E+02 -0.17320924964E+02 -0.16750899770E+02  0.50528855431E+02  0.29999986569E+02 0.  0.
         12    1    3    3    0    0  0.32749945837E+02  0.17320924964E+02  0.16750899770E+02  0.40659144569E+02  0.00000000000E+00 0. -1.
         11    1    4    4    0    0 -0.61053508381E+00 -0.14204341736E+02 -0.12071117695E+01  0.14268608774E+02  0.51100000000E-03 0. -1.
        -11    1    4    4    0    0 -0.11597898890E+02 -0.33253902367E+00 -0.28305289712E+01  0.11942936631E+02  0.51100000000E-03 0.  1.
         12    1    4    4    0    0 -0.20541511864E+02 -0.27840442044E+01 -0.12713259029E+02  0.24317310026E+02  0.00000000000E+00 0. -1.
</event>
<event>
 8    1  0.1021894E-011  0.9118800E+02  0.7816164E-02  0.1184000E+00
        -11   -1    0    0    0    0  0.00000000000E+00  0.00000000000E+00  0.45593999997E+02  0.45594000000E+02  0.51100000000E-03 0. -1.
         11   -1    0    0    0    0 -0.00000000000E+00 -0.00000000000E+00 -0.45593999997E+02  0.45594000000E+02  0.51100000000E-03 0.  1.
         23    2    1    2    0    0  0.00000000000E+00  0.00000000000E+00  0.00000000000E+00  0.91188000000E+02  0.91188000000E+02 0.  0.
    9900012    2    3    3    0    0  0.31431591853E+02 -0.15024857563E+02 -0.20963646764E+02  0.50528858385E+02  0.29999995547E+02 0.  0.
         12    1    3    3    0    0 -0.31431591853E+02  0.15024857563E+02  0.20963646764E+02  0.40659141615E+02  0.00000000000E+00 0. -1.
         11    1    4    4    0    0 -0.25575147559E+00 -0.11974410154E+02 -0.57360544742E+01  0.13279842942E+02  0.51100000000E-03 0. -1.
        -11    1    4    4    0    0  0.22990980162E+02 -0.69385641236E+01 -0.13557363529E+02  0.27577725560E+02  0.51100000000E-03 0.  1.
         12    1    4    4    0    0  0.86963631661E+01  0.38881167145E+01 -0.16702287610E+01  0.96712898837E+01  0.00000000000E+00 0. -1.
</event>
<event>
 8    1  0.1021894E-011  0.9118800E+02  0.7816164E-02  0.1184000E+00
        -11   -1    0    0    0    0  0.00000000000E+00  0.00000000000E+00  0.45593999997E+02  0.45594000000E+02  0.51100000000E-03 0. -1.
         11   -1    0    0    0    0 -0.00000000000E+00 -0.00000000000E+00 -0.45593999997E+02  0.45594000000E+02  0.51100000000E-03 0.  1.
         23    2    1    2    0    0  0.00000000000E+00  0.00000000000E+00  0.00000000000E+00  0.91188000000E+02  0.91188000000E+02 0.  0.
    9900012    2    3    3    0    0 -0.18576522875E+02  0.19297110763E+02  0.30589247995E+02  0.50528834012E+02  0.29999921464E+02 0.  0.
        -12    1    3    3    0    0  0.18576522875E+02 -0.19297110763E+02 -0.30589247995E+02  0.40659165988E+02  0.00000000000E+00 0.  1.
         11    1    4    4    0    0 -0.20829545078E+00  0.15138195010E+01  0.51306384052E+00  0.16119153954E+01  0.51100000000E-03 0. -1.
        -11    1    4    4    0    0 -0.71122204335E+01  0.20998896954E+02  0.29882647291E+02  0.37209003778E+02  0.51100000000E-03 0.  1.
        -12    1    4    4    0    0 -0.11256006991E+02 -0.32156056923E+01  0.19353686314E+00  0.11707914838E+02  0.00000000000E+00 0.  1.
</event>
<event>
 8    1  0.1021894E-011  0.9118800E+02  0.7816164E-02  0.1184000E+00
        -11   -1    0    0    0    0  0.00000000000E+00  0.00000000000E+00  0.45593999997E+02  0.45594000000E+02  0.51100000000E-03 0. -1.
         11   -1    0    0    0    0 -0.00000000000E+00 -0.00000000000E+00 -0.45593999997E+02  0.45594000000E+02  0.51100000000E-03 0.  1.
         23    2    1    2    0    0 -0.44408920985E-15  0.00000000000E+00  0.35527136788E-14  0.91188000000E+02  0.91188000000E+02 0.  0.
    9900012    2    3    3    0    0  0.27604956446E+01 -0.33225499819E+02  0.23272517983E+02  0.50528877189E+02  0.30000052704E+02 0.  0.
        -12    1    3    3    0    0 -0.27604956446E+01  0.33225499819E+02 -0.23272517983E+02  0.40659122811E+02  0.00000000000E+00 0.  1.
         11    1    4    4    0    0  0.10489822383E+02 -0.82139176629E+00  0.82599435625E+01  0.13376760668E+02  0.51100000000E-03 0. -1.
        -11    1    4    4    0    0 -0.18911192196E+01 -0.51262774612E+01 -0.19762898647E-01  0.54640134833E+01  0.51100000000E-03 0.  1.
         12    1    4    4    0    0 -0.58382075188E+01 -0.27277830592E+02  0.15032337320E+02  0.31688103038E+02  0.00000000000E+00 0. -1.
</event>
<event>
 8    1  0.1021894E-011  0.9118800E+02  0.7816164E-02  0.1184000E+00
        -11   -1    0    0    0    0  0.00000000000E+00  0.00000000000E+00  0.45593999997E+02  0.45594000000E+02  0.51100000000E-03 0. -1.
         11   -1    0    0    0    0 -0.00000000000E+00 -0.00000000000E+00 -0.45593999997E+02  0.45594000000E+02  0.51100000000E-03 0.  1.
         23    2    1    2    0    0 -0.17763568394E-14 -0.35527136788E-14 -0.35527136788E-14  0.91188000000E+02  0.91188000000E+02 0.  0.
    9900012    2    3    3    0    0  0.84449000237E+01  0.26392864669E+02  0.29753416476E+02  0.50528862849E+02  0.30000009117E+02 0.  0.
        -12    1    3    3    0    0 -0.84449000237E+01 -0.26392864669E+02 -0.29753416476E+02  0.40659137151E+02  0.00000000000E+00 0.  1.
         11    1    4    4    0    0  0.69849142413E+01  0.27002324697E+02  0.27602095221E+02  0.39240160892E+02  0.51100000000E-03 0. -1.
        -11    1    4    4    0    0 -0.40456908974E+01  0.71328855116E+00 -0.16944718209E+01  0.44438306007E+01  0.51100000000E-03 0.  1.
        -12    1    4    4    0    0  0.55056766798E+01 -0.13227485790E+01  0.38457930765E+01  0.68448713570E+01  0.00000000000E+00 0.  1.
</event>
<event>
 8    1  0.1021894E-011  0.9118800E+02  0.7816164E-02  0.1184000E+00
        -11   -1    0    0    0    0  0.00000000000E+00  0.00000000000E+00  0.45593999997E+02  0.45594000000E+02  0.51100000000E-03 0.  1.
         11   -1    0    0    0    0 -0.00000000000E+00 -0.00000000000E+00 -0.45593999997E+02  0.45594000000E+02  0.51100000000E-03 0. -1.
         23    2    1    2    0    0  0.00000000000E+00  0.00000000000E+00  0.17763568394E-14  0.91188000000E+02  0.91188000000E+02 0.  0.
    9900012    2    3    3    0    0  0.37326135641E+02  0.13409846286E+02  0.89499160623E+01  0.50528863550E+02  0.30000011247E+02 0.  0.
        -12    1    3    3    0    0 -0.37326135641E+02 -0.13409846286E+02 -0.89499160623E+01  0.40659136450E+02  0.00000000000E+00 0.  1.
         11    1    4    4    0    0  0.72271037345E+01  0.13322264896E+01  0.32006602612E+01  0.80156148971E+01  0.51100000000E-03 0. -1.
        -11    1    4    4    0    0 -0.47244454296E+01  0.43981728593E+01  0.11754497115E+01  0.65609443987E+01  0.51100000000E-03 0.  1.
        -12    1    4    4    0    0  0.34823477336E+02  0.76794469375E+01  0.45738060897E+01  0.35952304254E+02  0.00000000000E+00 0.  1.
</event>
<event>
 8    1  0.1021894E-011  0.9118800E+02  0.7816164E-02  0.1184000E+00
        -11   -1    0    0    0    0  0.00000000000E+00  0.00000000000E+00  0.45593999997E+02  0.45594000000E+02  0.51100000000E-03 0. -1.
         11   -1    0    0    0    0 -0.00000000000E+00 -0.00000000000E+00 -0.45593999997E+02  0.45594000000E+02  0.51100000000E-03 0.  1.
         23    2    1    2    0    0  0.72164496601E-15  0.00000000000E+00  0.00000000000E+00  0.91188000000E+02  0.91188000000E+02 0.  0.
    9900012    2    3    3    0    0  0.29651225495E+00 -0.30123120323E+02 -0.27307035084E+02  0.50528874792E+02  0.30000045419E+02 0.  0.
         12    1    3    3    0    0 -0.29651225495E+00  0.30123120323E+02  0.27307035084E+02  0.40659125208E+02  0.00000000000E+00 0. -1.
         11    1    4    4    0    0  0.12492737127E+02 -0.26548292752E+02 -0.15729954715E+02  0.33291317255E+02  0.51100000000E-03 0. -1.
        -11    1    4    4    0    0 -0.96222232225E+01 -0.33441517838E+01 -0.92016848995E+01  0.13727400925E+02  0.51100000000E-03 0.  1.
         12    1    4    4    0    0 -0.25740016493E+01 -0.23067578770E+00 -0.23753954698E+01  0.35101566130E+01  0.00000000000E+00 0. -1.
</event>
<event>
 8    1  0.1021894E-011  0.9118800E+02  0.7816164E-02  0.1184000E+00
        -11   -1    0    0    0    0  0.00000000000E+00  0.00000000000E+00  0.45593999997E+02  0.45594000000E+02  0.51100000000E-03 0. -1.
         11   -1    0    0    0    0 -0.00000000000E+00 -0.00000000000E+00 -0.45593999997E+02  0.45594000000E+02  0.51100000000E-03 0.  1.
         23    2    1    2    0    0  0.00000000000E+00  0.00000000000E+00  0.00000000000E+00  0.91188000000E+02  0.91188000000E+02 0.  0.
    9900012    2    3    3    0    0  0.16968012853E+01 -0.29737826647E+02  0.27675773448E+02  0.50528857065E+02  0.29999991535E+02 0.  0.
        -12    1    3    3    0    0 -0.16968012853E+01  0.29737826647E+02 -0.27675773448E+02  0.40659142935E+02  0.00000000000E+00 0.  1.
         11    1    4    4    0    0  0.56293244044E+01 -0.23142331783E+02  0.15903478760E+02  0.28638740380E+02  0.51100000000E-03 0. -1.
        -11    1    4    4    0    0  0.31266069506E+01  0.43836081578E+01  0.30028062691E+01  0.61651064269E+01  0.51100000000E-03 0.  1.
         12    1    4    4    0    0 -0.70591300697E+01 -0.10979103021E+02  0.87694884191E+01  0.15725010258E+02  0.00000000000E+00 0. -1.
</event>
<event>
 8    1  0.1021894E-011  0.9118800E+02  0.7816164E-02  0.1184000E+00
        -11   -1    0    0    0    0  0.00000000000E+00  0.00000000000E+00  0.45593999997E+02  0.45594000000E+02  0.51100000000E-03 0. -1.
         11   -1    0    0    0    0 -0.00000000000E+00 -0.00000000000E+00 -0.45593999997E+02  0.45594000000E+02  0.51100000000E-03 0.  1.
         23    2    1    2    0    0  0.17763568394E-14  0.00000000000E+00  0.00000000000E+00  0.91188000000E+02  0.91188000000E+02 0.  0.
    9900012    2    3    3    0    0 -0.14976682490E+02  0.11552443743E+02  0.35991740771E+02  0.50528863529E+02  0.30000011183E+02 0.  0.
        -12    1    3    3    0    0  0.14976682490E+02 -0.11552443743E+02 -0.35991740771E+02  0.40659136471E+02  0.00000000000E+00 0.  1.
         11    1    4    4    0    0 -0.28133817284E+01 -0.18619802698E+01  0.21738442517E+02  0.21998681110E+02  0.51100000000E-03 0. -1.
        -11    1    4    4    0    0  0.36088548453E+00  0.59017815581E+01 -0.23988923567E+01  0.63809050057E+01  0.51100000000E-03 0.  1.
        -12    1    4    4    0    0 -0.12524186247E+02  0.75126424549E+01  0.16652190611E+02  0.22149277413E+02  0.00000000000E+00 0.  1.
</event>
<event>
 8    1  0.1021894E-011  0.9118800E+02  0.7816164E-02  0.1184000E+00
        -11   -1    0    0    0    0  0.00000000000E+00  0.00000000000E+00  0.45593999997E+02  0.45594000000E+02  0.51100000000E-03 0. -1.
         11   -1    0    0    0    0 -0.00000000000E+00 -0.00000000000E+00 -0.45593999997E+02  0.45594000000E+02  0.51100000000E-03 0.  1.
         23    2    1    2    0    0  0.00000000000E+00  0.00000000000E+00  0.00000000000E+00  0.91188000000E+02  0.91188000000E+02 0.  0.
    9900012    2    3    3    0    0 -0.12822491576E+02 -0.36649580294E+02 -0.12064727188E+02  0.50528859969E+02  0.30000000362E+02 0.  0.
         12    1    3    3    0    0  0.12822491576E+02  0.36649580294E+02  0.12064727188E+02  0.40659140031E+02  0.00000000000E+00 0. -1.
         11    1    4    4    0    0 -0.22109500346E+01  0.35191107080E+01  0.19453641549E+01  0.45887778534E+01  0.51100000000E-03 0. -1.
        -11    1    4    4    0    0 -0.69207965311E+01 -0.19470951796E+02  0.20022791531E-01  0.20664360374E+02  0.51100000000E-03 0.  1.
         12    1    4    4    0    0 -0.36907450101E+01 -0.20697739205E+02 -0.14030114135E+02  0.25275721742E+02  0.00000000000E+00 0. -1.
</event>
<event>
 8    1  0.1021894E-011  0.9118800E+02  0.7816164E-02  0.1184000E+00
        -11   -1    0    0    0    0  0.00000000000E+00  0.00000000000E+00  0.45593999997E+02  0.45594000000E+02  0.51100000000E-03 0. -1.
         11   -1    0    0    0    0 -0.00000000000E+00 -0.00000000000E+00 -0.45593999997E+02  0.45594000000E+02  0.51100000000E-03 0.  1.
         23    2    1    2    0    0  0.35527136788E-14  0.35527136788E-14 -0.35527136788E-14  0.91188000000E+02  0.91188000000E+02 0.  0.
    9900012    2    3    3    0    0 -0.27310900274E+02 -0.17427125628E+02  0.24567776729E+02  0.50528860378E+02  0.30000001604E+02 0.  0.
        -12    1    3    3    0    0  0.27310900274E+02  0.17427125628E+02 -0.24567776729E+02  0.40659139622E+02  0.00000000000E+00 0.  1.
         11    1    4    4    0    0 -0.28103629045E+02 -0.17259512311E+02  0.16542380789E+02  0.36896545815E+02  0.51100000000E-03 0. -1.
        -11    1    4    4    0    0  0.41566989005E+01  0.24578372918E+01  0.80240650581E+01  0.93650803638E+01  0.51100000000E-03 0.  1.
        -12    1    4    4    0    0 -0.33639701298E+01 -0.26254506087E+01  0.13308821107E-02  0.42672341984E+01  0.00000000000E+00 0.  1.
</event>
<event>
 8    1  0.1021894E-011  0.9118800E+02  0.7816164E-02  0.1184000E+00
        -11   -1    0    0    0    0  0.00000000000E+00  0.00000000000E+00  0.45593999997E+02  0.45594000000E+02  0.51100000000E-03 0. -1.
         11   -1    0    0    0    0 -0.00000000000E+00 -0.00000000000E+00 -0.45593999997E+02  0.45594000000E+02  0.51100000000E-03 0.  1.
         23    2    1    2    0    0  0.35527136788E-14  0.00000000000E+00 -0.71054273576E-14  0.91188000000E+02  0.91188000000E+02 0.  0.
    9900012    2    3    3    0    0  0.24416147614E+02  0.40379439806E+01 -0.32260075306E+02  0.50528859396E+02  0.29999998620E+02 0.  0.
         12    1    3    3    0    0 -0.24416147614E+02 -0.40379439806E+01  0.32260075306E+02  0.40659140604E+02  0.00000000000E+00 0. -1.
         11    1    4    4    0    0  0.19860610854E+01 -0.71800997350E+01 -0.21778465323E+02  0.23017380888E+02  0.51100000000E-03 0. -1.
        -11    1    4    4    0    0  0.16719676111E+02  0.99808972772E+01 -0.69018128116E+01  0.20659160197E+02  0.51100000000E-03 0.  1.
         12    1    4    4    0    0  0.57104104174E+01  0.12371464384E+01 -0.35797971718E+01  0.68523183111E+01  0.00000000000E+00 0. -1.
</event>
<event>
 8    1  0.1021894E-011  0.9118800E+02  0.7816164E-02  0.1184000E+00
        -11   -1    0    0    0    0  0.00000000000E+00  0.00000000000E+00  0.45593999997E+02  0.45594000000E+02  0.51100000000E-03 0.  1.
         11   -1    0    0    0    0 -0.00000000000E+00 -0.00000000000E+00 -0.45593999997E+02  0.45594000000E+02  0.51100000000E-03 0. -1.
         23    2    1    2    0    0  0.00000000000E+00  0.00000000000E+00 -0.17763568394E-14  0.91188000000E+02  0.91188000000E+02 0.  0.
    9900012    2    3    3    0    0 -0.39573862162E+02  0.20039444035E+01  0.91134653139E+01  0.50528909877E+02  0.30000152061E+02 0.  0.
        -12    1    3    3    0    0  0.39573862162E+02 -0.20039444035E+01 -0.91134653139E+01  0.40659090123E+02  0.00000000000E+00 0.  1.
         11    1    4    4    0    0 -0.99719821507E+01 -0.12173161666E+01 -0.68201886802E+01  0.12142374585E+02  0.51100000000E-03 0. -1.
        -11    1    4    4    0    0 -0.38784137778E+01  0.95787989292E+00  0.11515073810E+02  0.12188377761E+02  0.51100000000E-03 0.  1.
         12    1    4    4    0    0 -0.25723466234E+02  0.22633806771E+01  0.44185801837E+01  0.26198157531E+02  0.00000000000E+00 0. -1.
</event>
<event>
 8    1  0.1021894E-011  0.9118800E+02  0.7816164E-02  0.1184000E+00
        -11   -1    0    0    0    0  0.00000000000E+00  0.00000000000E+00  0.45593999997E+02  0.45594000000E+02  0.51100000000E-03 0. -1.
         11   -1    0    0    0    0 -0.00000000000E+00 -0.00000000000E+00 -0.45593999997E+02  0.45594000000E+02  0.51100000000E-03 0.  1.
         23    2    1    2    0    0 -0.35527136788E-14  0.00000000000E+00  0.00000000000E+00  0.91188000000E+02  0.91188000000E+02 0.  0.
    9900012    2    3    3    0    0  0.28656362593E+02 -0.70336266312E+01 -0.27973322679E+02  0.50528858318E+02  0.29999995343E+02 0.  0.
         12    1    3    3    0    0 -0.28656362593E+02  0.70336266312E+01  0.27973322679E+02  0.40659141682E+02  0.00000000000E+00 0. -1.
         11    1    4    4    0    0  0.11888808930E+02 -0.71960294481E+01  0.27680211498E+01  0.14169987965E+02  0.51100000000E-03 0. -1.
        -11    1    4    4    0    0  0.14989324807E+02 -0.33616950364E+01 -0.25891803027E+02  0.30105918287E+02  0.51100000000E-03 0.  1.
         12    1    4    4    0    0  0.17782288561E+01  0.35240978533E+01 -0.48495408018E+01  0.62529520654E+01  0.00000000000E+00 0. -1.
</event>
<event>
 8    1  0.1021894E-011  0.9118800E+02  0.7816164E-02  0.1184000E+00
        -11   -1    0    0    0    0  0.00000000000E+00  0.00000000000E+00  0.45593999997E+02  0.45594000000E+02  0.51100000000E-03 0. -1.
         11   -1    0    0    0    0 -0.00000000000E+00 -0.00000000000E+00 -0.45593999997E+02  0.45594000000E+02  0.51100000000E-03 0.  1.
         23    2    1    2    0    0  0.00000000000E+00  0.17763568394E-14 -0.17763568394E-14  0.91188000000E+02  0.91188000000E+02 0.  0.
    9900012    2    3    3    0    0 -0.38560098025E+02 -0.80866723682E+01 -0.10044430573E+02  0.50528855700E+02  0.29999987384E+02 0.  0.
         12    1    3    3    0    0  0.38560098025E+02  0.80866723682E+01  0.10044430573E+02  0.40659144300E+02  0.00000000000E+00 0. -1.
         11    1    4    4    0    0 -0.24767471009E+02  0.32181577820E+01 -0.73858131526E+01  0.26044853539E+02  0.51100000000E-03 0. -1.
        -11    1    4    4    0    0 -0.58658043212E+01 -0.10005059587E+02  0.56728696997E+01  0.12910860876E+02  0.51100000000E-03 0.  1.
        -12    1    4    4    0    0 -0.79268226951E+01 -0.12997705632E+01 -0.83314871197E+01  0.11573141284E+02  0.00000000000E+00 0.  1.
</event>
<event>
 8    1  0.1021894E-011  0.9118800E+02  0.7816164E-02  0.1184000E+00
        -11   -1    0    0    0    0  0.00000000000E+00  0.00000000000E+00  0.45593999997E+02  0.45594000000E+02  0.51100000000E-03 0. -1.
         11   -1    0    0    0    0 -0.00000000000E+00 -0.00000000000E+00 -0.45593999997E+02  0.45594000000E+02  0.51100000000E-03 0.  1.
         23    2    1    2    0    0  0.88817841970E-15  0.00000000000E+00  0.00000000000E+00  0.91188000000E+02  0.91188000000E+02 0.  0.
    9900012    2    3    3    0    0 -0.40622840211E+01  0.94693988436E+01  0.39331846640E+02  0.50528858026E+02  0.29999994456E+02 0.  0.
        -12    1    3    3    0    0  0.40622840211E+01 -0.94693988436E+01 -0.39331846640E+02  0.40659141974E+02  0.00000000000E+00 0.  1.
         11    1    4    4    0    0  0.12804481966E+02  0.34083649741E+01  0.12327009158E+02  0.18097703315E+02  0.51100000000E-03 0. -1.
        -11    1    4    4    0    0 -0.14305175775E+02  0.51537587872E+01  0.23610526198E+02  0.28083023897E+02  0.51100000000E-03 0.  1.
         12    1    4    4    0    0 -0.25615902121E+01  0.90727508229E+00  0.33943112838E+01  0.43481308146E+01  0.00000000000E+00 0. -1.
</event>
<event>
 8    1  0.1021894E-011  0.9118800E+02  0.7816164E-02  0.1184000E+00
        -11   -1    0    0    0    0  0.00000000000E+00  0.00000000000E+00  0.45593999997E+02  0.45594000000E+02  0.51100000000E-03 0. -1.
         11   -1    0    0    0    0 -0.00000000000E+00 -0.00000000000E+00 -0.45593999997E+02  0.45594000000E+02  0.51100000000E-03 0.  1.
         23    2    1    2    0    0  0.35527136788E-14  0.00000000000E+00 -0.71054273576E-14  0.91188000000E+02  0.91188000000E+02 0.  0.
    9900012    2    3    3    0    0  0.17669847880E+02 -0.84809560219E+01 -0.35623251626E+02  0.50528853482E+02  0.29999980645E+02 0.  0.
         12    1    3    3    0    0 -0.17669847880E+02  0.84809560219E+01  0.35623251626E+02  0.40659146518E+02  0.00000000000E+00 0. -1.
         11    1    4    4    0    0  0.17573427547E+02 -0.27013700304E+01 -0.10774582870E+02  0.20789766523E+02  0.51100000000E-03 0. -1.
        -11    1    4    4    0    0 -0.16723832386E+01 -0.10175453378E+02 -0.10887866737E+02  0.14996078137E+02  0.51100000000E-03 0.  1.
        -12    1    4    4    0    0  0.17688035719E+01  0.43958673860E+01 -0.13960802018E+02  0.14743008823E+02  0.00000000000E+00 0.  1.
</event>
<event>
 8    1  0.1021894E-011  0.9118800E+02  0.7816164E-02  0.1184000E+00
        -11   -1    0    0    0    0  0.00000000000E+00  0.00000000000E+00  0.45593999997E+02  0.45594000000E+02  0.51100000000E-03 0. -1.
         11   -1    0    0    0    0 -0.00000000000E+00 -0.00000000000E+00 -0.45593999997E+02  0.45594000000E+02  0.51100000000E-03 0.  1.
         23    2    1    2    0    0 -0.35527136788E-14  0.41633363423E-15  0.00000000000E+00  0.91188000000E+02  0.91188000000E+02 0.  0.
    9900012    2    3    3    0    0  0.23115626011E+02 -0.17139495501E+00 -0.33448602532E+02  0.50528799891E+02  0.29999817749E+02 0.  0.
         12    1    3    3    0    0 -0.23115626011E+02  0.17139495501E+00  0.33448602532E+02  0.40659200109E+02  0.00000000000E+00 0. -1.
         11    1    4    4    0    0 -0.94549303148E+00 -0.55507278802E+01 -0.10055471790E+02  0.11524627988E+02  0.51100000000E-03 0. -1.
        -11    1    4    4    0    0  0.17388693058E+02  0.10303209224E+02 -0.84354311323E+01  0.21901581341E+02  0.51100000000E-03 0.  1.
         12    1    4    4    0    0  0.66724259852E+01 -0.49238762992E+01 -0.14957699610E+02  0.17102590563E+02  0.00000000000E+00 0. -1.
</event>
<event>
 8    1  0.1021894E-011  0.9118800E+02  0.7816164E-02  0.1184000E+00
        -11   -1    0    0    0    0  0.00000000000E+00  0.00000000000E+00  0.45593999997E+02  0.45594000000E+02  0.51100000000E-03 0. -1.
         11   -1    0    0    0    0 -0.00000000000E+00 -0.00000000000E+00 -0.45593999997E+02  0.45594000000E+02  0.51100000000E-03 0.  1.
         23    2    1    2    0    0 -0.13322676296E-14 -0.35527136788E-14  0.71054273576E-14  0.91188000000E+02  0.91188000000E+02 0.  0.
    9900012    2    3    3    0    0  0.14744515578E+01  0.18981880619E+02 -0.35925999834E+02  0.50528889541E+02  0.30000090249E+02 0.  0.
         12    1    3    3    0    0 -0.14744515578E+01 -0.18981880619E+02  0.35925999834E+02  0.40659110459E+02  0.00000000000E+00 0. -1.
         11    1    4    4    0    0  0.88107300381E-01 -0.35773788320E+01  0.11318721961E+01  0.37532035827E+01  0.51100000000E-03 0. -1.
        -11    1    4    4    0    0  0.81655057909E+01  0.14472655783E+02 -0.29279737455E+02  0.33666545352E+02  0.51100000000E-03 0.  1.
        -12    1    4    4    0    0 -0.67791615335E+01  0.80866036671E+01 -0.77781345758E+01  0.13109140607E+02  0.00000000000E+00 0.  1.
</event>
<event>
 8    1  0.1021894E-011  0.9118800E+02  0.7816164E-02  0.1184000E+00
        -11   -1    0    0    0    0  0.00000000000E+00  0.00000000000E+00  0.45593999997E+02  0.45594000000E+02  0.51100000000E-03 0. -1.
         11   -1    0    0    0    0 -0.00000000000E+00 -0.00000000000E+00 -0.45593999997E+02  0.45594000000E+02  0.51100000000E-03 0.  1.
         23    2    1    2    0    0 -0.88817841970E-15  0.00000000000E+00  0.00000000000E+00  0.91188000000E+02  0.91188000000E+02 0.  0.
    9900012    2    3    3    0    0 -0.37588349135E+01  0.29975109657E+02  0.27212620205E+02  0.50528896010E+02  0.30000109912E+02 0.  0.
        -12    1    3    3    0    0  0.37588349135E+01 -0.29975109657E+02 -0.27212620205E+02  0.40659103990E+02  0.00000000000E+00 0.  1.
         11    1    4    4    0    0 -0.10820235240E+02  0.23909352182E+02  0.24139931673E+02  0.35657690809E+02  0.51100000000E-03 0. -1.
        -11    1    4    4    0    0  0.83742426622E+01  0.32241436448E-01  0.16702253900E+01  0.85392407619E+01  0.51100000000E-03 0.  1.
        -12    1    4    4    0    0 -0.13128423360E+01  0.60335160391E+01  0.14024631417E+01  0.63319644391E+01  0.00000000000E+00 0.  1.
</event>
<event>
 8    1  0.1021894E-011  0.9118800E+02  0.7816164E-02  0.1184000E+00
        -11   -1    0    0    0    0  0.00000000000E+00  0.00000000000E+00  0.45593999997E+02  0.45594000000E+02  0.51100000000E-03 0. -1.
         11   -1    0    0    0    0 -0.00000000000E+00 -0.00000000000E+00 -0.45593999997E+02  0.45594000000E+02  0.51100000000E-03 0.  1.
         23    2    1    2    0    0 -0.17763568394E-14  0.00000000000E+00  0.00000000000E+00  0.91188000000E+02  0.91188000000E+02 0.  0.
    9900012    2    3    3    0    0 -0.91773109452E+01 -0.38091941083E+02  0.10860278926E+02  0.50528872243E+02  0.30000037670E+02 0.  0.
        -12    1    3    3    0    0  0.91773109452E+01  0.38091941083E+02 -0.10860278926E+02  0.40659127757E+02  0.00000000000E+00 0.  1.
         11    1    4    4    0    0 -0.15909745379E+02 -0.21342149908E+02  0.47885671896E+01  0.27046954297E+02  0.51100000000E-03 0. -1.
        -11    1    4    4    0    0  0.65989212540E+01 -0.11819787278E+01 -0.17708121483E+00  0.67062801498E+01  0.51100000000E-03 0.  1.
         12    1    4    4    0    0  0.13351317986E+00 -0.15567812447E+02  0.62487929508E+01  0.16775637797E+02  0.00000000000E+00 0. -1.
</event>
<event>
 8    1  0.1330336E-011  0.9118800E+02  0.7816164E-02  0.1184000E+00
        -11   -1    0    0    0    0  0.00000000000E+00  0.00000000000E+00  0.45593999997E+02  0.45594000000E+02  0.51100000000E-03 0. -1.
         11   -1    0    0    0    0 -0.00000000000E+00 -0.00000000000E+00 -0.45593999997E+02  0.45594000000E+02  0.51100000000E-03 0.  1.
         23    2    1    2    0    0  0.17763568394E-14  0.00000000000E+00  0.00000000000E+00  0.91188000000E+02  0.91188000000E+02 0.  0.
    9900012    2    3    3    0    0 -0.11309552383E+02 -0.12881274463E+02 -0.36869121807E+02  0.50528863884E+02  0.30000012260E+02 0.  0.
         12    1    3    3    0    0  0.11309552383E+02  0.12881274463E+02  0.36869121807E+02  0.40659136116E+02  0.00000000000E+00 0. -1.
         11    1    4    4    0    0  0.38192760238E+01  0.48995575810E+01 -0.15794766364E+02  0.16972541901E+02  0.51100000000E-03 0. -1.
        -11    1    4    4    0    0 -0.50177989124E+01 -0.12051058049E+02 -0.16565129351E+02  0.21090514852E+02  0.51100000000E-03 0.  1.
         12    1    4    4    0    0 -0.10111029495E+02 -0.57297739948E+01 -0.45092260927E+01  0.12465807131E+02  0.00000000000E+00 0. -1.
</event>
<event>
 8    1  0.1021894E-011  0.9118800E+02  0.7816164E-02  0.1184000E+00
        -11   -1    0    0    0    0  0.00000000000E+00  0.00000000000E+00  0.45593999997E+02  0.45594000000E+02  0.51100000000E-03 0. -1.
         11   -1    0    0    0    0 -0.00000000000E+00 -0.00000000000E+00 -0.45593999997E+02  0.45594000000E+02  0.51100000000E-03 0.  1.
         23    2    1    2    0    0 -0.17763568394E-14  0.88817841970E-15  0.71054273576E-14  0.91188000000E+02  0.91188000000E+02 0.  0.
    9900012    2    3    3    0    0 -0.13767104248E+02  0.55837010915E+01  0.37847777551E+02  0.50528866429E+02  0.30000019996E+02 0.  0.
        -12    1    3    3    0    0  0.13767104248E+02 -0.55837010915E+01 -0.37847777551E+02  0.40659133571E+02  0.00000000000E+00 0.  1.
         11    1    4    4    0    0  0.60128496283E+01  0.43695538777E+01  0.19853727976E+02  0.21199478214E+02  0.51100000000E-03 0. -1.
        -11    1    4    4    0    0 -0.14313193075E+02 -0.45275707684E+01  0.97998153685E+01  0.17927709686E+02  0.51100000000E-03 0.  1.
        -12    1    4    4    0    0 -0.54667608015E+01  0.57417179822E+01  0.81942342067E+01  0.11401678529E+02  0.00000000000E+00 0.  1.
</event>
<event>
 8    1  0.1021894E-011  0.9118800E+02  0.7816164E-02  0.1184000E+00
        -11   -1    0    0    0    0  0.00000000000E+00  0.00000000000E+00  0.45593999997E+02  0.45594000000E+02  0.51100000000E-03 0. -1.
         11   -1    0    0    0    0 -0.00000000000E+00 -0.00000000000E+00 -0.45593999997E+02  0.45594000000E+02  0.51100000000E-03 0.  1.
         23    2    1    2    0    0 -0.22204460493E-15  0.35527136788E-14  0.00000000000E+00  0.91188000000E+02  0.91188000000E+02 0.  0.
    9900012    2    3    3    0    0 -0.15770494282E+01 -0.28819874642E+02 -0.28637269126E+02  0.50528862745E+02  0.30000008800E+02 0.  0.
         12    1    3    3    0    0  0.15770494282E+01  0.28819874642E+02  0.28637269126E+02  0.40659137255E+02  0.00000000000E+00 0. -1.
         11    1    4    4    0    0  0.73025453898E+00 -0.10175081507E+02 -0.28734905116E+02  0.30491971527E+02  0.51100000000E-03 0.  1.
        -11    1    4    4    0    0  0.14190172246E+01 -0.12080355242E+02  0.18084337238E+01  0.12297114517E+02  0.51100000000E-03 0. -1.
        -12    1    4    4    0    0 -0.37263211918E+01 -0.65644378936E+01 -0.17107977348E+01  0.77397767004E+01  0.00000000000E+00 0.  1.
</event>
<event>
 8    1  0.1021894E-011  0.9118800E+02  0.7816164E-02  0.1184000E+00
        -11   -1    0    0    0    0  0.00000000000E+00  0.00000000000E+00  0.45593999997E+02  0.45594000000E+02  0.51100000000E-03 0. -1.
         11   -1    0    0    0    0 -0.00000000000E+00 -0.00000000000E+00 -0.45593999997E+02  0.45594000000E+02  0.51100000000E-03 0.  1.
         23    2    1    2    0    0 -0.44408920985E-15  0.00000000000E+00  0.00000000000E+00  0.91188000000E+02  0.91188000000E+02 0.  0.
    9900012    2    3    3    0    0 -0.37140791461E+01  0.15156529216E+02  0.37545301854E+02  0.50528874910E+02  0.30000045777E+02 0.  0.
        -12    1    3    3    0    0  0.37140791461E+01 -0.15156529216E+02 -0.37545301854E+02  0.40659125090E+02  0.00000000000E+00 0.  1.
         11    1    4    4    0    0 -0.20402850118E+01 -0.80792158379E+01  0.13195158317E+02  0.15606046737E+02  0.51100000000E-03 0. -1.
        -11    1    4    4    0    0  0.23838860673E+01  0.12300721859E+02  0.17065537134E+02  0.21171283121E+02  0.51100000000E-03 0.  1.
         12    1    4    4    0    0 -0.40576802016E+01  0.10935023195E+02  0.72846064022E+01  0.13751545052E+02  0.00000000000E+00 0. -1.
</event>
<event>
 8    1  0.1021894E-011  0.9118800E+02  0.7816164E-02  0.1184000E+00
        -11   -1    0    0    0    0  0.00000000000E+00  0.00000000000E+00  0.45593999997E+02  0.45594000000E+02  0.51100000000E-03 0. -1.
         11   -1    0    0    0    0 -0.00000000000E+00 -0.00000000000E+00 -0.45593999997E+02  0.45594000000E+02  0.51100000000E-03 0.  1.
         23    2    1    2    0    0  0.35527136788E-14 -0.17763568394E-14  0.00000000000E+00  0.91188000000E+02  0.91188000000E+02 0.  0.
    9900012    2    3    3    0    0  0.22195424002E+02 -0.88562795672E+01  0.32895216295E+02  0.50528858475E+02  0.29999995822E+02 0.  0.
        -12    1    3    3    0    0 -0.22195424002E+02  0.88562795672E+01 -0.32895216295E+02  0.40659141525E+02  0.00000000000E+00 0.  1.
         11    1    4    4    0    0  0.74534763058E+01  0.64080956466E+01  0.13756885549E+02  0.16907687575E+02  0.51100000000E-03 0. -1.
        -11    1    4    4    0    0  0.18270677470E+02 -0.14317730665E+02  0.18945771809E+02  0.29962598958E+02  0.51100000000E-03 0.  1.
        -12    1    4    4    0    0 -0.35287297740E+01 -0.94664454920E+00  0.19255893785E+00  0.36585719434E+01  0.00000000000E+00 0.  1.
</event>
<event>
 8    1  0.1021894E-011  0.9118800E+02  0.7816164E-02  0.1184000E+00
        -11   -1    0    0    0    0  0.00000000000E+00  0.00000000000E+00  0.45593999997E+02  0.45594000000E+02  0.51100000000E-03 0.  1.
         11   -1    0    0    0    0 -0.00000000000E+00 -0.00000000000E+00 -0.45593999997E+02  0.45594000000E+02  0.51100000000E-03 0. -1.
         23    2    1    2    0    0 -0.71054273576E-14  0.88817841970E-15  0.00000000000E+00  0.91188000000E+02  0.91188000000E+02 0.  0.
    9900012    2    3    3    0    0 -0.36183969415E+02  0.37733391650E+01  0.18155936247E+02  0.50528981909E+02  0.30000371010E+02 0.  0.
        -12    1    3    3    0    0  0.36183969415E+02 -0.37733391650E+01 -0.18155936247E+02  0.40659018091E+02  0.00000000000E+00 0.  1.
         11    1    4    4    0    0 -0.14685877275E+02 -0.55835979087E+01  0.72945474994E+01  0.17322297204E+02  0.51100000000E-03 0. -1.
        -11    1    4    4    0    0 -0.21570572343E+02  0.12241731227E+02  0.14369561067E+02  0.28664156366E+02  0.51100000000E-03 0.  1.
        -12    1    4    4    0    0  0.72480202631E-01 -0.28847941536E+01 -0.35081723200E+01  0.45425283395E+01  0.00000000000E+00 0.  1.
</event>
<event>
 8    1  0.1021894E-011  0.9118800E+02  0.7816164E-02  0.1184000E+00
        -11   -1    0    0    0    0  0.00000000000E+00  0.00000000000E+00  0.45593999997E+02  0.45594000000E+02  0.51100000000E-03 0. -1.
         11   -1    0    0    0    0 -0.00000000000E+00 -0.00000000000E+00 -0.45593999997E+02  0.45594000000E+02  0.51100000000E-03 0.  1.
         23    2    1    2    0    0 -0.35527136788E-14 -0.35527136788E-14  0.00000000000E+00  0.91188000000E+02  0.91188000000E+02 0.  0.
    9900012    2    3    3    0    0 -0.28782258945E+02  0.24235274949E+02 -0.15407728187E+02  0.50528867327E+02  0.30000022728E+02 0.  0.
         12    1    3    3    0    0  0.28782258945E+02 -0.24235274949E+02  0.15407728187E+02  0.40659132673E+02  0.00000000000E+00 0. -1.
         11    1    4    4    0    0 -0.46368337801E+01  0.91554010456E+00  0.40637660277E+01  0.62331882514E+01  0.51100000000E-03 0. -1.
        -11    1    4    4    0    0 -0.64173244055E+01  0.25941699310E+01 -0.15184143473E+02  0.16687419916E+02  0.51100000000E-03 0.  1.
        -12    1    4    4    0    0 -0.17728100759E+02  0.20725564913E+02 -0.42873507414E+01  0.27608259161E+02  0.00000000000E+00 0.  1.
</event>
<event>
 8    1  0.1021894E-011  0.9118800E+02  0.7816164E-02  0.1184000E+00
        -11   -1    0    0    0    0  0.00000000000E+00  0.00000000000E+00  0.45593999997E+02  0.45594000000E+02  0.51100000000E-03 0. -1.
         11   -1    0    0    0    0 -0.00000000000E+00 -0.00000000000E+00 -0.45593999997E+02  0.45594000000E+02  0.51100000000E-03 0.  1.
         23    2    1    2    0    0 -0.17763568394E-14  0.00000000000E+00  0.00000000000E+00  0.91188000000E+02  0.91188000000E+02 0.  0.
    9900012    2    3    3    0    0 -0.13005291873E+02  0.10781225816E+02  0.36983686643E+02  0.50528861734E+02  0.30000005726E+02 0.  0.
        -12    1    3    3    0    0  0.13005291873E+02 -0.10781225816E+02 -0.36983686643E+02  0.40659138266E+02  0.00000000000E+00 0.  1.
         11    1    4    4    0    0 -0.20911014481E+02  0.82601997836E+01  0.16726179430E+02  0.28022607046E+02  0.51100000000E-03 0. -1.
        -11    1    4    4    0    0  0.30350050568E+01  0.35627958729E+01  0.78941908231E+01  0.91773100165E+01  0.51100000000E-03 0.  1.
         12    1    4    4    0    0  0.48707175514E+01 -0.10417698404E+01  0.12363316391E+02  0.13328944671E+02  0.00000000000E+00 0. -1.
</event>
<event>
 8    1  0.1021894E-011  0.9118800E+02  0.7816164E-02  0.1184000E+00
        -11   -1    0    0    0    0  0.00000000000E+00  0.00000000000E+00  0.45593999997E+02  0.45594000000E+02  0.51100000000E-03 0. -1.
         11   -1    0    0    0    0 -0.00000000000E+00 -0.00000000000E+00 -0.45593999997E+02  0.45594000000E+02  0.51100000000E-03 0.  1.
         23    2    1    2    0    0  0.88817841970E-15  0.00000000000E+00  0.71054273576E-14  0.91188000000E+02  0.91188000000E+02 0.  0.
    9900012    2    3    3    0    0 -0.56201151761E+01  0.11525518990E+02 -0.38584307747E+02  0.50528781035E+02  0.29999760432E+02 0.  0.
         12    1    3    3    0    0  0.56201151761E+01 -0.11525518990E+02  0.38584307747E+02  0.40659218965E+02  0.00000000000E+00 0. -1.
         11    1    4    4    0    0 -0.23729015978E+01  0.16747723556E+02 -0.97654559427E+01  0.19531539528E+02  0.51100000000E-03 0. -1.
        -11    1    4    4    0    0 -0.27445144342E-01 -0.52338775099E+01 -0.26543536557E+02  0.27054640272E+02  0.51100000000E-03 0.  1.
         12    1    4    4    0    0 -0.32197684340E+01  0.11672944162E-01 -0.22753152472E+01  0.39426012352E+01  0.00000000000E+00 0. -1.
</event>
<event>
 8    1  0.1021894E-011  0.9118800E+02  0.7816164E-02  0.1184000E+00
        -11   -1    0    0    0    0  0.00000000000E+00  0.00000000000E+00  0.45593999997E+02  0.45594000000E+02  0.51100000000E-03 0. -1.
         11   -1    0    0    0    0 -0.00000000000E+00 -0.00000000000E+00 -0.45593999997E+02  0.45594000000E+02  0.51100000000E-03 0.  1.
         23    2    1    2    0    0  0.00000000000E+00  0.00000000000E+00 -0.17763568394E-14  0.91188000000E+02  0.91188000000E+02 0.  0.
    9900012    2    3    3    0    0 -0.13820338447E+02  0.36179531571E+02 -0.12377618553E+02  0.50528859570E+02  0.29999999148E+02 0.  0.
         12    1    3    3    0    0  0.13820338447E+02 -0.36179531571E+02  0.12377618553E+02  0.40659140430E+02  0.00000000000E+00 0. -1.
         11    1    4    4    0    0  0.65657069533E+00  0.16312296721E+01 -0.94770124354E+01  0.96387634209E+01  0.51100000000E-03 0. -1.
        -11    1    4    4    0    0 -0.29205744293E+01  0.21624350590E+02 -0.72894369100E+01  0.23006046687E+02  0.51100000000E-03 0.  1.
         12    1    4    4    0    0 -0.11556334713E+02  0.12923951309E+02  0.43888307926E+01  0.17884049462E+02  0.00000000000E+00 0. -1.
</event>
<event>
 8    1  0.1021894E-011  0.9118800E+02  0.7816164E-02  0.1184000E+00
        -11   -1    0    0    0    0  0.00000000000E+00  0.00000000000E+00  0.45593999997E+02  0.45594000000E+02  0.51100000000E-03 0. -1.
         11   -1    0    0    0    0 -0.00000000000E+00 -0.00000000000E+00 -0.45593999997E+02  0.45594000000E+02  0.51100000000E-03 0.  1.
         23    2    1    2    0    0 -0.35527136788E-14  0.17763568394E-14  0.00000000000E+00  0.91188000000E+02  0.91188000000E+02 0.  0.
    9900012    2    3    3    0    0  0.31388650052E+02  0.10339814139E+02 -0.23685609963E+02  0.50528840788E+02  0.29999942058E+02 0.  0.
         12    1    3    3    0    0 -0.31388650052E+02 -0.10339814139E+02  0.23685609963E+02  0.40659159212E+02  0.00000000000E+00 0. -1.
         11    1    4    4    0    0  0.45315669305E+00  0.30621827275E+01  0.17329471720E+01  0.35475935798E+01  0.51100000000E-03 0. -1.
        -11    1    4    4    0    0  0.20928463429E+02 -0.64825382338E+01 -0.18265388767E+02  0.28524521215E+02  0.51100000000E-03 0.  1.
        -12    1    4    4    0    0  0.10007029930E+02  0.13760169645E+02 -0.71531683687E+01  0.18456725993E+02  0.00000000000E+00 0.  1.
</event>
<event>
 8    1  0.1021894E-011  0.9118800E+02  0.7816164E-02  0.1184000E+00
        -11   -1    0    0    0    0  0.00000000000E+00  0.00000000000E+00  0.45593999997E+02  0.45594000000E+02  0.51100000000E-03 0. -1.
         11   -1    0    0    0    0 -0.00000000000E+00 -0.00000000000E+00 -0.45593999997E+02  0.45594000000E+02  0.51100000000E-03 0.  1.
         23    2    1    2    0    0  0.71054273576E-14  0.00000000000E+00  0.00000000000E+00  0.91188000000E+02  0.91188000000E+02 0.  0.
    9900012    2    3    3    0    0 -0.31191878909E+02 -0.15846056307E+02  0.20715579577E+02  0.50528855302E+02  0.29999986176E+02 0.  0.
        -12    1    3    3    0    0  0.31191878909E+02  0.15846056307E+02 -0.20715579577E+02  0.40659144698E+02  0.00000000000E+00 0.  1.
         11    1    4    4    0    0 -0.21211220922E+02 -0.11934118452E+02  0.13888222601E+02  0.28021809426E+02  0.51100000000E-03 0. -1.
        -11    1    4    4    0    0 -0.46082475418E+01  0.13941848572E+00 -0.62698670066E+01  0.77824556190E+01  0.51100000000E-03 0.  1.
        -12    1    4    4    0    0 -0.53724104449E+01 -0.40513563405E+01  0.13097223982E+02  0.14724590257E+02  0.00000000000E+00 0.  1.
</event>
<event>
 8    1  0.1021894E-011  0.9118800E+02  0.7816164E-02  0.1184000E+00
        -11   -1    0    0    0    0  0.00000000000E+00  0.00000000000E+00  0.45593999997E+02  0.45594000000E+02  0.51100000000E-03 0. -1.
         11   -1    0    0    0    0 -0.00000000000E+00 -0.00000000000E+00 -0.45593999997E+02  0.45594000000E+02  0.51100000000E-03 0.  1.
         23    2    1    2    0    0  0.17763568394E-14 -0.35527136788E-14 -0.35527136788E-14  0.91188000000E+02  0.91188000000E+02 0.  0.
    9900012    2    3    3    0    0 -0.11509135122E+02  0.27370897953E+02  0.27776596609E+02  0.50528861234E+02  0.30000004208E+02 0.  0.
        -12    1    3    3    0    0  0.11509135122E+02 -0.27370897953E+02 -0.27776596609E+02  0.40659138766E+02  0.00000000000E+00 0.  1.
         11    1    4    4    0    0  0.36329992468E+01  0.24867990125E+01  0.69608858905E+01  0.82363089729E+01  0.51100000000E-03 0. -1.
        -11    1    4    4    0    0 -0.95460621896E+01  0.16491446554E+01 -0.12459237004E+01  0.97672569102E+01  0.51100000000E-03 0.  1.
        -12    1    4    4    0    0 -0.55960721792E+01  0.23234954285E+02  0.22061634419E+02  0.32525295351E+02  0.00000000000E+00 0.  1.
</event>
<event>
 8    1  0.1021894E-011  0.9118800E+02  0.7816164E-02  0.1184000E+00
        -11   -1    0    0    0    0  0.00000000000E+00  0.00000000000E+00  0.45593999997E+02  0.45594000000E+02  0.51100000000E-03 0. -1.
         11   -1    0    0    0    0 -0.00000000000E+00 -0.00000000000E+00 -0.45593999997E+02  0.45594000000E+02  0.51100000000E-03 0.  1.
         23    2    1    2    0    0  0.00000000000E+00  0.35527136788E-14  0.00000000000E+00  0.91188000000E+02  0.91188000000E+02 0.  0.
    9900012    2    3    3    0    0  0.15650772423E+02 -0.17280860317E+02  0.33310545109E+02  0.50528840808E+02  0.29999942120E+02 0.  0.
        -12    1    3    3    0    0 -0.15650772423E+02  0.17280860317E+02 -0.33310545109E+02  0.40659159192E+02  0.00000000000E+00 0.  1.
         11    1    4    4    0    0  0.28884571827E+01  0.48327439074E+01 -0.12839999904E+01  0.57747082010E+01  0.51100000000E-03 0.  1.
        -11    1    4    4    0    0  0.12206003334E+02 -0.17092232390E+02  0.18859220214E+02  0.28227665734E+02  0.51100000000E-03 0. -1.
        -12    1    4    4    0    0  0.55631190617E+00 -0.50213718345E+01  0.15735324886E+02  0.16526466873E+02  0.00000000000E+00 0.  1.
</event>
<event>
 8    1  0.1021894E-011  0.9118800E+02  0.7816164E-02  0.1184000E+00
        -11   -1    0    0    0    0  0.00000000000E+00  0.00000000000E+00  0.45593999997E+02  0.45594000000E+02  0.51100000000E-03 0. -1.
         11   -1    0    0    0    0 -0.00000000000E+00 -0.00000000000E+00 -0.45593999997E+02  0.45594000000E+02  0.51100000000E-03 0.  1.
         23    2    1    2    0    0  0.00000000000E+00  0.00000000000E+00  0.00000000000E+00  0.91188000000E+02  0.91188000000E+02 0.  0.
    9900012    2    3    3    0    0 -0.81069787542E+01 -0.18674819411E+02 -0.35195083112E+02  0.50528857611E+02  0.29999993194E+02 0.  0.
         12    1    3    3    0    0  0.81069787542E+01  0.18674819411E+02  0.35195083112E+02  0.40659142389E+02  0.00000000000E+00 0. -1.
         11    1    4    4    0    0 -0.90665364113E+01 -0.93272391375E+01 -0.30104940499E+02  0.32794922094E+02  0.51100000000E-03 0.  1.
        -11    1    4    4    0    0  0.27218867990E+01  0.31536214483E+01 -0.12449678810E+00  0.41676726956E+01  0.51100000000E-03 0. -1.
        -12    1    4    4    0    0 -0.17623291419E+01 -0.12501201722E+02 -0.49656458252E+01  0.13566262822E+02  0.00000000000E+00 0.  1.
</event>
<event>
 8    1  0.1021894E-011  0.9118800E+02  0.7816164E-02  0.1184000E+00
        -11   -1    0    0    0    0  0.00000000000E+00  0.00000000000E+00  0.45593999997E+02  0.45594000000E+02  0.51100000000E-03 0.  1.
         11   -1    0    0    0    0 -0.00000000000E+00 -0.00000000000E+00 -0.45593999997E+02  0.45594000000E+02  0.51100000000E-03 0. -1.
         23    2    1    2    0    0  0.00000000000E+00  0.00000000000E+00  0.00000000000E+00  0.91188000000E+02  0.91188000000E+02 0.  0.
    9900012    2    3    3    0    0  0.90851629225E+01  0.35904401407E+02  0.16777947794E+02  0.50528858864E+02  0.29999997004E+02 0.  0.
        -12    1    3    3    0    0 -0.90851629225E+01 -0.35904401407E+02 -0.16777947794E+02  0.40659141136E+02  0.00000000000E+00 0.  1.
         11    1    4    4    0    0  0.11048252779E+02  0.23270336704E+02  0.24154292813E+02  0.35312920034E+02  0.51100000000E-03 0. -1.
        -11    1    4    4    0    0 -0.26485310344E+01  0.95231789741E+01 -0.67499284826E+01  0.11969427271E+02  0.51100000000E-03 0.  1.
         12    1    4    4    0    0  0.68544117807E+00  0.31108857288E+01 -0.62641653666E+00  0.32465115591E+01  0.00000000000E+00 0. -1.
</event>
<event>
 8    1  0.1021894E-011  0.9118800E+02  0.7816164E-02  0.1184000E+00
        -11   -1    0    0    0    0  0.00000000000E+00  0.00000000000E+00  0.45593999997E+02  0.45594000000E+02  0.51100000000E-03 0.  1.
         11   -1    0    0    0    0 -0.00000000000E+00 -0.00000000000E+00 -0.45593999997E+02  0.45594000000E+02  0.51100000000E-03 0. -1.
         23    2    1    2    0    0 -0.88817841970E-15  0.00000000000E+00 -0.17763568394E-14  0.91188000000E+02  0.91188000000E+02 0.  0.
    9900012    2    3    3    0    0 -0.35510041609E+01  0.39130292324E+02 -0.10458370375E+02  0.50528844588E+02  0.29999953610E+02 0.  0.
         12    1    3    3    0    0  0.35510041609E+01 -0.39130292324E+02  0.10458370375E+02  0.40659155412E+02  0.00000000000E+00 0. -1.
         11    1    4    4    0    0 -0.25321668336E+00 -0.24724568515E+01  0.45100516306E+00  0.25259785212E+01  0.51100000000E-03 0. -1.
        -11    1    4    4    0    0  0.16074180590E+01  0.30766571242E+02  0.14589400841E+01  0.30843057650E+02  0.51100000000E-03 0.  1.
        -12    1    4    4    0    0 -0.49052055366E+01  0.10836177934E+02 -0.12368315622E+02  0.17159808416E+02  0.00000000000E+00 0.  1.
</event>
<event>
 8    1  0.1021894E-011  0.9118800E+02  0.7816164E-02  0.1184000E+00
        -11   -1    0    0    0    0  0.00000000000E+00  0.00000000000E+00  0.45593999997E+02  0.45594000000E+02  0.51100000000E-03 0. -1.
         11   -1    0    0    0    0 -0.00000000000E+00 -0.00000000000E+00 -0.45593999997E+02  0.45594000000E+02  0.51100000000E-03 0.  1.
         23    2    1    2    0    0 -0.88817841970E-15  0.00000000000E+00  0.00000000000E+00  0.91188000000E+02  0.91188000000E+02 0.  0.
    9900012    2    3    3    0    0 -0.46802188699E+01 -0.10559027565E+02  0.38984203050E+02  0.50528860815E+02  0.30000002934E+02 0.  0.
        -12    1    3    3    0    0  0.46802188699E+01  0.10559027565E+02 -0.38984203050E+02  0.40659139185E+02  0.00000000000E+00 0.  1.
         11    1    4    4    0    0  0.29795528485E+01 -0.75602366764E+01  0.17756715562E+02  0.19527822756E+02  0.51100000000E-03 0. -1.
        -11    1    4    4    0    0 -0.13465295783E+02 -0.42655441745E+01  0.20666844908E+02  0.25032529563E+02  0.51100000000E-03 0.  1.
        -12    1    4    4    0    0  0.58055240651E+01  0.12667532857E+01  0.56064258016E+00  0.59685084954E+01  0.00000000000E+00 0.  1.
</event>
<event>
 8    1  0.1021894E-011  0.9118800E+02  0.7816164E-02  0.1184000E+00
        -11   -1    0    0    0    0  0.00000000000E+00  0.00000000000E+00  0.45593999997E+02  0.45594000000E+02  0.51100000000E-03 0. -1.
         11   -1    0    0    0    0 -0.00000000000E+00 -0.00000000000E+00 -0.45593999997E+02  0.45594000000E+02  0.51100000000E-03 0.  1.
         23    2    1    2    0    0 -0.17763568394E-14  0.88817841970E-15  0.00000000000E+00  0.91188000000E+02  0.91188000000E+02 0.  0.
    9900012    2    3    3    0    0 -0.73758292153E+01 -0.69360727980E+01  0.39378330331E+02  0.50528869880E+02  0.30000030486E+02 0.  0.
        -12    1    3    3    0    0  0.73758292153E+01  0.69360727980E+01 -0.39378330331E+02  0.40659130120E+02  0.00000000000E+00 0.  1.
         11    1    4    4    0    0 -0.57089524674E+01 -0.67387323636E+01  0.15015817248E+02  0.17420603320E+02  0.51100000000E-03 0. -1.
        -11    1    4    4    0    0  0.94527980247E+01  0.29280322326E+01  0.65107724514E+01  0.11845628790E+02  0.51100000000E-03 0.  1.
        -12    1    4    4    0    0 -0.11119674773E+02 -0.31253726670E+01  0.17851740632E+02  0.21262637770E+02  0.00000000000E+00 0.  1.
</event>
<event>
 8    1  0.1021894E-011  0.9118800E+02  0.7816164E-02  0.1184000E+00
        -11   -1    0    0    0    0  0.00000000000E+00  0.00000000000E+00  0.45593999997E+02  0.45594000000E+02  0.51100000000E-03 0. -1.
         11   -1    0    0    0    0 -0.00000000000E+00 -0.00000000000E+00 -0.45593999997E+02  0.45594000000E+02  0.51100000000E-03 0.  1.
         23    2    1    2    0    0 -0.35527136788E-14  0.35527136788E-14  0.00000000000E+00  0.91188000000E+02  0.91188000000E+02 0.  0.
    9900012    2    3    3    0    0 -0.22373085773E+02  0.21448617512E+02  0.26316687784E+02  0.50528853229E+02  0.29999979876E+02 0.  0.
        -12    1    3    3    0    0  0.22373085773E+02 -0.21448617512E+02 -0.26316687784E+02  0.40659146771E+02  0.00000000000E+00 0.  1.
         11    1    4    4    0    0  0.17377598286E+01  0.18110737599E+01 -0.52865222999E+01  0.58521035256E+01  0.51100000000E-03 0.  1.
        -11    1    4    4    0    0 -0.14854628515E+02  0.14766960662E+02  0.18810405089E+02  0.28152343693E+02  0.51100000000E-03 0. -1.
        -12    1    4    4    0    0 -0.92562170865E+01  0.48705830902E+01  0.12792804995E+02  0.16524406011E+02  0.00000000000E+00 0.  1.
</event>
<event>
 8    1  0.1021894E-011  0.9118800E+02  0.7816164E-02  0.1184000E+00
        -11   -1    0    0    0    0  0.00000000000E+00  0.00000000000E+00  0.45593999997E+02  0.45594000000E+02  0.51100000000E-03 0.  1.
         11   -1    0    0    0    0 -0.00000000000E+00 -0.00000000000E+00 -0.45593999997E+02  0.45594000000E+02  0.51100000000E-03 0. -1.
         23    2    1    2    0    0  0.00000000000E+00  0.00000000000E+00  0.35527136788E-14  0.91188000000E+02  0.91188000000E+02 0.  0.
    9900012    2    3    3    0    0 -0.35909388600E+02 -0.98230297814E+01  0.16345929672E+02  0.50528861783E+02  0.30000005875E+02 0.  0.
         12    1    3    3    0    0  0.35909388600E+02  0.98230297814E+01 -0.16345929672E+02  0.40659138217E+02  0.00000000000E+00 0. -1.
         11    1    4    4    0    0 -0.13083999494E+01  0.41350586527E+01 -0.25803099123E+01  0.50466444291E+01  0.51100000000E-03 0. -1.
        -11    1    4    4    0    0 -0.21693440701E+02 -0.13678851029E+02  0.20006478853E+02  0.32526535802E+02  0.51100000000E-03 0.  1.
        -12    1    4    4    0    0 -0.12907547949E+02 -0.27923740509E+00 -0.10802392688E+01  0.12955681552E+02  0.00000000000E+00 0.  1.
</event>
<event>
 8    1  0.1021894E-011  0.9118800E+02  0.7816164E-02  0.1184000E+00
        -11   -1    0    0    0    0  0.00000000000E+00  0.00000000000E+00  0.45593999997E+02  0.45594000000E+02  0.51100000000E-03 0. -1.
         11   -1    0    0    0    0 -0.00000000000E+00 -0.00000000000E+00 -0.45593999997E+02  0.45594000000E+02  0.51100000000E-03 0.  1.
         23    2    1    2    0    0  0.71054273576E-14  0.00000000000E+00 -0.17763568394E-14  0.91188000000E+02  0.91188000000E+02 0.  0.
    9900012    2    3    3    0    0 -0.32856835607E+02 -0.21233659097E+02  0.11078153911E+02  0.50528863034E+02  0.30000009678E+02 0.  0.
        -12    1    3    3    0    0  0.32856835607E+02  0.21233659097E+02 -0.11078153911E+02  0.40659136966E+02  0.00000000000E+00 0.  1.
         11    1    4    4    0    0 -0.13681231453E+02 -0.78372813150E+01  0.70031531332E+01  0.17252339741E+02  0.51100000000E-03 0. -1.
        -11    1    4    4    0    0  0.45067757588E+01 -0.14961483598E+01  0.48141387453E+01  0.67620573626E+01  0.51100000000E-03 0.  1.
        -12    1    4    4    0    0 -0.23682379913E+02 -0.11900229422E+02 -0.73913796782E+00  0.26514465930E+02  0.00000000000E+00 0.  1.
</event>
<event>
 8    1  0.1021894E-011  0.9118800E+02  0.7816164E-02  0.1184000E+00
        -11   -1    0    0    0    0  0.00000000000E+00  0.00000000000E+00  0.45593999997E+02  0.45594000000E+02  0.51100000000E-03 0. -1.
         11   -1    0    0    0    0 -0.00000000000E+00 -0.00000000000E+00 -0.45593999997E+02  0.45594000000E+02  0.51100000000E-03 0.  1.
         23    2    1    2    0    0 -0.35527136788E-14  0.00000000000E+00 -0.71054273576E-14  0.91188000000E+02  0.91188000000E+02 0.  0.
    9900012    2    3    3    0    0  0.22051163754E+02 -0.13792810799E+02  0.31251761521E+02  0.50528830668E+02  0.29999911297E+02 0.  0.
        -12    1    3    3    0    0 -0.22051163754E+02  0.13792810799E+02 -0.31251761521E+02  0.40659169332E+02  0.00000000000E+00 0.  1.
         11    1    4    4    0    0  0.16125047748E+02 -0.84862753443E+01  0.10253840579E+02  0.20908736954E+02  0.51100000000E-03 0.  1.
        -11    1    4    4    0    0 -0.40194695805E+01 -0.93271863311E+01  0.10598731788E+02  0.14679429701E+02  0.51100000000E-03 0. -1.
        -12    1    4    4    0    0  0.99455855861E+01  0.40206508760E+01  0.10399189154E+02  0.14940664014E+02  0.00000000000E+00 0.  1.
</event>
<event>
 8    1  0.1021894E-011  0.9118800E+02  0.7816164E-02  0.1184000E+00
        -11   -1    0    0    0    0  0.00000000000E+00  0.00000000000E+00  0.45593999997E+02  0.45594000000E+02  0.51100000000E-03 0. -1.
         11   -1    0    0    0    0 -0.00000000000E+00 -0.00000000000E+00 -0.45593999997E+02  0.45594000000E+02  0.51100000000E-03 0.  1.
         23    2    1    2    0    0  0.17763568394E-14  0.00000000000E+00  0.35527136788E-14  0.91188000000E+02  0.91188000000E+02 0.  0.
    9900012    2    3    3    0    0  0.35873687426E+01  0.36545278301E+02 -0.17456784198E+02  0.50528857177E+02  0.29999991875E+02 0.  0.
         12    1    3    3    0    0 -0.35873687426E+01 -0.36545278301E+02  0.17456784198E+02  0.40659142823E+02  0.00000000000E+00 0. -1.
         11    1    4    4    0    0 -0.98364432051E+01  0.76899618307E+01  0.21236440313E+01  0.12664951327E+02  0.51100000000E-03 0. -1.
        -11    1    4    4    0    0 -0.33090640643E+00  0.25332289541E+01 -0.26363862318E+01  0.36711415947E+01  0.51100000000E-03 0.  1.
         12    1    4    4    0    0  0.13754718354E+02  0.26322087516E+02 -0.16944041997E+02  0.34192764255E+02  0.00000000000E+00 0. -1.
</event>
<event>
 8    1  0.1021894E-011  0.9118800E+02  0.7816164E-02  0.1184000E+00
        -11   -1    0    0    0    0  0.00000000000E+00  0.00000000000E+00  0.45593999997E+02  0.45594000000E+02  0.51100000000E-03 0. -1.
         11   -1    0    0    0    0 -0.00000000000E+00 -0.00000000000E+00 -0.45593999997E+02  0.45594000000E+02  0.51100000000E-03 0.  1.
         23    2    1    2    0    0  0.00000000000E+00  0.00000000000E+00  0.17763568394E-14  0.91188000000E+02  0.91188000000E+02 0.  0.
    9900012    2    3    3    0    0  0.86999512704E+01  0.37393366939E+02  0.13387072471E+02  0.50528846634E+02  0.29999959828E+02 0.  0.
        -12    1    3    3    0    0 -0.86999512704E+01 -0.37393366939E+02 -0.13387072471E+02  0.40659153366E+02  0.00000000000E+00 0.  1.
         11    1    4    4    0    0  0.90395790902E+01  0.14801326966E+02  0.19474234331E+01  0.17452384605E+02  0.51100000000E-03 0. -1.
        -11    1    4    4    0    0 -0.98582889866E+01  0.16777149922E+02  0.46112747424E+01  0.19998061813E+02  0.51100000000E-03 0.  1.
        -12    1    4    4    0    0  0.95186611668E+01  0.58148900500E+01  0.68283742951E+01  0.13078400216E+02  0.00000000000E+00 0.  1.
</event>
<event>
 8    1  0.1021894E-011  0.9118800E+02  0.7816164E-02  0.1184000E+00
        -11   -1    0    0    0    0  0.00000000000E+00  0.00000000000E+00  0.45593999997E+02  0.45594000000E+02  0.51100000000E-03 0. -1.
         11   -1    0    0    0    0 -0.00000000000E+00 -0.00000000000E+00 -0.45593999997E+02  0.45594000000E+02  0.51100000000E-03 0.  1.
         23    2    1    2    0    0  0.44408920985E-15  0.00000000000E+00  0.00000000000E+00  0.91188000000E+02  0.91188000000E+02 0.  0.
    9900012    2    3    3    0    0 -0.46801018840E+00 -0.63363802107E+01 -0.40159641826E+02  0.50528861060E+02  0.30000003678E+02 0.  0.
         12    1    3    3    0    0  0.46801018840E+00  0.63363802107E+01  0.40159641826E+02  0.40659138940E+02  0.00000000000E+00 0. -1.
         11    1    4    4    0    0  0.10356911081E+02 -0.31354984536E+01 -0.26039520291E+01  0.11130028038E+02  0.51100000000E-03 0. -1.
        -11    1    4    4    0    0 -0.77256574978E+01 -0.58540699612E+00 -0.27045505773E+02  0.28133394177E+02  0.51100000000E-03 0.  1.
         12    1    4    4    0    0 -0.30992637719E+01 -0.26154747609E+01 -0.10510184024E+02  0.11265438845E+02  0.00000000000E+00 0. -1.
</event>
<event>
 8    1  0.1021894E-011  0.9118800E+02  0.7816164E-02  0.1184000E+00
        -11   -1    0    0    0    0  0.00000000000E+00  0.00000000000E+00  0.45593999997E+02  0.45594000000E+02  0.51100000000E-03 0. -1.
         11   -1    0    0    0    0 -0.00000000000E+00 -0.00000000000E+00 -0.45593999997E+02  0.45594000000E+02  0.51100000000E-03 0.  1.
         23    2    1    2    0    0  0.00000000000E+00 -0.35527136788E-14  0.00000000000E+00  0.91188000000E+02  0.91188000000E+02 0.  0.
    9900012    2    3    3    0    0  0.10739753960E+02  0.69814460204E+01  0.38588632851E+02  0.50528862172E+02  0.30000007057E+02 0.  0.
        -12    1    3    3    0    0 -0.10739753960E+02 -0.69814460204E+01 -0.38588632851E+02  0.40659137828E+02  0.00000000000E+00 0.  1.
         11    1    4    4    0    0  0.72815190142E+01 -0.10558437806E+02  0.17474877541E+02  0.21676542007E+02  0.51100000000E-03 0. -1.
        -11    1    4    4    0    0  0.52660680177E+01  0.60837441444E+01  0.92851371145E+01  0.12286463555E+02  0.51100000000E-03 0.  1.
         12    1    4    4    0    0 -0.18078330718E+01  0.11456139682E+02  0.11828618195E+02  0.16565856610E+02  0.00000000000E+00 0. -1.
</event>
<event>
 8    1  0.1021894E-011  0.9118800E+02  0.7816164E-02  0.1184000E+00
        -11   -1    0    0    0    0  0.00000000000E+00  0.00000000000E+00  0.45593999997E+02  0.45594000000E+02  0.51100000000E-03 0. -1.
         11   -1    0    0    0    0 -0.00000000000E+00 -0.00000000000E+00 -0.45593999997E+02  0.45594000000E+02  0.51100000000E-03 0.  1.
         23    2    1    2    0    0  0.13322676296E-14 -0.35527136788E-14  0.35527136788E-14  0.91188000000E+02  0.91188000000E+02 0.  0.
    9900012    2    3    3    0    0  0.33021961885E+01  0.26579241492E+02 -0.30590929841E+02  0.50528861219E+02  0.30000004160E+02 0.  0.
         12    1    3    3    0    0 -0.33021961885E+01 -0.26579241492E+02  0.30590929841E+02  0.40659138781E+02  0.00000000000E+00 0. -1.
         11    1    4    4    0    0  0.97807971809E+01  0.24447648581E+02 -0.11852473309E+02  0.28876160382E+02  0.51100000000E-03 0. -1.
        -11    1    4    4    0    0 -0.54243689423E+01  0.16633164114E+01 -0.41764584433E+01  0.70450837679E+01  0.51100000000E-03 0.  1.
         12    1    4    4    0    0 -0.10542320501E+01  0.46827649943E+00 -0.14561998088E+02  0.14607617068E+02  0.00000000000E+00 0. -1.
</event>
<event>
 8    1  0.1021894E-011  0.9118800E+02  0.7816164E-02  0.1184000E+00
        -11   -1    0    0    0    0  0.00000000000E+00  0.00000000000E+00  0.45593999997E+02  0.45594000000E+02  0.51100000000E-03 0. -1.
         11   -1    0    0    0    0 -0.00000000000E+00 -0.00000000000E+00 -0.45593999997E+02  0.45594000000E+02  0.51100000000E-03 0.  1.
         23    2    1    2    0    0 -0.35527136788E-14  0.00000000000E+00  0.00000000000E+00  0.91188000000E+02  0.91188000000E+02 0.  0.
    9900012    2    3    3    0    0 -0.29833101532E+02 -0.23713643204E+02  0.14170906589E+02  0.50528863086E+02  0.30000009836E+02 0.  0.
        -12    1    3    3    0    0  0.29833101532E+02  0.23713643204E+02 -0.14170906589E+02  0.40659136914E+02  0.00000000000E+00 0.  1.
         11    1    4    4    0    0 -0.10411037386E+02 -0.63014566513E+01 -0.49985061453E+01  0.13156105781E+02  0.51100000000E-03 0. -1.
        -11    1    4    4    0    0 -0.16153720678E+01 -0.73339321136E+01  0.14584571054E+02  0.16404441480E+02  0.51100000000E-03 0.  1.
        -12    1    4    4    0    0 -0.17806692078E+02 -0.10078254440E+02  0.45848416799E+01  0.20968315825E+02  0.00000000000E+00 0.  1.
</event>
<event>
 8    1  0.1021894E-011  0.9118800E+02  0.7816164E-02  0.1184000E+00
        -11   -1    0    0    0    0  0.00000000000E+00  0.00000000000E+00  0.45593999997E+02  0.45594000000E+02  0.51100000000E-03 0. -1.
         11   -1    0    0    0    0 -0.00000000000E+00 -0.00000000000E+00 -0.45593999997E+02  0.45594000000E+02  0.51100000000E-03 0.  1.
         23    2    1    2    0    0  0.00000000000E+00  0.35527136788E-14 -0.17763568394E-14  0.91188000000E+02  0.91188000000E+02 0.  0.
    9900012    2    3    3    0    0  0.30657746528E+02 -0.25673884183E+02  0.73567094443E+01  0.50528844511E+02  0.29999953375E+02 0.  0.
        -12    1    3    3    0    0 -0.30657746528E+02  0.25673884183E+02 -0.73567094443E+01  0.40659155489E+02  0.00000000000E+00 0.  1.
         11    1    4    4    0    0  0.15468898672E+02 -0.70938359227E+01  0.15658446162E+02  0.23125662600E+02  0.51100000000E-03 0. -1.
        -11    1    4    4    0    0  0.46104027280E+01 -0.10971985446E+02  0.95360482011E-01  0.11901654163E+02  0.51100000000E-03 0.  1.
         12    1    4    4    0    0  0.10578445128E+02 -0.76080628147E+01 -0.83970971997E+01  0.15501527748E+02  0.00000000000E+00 0. -1.
</event>
<event>
 8    1  0.1021894E-011  0.9118800E+02  0.7816164E-02  0.1184000E+00
        -11   -1    0    0    0    0  0.00000000000E+00  0.00000000000E+00  0.45593999997E+02  0.45594000000E+02  0.51100000000E-03 0. -1.
         11   -1    0    0    0    0 -0.00000000000E+00 -0.00000000000E+00 -0.45593999997E+02  0.45594000000E+02  0.51100000000E-03 0.  1.
         23    2    1    2    0    0 -0.88817841970E-15 -0.35527136788E-14  0.35527136788E-14  0.91188000000E+02  0.91188000000E+02 0.  0.
    9900012    2    3    3    0    0  0.75142548956E+01  0.26248741279E+02 -0.30128152746E+02  0.50528855478E+02  0.29999986710E+02 0.  0.
         12    1    3    3    0    0 -0.75142548956E+01 -0.26248741279E+02  0.30128152746E+02  0.40659144522E+02  0.00000000000E+00 0. -1.
         11    1    4    4    0    0  0.56531908197E+01  0.77611700009E+01  0.26970986889E+01  0.99733980080E+01  0.51100000000E-03 0. -1.
        -11    1    4    4    0    0 -0.58247178238E+01  0.98958038750E+01 -0.11150761276E+02  0.16006053522E+02  0.51100000000E-03 0.  1.
         12    1    4    4    0    0  0.76857818997E+01  0.85917674033E+01 -0.21674490159E+02  0.24549403947E+02  0.00000000000E+00 0. -1.
</event>
<event>
 8    1  0.1021894E-011  0.9118800E+02  0.7816164E-02  0.1184000E+00
        -11   -1    0    0    0    0  0.00000000000E+00  0.00000000000E+00  0.45593999997E+02  0.45594000000E+02  0.51100000000E-03 0. -1.
         11   -1    0    0    0    0 -0.00000000000E+00 -0.00000000000E+00 -0.45593999997E+02  0.45594000000E+02  0.51100000000E-03 0.  1.
         23    2    1    2    0    0  0.00000000000E+00  0.71054273576E-14  0.00000000000E+00  0.91188000000E+02  0.91188000000E+02 0.  0.
    9900012    2    3    3    0    0 -0.17085455868E+02 -0.26778957932E+02 -0.25379925838E+02  0.50528855571E+02  0.29999986993E+02 0.  0.
         12    1    3    3    0    0  0.17085455868E+02  0.26778957932E+02  0.25379925838E+02  0.40659144429E+02  0.00000000000E+00 0. -1.
         11    1    4    4    0    0 -0.20833067840E+02 -0.92813929234E+01 -0.11574774723E+02  0.25576090014E+02  0.51100000000E-03 0.  1.
        -11    1    4    4    0    0  0.25070168591E+01 -0.36587507569E+01  0.11064681387E+01  0.45711992557E+01  0.51100000000E-03 0. -1.
         12    1    4    4    0    0  0.12405951130E+01 -0.13838814252E+02 -0.14911619254E+02  0.20381566302E+02  0.00000000000E+00 0. -1.
</event>
<event>
 8    1  0.1021894E-011  0.9118800E+02  0.7816164E-02  0.1184000E+00
        -11   -1    0    0    0    0  0.00000000000E+00  0.00000000000E+00  0.45593999997E+02  0.45594000000E+02  0.51100000000E-03 0. -1.
         11   -1    0    0    0    0 -0.00000000000E+00 -0.00000000000E+00 -0.45593999997E+02  0.45594000000E+02  0.51100000000E-03 0.  1.
         23    2    1    2    0    0  0.00000000000E+00 -0.17763568394E-14  0.35527136788E-14  0.91188000000E+02  0.91188000000E+02 0.  0.
    9900012    2    3    3    0    0 -0.26656388015E+02 -0.91019923295E+01  0.29321590152E+02  0.50528868978E+02  0.30000027746E+02 0.  0.
        -12    1    3    3    0    0  0.26656388015E+02  0.91019923295E+01 -0.29321590152E+02  0.40659131022E+02  0.00000000000E+00 0.  1.
         11    1    4    4    0    0 -0.69600216814E+01  0.66943307065E+01  0.11083094888E+02  0.14700032584E+02  0.51100000000E-03 0. -1.
        -11    1    4    4    0    0 -0.75460215732E+01 -0.14862454460E+02  0.16615089156E+02  0.23534999088E+02  0.51100000000E-03 0.  1.
         12    1    4    4    0    0 -0.12150344761E+02 -0.93386857594E+00  0.16234061086E+01  0.12293837306E+02  0.00000000000E+00 0. -1.
</event>
<event>
 8    1  0.1021894E-011  0.9118800E+02  0.7816164E-02  0.1184000E+00
        -11   -1    0    0    0    0  0.00000000000E+00  0.00000000000E+00  0.45593999997E+02  0.45594000000E+02  0.51100000000E-03 0. -1.
         11   -1    0    0    0    0 -0.00000000000E+00 -0.00000000000E+00 -0.45593999997E+02  0.45594000000E+02  0.51100000000E-03 0.  1.
         23    2    1    2    0    0  0.17763568394E-14 -0.35527136788E-14 -0.35527136788E-14  0.91188000000E+02  0.91188000000E+02 0.  0.
    9900012    2    3    3    0    0 -0.12452482842E+02 -0.27492051046E+02  0.27244970179E+02  0.50528860809E+02  0.30000002916E+02 0.  0.
        -12    1    3    3    0    0  0.12452482842E+02  0.27492051046E+02 -0.27244970179E+02  0.40659139191E+02  0.00000000000E+00 0.  1.
         11    1    4    4    0    0 -0.65947910770E+01 -0.96920243520E+01  0.25559647546E+02  0.28119782864E+02  0.51100000000E-03 0. -1.
        -11    1    4    4    0    0 -0.62985591756E+01 -0.13400956098E+02  0.62337472830E+01  0.16066022454E+02  0.51100000000E-03 0.  1.
         12    1    4    4    0    0  0.44086741020E+00 -0.43990705955E+01 -0.45484246493E+01  0.63430554915E+01  0.00000000000E+00 0. -1.
</event>
<event>
 8    1  0.1021894E-011  0.9118800E+02  0.7816164E-02  0.1184000E+00
        -11   -1    0    0    0    0  0.00000000000E+00  0.00000000000E+00  0.45593999997E+02  0.45594000000E+02  0.51100000000E-03 0. -1.
         11   -1    0    0    0    0 -0.00000000000E+00 -0.00000000000E+00 -0.45593999997E+02  0.45594000000E+02  0.51100000000E-03 0.  1.
         23    2    1    2    0    0  0.71054273576E-14  0.00000000000E+00 -0.35527136788E-14  0.91188000000E+02  0.91188000000E+02 0.  0.
    9900012    2    3    3    0    0  0.27598849609E+02 -0.10924369793E+02 -0.27787177232E+02  0.50528861130E+02  0.30000003890E+02 0.  0.
         12    1    3    3    0    0 -0.27598849609E+02  0.10924369793E+02  0.27787177232E+02  0.40659138870E+02  0.00000000000E+00 0. -1.
         11    1    4    4    0    0 -0.76631477082E+00 -0.84258863375E+01  0.64374140330E+00  0.84851165081E+01  0.51100000000E-03 0. -1.
        -11    1    4    4    0    0  0.19909926186E+02  0.30883244790E+01 -0.14529563348E+02  0.24840513685E+02  0.51100000000E-03 0.  1.
         12    1    4    4    0    0  0.84552381942E+01 -0.55868079348E+01 -0.13901355288E+02  0.17203230937E+02  0.00000000000E+00 0. -1.
</event>
<event>
 8    1  0.1021894E-011  0.9118800E+02  0.7816164E-02  0.1184000E+00
        -11   -1    0    0    0    0  0.00000000000E+00  0.00000000000E+00  0.45593999997E+02  0.45594000000E+02  0.51100000000E-03 0. -1.
         11   -1    0    0    0    0 -0.00000000000E+00 -0.00000000000E+00 -0.45593999997E+02  0.45594000000E+02  0.51100000000E-03 0.  1.
         23    2    1    2    0    0 -0.71054273576E-14 -0.44408920985E-15  0.35527136788E-14  0.91188000000E+02  0.91188000000E+02 0.  0.
    9900012    2    3    3    0    0  0.33224637134E+02 -0.12482313745E+01 -0.23403661571E+02  0.50528856266E+02  0.29999989107E+02 0.  0.
         12    1    3    3    0    0 -0.33224637134E+02  0.12482313745E+01  0.23403661571E+02  0.40659143734E+02  0.00000000000E+00 0. -1.
         11    1    4    4    0    0  0.19954269074E+01  0.82872527609E+01 -0.55486021448E+01  0.10170903248E+02  0.51100000000E-03 0. -1.
        -11    1    4    4    0    0  0.27104379404E+02 -0.10488109685E+02 -0.88060662966E+01  0.30367657656E+02  0.51100000000E-03 0.  1.
         12    1    4    4    0    0  0.41248308224E+01  0.95262555003E+00 -0.90489931293E+01  0.99902953613E+01  0.00000000000E+00 0. -1.
</event>
<event>
 8    1  0.1021894E-011  0.9118800E+02  0.7816164E-02  0.1184000E+00
        -11   -1    0    0    0    0  0.00000000000E+00  0.00000000000E+00  0.45593999997E+02  0.45594000000E+02  0.51100000000E-03 0. -1.
         11   -1    0    0    0    0 -0.00000000000E+00 -0.00000000000E+00 -0.45593999997E+02  0.45594000000E+02  0.51100000000E-03 0.  1.
         23    2    1    2    0    0  0.00000000000E+00 -0.35527136788E-14 -0.35527136788E-14  0.91188000000E+02  0.91188000000E+02 0.  0.
    9900012    2    3    3    0    0  0.20022003130E+02 -0.18779239102E+02 -0.29993761982E+02  0.50528853569E+02  0.29999980910E+02 0.  0.
         12    1    3    3    0    0 -0.20022003130E+02  0.18779239102E+02  0.29993761982E+02  0.40659146431E+02  0.00000000000E+00 0. -1.
         11    1    4    4    0    0 -0.50017505987E+01 -0.39173281568E-01 -0.71784970532E+01  0.87492779018E+01  0.51100000000E-03 0. -1.
        -11    1    4    4    0    0  0.23146437416E+02 -0.12139151804E+02 -0.23141557264E+02  0.34909142706E+02  0.51100000000E-03 0.  1.
         12    1    4    4    0    0  0.18773163125E+01 -0.66009140170E+01  0.32629233469E+00  0.68704329620E+01  0.00000000000E+00 0. -1.
</event>
<event>
 8    1  0.1021894E-011  0.9118800E+02  0.7816164E-02  0.1184000E+00
        -11   -1    0    0    0    0  0.00000000000E+00  0.00000000000E+00  0.45593999997E+02  0.45594000000E+02  0.51100000000E-03 0. -1.
         11   -1    0    0    0    0 -0.00000000000E+00 -0.00000000000E+00 -0.45593999997E+02  0.45594000000E+02  0.51100000000E-03 0.  1.
         23    2    1    2    0    0  0.00000000000E+00  0.00000000000E+00  0.35527136788E-14  0.91188000000E+02  0.91188000000E+02 0.  0.
    9900012    2    3    3    0    0 -0.13354894858E+02  0.27387685159E+02  0.26920818535E+02  0.50528819172E+02  0.29999876355E+02 0.  0.
        -12    1    3    3    0    0  0.13354894858E+02 -0.27387685159E+02 -0.26920818535E+02  0.40659180828E+02  0.00000000000E+00 0.  1.
         11    1    4    4    0    0 -0.15748185297E+02  0.10387920963E+02  0.12310726394E+02  0.22527055438E+02  0.51100000000E-03 0. -1.
        -11    1    4    4    0    0  0.47588113335E+01  0.59226259662E+01 -0.20376101703E+01  0.78661069857E+01  0.51100000000E-03 0.  1.
         12    1    4    4    0    0 -0.23655208939E+01  0.11077138229E+02  0.16647702311E+02  0.20135656749E+02  0.00000000000E+00 0. -1.
</event>
<event>
 8    1  0.1421056E-011  0.9118800E+02  0.7816164E-02  0.1184000E+00
        -11   -1    0    0    0    0  0.00000000000E+00  0.00000000000E+00  0.45593999997E+02  0.45594000000E+02  0.51100000000E-03 0. -1.
         11   -1    0    0    0    0 -0.00000000000E+00 -0.00000000000E+00 -0.45593999997E+02  0.45594000000E+02  0.51100000000E-03 0.  1.
         23    2    1    2    0    0  0.00000000000E+00 -0.17763568394E-14 -0.71054273576E-14  0.91188000000E+02  0.91188000000E+02 0.  0.
    9900012    2    3    3    0    0  0.89828164886E+01  0.13773694573E+02 -0.37185473874E+02  0.50528866690E+02  0.30000020792E+02 0.  0.
         12    1    3    3    0    0 -0.89828164886E+01 -0.13773694573E+02  0.37185473874E+02  0.40659133310E+02  0.00000000000E+00 0. -1.
         11    1    4    4    0    0 -0.55417000445E+01  0.24455808042E+01  0.21416716455E+01  0.64248005845E+01  0.51100000000E-03 0. -1.
        -11    1    4    4    0    0  0.47865283928E+01  0.30373175398E+01 -0.21027437791E+02  0.21778183859E+02  0.51100000000E-03 0.  1.
         12    1    4    4    0    0  0.97379881403E+01  0.82907962290E+01 -0.18299707729E+02  0.22325882247E+02  0.00000000000E+00 0. -1.
</event>
<event>
 8    1  0.1021894E-011  0.9118800E+02  0.7816164E-02  0.1184000E+00
        -11   -1    0    0    0    0  0.00000000000E+00  0.00000000000E+00  0.45593999997E+02  0.45594000000E+02  0.51100000000E-03 0.  1.
         11   -1    0    0    0    0 -0.00000000000E+00 -0.00000000000E+00 -0.45593999997E+02  0.45594000000E+02  0.51100000000E-03 0. -1.
         23    2    1    2    0    0  0.00000000000E+00  0.00000000000E+00  0.35527136788E-14  0.91188000000E+02  0.91188000000E+02 0.  0.
    9900012    2    3    3    0    0 -0.37834105106E+02 -0.48026474014E+01 -0.14095238175E+02  0.50528921426E+02  0.30000187167E+02 0.  0.
         12    1    3    3    0    0  0.37834105106E+02  0.48026474014E+01  0.14095238175E+02  0.40659078574E+02  0.00000000000E+00 0. -1.
         11    1    4    4    0    0  0.39653313400E+01 -0.40231152444E+01 -0.21530787811E+01  0.60452508140E+01  0.51100000000E-03 0. -1.
        -11    1    4    4    0    0 -0.31112972541E+02 -0.39905513138E+01 -0.63571287868E+01  0.32005540876E+02  0.51100000000E-03 0.  1.
         12    1    4    4    0    0 -0.10686463905E+02  0.32110191568E+01 -0.55850306070E+01  0.12478129736E+02  0.00000000000E+00 0. -1.
</event>
<event>
 8    1  0.1021894E-011  0.9118800E+02  0.7816164E-02  0.1184000E+00
        -11   -1    0    0    0    0  0.00000000000E+00  0.00000000000E+00  0.45593999997E+02  0.45594000000E+02  0.51100000000E-03 0. -1.
         11   -1    0    0    0    0 -0.00000000000E+00 -0.00000000000E+00 -0.45593999997E+02  0.45594000000E+02  0.51100000000E-03 0.  1.
         23    2    1    2    0    0  0.00000000000E+00  0.00000000000E+00  0.35527136788E-14  0.91188000000E+02  0.91188000000E+02 0.  0.
    9900012    2    3    3    0    0  0.24876514408E+02  0.36503983225E+01 -0.31953077435E+02  0.50528861611E+02  0.30000005352E+02 0.  0.
         12    1    3    3    0    0 -0.24876514408E+02 -0.36503983225E+01  0.31953077435E+02  0.40659138389E+02  0.00000000000E+00 0. -1.
         11    1    4    4    0    0 -0.86454311614E+00 -0.11606628955E+01 -0.30840996274E+01  0.34067937903E+01  0.51100000000E-03 0. -1.
        -11    1    4    4    0    0  0.69600184475E+01  0.45457507084E+01  0.40303802088E+01  0.92384885766E+01  0.51100000000E-03 0.  1.
        -12    1    4    4    0    0  0.18781039076E+02  0.26531050968E+00 -0.32899358016E+02  0.37883579244E+02  0.00000000000E+00 0.  1.
</event>
<event>
 8    1  0.1021894E-011  0.9118800E+02  0.7816164E-02  0.1184000E+00
        -11   -1    0    0    0    0  0.00000000000E+00  0.00000000000E+00  0.45593999997E+02  0.45594000000E+02  0.51100000000E-03 0.  1.
         11   -1    0    0    0    0 -0.00000000000E+00 -0.00000000000E+00 -0.45593999997E+02  0.45594000000E+02  0.51100000000E-03 0. -1.
         23    2    1    2    0    0  0.00000000000E+00 -0.35527136788E-14 -0.35527136788E-14  0.91188000000E+02  0.91188000000E+02 0.  0.
    9900012    2    3    3    0    0  0.20271713335E+02  0.20718025139E+02  0.28512917783E+02  0.50528863170E+02  0.30000010092E+02 0.  0.
        -12    1    3    3    0    0 -0.20271713335E+02 -0.20718025139E+02 -0.28512917783E+02  0.40659136830E+02  0.00000000000E+00 0.  1.
         11    1    4    4    0    0  0.24296843333E+02  0.98537883871E+01  0.22229497091E+02  0.34374180466E+02  0.51100000000E-03 0. -1.
        -11    1    4    4    0    0 -0.37873721112E+01  0.39368585527E+01  0.73330380259E+01  0.91442052538E+01  0.51100000000E-03 0.  1.
         12    1    4    4    0    0 -0.23775788662E+00  0.69273781995E+01 -0.10496173338E+01  0.70104774502E+01  0.00000000000E+00 0. -1.
</event>
<event>
 8    1  0.1021894E-011  0.9118800E+02  0.7816164E-02  0.1184000E+00
        -11   -1    0    0    0    0  0.00000000000E+00  0.00000000000E+00  0.45593999997E+02  0.45594000000E+02  0.51100000000E-03 0. -1.
         11   -1    0    0    0    0 -0.00000000000E+00 -0.00000000000E+00 -0.45593999997E+02  0.45594000000E+02  0.51100000000E-03 0.  1.
         23    2    1    2    0    0  0.00000000000E+00  0.00000000000E+00  0.00000000000E+00  0.91188000000E+02  0.91188000000E+02 0.  0.
    9900012    2    3    3    0    0  0.27192372958E+02  0.22254738384E+02 -0.20456484914E+02  0.50528852166E+02  0.29999976642E+02 0.  0.
         12    1    3    3    0    0 -0.27192372958E+02 -0.22254738384E+02  0.20456484914E+02  0.40659147834E+02  0.00000000000E+00 0. -1.
         11    1    4    4    0    0  0.64049658306E+01  0.84978177301E+01 -0.54002916475E+01  0.11933132179E+02  0.51100000000E-03 0. -1.
        -11    1    4    4    0    0  0.22343403978E+01  0.45461719009E+01  0.68026768100E+01  0.84815309943E+01  0.51100000000E-03 0.  1.
        -12    1    4    4    0    0  0.18553066729E+02  0.92107487532E+01 -0.21858870076E+02  0.30114188992E+02  0.00000000000E+00 0.  1.
</event>
<event>
 8    1  0.1021894E-011  0.9118800E+02  0.7816164E-02  0.1184000E+00
        -11   -1    0    0    0    0  0.00000000000E+00  0.00000000000E+00  0.45593999997E+02  0.45594000000E+02  0.51100000000E-03 0. -1.
         11   -1    0    0    0    0 -0.00000000000E+00 -0.00000000000E+00 -0.45593999997E+02  0.45594000000E+02  0.51100000000E-03 0.  1.
         23    2    1    2    0    0 -0.71054273576E-14 -0.17763568394E-14  0.35527136788E-14  0.91188000000E+02  0.91188000000E+02 0.  0.
    9900012    2    3    3    0    0  0.29944960760E+02  0.13080786596E+02 -0.24194167568E+02  0.50528863300E+02  0.30000010487E+02 0.  0.
         12    1    3    3    0    0 -0.29944960760E+02 -0.13080786596E+02  0.24194167568E+02  0.40659136700E+02  0.00000000000E+00 0. -1.
         11    1    4    4    0    0  0.27471366089E+02  0.49936875326E+01 -0.58558825044E+01  0.28529006820E+02  0.51100000000E-03 0. -1.
        -11    1    4    4    0    0  0.51841080069E+01  0.25825625448E+01 -0.68049697988E+01  0.89360069017E+01  0.51100000000E-03 0.  1.
         12    1    4    4    0    0 -0.27105133355E+01  0.55045365188E+01 -0.11533315264E+02  0.13063849579E+02  0.00000000000E+00 0. -1.
</event>
<event>
 8    1  0.1021894E-011  0.9118800E+02  0.7816164E-02  0.1184000E+00
        -11   -1    0    0    0    0  0.00000000000E+00  0.00000000000E+00  0.45593999997E+02  0.45594000000E+02  0.51100000000E-03 0. -1.
         11   -1    0    0    0    0 -0.00000000000E+00 -0.00000000000E+00 -0.45593999997E+02  0.45594000000E+02  0.51100000000E-03 0.  1.
         23    2    1    2    0    0  0.00000000000E+00  0.00000000000E+00 -0.35527136788E-14  0.91188000000E+02  0.91188000000E+02 0.  0.
    9900012    2    3    3    0    0  0.27199337396E+02  0.23352146162E+02  0.19184340054E+02  0.50528860948E+02  0.30000003336E+02 0.  0.
        -12    1    3    3    0    0 -0.27199337396E+02 -0.23352146162E+02 -0.19184340054E+02  0.40659139052E+02  0.00000000000E+00 0.  1.
         11    1    4    4    0    0  0.28200928747E+02  0.26375816072E+02  0.18300296782E+02  0.42730281045E+02  0.51100000000E-03 0. -1.
        -11    1    4    4    0    0  0.30206421752E+01 -0.12020402126E+01 -0.18230866413E+00  0.32561352142E+01  0.51100000000E-03 0.  1.
         12    1    4    4    0    0 -0.40222335263E+01 -0.18216296967E+01  0.10663519367E+01  0.45424446881E+01  0.00000000000E+00 0. -1.
</event>
<event>
 8    1  0.1021894E-011  0.9118800E+02  0.7816164E-02  0.1184000E+00
        -11   -1    0    0    0    0  0.00000000000E+00  0.00000000000E+00  0.45593999997E+02  0.45594000000E+02  0.51100000000E-03 0. -1.
         11   -1    0    0    0    0 -0.00000000000E+00 -0.00000000000E+00 -0.45593999997E+02  0.45594000000E+02  0.51100000000E-03 0.  1.
         23    2    1    2    0    0  0.00000000000E+00 -0.43021142204E-15  0.00000000000E+00  0.91188000000E+02  0.91188000000E+02 0.  0.
    9900012    2    3    3    0    0 -0.23386141311E+02  0.71955152149E-01 -0.33260329599E+02  0.50528852099E+02  0.29999976441E+02 0.  0.
         12    1    3    3    0    0  0.23386141311E+02 -0.71955152149E-01  0.33260329599E+02  0.40659147901E+02  0.00000000000E+00 0. -1.
         11    1    4    4    0    0  0.26758696295E+01 -0.69850454641E+01 -0.56900617001E+01  0.93982945699E+01  0.51100000000E-03 0. -1.
        -11    1    4    4    0    0 -0.16116603100E+02  0.61558685832E+01 -0.25726423485E+02  0.30975611036E+02  0.51100000000E-03 0.  1.
        -12    1    4    4    0    0 -0.99454078404E+01  0.90113203306E+00 -0.18438444142E+01  0.10154946493E+02  0.00000000000E+00 0.  1.
</event>
<event>
 8    1  0.1021894E-011  0.9118800E+02  0.7816164E-02  0.1184000E+00
        -11   -1    0    0    0    0  0.00000000000E+00  0.00000000000E+00  0.45593999997E+02  0.45594000000E+02  0.51100000000E-03 0. -1.
         11   -1    0    0    0    0 -0.00000000000E+00 -0.00000000000E+00 -0.45593999997E+02  0.45594000000E+02  0.51100000000E-03 0.  1.
         23    2    1    2    0    0  0.00000000000E+00  0.00000000000E+00  0.35527136788E-14  0.91188000000E+02  0.91188000000E+02 0.  0.
    9900012    2    3    3    0    0  0.22269766943E+01  0.27570131301E+02  0.29800906683E+02  0.50528860754E+02  0.30000002747E+02 0.  0.
        -12    1    3    3    0    0 -0.22269766943E+01 -0.27570131301E+02 -0.29800906683E+02  0.40659139246E+02  0.00000000000E+00 0.  1.
         11    1    4    4    0    0  0.65891385845E+01  0.20330845358E+02  0.16579295998E+02  0.27048716722E+02  0.51100000000E-03 0. -1.
        -11    1    4    4    0    0 -0.52161703345E+01 -0.27811495526E+01 -0.10674225278E+01  0.60068807968E+01  0.51100000000E-03 0.  1.
        -12    1    4    4    0    0  0.85400844424E+00  0.10020435496E+02  0.14289033212E+02  0.17473263235E+02  0.00000000000E+00 0.  1.
</event>
<event>
 8    1  0.1021894E-011  0.9118800E+02  0.7816164E-02  0.1184000E+00
        -11   -1    0    0    0    0  0.00000000000E+00  0.00000000000E+00  0.45593999997E+02  0.45594000000E+02  0.51100000000E-03 0. -1.
         11   -1    0    0    0    0 -0.00000000000E+00 -0.00000000000E+00 -0.45593999997E+02  0.45594000000E+02  0.51100000000E-03 0.  1.
         23    2    1    2    0    0  0.00000000000E+00  0.00000000000E+00 -0.17763568394E-14  0.91188000000E+02  0.91188000000E+02 0.  0.
    9900012    2    3    3    0    0  0.38213962522E+02 -0.11594952830E+02 -0.76429965344E+01  0.50528865002E+02  0.30000015659E+02 0.  0.
         12    1    3    3    0    0 -0.38213962522E+02  0.11594952830E+02  0.76429965344E+01  0.40659134998E+02  0.00000000000E+00 0. -1.
         11    1    4    4    0    0  0.11869127012E+02 -0.17312641187E+02 -0.24706603577E+01  0.21135465070E+02  0.51100000000E-03 0. -1.
        -11    1    4    4    0    0  0.25220788757E+02  0.24919166663E+01 -0.34807557207E+01  0.25581506891E+02  0.51100000000E-03 0.  1.
        -12    1    4    4    0    0  0.11240467542E+01  0.32257716911E+01 -0.16915804560E+01  0.38118930399E+01  0.00000000000E+00 0.  1.
</event>
<event>
 8    1  0.1021894E-011  0.9118800E+02  0.7816164E-02  0.1184000E+00
        -11   -1    0    0    0    0  0.00000000000E+00  0.00000000000E+00  0.45593999997E+02  0.45594000000E+02  0.51100000000E-03 0. -1.
         11   -1    0    0    0    0 -0.00000000000E+00 -0.00000000000E+00 -0.45593999997E+02  0.45594000000E+02  0.51100000000E-03 0.  1.
         23    2    1    2    0    0  0.35527136788E-14  0.17763568394E-14  0.00000000000E+00  0.91188000000E+02  0.91188000000E+02 0.  0.
    9900012    2    3    3    0    0 -0.17151662457E+02 -0.15273621857E+02  0.33551489759E+02  0.50528861855E+02  0.30000006095E+02 0.  0.
        -12    1    3    3    0    0  0.17151662457E+02  0.15273621857E+02 -0.33551489759E+02  0.40659138145E+02  0.00000000000E+00 0.  1.
         11    1    4    4    0    0 -0.43616470197E+01 -0.12585709284E+02  0.18614244475E+02  0.22889170814E+02  0.51100000000E-03 0. -1.
        -11    1    4    4    0    0  0.30800007902E+01  0.22219352317E+01 -0.16711260798E+01  0.41492244670E+01  0.51100000000E-03 0.  1.
        -12    1    4    4    0    0 -0.15870016228E+02 -0.49098478040E+01  0.16608371364E+02  0.23490466574E+02  0.00000000000E+00 0.  1.
</event>
<event>
 8    1  0.1021894E-011  0.9118800E+02  0.7816164E-02  0.1184000E+00
        -11   -1    0    0    0    0  0.00000000000E+00  0.00000000000E+00  0.45593999997E+02  0.45594000000E+02  0.51100000000E-03 0.  1.
         11   -1    0    0    0    0 -0.00000000000E+00 -0.00000000000E+00 -0.45593999997E+02  0.45594000000E+02  0.51100000000E-03 0. -1.
         23    2    1    2    0    0  0.00000000000E+00  0.00000000000E+00  0.17763568394E-14  0.91188000000E+02  0.91188000000E+02 0.  0.
    9900012    2    3    3    0    0  0.33709477212E+02  0.22611954434E+02  0.23526610697E+01  0.50528876161E+02  0.30000049579E+02 0.  0.
         12    1    3    3    0    0 -0.33709477212E+02 -0.22611954434E+02 -0.23526610697E+01  0.40659123839E+02  0.00000000000E+00 0. -1.
         11    1    4    4    0    0  0.18076349865E+01  0.17987860508E+01 -0.83259183080E+01  0.87077029941E+01  0.51100000000E-03 0. -1.
        -11    1    4    4    0    0  0.19374649261E+02  0.72628036527E+01  0.10856718020E+02  0.23366507598E+02  0.51100000000E-03 0.  1.
        -12    1    4    4    0    0  0.12527192964E+02  0.13550364731E+02 -0.17813864198E+00  0.18454665569E+02  0.00000000000E+00 0.  1.
</event>
<event>
 8    1  0.1021894E-011  0.9118800E+02  0.7816164E-02  0.1184000E+00
        -11   -1    0    0    0    0  0.00000000000E+00  0.00000000000E+00  0.45593999997E+02  0.45594000000E+02  0.51100000000E-03 0.  1.
         11   -1    0    0    0    0 -0.00000000000E+00 -0.00000000000E+00 -0.45593999997E+02  0.45594000000E+02  0.51100000000E-03 0. -1.
         23    2    1    2    0    0  0.00000000000E+00  0.00000000000E+00  0.17763568394E-14  0.91188000000E+02  0.91188000000E+02 0.  0.
    9900012    2    3    3    0    0 -0.36317359923E+02 -0.14385955708E+02 -0.11280915794E+02  0.50528863086E+02  0.30000009836E+02 0.  0.
         12    1    3    3    0    0  0.36317359923E+02  0.14385955708E+02  0.11280915794E+02  0.40659136914E+02  0.00000000000E+00 0. -1.
         11    1    4    4    0    0 -0.26263287100E+02 -0.86133677460E+01 -0.14183929873E+02  0.31066609408E+02  0.51100000000E-03 0. -1.
        -11    1    4    4    0    0 -0.83013794106E+00 -0.92835357706E+01  0.67925377500E+00  0.93452956805E+01  0.51100000000E-03 0.  1.
        -12    1    4    4    0    0 -0.92239348824E+01  0.35109478082E+01  0.22237603045E+01  0.10116957997E+02  0.00000000000E+00 0.  1.
</event>
<event>
 8    1  0.1021894E-011  0.9118800E+02  0.7816164E-02  0.1184000E+00
        -11   -1    0    0    0    0  0.00000000000E+00  0.00000000000E+00  0.45593999997E+02  0.45594000000E+02  0.51100000000E-03 0. -1.
         11   -1    0    0    0    0 -0.00000000000E+00 -0.00000000000E+00 -0.45593999997E+02  0.45594000000E+02  0.51100000000E-03 0.  1.
         23    2    1    2    0    0  0.00000000000E+00  0.71054273576E-14 -0.35527136788E-14  0.91188000000E+02  0.91188000000E+02 0.  0.
    9900012    2    3    3    0    0 -0.28934788828E+02 -0.13029984517E+02  0.25419741012E+02  0.50528859156E+02  0.29999997891E+02 0.  0.
        -12    1    3    3    0    0  0.28934788828E+02  0.13029984517E+02 -0.25419741012E+02  0.40659140844E+02  0.00000000000E+00 0.  1.
         11    1    4    4    0    0 -0.83080144799E+01  0.87184257953E+01  0.64468322873E+01  0.13660003651E+02  0.51100000000E-03 0. -1.
        -11    1    4    4    0    0  0.71977625305E+00 -0.33451144179E+01  0.18273016346E+01  0.38790333652E+01  0.51100000000E-03 0.  1.
         12    1    4    4    0    0 -0.21346550602E+02 -0.18403295894E+02  0.17145607090E+02  0.32989822140E+02  0.00000000000E+00 0. -1.
</event>
<event>
 8    1  0.1021894E-011  0.9118800E+02  0.7816164E-02  0.1184000E+00
        -11   -1    0    0    0    0  0.00000000000E+00  0.00000000000E+00  0.45593999997E+02  0.45594000000E+02  0.51100000000E-03 0. -1.
         11   -1    0    0    0    0 -0.00000000000E+00 -0.00000000000E+00 -0.45593999997E+02  0.45594000000E+02  0.51100000000E-03 0.  1.
         23    2    1    2    0    0  0.00000000000E+00  0.00000000000E+00 -0.71054273576E-14  0.91188000000E+02  0.91188000000E+02 0.  0.
    9900012    2    3    3    0    0  0.17580840398E+02 -0.11947048237E+02  0.34660465792E+02  0.50528858352E+02  0.29999995445E+02 0.  0.
        -12    1    3    3    0    0 -0.17580840398E+02  0.11947048237E+02 -0.34660465792E+02  0.40659141648E+02  0.00000000000E+00 0.  1.
         11    1    4    4    0    0  0.11717385617E+02 -0.19177309498E+02  0.27914914474E+02  0.35837254019E+02  0.51100000000E-03 0. -1.
        -11    1    4    4    0    0 -0.91504075239E+00  0.63199863894E+00 -0.16860056458E+01  0.20197369029E+01  0.51100000000E-03 0.  1.
         12    1    4    4    0    0  0.67784955327E+01  0.65982626220E+01  0.84315569637E+01  0.12671867429E+02  0.00000000000E+00 0. -1.
</event>
<event>
 8    1  0.1021894E-011  0.9118800E+02  0.7816164E-02  0.1184000E+00
        -11   -1    0    0    0    0  0.00000000000E+00  0.00000000000E+00  0.45593999997E+02  0.45594000000E+02  0.51100000000E-03 0. -1.
         11   -1    0    0    0    0 -0.00000000000E+00 -0.00000000000E+00 -0.45593999997E+02  0.45594000000E+02  0.51100000000E-03 0.  1.
         23    2    1    2    0    0  0.00000000000E+00  0.35527136788E-14  0.00000000000E+00  0.91188000000E+02  0.91188000000E+02 0.  0.
    9900012    2    3    3    0    0  0.28313039213E+02 -0.23545790646E+02  0.17237529066E+02  0.50528869969E+02  0.30000030758E+02 0.  0.
        -12    1    3    3    0    0 -0.28313039213E+02  0.23545790646E+02 -0.17237529066E+02  0.40659130031E+02  0.00000000000E+00 0.  1.
         11    1    4    4    0    0  0.62991066632E+01 -0.15613468161E+02  0.91386483195E+01  0.19156566136E+02  0.51100000000E-03 0. -1.
        -11    1    4    4    0    0  0.13748419313E+02  0.52759251078E+01  0.37721771541E+01  0.15201438751E+02  0.51100000000E-03 0.  1.
        -12    1    4    4    0    0  0.82655132366E+01 -0.13208247593E+02  0.43267035924E+01  0.16170865082E+02  0.00000000000E+00 0.  1.
</event>
<event>
 8    1  0.1021894E-011  0.9118800E+02  0.7816164E-02  0.1184000E+00
        -11   -1    0    0    0    0  0.00000000000E+00  0.00000000000E+00  0.45593999997E+02  0.45594000000E+02  0.51100000000E-03 0. -1.
         11   -1    0    0    0    0 -0.00000000000E+00 -0.00000000000E+00 -0.45593999997E+02  0.45594000000E+02  0.51100000000E-03 0.  1.
         23    2    1    2    0    0  0.00000000000E+00  0.00000000000E+00  0.00000000000E+00  0.91188000000E+02  0.91188000000E+02 0.  0.
    9900012    2    3    3    0    0 -0.11267387844E+02  0.10885890253E+02 -0.37519441502E+02  0.50528866635E+02  0.30000020623E+02 0.  0.
         12    1    3    3    0    0  0.11267387844E+02 -0.10885890253E+02  0.37519441502E+02  0.40659133365E+02  0.00000000000E+00 0. -1.
         11    1    4    4    0    0 -0.44726088661E+01 -0.21548207884E+01 -0.30298545792E+01  0.58161414814E+01  0.51100000000E-03 0. -1.
        -11    1    4    4    0    0 -0.97679567653E+01  0.18266700596E+02 -0.19044306772E+02  0.28138424808E+02  0.51100000000E-03 0.  1.
        -12    1    4    4    0    0  0.29731777876E+01 -0.52259895544E+01 -0.15445280151E+02  0.16574300345E+02  0.00000000000E+00 0.  1.
</event>
<event>
 8    1  0.1021894E-011  0.9118800E+02  0.7816164E-02  0.1184000E+00
        -11   -1    0    0    0    0  0.00000000000E+00  0.00000000000E+00  0.45593999997E+02  0.45594000000E+02  0.51100000000E-03 0. -1.
         11   -1    0    0    0    0 -0.00000000000E+00 -0.00000000000E+00 -0.45593999997E+02  0.45594000000E+02  0.51100000000E-03 0.  1.
         23    2    1    2    0    0  0.00000000000E+00  0.00000000000E+00  0.88817841970E-15  0.91188000000E+02  0.91188000000E+02 0.  0.
    9900012    2    3    3    0    0  0.33568360545E+02  0.21849584444E+02  0.69947138232E+01  0.50528865830E+02  0.30000018176E+02 0.  0.
        -12    1    3    3    0    0 -0.33568360545E+02 -0.21849584444E+02 -0.69947138232E+01  0.40659134170E+02  0.00000000000E+00 0.  1.
         11    1    4    4    0    0  0.14126952986E+02  0.11614171545E+02 -0.84495333418E+01  0.20145828236E+02  0.51100000000E-03 0. -1.
        -11    1    4    4    0    0  0.17758788975E+02  0.13450308304E+02  0.14666779357E+02  0.26672078965E+02  0.51100000000E-03 0.  1.
        -12    1    4    4    0    0  0.16826185830E+01 -0.32148954044E+01  0.77746780812E+00  0.37109586295E+01  0.00000000000E+00 0.  1.
</event>
<event>
 8    1  0.1021894E-011  0.9118800E+02  0.7816164E-02  0.1184000E+00
        -11   -1    0    0    0    0  0.00000000000E+00  0.00000000000E+00  0.45593999997E+02  0.45594000000E+02  0.51100000000E-03 0. -1.
         11   -1    0    0    0    0 -0.00000000000E+00 -0.00000000000E+00 -0.45593999997E+02  0.45594000000E+02  0.51100000000E-03 0.  1.
         23    2    1    2    0    0  0.00000000000E+00  0.00000000000E+00  0.71054273576E-14  0.91188000000E+02  0.91188000000E+02 0.  0.
    9900012    2    3    3    0    0 -0.17410353521E+02  0.12756868515E+02 -0.34457325770E+02  0.50528863226E+02  0.30000010261E+02 0.  0.
         12    1    3    3    0    0  0.17410353521E+02 -0.12756868515E+02  0.34457325770E+02  0.40659136774E+02  0.00000000000E+00 0. -1.
         11    1    4    4    0    0 -0.62758831610E+01 -0.38468933319E+01  0.80105624182E+00  0.74045249085E+01  0.51100000000E-03 0. -1.
        -11    1    4    4    0    0 -0.99549856068E+01  0.10925066036E+02 -0.11666329541E+02  0.18829818150E+02  0.51100000000E-03 0.  1.
         12    1    4    4    0    0 -0.11794847534E+01  0.56786958104E+01 -0.23592052471E+02  0.24294520167E+02  0.00000000000E+00 0. -1.
</event>
<event>
 8    1  0.1021894E-011  0.9118800E+02  0.7816164E-02  0.1184000E+00
        -11   -1    0    0    0    0  0.00000000000E+00  0.00000000000E+00  0.45593999997E+02  0.45594000000E+02  0.51100000000E-03 0. -1.
         11   -1    0    0    0    0 -0.00000000000E+00 -0.00000000000E+00 -0.45593999997E+02  0.45594000000E+02  0.51100000000E-03 0.  1.
         23    2    1    2    0    0  0.00000000000E+00  0.00000000000E+00 -0.35527136788E-14  0.91188000000E+02  0.91188000000E+02 0.  0.
    9900012    2    3    3    0    0 -0.24169882786E+01  0.29005804497E+02 -0.28389904747E+02  0.50528865499E+02  0.30000017170E+02 0.  0.
         12    1    3    3    0    0  0.24169882786E+01 -0.29005804497E+02  0.28389904747E+02  0.40659134501E+02  0.00000000000E+00 0. -1.
         11    1    4    4    0    0  0.29195146895E+01  0.18980438690E+02 -0.24763488538E+00  0.19205258191E+02  0.51100000000E-03 0. -1.
        -11    1    4    4    0    0 -0.33780048368E+01  0.10435367195E+02 -0.18767582357E+02  0.21737754092E+02  0.51100000000E-03 0.  1.
        -12    1    4    4    0    0 -0.19584981313E+01 -0.41000138827E+00 -0.93746875042E+01  0.95858532156E+01  0.00000000000E+00 0.  1.
</event>
<event>
 8    1  0.1021894E-011  0.9118800E+02  0.7816164E-02  0.1184000E+00
        -11   -1    0    0    0    0  0.00000000000E+00  0.00000000000E+00  0.45593999997E+02  0.45594000000E+02  0.51100000000E-03 0.  1.
         11   -1    0    0    0    0 -0.00000000000E+00 -0.00000000000E+00 -0.45593999997E+02  0.45594000000E+02  0.51100000000E-03 0. -1.
         23    2    1    2    0    0  0.00000000000E+00  0.00000000000E+00  0.35527136788E-14  0.91188000000E+02  0.91188000000E+02 0.  0.
    9900012    2    3    3    0    0  0.15151102257E+02 -0.29048468150E+02 -0.24078969083E+02  0.50528853998E+02  0.29999982214E+02 0.  0.
        -12    1    3    3    0    0 -0.15151102257E+02  0.29048468150E+02  0.24078969083E+02  0.40659146002E+02  0.00000000000E+00 0.  1.
         11    1    4    4    0    0 -0.53080351324E+01 -0.12265057567E+02 -0.13961685892E+02  0.19327067737E+02  0.51100000000E-03 0. -1.
        -11    1    4    4    0    0  0.11664313745E+02 -0.66583418247E+01  0.14264804584E+01  0.13506464295E+02  0.51100000000E-03 0.  1.
        -12    1    4    4    0    0  0.87948236446E+01 -0.10125068758E+02 -0.11543763649E+02  0.17695321966E+02  0.00000000000E+00 0.  1.
</event>
<event>
 8    1  0.1021894E-011  0.9118800E+02  0.7816164E-02  0.1184000E+00
        -11   -1    0    0    0    0  0.00000000000E+00  0.00000000000E+00  0.45593999997E+02  0.45594000000E+02  0.51100000000E-03 0.  1.
         11   -1    0    0    0    0 -0.00000000000E+00 -0.00000000000E+00 -0.45593999997E+02  0.45594000000E+02  0.51100000000E-03 0. -1.
         23    2    1    2    0    0  0.00000000000E+00  0.35527136788E-14  0.00000000000E+00  0.91188000000E+02  0.91188000000E+02 0.  0.
    9900012    2    3    3    0    0 -0.21629898910E+02  0.27628744074E+02 -0.20541803197E+02  0.50528859520E+02  0.29999998999E+02 0.  0.
        -12    1    3    3    0    0  0.21629898910E+02 -0.27628744074E+02  0.20541803197E+02  0.40659140480E+02  0.00000000000E+00 0.  1.
         11    1    4    4    0    0 -0.18833754139E+02  0.25797675567E+02 -0.21236068395E+02  0.38356237573E+02  0.51100000000E-03 0. -1.
        -11    1    4    4    0    0 -0.25580476723E+01 -0.48045551074E+01 -0.33512194878E+00  0.54534085356E+01  0.51100000000E-03 0.  1.
         12    1    4    4    0    0 -0.23809709886E+00  0.66356236137E+01  0.10293871469E+01  0.67192134116E+01  0.00000000000E+00 0. -1.
</event>
<event>
 8    1  0.1021894E-011  0.9118800E+02  0.7816164E-02  0.1184000E+00
        -11   -1    0    0    0    0  0.00000000000E+00  0.00000000000E+00  0.45593999997E+02  0.45594000000E+02  0.51100000000E-03 0. -1.
         11   -1    0    0    0    0 -0.00000000000E+00 -0.00000000000E+00 -0.45593999997E+02  0.45594000000E+02  0.51100000000E-03 0.  1.
         23    2    1    2    0    0  0.00000000000E+00  0.00000000000E+00  0.00000000000E+00  0.91188000000E+02  0.91188000000E+02 0.  0.
    9900012    2    3    3    0    0 -0.17438631490E+02 -0.12411157084E+02  0.34569129105E+02  0.50528838972E+02  0.29999936540E+02 0.  0.
        -12    1    3    3    0    0  0.17438631490E+02  0.12411157084E+02 -0.34569129105E+02  0.40659161028E+02  0.00000000000E+00 0.  1.
         11    1    4    4    0    0 -0.44729359835E+01  0.46978910795E+01  0.13015156813E+02  0.14542064642E+02  0.51100000000E-03 0. -1.
        -11    1    4    4    0    0 -0.17974078754E+02 -0.11927068044E+02  0.15320953275E+02  0.26458534893E+02  0.51100000000E-03 0.  1.
        -12    1    4    4    0    0  0.50083832476E+01 -0.51819801200E+01  0.62330190158E+01  0.95282394371E+01  0.00000000000E+00 0.  1.
</event>
<event>
 8    1  0.1021894E-011  0.9118800E+02  0.7816164E-02  0.1184000E+00
        -11   -1    0    0    0    0  0.00000000000E+00  0.00000000000E+00  0.45593999997E+02  0.45594000000E+02  0.51100000000E-03 0. -1.
         11   -1    0    0    0    0 -0.00000000000E+00 -0.00000000000E+00 -0.45593999997E+02  0.45594000000E+02  0.51100000000E-03 0.  1.
         23    2    1    2    0    0  0.22204460493E-15  0.00000000000E+00  0.00000000000E+00  0.91188000000E+02  0.91188000000E+02 0.  0.
    9900012    2    3    3    0    0 -0.12251947248E+01 -0.35212357324E+02  0.20291747643E+02  0.50528853024E+02  0.29999979251E+02 0.  0.
        -12    1    3    3    0    0  0.12251947248E+01  0.35212357324E+02 -0.20291747643E+02  0.40659146976E+02  0.00000000000E+00 0.  1.
         11    1    4    4    0    0 -0.71796385720E+01 -0.95189425724E+01  0.54543267394E+01  0.13111337009E+02  0.51100000000E-03 0. -1.
        -11    1    4    4    0    0  0.10560522263E+02 -0.50768220064E+01  0.20382358104E+00  0.11719227640E+02  0.51100000000E-03 0.  1.
        -12    1    4    4    0    0 -0.46060784163E+01 -0.20616592745E+02  0.14633597322E+02  0.25698288375E+02  0.00000000000E+00 0.  1.
</event>
<event>
 8    1  0.1021894E-011  0.9118800E+02  0.7816164E-02  0.1184000E+00
        -11   -1    0    0    0    0  0.00000000000E+00  0.00000000000E+00  0.45593999997E+02  0.45594000000E+02  0.51100000000E-03 0.  1.
         11   -1    0    0    0    0 -0.00000000000E+00 -0.00000000000E+00 -0.45593999997E+02  0.45594000000E+02  0.51100000000E-03 0. -1.
         23    2    1    2    0    0  0.00000000000E+00 -0.88817841970E-15  0.00000000000E+00  0.91188000000E+02  0.91188000000E+02 0.  0.
    9900012    2    3    3    0    0 -0.39856172518E+02  0.53366329390E+01 -0.60143399710E+01  0.50528850671E+02  0.29999972099E+02 0.  0.
         12    1    3    3    0    0  0.39856172518E+02 -0.53366329390E+01  0.60143399710E+01  0.40659149329E+02  0.00000000000E+00 0. -1.
         11    1    4    4    0    0 -0.47888847258E+01  0.25308793782E+01  0.64661447459E+01  0.84350338162E+01  0.51100000000E-03 0. -1.
        -11    1    4    4    0    0 -0.34721788537E+02  0.69648664890E+01 -0.87087118871E+01  0.36468529274E+02  0.51100000000E-03 0.  1.
         12    1    4    4    0    0 -0.34549925455E+00 -0.41591129282E+01 -0.37717728297E+01  0.56252875805E+01  0.00000000000E+00 0. -1.
</event>
<event>
 8    1  0.1021894E-011  0.9118800E+02  0.7816164E-02  0.1184000E+00
        -11   -1    0    0    0    0  0.00000000000E+00  0.00000000000E+00  0.45593999997E+02  0.45594000000E+02  0.51100000000E-03 0. -1.
         11   -1    0    0    0    0 -0.00000000000E+00 -0.00000000000E+00 -0.45593999997E+02  0.45594000000E+02  0.51100000000E-03 0.  1.
         23    2    1    2    0    0  0.00000000000E+00  0.00000000000E+00  0.00000000000E+00  0.91188000000E+02  0.91188000000E+02 0.  0.
    9900012    2    3    3    0    0  0.19727389839E+02  0.34594610968E+02  0.81981812970E+01  0.50528841198E+02  0.29999943305E+02 0.  0.
        -12    1    3    3    0    0 -0.19727389839E+02 -0.34594610968E+02 -0.81981812970E+01  0.40659158802E+02  0.00000000000E+00 0.  1.
         11    1    4    4    0    0  0.12397155720E+02  0.65896726262E+01  0.11700526525E+02  0.18276093031E+02  0.51100000000E-03 0. -1.
        -11    1    4    4    0    0  0.47594029635E+01  0.28575931640E+02 -0.47197008481E+01  0.29351513794E+02  0.51100000000E-03 0.  1.
        -12    1    4    4    0    0  0.25708311561E+01 -0.57099329799E+00  0.12173556205E+01  0.29012343729E+01  0.00000000000E+00 0.  1.
</event>
<event>
 8    1  0.1021894E-011  0.9118800E+02  0.7816164E-02  0.1184000E+00
        -11   -1    0    0    0    0  0.00000000000E+00  0.00000000000E+00  0.45593999997E+02  0.45594000000E+02  0.51100000000E-03 0. -1.
         11   -1    0    0    0    0 -0.00000000000E+00 -0.00000000000E+00 -0.45593999997E+02  0.45594000000E+02  0.51100000000E-03 0.  1.
         23    2    1    2    0    0  0.00000000000E+00 -0.35527136788E-14  0.35527136788E-14  0.91188000000E+02  0.91188000000E+02 0.  0.
    9900012    2    3    3    0    0 -0.92520586325E+01 -0.26654225996E+02 -0.29276485187E+02  0.50528918145E+02  0.30000177193E+02 0.  0.
         12    1    3    3    0    0  0.92520586325E+01  0.26654225996E+02  0.29276485187E+02  0.40659081855E+02  0.00000000000E+00 0. -1.
         11    1    4    4    0    0 -0.96517845382E+01 -0.87138623822E+01  0.77035931256E-01  0.13003625540E+02  0.51100000000E-03 0. -1.
        -11    1    4    4    0    0 -0.26041729827E+01 -0.96475351755E-01 -0.12595927141E+02  0.12862674886E+02  0.51100000000E-03 0.  1.
         12    1    4    4    0    0  0.30038988884E+01 -0.17843888262E+02 -0.16757593977E+02  0.24662617719E+02  0.00000000000E+00 0. -1.
</event>
<event>
 8    1  0.1021894E-011  0.9118800E+02  0.7816164E-02  0.1184000E+00
        -11   -1    0    0    0    0  0.00000000000E+00  0.00000000000E+00  0.45593999997E+02  0.45594000000E+02  0.51100000000E-03 0. -1.
         11   -1    0    0    0    0 -0.00000000000E+00 -0.00000000000E+00 -0.45593999997E+02  0.45594000000E+02  0.51100000000E-03 0.  1.
         23    2    1    2    0    0 -0.35527136788E-14  0.15265566589E-15  0.00000000000E+00  0.91188000000E+02  0.91188000000E+02 0.  0.
    9900012    2    3    3    0    0 -0.18217043257E+02 -0.19575993092E-01  0.36349749195E+02  0.50528864313E+02  0.30000013567E+02 0.  0.
        -12    1    3    3    0    0  0.18217043257E+02  0.19575993092E-01 -0.36349749195E+02  0.40659135687E+02  0.00000000000E+00 0.  1.
         11    1    4    4    0    0  0.47083149787E+00 -0.48392010274E+01  0.12016527286E+02  0.12962888457E+02  0.51100000000E-03 0. -1.
        -11    1    4    4    0    0 -0.20693017666E+02  0.85733415863E+01  0.24640113168E+02  0.33299224365E+02  0.51100000000E-03 0.  1.
        -12    1    4    4    0    0  0.20051429111E+01 -0.37537165520E+01 -0.30689125914E+00  0.42667514917E+01  0.00000000000E+00 0.  1.
</event>
<event>
 8    1  0.1021894E-011  0.9118800E+02  0.7816164E-02  0.1184000E+00
        -11   -1    0    0    0    0  0.00000000000E+00  0.00000000000E+00  0.45593999997E+02  0.45594000000E+02  0.51100000000E-03 0. -1.
         11   -1    0    0    0    0 -0.00000000000E+00 -0.00000000000E+00 -0.45593999997E+02  0.45594000000E+02  0.51100000000E-03 0.  1.
         23    2    1    2    0    0 -0.35527136788E-14  0.35527136788E-14 -0.35527136788E-14  0.91188000000E+02  0.91188000000E+02 0.  0.
    9900012    2    3    3    0    0  0.21971573939E+02 -0.21851740535E+02  0.26323318003E+02  0.50528859620E+02  0.29999999301E+02 0.  0.
        -12    1    3    3    0    0 -0.21971573939E+02  0.21851740535E+02 -0.26323318003E+02  0.40659140380E+02  0.00000000000E+00 0.  1.
         11    1    4    4    0    0 -0.23650537347E+01  0.32991191130E+00 -0.35937667424E+01  0.43147978744E+01  0.51100000000E-03 0.  1.
        -11    1    4    4    0    0  0.17692438468E+02 -0.18581099692E+02  0.28806507493E+02  0.38575828169E+02  0.51100000000E-03 0. -1.
         12    1    4    4    0    0  0.66441892057E+01 -0.36005527540E+01  0.11105772526E+01  0.76382335765E+01  0.00000000000E+00 0. -1.
</event>
<event>
 8    1  0.1021894E-011  0.9118800E+02  0.7816164E-02  0.1184000E+00
        -11   -1    0    0    0    0  0.00000000000E+00  0.00000000000E+00  0.45593999997E+02  0.45594000000E+02  0.51100000000E-03 0. -1.
         11   -1    0    0    0    0 -0.00000000000E+00 -0.00000000000E+00 -0.45593999997E+02  0.45594000000E+02  0.51100000000E-03 0.  1.
         23    2    1    2    0    0  0.00000000000E+00  0.00000000000E+00  0.00000000000E+00  0.91188000000E+02  0.91188000000E+02 0.  0.
    9900012    2    3    3    0    0  0.70802850319E+01  0.19590089976E+02 -0.34917965895E+02  0.50528850923E+02  0.29999972866E+02 0.  0.
         12    1    3    3    0    0 -0.70802850319E+01 -0.19590089976E+02  0.34917965895E+02  0.40659149077E+02  0.00000000000E+00 0. -1.
         11    1    4    4    0    0 -0.73820442229E+01  0.36760232969E+01 -0.18105625888E+01  0.84430954831E+01  0.51100000000E-03 0. -1.
        -11    1    4    4    0    0  0.10011064794E+02  0.13871169706E+02 -0.33019141346E+02  0.37187288995E+02  0.51100000000E-03 0.  1.
         12    1    4    4    0    0  0.44512644604E+01  0.20428969731E+01 -0.88261960953E-01  0.48984664450E+01  0.00000000000E+00 0. -1.
</event>
<event>
 8    1  0.1021894E-011  0.9118800E+02  0.7816164E-02  0.1184000E+00
        -11   -1    0    0    0    0  0.00000000000E+00  0.00000000000E+00  0.45593999997E+02  0.45594000000E+02  0.51100000000E-03 0. -1.
         11   -1    0    0    0    0 -0.00000000000E+00 -0.00000000000E+00 -0.45593999997E+02  0.45594000000E+02  0.51100000000E-03 0.  1.
         23    2    1    2    0    0  0.00000000000E+00 -0.22204460493E-15  0.35527136788E-14  0.91188000000E+02  0.91188000000E+02 0.  0.
    9900012    2    3    3    0    0  0.26138013491E+02 -0.11063064959E+01  0.31124667380E+02  0.50528873315E+02  0.30000040927E+02 0.  0.
        -12    1    3    3    0    0 -0.26138013491E+02  0.11063064959E+01 -0.31124667380E+02  0.40659126685E+02  0.00000000000E+00 0.  1.
         11    1    4    4    0    0  0.24945146105E+02  0.63271663053E-01  0.14608943330E+02  0.28908226217E+02  0.51100000000E-03 0. -1.
        -11    1    4    4    0    0 -0.33640682604E+01  0.11696893224E+01  0.16091364118E+02  0.16480810896E+02  0.51100000000E-03 0.  1.
        -12    1    4    4    0    0  0.45569356455E+01 -0.23392674814E+01  0.42435993302E+00  0.51398362016E+01  0.00000000000E+00 0.  1.
</event>
<event>
 8    1  0.1021894E-011  0.9118800E+02  0.7816164E-02  0.1184000E+00
        -11   -1    0    0    0    0  0.00000000000E+00  0.00000000000E+00  0.45593999997E+02  0.45594000000E+02  0.51100000000E-03 0. -1.
         11   -1    0    0    0    0 -0.00000000000E+00 -0.00000000000E+00 -0.45593999997E+02  0.45594000000E+02  0.51100000000E-03 0.  1.
         23    2    1    2    0    0 -0.17763568394E-14  0.00000000000E+00  0.71054273576E-14  0.91188000000E+02  0.91188000000E+02 0.  0.
    9900012    2    3    3    0    0 -0.14834399492E+02 -0.94157319687E+01  0.36666748826E+02  0.50528857286E+02  0.29999992205E+02 0.  0.
        -12    1    3    3    0    0  0.14834399492E+02  0.94157319687E+01 -0.36666748826E+02  0.40659142714E+02  0.00000000000E+00 0.  1.
         11    1    4    4    0    0 -0.37522071949E+01 -0.58243110812E+01  0.25397685272E+02  0.26325730301E+02  0.51100000000E-03 0. -1.
        -11    1    4    4    0    0 -0.36721883398E+01 -0.61276491599E+01 -0.31397658153E+01  0.78032801478E+01  0.51100000000E-03 0.  1.
         12    1    4    4    0    0 -0.74100039578E+01  0.25362282724E+01  0.14408829369E+02  0.16399846837E+02  0.00000000000E+00 0. -1.
</event>
<event>
 8    1  0.1021894E-011  0.9118800E+02  0.7816164E-02  0.1184000E+00
        -11   -1    0    0    0    0  0.00000000000E+00  0.00000000000E+00  0.45593999997E+02  0.45594000000E+02  0.51100000000E-03 0. -1.
         11   -1    0    0    0    0 -0.00000000000E+00 -0.00000000000E+00 -0.45593999997E+02  0.45594000000E+02  0.51100000000E-03 0.  1.
         23    2    1    2    0    0  0.17763568394E-14 -0.35527136788E-14 -0.35527136788E-14  0.91188000000E+02  0.91188000000E+02 0.  0.
    9900012    2    3    3    0    0  0.15510028266E+02 -0.28734681993E+02 -0.24226487457E+02  0.50528860553E+02  0.30000002138E+02 0.  0.
         12    1    3    3    0    0 -0.15510028266E+02  0.28734681993E+02  0.24226487457E+02  0.40659139447E+02  0.00000000000E+00 0. -1.
         11    1    4    4    0    0 -0.36206851670E+01 -0.13212258055E+02 -0.30149355782E+01  0.14027222134E+02  0.51100000000E-03 0. -1.
        -11    1    4    4    0    0  0.19568146219E+02 -0.84217178729E+01 -0.10781348424E+02  0.23876246617E+02  0.51100000000E-03 0.  1.
        -12    1    4    4    0    0 -0.43743278660E+00 -0.71007060652E+01 -0.10430203454E+02  0.12625391803E+02  0.00000000000E+00 0.  1.
</event>
<event>
 8    1  0.1021894E-011  0.9118800E+02  0.7816164E-02  0.1184000E+00
        -11   -1    0    0    0    0  0.00000000000E+00  0.00000000000E+00  0.45593999997E+02  0.45594000000E+02  0.51100000000E-03 0. -1.
         11   -1    0    0    0    0 -0.00000000000E+00 -0.00000000000E+00 -0.45593999997E+02  0.45594000000E+02  0.51100000000E-03 0.  1.
         23    2    1    2    0    0  0.17763568394E-14 -0.71054273576E-14 -0.35527136788E-14  0.91188000000E+02  0.91188000000E+02 0.  0.
    9900012    2    3    3    0    0 -0.11466059155E+02 -0.34050226737E+02  0.19033585165E+02  0.50528858130E+02  0.29999994771E+02 0.  0.
        -12    1    3    3    0    0  0.11466059155E+02  0.34050226737E+02 -0.19033585165E+02  0.40659141870E+02  0.00000000000E+00 0.  1.
         11    1    4    4    0    0 -0.30101631517E+01  0.58156784422E+00 -0.44266535920E+01  0.53846602160E+01  0.51100000000E-03 0. -1.
        -11    1    4    4    0    0 -0.70946352158E+01 -0.35181156528E+02  0.24402697919E+02  0.43399761399E+02  0.51100000000E-03 0.  1.
        -12    1    4    4    0    0 -0.13612607880E+01  0.54936194725E+00 -0.94245916166E+00  0.17444365146E+01  0.00000000000E+00 0.  1.
</event>
<event>
 8    1  0.1021894E-011  0.9118800E+02  0.7816164E-02  0.1184000E+00
        -11   -1    0    0    0    0  0.00000000000E+00  0.00000000000E+00  0.45593999997E+02  0.45594000000E+02  0.51100000000E-03 0. -1.
         11   -1    0    0    0    0 -0.00000000000E+00 -0.00000000000E+00 -0.45593999997E+02  0.45594000000E+02  0.51100000000E-03 0.  1.
         23    2    1    2    0    0 -0.35527136788E-14  0.00000000000E+00 -0.71054273576E-14  0.91188000000E+02  0.91188000000E+02 0.  0.
    9900012    2    3    3    0    0  0.20546319610E+02 -0.72722739074E+01  0.34323851778E+02  0.50528880258E+02  0.30000062033E+02 0.  0.
        -12    1    3    3    0    0 -0.20546319610E+02  0.72722739074E+01 -0.34323851778E+02  0.40659119742E+02  0.00000000000E+00 0.  1.
         11    1    4    4    0    0  0.14222667005E+01 -0.15493502819E+02  0.10126367786E+02  0.18563803408E+02  0.51100000000E-03 0. -1.
        -11    1    4    4    0    0  0.12271001876E+02  0.59370700419E+01  0.16634300812E+02  0.21506423494E+02  0.51100000000E-03 0.  1.
         12    1    4    4    0    0  0.68530510339E+01  0.22841588700E+01  0.75631831801E+01  0.10458653357E+02  0.00000000000E+00 0. -1.
</event>
<event>
 8    1  0.1021894E-011  0.9118800E+02  0.7816164E-02  0.1184000E+00
        -11   -1    0    0    0    0  0.00000000000E+00  0.00000000000E+00  0.45593999997E+02  0.45594000000E+02  0.51100000000E-03 0. -1.
         11   -1    0    0    0    0 -0.00000000000E+00 -0.00000000000E+00 -0.45593999997E+02  0.45594000000E+02  0.51100000000E-03 0.  1.
         23    2    1    2    0    0 -0.88817841970E-15  0.00000000000E+00  0.00000000000E+00  0.91188000000E+02  0.91188000000E+02 0.  0.
    9900012    2    3    3    0    0  0.72099399435E+01  0.26726156919E+02  0.29780783426E+02  0.50528858850E+02  0.29999996959E+02 0.  0.
        -12    1    3    3    0    0 -0.72099399435E+01 -0.26726156919E+02 -0.29780783426E+02  0.40659141150E+02  0.00000000000E+00 0.  1.
         11    1    4    4    0    0 -0.89005409762E+01  0.15835636454E+02  0.13424720106E+02  0.22587831276E+02  0.51100000000E-03 0. -1.
        -11    1    4    4    0    0  0.13422417402E+02  0.32429289414E+01  0.13593895698E+02  0.19377096726E+02  0.51100000000E-03 0.  1.
         12    1    4    4    0    0  0.26880635179E+01  0.76475915233E+01  0.27621676219E+01  0.85639308472E+01  0.00000000000E+00 0. -1.
</event>
<event>
 8    1  0.1021894E-011  0.9118800E+02  0.7816164E-02  0.1184000E+00
        -11   -1    0    0    0    0  0.00000000000E+00  0.00000000000E+00  0.45593999997E+02  0.45594000000E+02  0.51100000000E-03 0. -1.
         11   -1    0    0    0    0 -0.00000000000E+00 -0.00000000000E+00 -0.45593999997E+02  0.45594000000E+02  0.51100000000E-03 0.  1.
         23    2    1    2    0    0  0.00000000000E+00  0.00000000000E+00  0.00000000000E+00  0.91188000000E+02  0.91188000000E+02 0.  0.
    9900012    2    3    3    0    0  0.35839546858E+02  0.11102673540E+02 -0.15666023021E+02  0.50528846590E+02  0.29999959695E+02 0.  0.
         12    1    3    3    0    0 -0.35839546858E+02 -0.11102673540E+02  0.15666023021E+02  0.40659153410E+02  0.00000000000E+00 0. -1.
         11    1    4    4    0    0  0.12850463715E+01  0.11291337581E+02 -0.63446454941E+01  0.13015382255E+02  0.51100000000E-03 0. -1.
        -11    1    4    4    0    0  0.20136929637E+02 -0.37010173628E+01 -0.99622450551E+00  0.20498437215E+02  0.51100000000E-03 0.  1.
        -12    1    4    4    0    0  0.14417570850E+02  0.35123533216E+01 -0.83251530212E+01  0.17015027120E+02  0.00000000000E+00 0.  1.
</event>
<event>
 8    1  0.1021894E-011  0.9118800E+02  0.7816164E-02  0.1184000E+00
        -11   -1    0    0    0    0  0.00000000000E+00  0.00000000000E+00  0.45593999997E+02  0.45594000000E+02  0.51100000000E-03 0. -1.
         11   -1    0    0    0    0 -0.00000000000E+00 -0.00000000000E+00 -0.45593999997E+02  0.45594000000E+02  0.51100000000E-03 0.  1.
         23    2    1    2    0    0 -0.44408920985E-15  0.00000000000E+00  0.35527136788E-14  0.91188000000E+02  0.91188000000E+02 0.  0.
    9900012    2    3    3    0    0  0.31786669820E+01 -0.36747532581E+02  0.17107914591E+02  0.50528858147E+02  0.29999994823E+02 0.  0.
        -12    1    3    3    0    0 -0.31786669820E+01  0.36747532581E+02 -0.17107914591E+02  0.40659141853E+02  0.00000000000E+00 0.  1.
         11    1    4    4    0    0  0.58370543880E+01 -0.34755709173E+01  0.73305642107E+01  0.99943968821E+01  0.51100000000E-03 0. -1.
        -11    1    4    4    0    0 -0.28378156385E+00 -0.34005866831E+02  0.13049990544E+02  0.36425015640E+02  0.51100000000E-03 0.  1.
        -12    1    4    4    0    0 -0.23746058421E+01  0.73390516710E+00 -0.32726401642E+01  0.41094456249E+01  0.00000000000E+00 0.  1.
</event>
<event>
 8    1  0.1021894E-011  0.9118800E+02  0.7816164E-02  0.1184000E+00
        -11   -1    0    0    0    0  0.00000000000E+00  0.00000000000E+00  0.45593999997E+02  0.45594000000E+02  0.51100000000E-03 0. -1.
         11   -1    0    0    0    0 -0.00000000000E+00 -0.00000000000E+00 -0.45593999997E+02  0.45594000000E+02  0.51100000000E-03 0.  1.
         23    2    1    2    0    0 -0.35527136788E-14  0.17763568394E-14  0.00000000000E+00  0.91188000000E+02  0.91188000000E+02 0.  0.
    9900012    2    3    3    0    0 -0.30433255690E+02  0.15036553106E+02  0.22380449386E+02  0.50528862086E+02  0.30000006797E+02 0.  0.
        -12    1    3    3    0    0  0.30433255690E+02 -0.15036553106E+02 -0.22380449386E+02  0.40659137914E+02  0.00000000000E+00 0.  1.
         11    1    4    4    0    0 -0.19313761084E+01  0.13004061269E+02 -0.11396189425E+00  0.13147197829E+02  0.51100000000E-03 0.  1.
        -11    1    4    4    0    0 -0.21349376026E+02  0.40485102757E+01  0.12988320216E+02  0.25315662236E+02  0.51100000000E-03 0. -1.
        -12    1    4    4    0    0 -0.71525035550E+01 -0.20160184394E+01  0.95060910647E+01  0.12066002021E+02  0.00000000000E+00 0.  1.
</event>
<event>
 8    1  0.1021894E-011  0.9118800E+02  0.7816164E-02  0.1184000E+00
        -11   -1    0    0    0    0  0.00000000000E+00  0.00000000000E+00  0.45593999997E+02  0.45594000000E+02  0.51100000000E-03 0. -1.
         11   -1    0    0    0    0 -0.00000000000E+00 -0.00000000000E+00 -0.45593999997E+02  0.45594000000E+02  0.51100000000E-03 0.  1.
         23    2    1    2    0    0  0.00000000000E+00  0.88817841970E-15  0.00000000000E+00  0.91188000000E+02  0.91188000000E+02 0.  0.
    9900012    2    3    3    0    0 -0.21294281967E+02 -0.56030357279E+01 -0.34180725396E+02  0.50528899635E+02  0.30000120931E+02 0.  0.
         12    1    3    3    0    0  0.21294281967E+02  0.56030357279E+01  0.34180725396E+02  0.40659100365E+02  0.00000000000E+00 0. -1.
         11    1    4    4    0    0 -0.22416297363E+01  0.15428376465E+01  0.23127752478E+01  0.35712996915E+01  0.51100000000E-03 0. -1.
        -11    1    4    4    0    0 -0.23393717409E+02 -0.40426626505E+01 -0.26151656971E+02  0.35320225058E+02  0.51100000000E-03 0.  1.
        -12    1    4    4    0    0  0.43410651784E+01 -0.31032107239E+01 -0.10341843673E+02  0.11637374886E+02  0.00000000000E+00 0.  1.
</event>
<event>
 8    1  0.1021894E-011  0.9118800E+02  0.7816164E-02  0.1184000E+00
        -11   -1    0    0    0    0  0.00000000000E+00  0.00000000000E+00  0.45593999997E+02  0.45594000000E+02  0.51100000000E-03 0. -1.
         11   -1    0    0    0    0 -0.00000000000E+00 -0.00000000000E+00 -0.45593999997E+02  0.45594000000E+02  0.51100000000E-03 0.  1.
         23    2    1    2    0    0  0.00000000000E+00  0.00000000000E+00  0.00000000000E+00  0.91188000000E+02  0.91188000000E+02 0.  0.
    9900012    2    3    3    0    0  0.11074597753E+02  0.25676196721E+02 -0.29516971942E+02  0.50528862945E+02  0.30000009407E+02 0.  0.
         12    1    3    3    0    0 -0.11074597753E+02 -0.25676196721E+02  0.29516971942E+02  0.40659137055E+02  0.00000000000E+00 0. -1.
         11    1    4    4    0    0  0.16323546679E+02  0.84859295560E+01 -0.21425210155E+02  0.28240198425E+02  0.51100000000E-03 0.  1.
        -11    1    4    4    0    0 -0.71123397238E+01  0.15693785819E+02 -0.93331123073E+01  0.19595593262E+02  0.51100000000E-03 0. -1.
         12    1    4    4    0    0  0.18633907981E+01  0.14964813459E+01  0.12413505211E+01  0.26930712581E+01  0.00000000000E+00 0. -1.
</event>
<event>
 8    1  0.1021894E-011  0.9118800E+02  0.7816164E-02  0.1184000E+00
        -11   -1    0    0    0    0  0.00000000000E+00  0.00000000000E+00  0.45593999997E+02  0.45594000000E+02  0.51100000000E-03 0. -1.
         11   -1    0    0    0    0 -0.00000000000E+00 -0.00000000000E+00 -0.45593999997E+02  0.45594000000E+02  0.51100000000E-03 0.  1.
         23    2    1    2    0    0  0.00000000000E+00 -0.35527136788E-14  0.00000000000E+00  0.91188000000E+02  0.91188000000E+02 0.  0.
    9900012    2    3    3    0    0  0.10784616696E+02  0.31070272984E+02  0.23905954998E+02  0.50528874273E+02  0.30000043839E+02 0.  0.
        -12    1    3    3    0    0 -0.10784616696E+02 -0.31070272984E+02 -0.23905954998E+02  0.40659125727E+02  0.00000000000E+00 0.  1.
         11    1    4    4    0    0  0.10642342770E+01 -0.82268814451E+00  0.10116332544E+02  0.10205370879E+02  0.51100000000E-03 0. -1.
        -11    1    4    4    0    0 -0.34975795589E+01  0.13975019075E+02  0.54527602981E+00  0.14416363866E+02  0.51100000000E-03 0.  1.
         12    1    4    4    0    0  0.13217961978E+02  0.17917942053E+02  0.13244346424E+02  0.25907139527E+02  0.00000000000E+00 0. -1.
</event>
<event>
 8    1  0.1021894E-011  0.9118800E+02  0.7816164E-02  0.1184000E+00
        -11   -1    0    0    0    0  0.00000000000E+00  0.00000000000E+00  0.45593999997E+02  0.45594000000E+02  0.51100000000E-03 0.  1.
         11   -1    0    0    0    0 -0.00000000000E+00 -0.00000000000E+00 -0.45593999997E+02  0.45594000000E+02  0.51100000000E-03 0. -1.
         23    2    1    2    0    0 -0.71054273576E-14  0.00000000000E+00  0.00000000000E+00  0.91188000000E+02  0.91188000000E+02 0.  0.
    9900012    2    3    3    0    0  0.32592210279E+02  0.98376942206E+01  0.22229092745E+02  0.50528868643E+02  0.30000026728E+02 0.  0.
        -12    1    3    3    0    0 -0.32592210279E+02 -0.98376942206E+01 -0.22229092745E+02  0.40659131357E+02  0.00000000000E+00 0.  1.
         11    1    4    4    0    0 -0.22324063938E+01  0.78382933485E+01  0.25570131242E+01  0.85417092729E+01  0.51100000000E-03 0. -1.
        -11    1    4    4    0    0  0.23335979045E+02  0.46490086765E+00  0.19469337793E+02  0.30394722653E+02  0.51100000000E-03 0.  1.
         12    1    4    4    0    0  0.11488637627E+02  0.15345000045E+01  0.20274182831E+00  0.11592436717E+02  0.00000000000E+00 0. -1.
</event>
<event>
 8    1  0.1021894E-011  0.9118800E+02  0.7816164E-02  0.1184000E+00
        -11   -1    0    0    0    0  0.00000000000E+00  0.00000000000E+00  0.45593999997E+02  0.45594000000E+02  0.51100000000E-03 0. -1.
         11   -1    0    0    0    0 -0.00000000000E+00 -0.00000000000E+00 -0.45593999997E+02  0.45594000000E+02  0.51100000000E-03 0.  1.
         23    2    1    2    0    0 -0.35527136788E-14 -0.35527136788E-14  0.00000000000E+00  0.91188000000E+02  0.91188000000E+02 0.  0.
    9900012    2    3    3    0    0 -0.21012215597E+02 -0.30426828489E+02 -0.16907399693E+02  0.50528864980E+02  0.30000015592E+02 0.  0.
         12    1    3    3    0    0  0.21012215597E+02  0.30426828489E+02  0.16907399693E+02  0.40659135020E+02  0.00000000000E+00 0. -1.
         11    1    4    4    0    0  0.36459176388E+01 -0.36853216159E+01 -0.51781817863E+01  0.73272012198E+01  0.51100000000E-03 0. -1.
        -11    1    4    4    0    0 -0.20976422521E+02 -0.19633824315E+02  0.32315847578E+00  0.28733287154E+02  0.51100000000E-03 0.  1.
        -12    1    4    4    0    0 -0.36817107148E+01 -0.71076825588E+01 -0.12052376382E+02  0.14468376606E+02  0.00000000000E+00 0.  1.
</event>
<event>
 8    1  0.1021894E-011  0.9118800E+02  0.7816164E-02  0.1184000E+00
        -11   -1    0    0    0    0  0.00000000000E+00  0.00000000000E+00  0.45593999997E+02  0.45594000000E+02  0.51100000000E-03 0. -1.
         11   -1    0    0    0    0 -0.00000000000E+00 -0.00000000000E+00 -0.45593999997E+02  0.45594000000E+02  0.51100000000E-03 0.  1.
         23    2    1    2    0    0  0.00000000000E+00  0.00000000000E+00  0.00000000000E+00  0.91188000000E+02  0.91188000000E+02 0.  0.
    9900012    2    3    3    0    0 -0.36507285694E+02  0.10086168413E+02  0.14786878539E+02  0.50528874592E+02  0.30000044810E+02 0.  0.
        -12    1    3    3    0    0  0.36507285694E+02 -0.10086168413E+02 -0.14786878539E+02  0.40659125408E+02  0.00000000000E+00 0.  1.
         11    1    4    4    0    0 -0.11299106504E+02  0.11890742085E+02  0.58987634493E+01  0.17431436132E+02  0.51100000000E-03 0. -1.
        -11    1    4    4    0    0 -0.19103745804E+02 -0.70571731820E+01 -0.94493681253E+00  0.20387488881E+02  0.51100000000E-03 0.  1.
        -12    1    4    4    0    0 -0.61044333864E+01  0.52525995098E+01  0.98330519019E+01  0.12709949578E+02  0.00000000000E+00 0.  1.
</event>
<event>
 8    1  0.1021894E-011  0.9118800E+02  0.7816164E-02  0.1184000E+00
        -11   -1    0    0    0    0  0.00000000000E+00  0.00000000000E+00  0.45593999997E+02  0.45594000000E+02  0.51100000000E-03 0.  1.
         11   -1    0    0    0    0 -0.00000000000E+00 -0.00000000000E+00 -0.45593999997E+02  0.45594000000E+02  0.51100000000E-03 0. -1.
         23    2    1    2    0    0 -0.17763568394E-14  0.00000000000E+00 -0.22204460493E-15  0.91188000000E+02  0.91188000000E+02 0.  0.
    9900012    2    3    3    0    0  0.14814938266E+02  0.37856193023E+02 -0.76949042934E+00  0.50528857590E+02  0.29999993129E+02 0.  0.
        -12    1    3    3    0    0 -0.14814938266E+02 -0.37856193023E+02  0.76949042934E+00  0.40659142410E+02  0.00000000000E+00 0.  1.
         11    1    4    4    0    0  0.13208005767E+02  0.32093105996E+02  0.44404656828E+01  0.34987663605E+02  0.51100000000E-03 0. -1.
        -11    1    4    4    0    0  0.21467309531E+01 -0.24543454469E+01 -0.64363983436E+01  0.72152262097E+01  0.51100000000E-03 0.  1.
         12    1    4    4    0    0 -0.53979845433E+00  0.82174324744E+01  0.12264422315E+01  0.83259677750E+01  0.00000000000E+00 0. -1.
</event>
<event>
 8    1  0.1021894E-011  0.9118800E+02  0.7816164E-02  0.1184000E+00
        -11   -1    0    0    0    0  0.00000000000E+00  0.00000000000E+00  0.45593999997E+02  0.45594000000E+02  0.51100000000E-03 0. -1.
         11   -1    0    0    0    0 -0.00000000000E+00 -0.00000000000E+00 -0.45593999997E+02  0.45594000000E+02  0.51100000000E-03 0.  1.
         23    2    1    2    0    0 -0.35527136788E-14  0.35527136788E-14  0.35527136788E-14  0.91188000000E+02  0.91188000000E+02 0.  0.
    9900012    2    3    3    0    0 -0.31341570078E+02  0.18151464015E+02  0.18476876623E+02  0.50528872727E+02  0.30000039141E+02 0.  0.
        -12    1    3    3    0    0  0.31341570078E+02 -0.18151464015E+02 -0.18476876623E+02  0.40659127273E+02  0.00000000000E+00 0.  1.
         11    1    4    4    0    0 -0.30982449864E+02  0.12988774052E+02  0.31462307006E+01  0.33741950430E+02  0.51100000000E-03 0. -1.
        -11    1    4    4    0    0 -0.11002787777E+01 -0.24482790524E+00  0.47443432422E+01  0.48764071971E+01  0.51100000000E-03 0.  1.
         12    1    4    4    0    0  0.74115856328E+00  0.54075178681E+01  0.10586302680E+02  0.11910515100E+02  0.00000000000E+00 0. -1.
</event>
<event>
 8    1  0.1021894E-011  0.9118800E+02  0.7816164E-02  0.1184000E+00
        -11   -1    0    0    0    0  0.00000000000E+00  0.00000000000E+00  0.45593999997E+02  0.45594000000E+02  0.51100000000E-03 0.  1.
         11   -1    0    0    0    0 -0.00000000000E+00 -0.00000000000E+00 -0.45593999997E+02  0.45594000000E+02  0.51100000000E-03 0. -1.
         23    2    1    2    0    0  0.00000000000E+00  0.71054273576E-14  0.00000000000E+00  0.91188000000E+02  0.91188000000E+02 0.  0.
    9900012    2    3    3    0    0 -0.21913457608E+02 -0.32161826706E+02 -0.11772148180E+02  0.50528853499E+02  0.29999980696E+02 0.  0.
         12    1    3    3    0    0  0.21913457608E+02  0.32161826706E+02  0.11772148180E+02  0.40659146501E+02  0.00000000000E+00 0. -1.
         11    1    4    4    0    0 -0.39732561611E+01 -0.24848921804E+02 -0.83380611081E+01  0.26509978171E+02  0.51100000000E-03 0. -1.
        -11    1    4    4    0    0 -0.14806332482E+02 -0.10752255537E+02 -0.10726068451E+00  0.18298906684E+02  0.51100000000E-03 0.  1.
         12    1    4    4    0    0 -0.31338689641E+01  0.34393506347E+01 -0.33268263879E+01  0.57199686439E+01  0.00000000000E+00 0. -1.
</event>
<event>
 8    1  0.1021894E-011  0.9118800E+02  0.7816164E-02  0.1184000E+00
        -11   -1    0    0    0    0  0.00000000000E+00  0.00000000000E+00  0.45593999997E+02  0.45594000000E+02  0.51100000000E-03 0. -1.
         11   -1    0    0    0    0 -0.00000000000E+00 -0.00000000000E+00 -0.45593999997E+02  0.45594000000E+02  0.51100000000E-03 0.  1.
         23    2    1    2    0    0  0.00000000000E+00  0.35527136788E-14  0.00000000000E+00  0.91188000000E+02  0.91188000000E+02 0.  0.
    9900012    2    3    3    0    0  0.70364807331E+01 -0.18836659193E+02 -0.35338862670E+02  0.50528843523E+02  0.29999950372E+02 0.  0.
         12    1    3    3    0    0 -0.70364807331E+01  0.18836659193E+02  0.35338862670E+02  0.40659156477E+02  0.00000000000E+00 0. -1.
         11    1    4    4    0    0  0.48412203889E+01  0.24230154984E+01 -0.13339536804E+02  0.14396237750E+02  0.51100000000E-03 0. -1.
        -11    1    4    4    0    0 -0.29988827368E+01 -0.70385543845E+01  0.18613515972E+01  0.78739555194E+01  0.51100000000E-03 0.  1.
        -12    1    4    4    0    0  0.51941430810E+01 -0.14221120307E+02 -0.23860677463E+02  0.28258650253E+02  0.00000000000E+00 0.  1.
</event>
<event>
 8    1  0.1021894E-011  0.9118800E+02  0.7816164E-02  0.1184000E+00
        -11   -1    0    0    0    0  0.00000000000E+00  0.00000000000E+00  0.45593999997E+02  0.45594000000E+02  0.51100000000E-03 0. -1.
         11   -1    0    0    0    0 -0.00000000000E+00 -0.00000000000E+00 -0.45593999997E+02  0.45594000000E+02  0.51100000000E-03 0.  1.
         23    2    1    2    0    0  0.00000000000E+00  0.00000000000E+00  0.00000000000E+00  0.91188000000E+02  0.91188000000E+02 0.  0.
    9900012    2    3    3    0    0  0.11043002190E+02 -0.21448898369E+02  0.32728612886E+02  0.50528865232E+02  0.30000016361E+02 0.  0.
        -12    1    3    3    0    0 -0.11043002190E+02  0.21448898369E+02 -0.32728612886E+02  0.40659134768E+02  0.00000000000E+00 0.  1.
         11    1    4    4    0    0  0.75622926913E+01 -0.87846607370E+01  0.41588869027E+01  0.12314823407E+02  0.51100000000E-03 0. -1.
        -11    1    4    4    0    0  0.80106302032E+01 -0.11837584625E+02  0.30133065380E+02  0.33351165429E+02  0.51100000000E-03 0.  1.
        -12    1    4    4    0    0 -0.45299207042E+01 -0.82665300655E+00 -0.15633393969E+01  0.48628763966E+01  0.00000000000E+00 0.  1.
</event>
<event>
 8    1  0.1021894E-011  0.9118800E+02  0.7816164E-02  0.1184000E+00
        -11   -1    0    0    0    0  0.00000000000E+00  0.00000000000E+00  0.45593999997E+02  0.45594000000E+02  0.51100000000E-03 0. -1.
         11   -1    0    0    0    0 -0.00000000000E+00 -0.00000000000E+00 -0.45593999997E+02  0.45594000000E+02  0.51100000000E-03 0.  1.
         23    2    1    2    0    0  0.71054273576E-14  0.00000000000E+00  0.71054273576E-14  0.91188000000E+02  0.91188000000E+02 0.  0.
    9900012    2    3    3    0    0  0.17419716313E+02 -0.25754148243E+01  0.36648141255E+02  0.50528861601E+02  0.30000005322E+02 0.  0.
        -12    1    3    3    0    0 -0.17419716313E+02  0.25754148243E+01 -0.36648141255E+02  0.40659138399E+02  0.00000000000E+00 0.  1.
         11    1    4    4    0    0  0.19789722255E+01  0.19707118713E+01  0.54228106965E+01  0.60997469177E+01  0.51100000000E-03 0. -1.
        -11    1    4    4    0    0  0.30266308024E+00  0.23980805941E+01  0.27183638839E+02  0.27290888888E+02  0.51100000000E-03 0.  1.
        -12    1    4    4    0    0  0.15138081007E+02 -0.69442072897E+01  0.40416917187E+01  0.17138225795E+02  0.00000000000E+00 0.  1.
</event>
<event>
 8    1  0.1129772E-011  0.9118800E+02  0.7816164E-02  0.1184000E+00
        -11   -1    0    0    0    0  0.00000000000E+00  0.00000000000E+00  0.45593999997E+02  0.45594000000E+02  0.51100000000E-03 0. -1.
         11   -1    0    0    0    0 -0.00000000000E+00 -0.00000000000E+00 -0.45593999997E+02  0.45594000000E+02  0.51100000000E-03 0.  1.
         23    2    1    2    0    0 -0.88817841970E-15  0.00000000000E+00  0.00000000000E+00  0.91188000000E+02  0.91188000000E+02 0.  0.
    9900012    2    3    3    0    0  0.28412568765E+01 -0.20084277207E+02 -0.35237965478E+02  0.50528866431E+02  0.30000020003E+02 0.  0.
         12    1    3    3    0    0 -0.28412568765E+01  0.20084277207E+02  0.35237965478E+02  0.40659133569E+02  0.00000000000E+00 0. -1.
         11    1    4    4    0    0 -0.33349522497E+01  0.15017606032E+01  0.24788622712E+01  0.44183650639E+01  0.51100000000E-03 0. -1.
        -11    1    4    4    0    0  0.10254695816E+02 -0.11418925091E+02 -0.24900739410E+02  0.29250597600E+02  0.51100000000E-03 0.  1.
         12    1    4    4    0    0 -0.40784866895E+01 -0.10167112720E+02 -0.12816088339E+02  0.16859903767E+02  0.00000000000E+00 0. -1.
</event>
<event>
 8    1  0.1021894E-011  0.9118800E+02  0.7816164E-02  0.1184000E+00
        -11   -1    0    0    0    0  0.00000000000E+00  0.00000000000E+00  0.45593999997E+02  0.45594000000E+02  0.51100000000E-03 0. -1.
         11   -1    0    0    0    0 -0.00000000000E+00 -0.00000000000E+00 -0.45593999997E+02  0.45594000000E+02  0.51100000000E-03 0.  1.
         23    2    1    2    0    0 -0.88817841970E-15 -0.35527136788E-14  0.00000000000E+00  0.91188000000E+02  0.91188000000E+02 0.  0.
    9900012    2    3    3    0    0 -0.44865966929E+01 -0.21603921070E+02  0.34151234317E+02  0.50528858827E+02  0.29999996892E+02 0.  0.
        -12    1    3    3    0    0  0.44865966929E+01  0.21603921070E+02 -0.34151234317E+02  0.40659141173E+02  0.00000000000E+00 0.  1.
         11    1    4    4    0    0 -0.12076484746E+02 -0.83687655873E+01  0.21888965830E+02  0.26362938885E+02  0.51100000000E-03 0. -1.
        -11    1    4    4    0    0  0.49923928335E+01  0.16290948391E+01  0.10218320550E+01  0.53499604866E+01  0.51100000000E-03 0.  1.
        -12    1    4    4    0    0  0.25974952201E+01 -0.14864250322E+02  0.11240436432E+02  0.18815959456E+02  0.00000000000E+00 0.  1.
</event>
<event>
 8    1  0.1021894E-011  0.9118800E+02  0.7816164E-02  0.1184000E+00
        -11   -1    0    0    0    0  0.00000000000E+00  0.00000000000E+00  0.45593999997E+02  0.45594000000E+02  0.51100000000E-03 0. -1.
         11   -1    0    0    0    0 -0.00000000000E+00 -0.00000000000E+00 -0.45593999997E+02  0.45594000000E+02  0.51100000000E-03 0.  1.
         23    2    1    2    0    0  0.00000000000E+00 -0.88817841970E-15  0.71054273576E-14  0.91188000000E+02  0.91188000000E+02 0.  0.
    9900012    2    3    3    0    0 -0.13855666552E+02 -0.58328088150E+01  0.37777835459E+02  0.50528855810E+02  0.29999987720E+02 0.  0.
        -12    1    3    3    0    0  0.13855666552E+02  0.58328088150E+01 -0.37777835459E+02  0.40659144190E+02  0.00000000000E+00 0.  1.
         11    1    4    4    0    0 -0.36970020473E+01  0.47198915917E+00  0.17503876481E+02  0.17896264694E+02  0.51100000000E-03 0. -1.
        -11    1    4    4    0    0 -0.62731739941E+01 -0.17396924369E+01 -0.39924457838E+01  0.76366789465E+01  0.51100000000E-03 0.  1.
        -12    1    4    4    0    0 -0.38854905107E+01 -0.45651055373E+01  0.24266404762E+02  0.24995912169E+02  0.00000000000E+00 0.  1.
</event>
<event>
 8    1  0.1021894E-011  0.9118800E+02  0.7816164E-02  0.1184000E+00
        -11   -1    0    0    0    0  0.00000000000E+00  0.00000000000E+00  0.45593999997E+02  0.45594000000E+02  0.51100000000E-03 0. -1.
         11   -1    0    0    0    0 -0.00000000000E+00 -0.00000000000E+00 -0.45593999997E+02  0.45594000000E+02  0.51100000000E-03 0.  1.
         23    2    1    2    0    0  0.00000000000E+00 -0.17763568394E-14  0.35527136788E-14  0.91188000000E+02  0.91188000000E+02 0.  0.
    9900012    2    3    3    0    0  0.26843446345E+02  0.10253828189E+02  0.28765439565E+02  0.50528903631E+02  0.30000133075E+02 0.  0.
        -12    1    3    3    0    0 -0.26843446345E+02 -0.10253828189E+02 -0.28765439565E+02  0.40659096369E+02  0.00000000000E+00 0.  1.
         11    1    4    4    0    0  0.20178132603E+02  0.18971633062E+02  0.20224258418E+02  0.34294322055E+02  0.51100000000E-03 0. -1.
        -11    1    4    4    0    0  0.53675825312E+01 -0.76990611109E+01  0.10223507670E+02  0.13878277759E+02  0.51100000000E-03 0.  1.
        -12    1    4    4    0    0  0.12977312111E+01 -0.10187437615E+01 -0.16823265229E+01  0.23563038169E+01  0.00000000000E+00 0.  1.
</event>
<event>
 8    1  0.1021894E-011  0.9118800E+02  0.7816164E-02  0.1184000E+00
        -11   -1    0    0    0    0  0.00000000000E+00  0.00000000000E+00  0.45593999997E+02  0.45594000000E+02  0.51100000000E-03 0. -1.
         11   -1    0    0    0    0 -0.00000000000E+00 -0.00000000000E+00 -0.45593999997E+02  0.45594000000E+02  0.51100000000E-03 0.  1.
         23    2    1    2    0    0  0.00000000000E+00  0.00000000000E+00 -0.10658141036E-13  0.91188000000E+02  0.91188000000E+02 0.  0.
    9900012    2    3    3    0    0 -0.25303856607E+02  0.53437776670E+01 -0.31373948898E+02  0.50528858489E+02  0.29999995863E+02 0.  0.
         12    1    3    3    0    0  0.25303856607E+02 -0.53437776670E+01  0.31373948898E+02  0.40659141511E+02  0.00000000000E+00 0. -1.
         11    1    4    4    0    0 -0.18845898024E+01  0.97781110760E+01  0.76873011011E+00  0.99876964902E+01  0.51100000000E-03 0. -1.
        -11    1    4    4    0    0 -0.89955445306E+01 -0.68209207333E-02 -0.16593602250E+02  0.18875049770E+02  0.51100000000E-03 0.  1.
         12    1    4    4    0    0 -0.14423722274E+02 -0.44275124882E+01 -0.15549076759E+02  0.21666112229E+02  0.00000000000E+00 0. -1.
</event>
<event>
 8    1  0.1021894E-011  0.9118800E+02  0.7816164E-02  0.1184000E+00
        -11   -1    0    0    0    0  0.00000000000E+00  0.00000000000E+00  0.45593999997E+02  0.45594000000E+02  0.51100000000E-03 0. -1.
         11   -1    0    0    0    0 -0.00000000000E+00 -0.00000000000E+00 -0.45593999997E+02  0.45594000000E+02  0.51100000000E-03 0.  1.
         23    2    1    2    0    0  0.88817841970E-15  0.00000000000E+00  0.00000000000E+00  0.91188000000E+02  0.91188000000E+02 0.  0.
    9900012    2    3    3    0    0  0.65999564300E+01  0.11189679609E+02  0.38527883435E+02  0.50528853961E+02  0.29999982099E+02 0.  0.
        -12    1    3    3    0    0 -0.65999564300E+01 -0.11189679609E+02 -0.38527883435E+02  0.40659146039E+02  0.00000000000E+00 0.  1.
         11    1    4    4    0    0 -0.57116114230E+01  0.48217002436E+01  0.14390874375E+02  0.16216305493E+02  0.51100000000E-03 0. -1.
        -11    1    4    4    0    0  0.98583185905E+01  0.62053016754E+01  0.17363882178E+01  0.11777404579E+02  0.51100000000E-03 0.  1.
        -12    1    4    4    0    0  0.24532492626E+01  0.16267769039E+00  0.22400620842E+02  0.22535143889E+02  0.00000000000E+00 0.  1.
</event>
<event>
 8    1  0.1021894E-011  0.9118800E+02  0.7816164E-02  0.1184000E+00
        -11   -1    0    0    0    0  0.00000000000E+00  0.00000000000E+00  0.45593999997E+02  0.45594000000E+02  0.51100000000E-03 0.  1.
         11   -1    0    0    0    0 -0.00000000000E+00 -0.00000000000E+00 -0.45593999997E+02  0.45594000000E+02  0.51100000000E-03 0. -1.
         23    2    1    2    0    0  0.71054273576E-14  0.35527136788E-14  0.00000000000E+00  0.91188000000E+02  0.91188000000E+02 0.  0.
    9900012    2    3    3    0    0  0.31899633438E+02  0.17880252169E+02  0.17772918178E+02  0.50528847873E+02  0.29999963595E+02 0.  0.
        -12    1    3    3    0    0 -0.31899633438E+02 -0.17880252169E+02 -0.17772918178E+02  0.40659152127E+02  0.00000000000E+00 0.  1.
         11    1    4    4    0    0  0.17631998077E+02  0.99155000652E+01  0.10550450561E+01  0.20256298232E+02  0.51100000000E-03 0. -1.
        -11    1    4    4    0    0  0.31273132578E+01  0.70859059660E+01  0.17431571654E+02  0.19074848417E+02  0.51100000000E-03 0.  1.
        -12    1    4    4    0    0  0.11140322103E+02  0.87884613770E+00 -0.71369853141E+00  0.11197701224E+02  0.00000000000E+00 0.  1.
</event>
<event>
 8    1  0.1021894E-011  0.9118800E+02  0.7816164E-02  0.1184000E+00
        -11   -1    0    0    0    0  0.00000000000E+00  0.00000000000E+00  0.45593999997E+02  0.45594000000E+02  0.51100000000E-03 0. -1.
         11   -1    0    0    0    0 -0.00000000000E+00 -0.00000000000E+00 -0.45593999997E+02  0.45594000000E+02  0.51100000000E-03 0.  1.
         23    2    1    2    0    0  0.17763568394E-14  0.00000000000E+00  0.00000000000E+00  0.91188000000E+02  0.91188000000E+02 0.  0.
    9900012    2    3    3    0    0  0.14458734511E+02 -0.14408156683E+02  0.35164134945E+02  0.50528851348E+02  0.29999974157E+02 0.  0.
        -12    1    3    3    0    0 -0.14458734511E+02  0.14408156683E+02 -0.35164134945E+02  0.40659148652E+02  0.00000000000E+00 0.  1.
         11    1    4    4    0    0  0.71904608667E+01 -0.79197488446E+01  0.27957285765E+02  0.29933843336E+02  0.51100000000E-03 0. -1.
        -11    1    4    4    0    0  0.46090869819E+01  0.54064073752E+01  0.26710660540E+01  0.75899616362E+01  0.51100000000E-03 0.  1.
         12    1    4    4    0    0  0.26591866629E+01 -0.11894815213E+02  0.45357831258E+01  0.13005046376E+02  0.00000000000E+00 0. -1.
</event>
<event>
 8    1  0.1021894E-011  0.9118800E+02  0.7816164E-02  0.1184000E+00
        -11   -1    0    0    0    0  0.00000000000E+00  0.00000000000E+00  0.45593999997E+02  0.45594000000E+02  0.51100000000E-03 0.  1.
         11   -1    0    0    0    0 -0.00000000000E+00 -0.00000000000E+00 -0.45593999997E+02  0.45594000000E+02  0.51100000000E-03 0. -1.
         23    2    1    2    0    0  0.00000000000E+00  0.00000000000E+00  0.88817841970E-15  0.91188000000E+02  0.91188000000E+02 0.  0.
    9900012    2    3    3    0    0  0.11402954364E+02  0.38503531366E+02  0.63731253536E+01  0.50528855608E+02  0.29999987107E+02 0.  0.
         12    1    3    3    0    0 -0.11402954364E+02 -0.38503531366E+02 -0.63731253536E+01  0.40659144392E+02  0.00000000000E+00 0. -1.
         11    1    4    4    0    0 -0.31761606552E+01  0.32400895908E+02  0.87517076651E+01  0.33711992517E+02  0.51100000000E-03 0.  1.
        -11    1    4    4    0    0  0.79118639674E+01  0.70060310484E+00 -0.21673967634E+01  0.82332281117E+01  0.51100000000E-03 0. -1.
        -12    1    4    4    0    0  0.66672510514E+01  0.54020323531E+01 -0.21118554816E+00  0.85836349795E+01  0.00000000000E+00 0.  1.
</event>
<event>
 8    1  0.1021894E-011  0.9118800E+02  0.7816164E-02  0.1184000E+00
        -11   -1    0    0    0    0  0.00000000000E+00  0.00000000000E+00  0.45593999997E+02  0.45594000000E+02  0.51100000000E-03 0. -1.
         11   -1    0    0    0    0 -0.00000000000E+00 -0.00000000000E+00 -0.45593999997E+02  0.45594000000E+02  0.51100000000E-03 0.  1.
         23    2    1    2    0    0 -0.17763568394E-14  0.00000000000E+00  0.00000000000E+00  0.91188000000E+02  0.91188000000E+02 0.  0.
    9900012    2    3    3    0    0 -0.15461932976E+02 -0.23841313043E+01  0.37528789040E+02  0.50528862525E+02  0.30000008131E+02 0.  0.
        -12    1    3    3    0    0  0.15461932976E+02  0.23841313043E+01 -0.37528789040E+02  0.40659137475E+02  0.00000000000E+00 0.  1.
         11    1    4    4    0    0 -0.91193977492E+01 -0.75212233729E+01  0.34929135043E+02  0.36875150053E+02  0.51100000000E-03 0. -1.
        -11    1    4    4    0    0 -0.14154310927E+01  0.30614976901E+01 -0.39531793211E+01  0.51965219417E+01  0.51100000000E-03 0.  1.
        -12    1    4    4    0    0 -0.49271041342E+01  0.20755943786E+01  0.65528333175E+01  0.84571905300E+01  0.00000000000E+00 0.  1.
</event>
<event>
 8    1  0.1021894E-011  0.9118800E+02  0.7816164E-02  0.1184000E+00
        -11   -1    0    0    0    0  0.00000000000E+00  0.00000000000E+00  0.45593999997E+02  0.45594000000E+02  0.51100000000E-03 0. -1.
         11   -1    0    0    0    0 -0.00000000000E+00 -0.00000000000E+00 -0.45593999997E+02  0.45594000000E+02  0.51100000000E-03 0.  1.
         23    2    1    2    0    0  0.00000000000E+00  0.00000000000E+00  0.00000000000E+00  0.91188000000E+02  0.91188000000E+02 0.  0.
    9900012    2    3    3    0    0  0.68935858733E+01 -0.21423873604E+02 -0.33862412616E+02  0.50528845132E+02  0.29999955264E+02 0.  0.
         12    1    3    3    0    0 -0.68935858733E+01  0.21423873604E+02  0.33862412616E+02  0.40659154868E+02  0.00000000000E+00 0. -1.
         11    1    4    4    0    0  0.50159568301E+01 -0.67988208777E+01  0.17247504839E+01  0.86231405382E+01  0.51100000000E-03 0. -1.
        -11    1    4    4    0    0  0.21299343662E+01 -0.17592443631E+02 -0.23359426128E+02  0.29320530054E+02  0.51100000000E-03 0.  1.
        -12    1    4    4    0    0 -0.25230532299E+00  0.29673909054E+01 -0.12227736972E+02  0.12585174540E+02  0.00000000000E+00 0.  1.
</event>
<event>
 8    1  0.1021894E-011  0.9118800E+02  0.7816164E-02  0.1184000E+00
        -11   -1    0    0    0    0  0.00000000000E+00  0.00000000000E+00  0.45593999997E+02  0.45594000000E+02  0.51100000000E-03 0. -1.
         11   -1    0    0    0    0 -0.00000000000E+00 -0.00000000000E+00 -0.45593999997E+02  0.45594000000E+02  0.51100000000E-03 0.  1.
         23    2    1    2    0    0  0.00000000000E+00  0.00000000000E+00  0.00000000000E+00  0.91188000000E+02  0.91188000000E+02 0.  0.
    9900012    2    3    3    0    0  0.36123554564E+02  0.16802026867E+02 -0.81207374102E+01  0.50528859856E+02  0.30000000017E+02 0.  0.
         12    1    3    3    0    0 -0.36123554564E+02 -0.16802026867E+02  0.81207374102E+01  0.40659140144E+02  0.00000000000E+00 0. -1.
         11    1    4    4    0    0  0.93488606037E+01  0.30957979728E+01  0.36503719762E+01  0.10502874630E+02  0.51100000000E-03 0. -1.
        -11    1    4    4    0    0  0.28869389191E+02  0.99935573767E+01 -0.15594113688E+02  0.34299988386E+02  0.51100000000E-03 0.  1.
        -12    1    4    4    0    0 -0.20946952308E+01  0.37126715177E+01  0.38230043019E+01  0.57259968391E+01  0.00000000000E+00 0.  1.
</event>
<event>
 8    1  0.1021894E-011  0.9118800E+02  0.7816164E-02  0.1184000E+00
        -11   -1    0    0    0    0  0.00000000000E+00  0.00000000000E+00  0.45593999997E+02  0.45594000000E+02  0.51100000000E-03 0. -1.
         11   -1    0    0    0    0 -0.00000000000E+00 -0.00000000000E+00 -0.45593999997E+02  0.45594000000E+02  0.51100000000E-03 0.  1.
         23    2    1    2    0    0  0.17763568394E-14  0.00000000000E+00  0.00000000000E+00  0.91188000000E+02  0.91188000000E+02 0.  0.
    9900012    2    3    3    0    0  0.10385097181E+02  0.20611769853E+02 -0.33473423394E+02  0.50528863590E+02  0.30000011368E+02 0.  0.
         12    1    3    3    0    0 -0.10385097181E+02 -0.20611769853E+02  0.33473423394E+02  0.40659136410E+02  0.00000000000E+00 0. -1.
         11    1    4    4    0    0  0.10814482652E+02  0.92715745895E+01 -0.28458924329E+02  0.31824919554E+02  0.51100000000E-03 0.  1.
        -11    1    4    4    0    0 -0.57009123003E+01  0.10159165116E+02 -0.61656505789E+01  0.13180450836E+02  0.51100000000E-03 0. -1.
         12    1    4    4    0    0  0.52715268294E+01  0.11810301472E+01  0.11511515145E+01  0.55234932000E+01  0.00000000000E+00 0. -1.
</event>
<event>
 8    1  0.1021894E-011  0.9118800E+02  0.7816164E-02  0.1184000E+00
        -11   -1    0    0    0    0  0.00000000000E+00  0.00000000000E+00  0.45593999997E+02  0.45594000000E+02  0.51100000000E-03 0. -1.
         11   -1    0    0    0    0 -0.00000000000E+00 -0.00000000000E+00 -0.45593999997E+02  0.45594000000E+02  0.51100000000E-03 0.  1.
         23    2    1    2    0    0  0.00000000000E+00  0.00000000000E+00 -0.17763568394E-14  0.91188000000E+02  0.91188000000E+02 0.  0.
    9900012    2    3    3    0    0  0.27932160229E+02  0.27138945254E+02  0.11680758261E+02  0.50528830824E+02  0.29999911773E+02 0.  0.
        -12    1    3    3    0    0 -0.27932160229E+02 -0.27138945254E+02 -0.11680758261E+02  0.40659169176E+02  0.00000000000E+00 0.  1.
         11    1    4    4    0    0 -0.24315299298E+01  0.58670604102E+01  0.62997866046E+01  0.89455043000E+01  0.51100000000E-03 0. -1.
        -11    1    4    4    0    0  0.21956290063E+02  0.15306131289E+02  0.12000559110E+02  0.29332060064E+02  0.51100000000E-03 0.  1.
        -12    1    4    4    0    0  0.84074000953E+01  0.59657535543E+01 -0.66195874530E+01  0.12251266460E+02  0.00000000000E+00 0.  1.
</event>
<event>
 8    1  0.1021894E-011  0.9118800E+02  0.7816164E-02  0.1184000E+00
        -11   -1    0    0    0    0  0.00000000000E+00  0.00000000000E+00  0.45593999997E+02  0.45594000000E+02  0.51100000000E-03 0. -1.
         11   -1    0    0    0    0 -0.00000000000E+00 -0.00000000000E+00 -0.45593999997E+02  0.45594000000E+02  0.51100000000E-03 0.  1.
         23    2    1    2    0    0 -0.35527136788E-14 -0.17763568394E-14  0.00000000000E+00  0.91188000000E+02  0.91188000000E+02 0.  0.
    9900012    2    3    3    0    0 -0.30239007682E+02 -0.15176030168E+02  0.22548970519E+02  0.50528861436E+02  0.30000004822E+02 0.  0.
        -12    1    3    3    0    0  0.30239007682E+02  0.15176030168E+02 -0.22548970519E+02  0.40659138564E+02  0.00000000000E+00 0.  1.
         11    1    4    4    0    0  0.43650764108E+01 -0.69473988294E+01  0.31720942138E+01  0.87967280581E+01  0.51100000000E-03 0. -1.
        -11    1    4    4    0    0 -0.21561313405E+02 -0.30085748190E+01  0.16683377812E+02  0.27427665844E+02  0.51100000000E-03 0.  1.
        -12    1    4    4    0    0 -0.13042770688E+02 -0.52200565199E+01  0.26934984935E+01  0.14304467534E+02  0.00000000000E+00 0.  1.
</event>
<event>
 8    1  0.1021894E-011  0.9118800E+02  0.7816164E-02  0.1184000E+00
        -11   -1    0    0    0    0  0.00000000000E+00  0.00000000000E+00  0.45593999997E+02  0.45594000000E+02  0.51100000000E-03 0. -1.
         11   -1    0    0    0    0 -0.00000000000E+00 -0.00000000000E+00 -0.45593999997E+02  0.45594000000E+02  0.51100000000E-03 0.  1.
         23    2    1    2    0    0 -0.88817841970E-15  0.00000000000E+00  0.00000000000E+00  0.91188000000E+02  0.91188000000E+02 0.  0.
    9900012    2    3    3    0    0  0.43096711273E+01  0.20198952477E+02 -0.35022765617E+02  0.50528867473E+02  0.30000023170E+02 0.  0.
         12    1    3    3    0    0 -0.43096711273E+01 -0.20198952477E+02  0.35022765617E+02  0.40659132527E+02  0.00000000000E+00 0. -1.
         11    1    4    4    0    0 -0.68820697824E+01  0.70782062325E+01 -0.48675567103E+01  0.11007133893E+02  0.51100000000E-03 0. -1.
        -11    1    4    4    0    0  0.13018975251E+02  0.11948193272E+02 -0.32077026282E+02  0.36622242618E+02  0.51100000000E-03 0.  1.
         12    1    4    4    0    0 -0.18272343413E+01  0.11725529723E+01  0.19218173747E+01  0.28994909609E+01  0.00000000000E+00 0. -1.
</event>
<event>
 8    1  0.1021894E-011  0.9118800E+02  0.7816164E-02  0.1184000E+00
        -11   -1    0    0    0    0  0.00000000000E+00  0.00000000000E+00  0.45593999997E+02  0.45594000000E+02  0.51100000000E-03 0. -1.
         11   -1    0    0    0    0 -0.00000000000E+00 -0.00000000000E+00 -0.45593999997E+02  0.45594000000E+02  0.51100000000E-03 0.  1.
         23    2    1    2    0    0 -0.35527136788E-14  0.00000000000E+00  0.00000000000E+00  0.91188000000E+02  0.91188000000E+02 0.  0.
    9900012    2    3    3    0    0  0.20706709426E+02 -0.18805395267E+02  0.29508559459E+02  0.50528858497E+02  0.29999995887E+02 0.  0.
        -12    1    3    3    0    0 -0.20706709426E+02  0.18805395267E+02 -0.29508559459E+02  0.40659141503E+02  0.00000000000E+00 0.  1.
         11    1    4    4    0    0  0.37245713810E+01 -0.60331528482E+01  0.21421980416E+01  0.74067791902E+01  0.51100000000E-03 0. -1.
        -11    1    4    4    0    0 -0.42794668168E+01 -0.32374098340E+01  0.16614260393E+02  0.17459332958E+02  0.51100000000E-03 0.  1.
        -12    1    4    4    0    0  0.21261604861E+02 -0.95348325851E+01  0.10752101025E+02  0.25662746349E+02  0.00000000000E+00 0.  1.
</event>
<event>
 8    1  0.1021894E-011  0.9118800E+02  0.7816164E-02  0.1184000E+00
        -11   -1    0    0    0    0  0.00000000000E+00  0.00000000000E+00  0.45593999997E+02  0.45594000000E+02  0.51100000000E-03 0. -1.
         11   -1    0    0    0    0 -0.00000000000E+00 -0.00000000000E+00 -0.45593999997E+02  0.45594000000E+02  0.51100000000E-03 0.  1.
         23    2    1    2    0    0  0.88817841970E-15  0.00000000000E+00  0.35527136788E-14  0.91188000000E+02  0.91188000000E+02 0.  0.
    9900012    2    3    3    0    0 -0.24594119762E+01 -0.30546515134E+02 -0.26721277886E+02  0.50528868357E+02  0.30000025857E+02 0.  0.
         12    1    3    3    0    0  0.24594119762E+01  0.30546515134E+02  0.26721277886E+02  0.40659131643E+02  0.00000000000E+00 0. -1.
         11    1    4    4    0    0  0.48254165528E+01 -0.10047199519E+02 -0.21542093902E+02  0.24254745371E+02  0.51100000000E-03 0. -1.
        -11    1    4    4    0    0  0.10391090557E+01 -0.10609336339E+02  0.28782820724E+01  0.11041841927E+02  0.51100000000E-03 0.  1.
         12    1    4    4    0    0 -0.83239375847E+01 -0.98899792764E+01 -0.80574660564E+01  0.15232281059E+02  0.00000000000E+00 0. -1.
</event>
<event>
 8    1  0.1021894E-011  0.9118800E+02  0.7816164E-02  0.1184000E+00
        -11   -1    0    0    0    0  0.00000000000E+00  0.00000000000E+00  0.45593999997E+02  0.45594000000E+02  0.51100000000E-03 0. -1.
         11   -1    0    0    0    0 -0.00000000000E+00 -0.00000000000E+00 -0.45593999997E+02  0.45594000000E+02  0.51100000000E-03 0.  1.
         23    2    1    2    0    0  0.00000000000E+00  0.00000000000E+00  0.00000000000E+00  0.91188000000E+02  0.91188000000E+02 0.  0.
    9900012    2    3    3    0    0  0.11898518108E+01 -0.32124060655E+02  0.24895670571E+02  0.50528862853E+02  0.30000009129E+02 0.  0.
        -12    1    3    3    0    0 -0.11898518108E+01  0.32124060655E+02 -0.24895670571E+02  0.40659137147E+02  0.00000000000E+00 0.  1.
         11    1    4    4    0    0 -0.11581111649E+01 -0.36724769759E+02  0.23861460151E+02  0.43811176841E+02  0.51100000000E-03 0. -1.
        -11    1    4    4    0    0  0.28265700438E+01  0.32315467351E+01  0.22300014686E+01  0.48379023683E+01  0.51100000000E-03 0.  1.
         12    1    4    4    0    0 -0.47860706817E+00  0.13691623688E+01 -0.11957910486E+01  0.18797836444E+01  0.00000000000E+00 0. -1.
</event>
<event>
 8    1  0.1021894E-011  0.9118800E+02  0.7816164E-02  0.1184000E+00
        -11   -1    0    0    0    0  0.00000000000E+00  0.00000000000E+00  0.45593999997E+02  0.45594000000E+02  0.51100000000E-03 0. -1.
         11   -1    0    0    0    0 -0.00000000000E+00 -0.00000000000E+00 -0.45593999997E+02  0.45594000000E+02  0.51100000000E-03 0.  1.
         23    2    1    2    0    0 -0.17763568394E-14  0.35527136788E-14  0.00000000000E+00  0.91188000000E+02  0.91188000000E+02 0.  0.
    9900012    2    3    3    0    0 -0.61125328798E+01  0.22595890214E+02  0.33244984697E+02  0.50528851948E+02  0.29999975981E+02 0.  0.
        -12    1    3    3    0    0  0.61125328798E+01 -0.22595890214E+02 -0.33244984697E+02  0.40659148052E+02  0.00000000000E+00 0.  1.
         11    1    4    4    0    0 -0.10762528192E+02  0.15262111101E+02  0.93120396513E+01  0.20868112782E+02  0.51100000000E-03 0. -1.
        -11    1    4    4    0    0  0.42866319155E+01  0.11811114475E+02  0.20342305759E+02  0.23909977879E+02  0.51100000000E-03 0.  1.
        -12    1    4    4    0    0  0.36336339639E+00 -0.44773353615E+01  0.35906392870E+01  0.57507612875E+01  0.00000000000E+00 0.  1.
</event>
<event>
 8    1  0.1021894E-011  0.9118800E+02  0.7816164E-02  0.1184000E+00
        -11   -1    0    0    0    0  0.00000000000E+00  0.00000000000E+00  0.45593999997E+02  0.45594000000E+02  0.51100000000E-03 0.  1.
         11   -1    0    0    0    0 -0.00000000000E+00 -0.00000000000E+00 -0.45593999997E+02  0.45594000000E+02  0.51100000000E-03 0. -1.
         23    2    1    2    0    0  0.00000000000E+00  0.71054273576E-14  0.00000000000E+00  0.91188000000E+02  0.91188000000E+02 0.  0.
    9900012    2    3    3    0    0  0.96123526860E+01  0.36060987067E+02  0.16136108400E+02  0.50528854575E+02  0.29999983965E+02 0.  0.
        -12    1    3    3    0    0 -0.96123526860E+01 -0.36060987067E+02 -0.16136108400E+02  0.40659145425E+02  0.00000000000E+00 0.  1.
         11    1    4    4    0    0  0.12069773844E+02  0.91549561357E+01  0.17346309294E+02  0.23030134800E+02  0.51100000000E-03 0. -1.
        -11    1    4    4    0    0 -0.52590214704E+00  0.75317083670E+01 -0.25838894567E+01  0.79799554497E+01  0.51100000000E-03 0.  1.
         12    1    4    4    0    0 -0.19315190113E+01  0.19374322564E+02  0.13736885631E+01  0.19518764325E+02  0.00000000000E+00 0. -1.
</event>
<event>
 8    1  0.1356228E-011  0.9118800E+02  0.7816164E-02  0.1184000E+00
        -11   -1    0    0    0    0  0.00000000000E+00  0.00000000000E+00  0.45593999997E+02  0.45594000000E+02  0.51100000000E-03 0. -1.
         11   -1    0    0    0    0 -0.00000000000E+00 -0.00000000000E+00 -0.45593999997E+02  0.45594000000E+02  0.51100000000E-03 0.  1.
         23    2    1    2    0    0  0.00000000000E+00 -0.35527136788E-14  0.00000000000E+00  0.91188000000E+02  0.91188000000E+02 0.  0.
    9900012    2    3    3    0    0 -0.47344094898E+01  0.23431642034E+02 -0.32889355192E+02  0.50528853839E+02  0.29999981728E+02 0.  0.
         12    1    3    3    0    0  0.47344094898E+01 -0.23431642034E+02  0.32889355192E+02  0.40659146161E+02  0.00000000000E+00 0. -1.
         11    1    4    4    0    0 -0.14235427524E+01 -0.42581017019E+01  0.42632800493E+00  0.45099512082E+01  0.51100000000E-03 0. -1.
        -11    1    4    4    0    0  0.85012662124E+00  0.20528135268E+02 -0.13613677849E+02  0.24646688981E+02  0.51100000000E-03 0.  1.
         12    1    4    4    0    0 -0.41609933586E+01  0.71616084679E+01 -0.19702005348E+02  0.21372213650E+02  0.00000000000E+00 0. -1.
</event>
<event>
 8    1  0.1021894E-011  0.9118800E+02  0.7816164E-02  0.1184000E+00
        -11   -1    0    0    0    0  0.00000000000E+00  0.00000000000E+00  0.45593999997E+02  0.45594000000E+02  0.51100000000E-03 0. -1.
         11   -1    0    0    0    0 -0.00000000000E+00 -0.00000000000E+00 -0.45593999997E+02  0.45594000000E+02  0.51100000000E-03 0.  1.
         23    2    1    2    0    0 -0.35527136788E-14  0.53290705182E-14  0.00000000000E+00  0.91188000000E+02  0.91188000000E+02 0.  0.
    9900012    2    3    3    0    0 -0.18706123836E+02  0.14479478513E+02  0.33069456572E+02  0.50528888783E+02  0.30000087944E+02 0.  0.
        -12    1    3    3    0    0  0.18706123836E+02 -0.14479478513E+02 -0.33069456572E+02  0.40659111217E+02  0.00000000000E+00 0.  1.
         11    1    4    4    0    0 -0.14665661692E+02  0.16990484587E+02  0.22828351028E+02  0.32013931503E+02  0.51100000000E-03 0. -1.
        -11    1    4    4    0    0  0.33363934650E+01 -0.61535722986E+01  0.32454452041E+01  0.77156262365E+01  0.51100000000E-03 0.  1.
        -12    1    4    4    0    0 -0.73768556091E+01  0.36425662250E+01  0.69956603401E+01  0.10799331043E+02  0.00000000000E+00 0.  1.
</event>
<event>
 8    1  0.1021894E-011  0.9118800E+02  0.7816164E-02  0.1184000E+00
        -11   -1    0    0    0    0  0.00000000000E+00  0.00000000000E+00  0.45593999997E+02  0.45594000000E+02  0.51100000000E-03 0. -1.
         11   -1    0    0    0    0 -0.00000000000E+00 -0.00000000000E+00 -0.45593999997E+02  0.45594000000E+02  0.51100000000E-03 0.  1.
         23    2    1    2    0    0  0.44408920985E-15  0.00000000000E+00  0.00000000000E+00  0.91188000000E+02  0.91188000000E+02 0.  0.
    9900012    2    3    3    0    0 -0.20323991369E+01 -0.21655278804E+02 -0.34352347187E+02  0.50528861992E+02  0.30000006510E+02 0.  0.
         12    1    3    3    0    0  0.20323991369E+01  0.21655278804E+02  0.34352347187E+02  0.40659138008E+02  0.00000000000E+00 0. -1.
         11    1    4    4    0    0 -0.11633489325E+01 -0.17507346813E+02 -0.25784802039E+01  0.17734405363E+02  0.51100000000E-03 0. -1.
        -11    1    4    4    0    0  0.11727028788E+01 -0.19028535821E+01 -0.27282953978E+02  0.27374361396E+02  0.51100000000E-03 0.  1.
        -12    1    4    4    0    0 -0.20417530832E+01 -0.22450784093E+01 -0.44909130045E+01  0.54200952326E+01  0.00000000000E+00 0.  1.
</event>
<event>
 8    1  0.1021894E-011  0.9118800E+02  0.7816164E-02  0.1184000E+00
        -11   -1    0    0    0    0  0.00000000000E+00  0.00000000000E+00  0.45593999997E+02  0.45594000000E+02  0.51100000000E-03 0. -1.
         11   -1    0    0    0    0 -0.00000000000E+00 -0.00000000000E+00 -0.45593999997E+02  0.45594000000E+02  0.51100000000E-03 0.  1.
         23    2    1    2    0    0  0.00000000000E+00  0.00000000000E+00  0.71054273576E-14  0.91188000000E+02  0.91188000000E+02 0.  0.
    9900012    2    3    3    0    0  0.17300576768E+02 -0.20416551175E+02  0.30610780145E+02  0.50528863518E+02  0.30000011148E+02 0.  0.
        -12    1    3    3    0    0 -0.17300576768E+02  0.20416551175E+02 -0.30610780145E+02  0.40659136482E+02  0.00000000000E+00 0.  1.
         11    1    4    4    0    0  0.56652338665E+01 -0.17916224877E+01  0.11906195934E+02  0.13306475408E+02  0.51100000000E-03 0. -1.
        -11    1    4    4    0    0  0.78313358649E+01 -0.69229053217E+01 -0.41656806065E+01  0.11252081350E+02  0.51100000000E-03 0.  1.
        -12    1    4    4    0    0  0.38040070363E+01 -0.11702023366E+02  0.22870264818E+02  0.25970306760E+02  0.00000000000E+00 0.  1.
</event>
<event>
 8    1  0.1021894E-011  0.9118800E+02  0.7816164E-02  0.1184000E+00
        -11   -1    0    0    0    0  0.00000000000E+00  0.00000000000E+00  0.45593999997E+02  0.45594000000E+02  0.51100000000E-03 0. -1.
         11   -1    0    0    0    0 -0.00000000000E+00 -0.00000000000E+00 -0.45593999997E+02  0.45594000000E+02  0.51100000000E-03 0.  1.
         23    2    1    2    0    0 -0.35527136788E-14  0.00000000000E+00 -0.35527136788E-14  0.91188000000E+02  0.91188000000E+02 0.  0.
    9900012    2    3    3    0    0 -0.91278154522E+01  0.33340752775E+02 -0.21406610119E+02  0.50528858748E+02  0.29999996652E+02 0.  0.
         12    1    3    3    0    0  0.91278154522E+01 -0.33340752775E+02  0.21406610119E+02  0.40659141252E+02  0.00000000000E+00 0. -1.
         11    1    4    4    0    0 -0.12408164641E+02  0.26228986930E+02 -0.15461262170E+02  0.32878152827E+02  0.51100000000E-03 0.  1.
        -11    1    4    4    0    0  0.82140052563E+01  0.66144574261E+01 -0.91263781682E+00  0.10585548518E+02  0.51100000000E-03 0. -1.
        -12    1    4    4    0    0 -0.49336560678E+01  0.49730841833E+00 -0.50327101322E+01  0.70651574033E+01  0.00000000000E+00 0.  1.
</event>
<event>
 8    1  0.1021894E-011  0.9118800E+02  0.7816164E-02  0.1184000E+00
        -11   -1    0    0    0    0  0.00000000000E+00  0.00000000000E+00  0.45593999997E+02  0.45594000000E+02  0.51100000000E-03 0. -1.
         11   -1    0    0    0    0 -0.00000000000E+00 -0.00000000000E+00 -0.45593999997E+02  0.45594000000E+02  0.51100000000E-03 0.  1.
         23    2    1    2    0    0  0.00000000000E+00  0.15543122345E-14  0.71054273576E-14  0.91188000000E+02  0.91188000000E+02 0.  0.
    9900012    2    3    3    0    0  0.19993599648E+01  0.33929259791E+00 -0.40608535295E+02  0.50528859594E+02  0.29999999222E+02 0.  0.
         12    1    3    3    0    0 -0.19993599648E+01 -0.33929259791E+00  0.40608535295E+02  0.40659140406E+02  0.00000000000E+00 0. -1.
         11    1    4    4    0    0 -0.62327678814E+01 -0.71397618779E+01 -0.31055239864E+01  0.99733582422E+01  0.51100000000E-03 0. -1.
        -11    1    4    4    0    0  0.26878066345E+01  0.86934982731E+01 -0.17009243427E+02  0.19290297534E+02  0.51100000000E-03 0.  1.
         12    1    4    4    0    0  0.55443212116E+01 -0.12144437973E+01 -0.20493767882E+02  0.21265203818E+02  0.00000000000E+00 0. -1.
</event>
<event>
 8    1  0.1021894E-011  0.9118800E+02  0.7816164E-02  0.1184000E+00
        -11   -1    0    0    0    0  0.00000000000E+00  0.00000000000E+00  0.45593999997E+02  0.45594000000E+02  0.51100000000E-03 0. -1.
         11   -1    0    0    0    0 -0.00000000000E+00 -0.00000000000E+00 -0.45593999997E+02  0.45594000000E+02  0.51100000000E-03 0.  1.
         23    2    1    2    0    0  0.00000000000E+00  0.44408920985E-15 -0.71054273576E-14  0.91188000000E+02  0.91188000000E+02 0.  0.
    9900012    2    3    3    0    0  0.14533361049E+02  0.27711084280E+01 -0.37871738262E+02  0.50528853621E+02  0.29999981065E+02 0.  0.
         12    1    3    3    0    0 -0.14533361049E+02 -0.27711084280E+01  0.37871738262E+02  0.40659146379E+02  0.00000000000E+00 0. -1.
         11    1    4    4    0    0  0.15010506860E+01 -0.81653841022E+01 -0.15871449824E+02  0.17911716012E+02  0.51100000000E-03 0. -1.
        -11    1    4    4    0    0  0.58185051682E+01  0.13432264666E+02 -0.80267681745E+01  0.16694602243E+02  0.51100000000E-03 0.  1.
        -12    1    4    4    0    0  0.72138051945E+01 -0.24957721357E+01 -0.13973520263E+02  0.15922535366E+02  0.00000000000E+00 0.  1.
</event>
<event>
 8    1  0.1021894E-011  0.9118800E+02  0.7816164E-02  0.1184000E+00
        -11   -1    0    0    0    0  0.00000000000E+00  0.00000000000E+00  0.45593999997E+02  0.45594000000E+02  0.51100000000E-03 0. -1.
         11   -1    0    0    0    0 -0.00000000000E+00 -0.00000000000E+00 -0.45593999997E+02  0.45594000000E+02  0.51100000000E-03 0.  1.
         23    2    1    2    0    0  0.00000000000E+00  0.22204460493E-15  0.00000000000E+00  0.91188000000E+02  0.91188000000E+02 0.  0.
    9900012    2    3    3    0    0  0.43186306305E+01 -0.19054839035E+01 -0.40384215415E+02  0.50528852271E+02  0.29999976962E+02 0.  0.
         12    1    3    3    0    0 -0.43186306305E+01  0.19054839035E+01  0.40384215415E+02  0.40659147729E+02  0.00000000000E+00 0. -1.
         11    1    4    4    0    0 -0.93456827539E+01  0.56398015415E+00 -0.21185668001E+02  0.23162305340E+02  0.51100000000E-03 0. -1.
        -11    1    4    4    0    0  0.13560399655E+02 -0.64356496287E+00 -0.20864748178E+02  0.24892495485E+02  0.51100000000E-03 0.  1.
        -12    1    4    4    0    0  0.10391372980E+00 -0.18258990948E+01  0.16662007649E+01  0.24740514458E+01  0.00000000000E+00 0.  1.
</event>
<event>
 8    1  0.1021894E-011  0.9118800E+02  0.7816164E-02  0.1184000E+00
        -11   -1    0    0    0    0  0.00000000000E+00  0.00000000000E+00  0.45593999997E+02  0.45594000000E+02  0.51100000000E-03 0. -1.
         11   -1    0    0    0    0 -0.00000000000E+00 -0.00000000000E+00 -0.45593999997E+02  0.45594000000E+02  0.51100000000E-03 0.  1.
         23    2    1    2    0    0  0.00000000000E+00  0.00000000000E+00  0.00000000000E+00  0.91188000000E+02  0.91188000000E+02 0.  0.
    9900012    2    3    3    0    0  0.16742378361E+02 -0.36391401990E+02  0.69660116496E+01  0.50528847398E+02  0.29999962152E+02 0.  0.
        -12    1    3    3    0    0 -0.16742378361E+02  0.36391401990E+02 -0.69660116496E+01  0.40659152602E+02  0.00000000000E+00 0.  1.
         11    1    4    4    0    0  0.16025873943E+02 -0.34374087418E+02  0.33126287168E+01  0.38070724064E+02  0.51100000000E-03 0.  1.
        -11    1    4    4    0    0 -0.13978722318E+01  0.46801453148E+01  0.16284237809E+01  0.51487446252E+01  0.51100000000E-03 0. -1.
         12    1    4    4    0    0  0.21143766492E+01 -0.66974598870E+01  0.20249591519E+01  0.73093787095E+01  0.00000000000E+00 0. -1.
</event>
<event>
 8    1  0.1021894E-011  0.9118800E+02  0.7816164E-02  0.1184000E+00
        -11   -1    0    0    0    0  0.00000000000E+00  0.00000000000E+00  0.45593999997E+02  0.45594000000E+02  0.51100000000E-03 0. -1.
         11   -1    0    0    0    0 -0.00000000000E+00 -0.00000000000E+00 -0.45593999997E+02  0.45594000000E+02  0.51100000000E-03 0.  1.
         23    2    1    2    0    0 -0.88817841970E-15  0.00000000000E+00 -0.71054273576E-14  0.91188000000E+02  0.91188000000E+02 0.  0.
    9900012    2    3    3    0    0 -0.33046345282E+01 -0.33223186546E+02 -0.23204791137E+02  0.50528891976E+02  0.30000097649E+02 0.  0.
         12    1    3    3    0    0  0.33046345282E+01  0.33223186546E+02  0.23204791137E+02  0.40659108024E+02  0.00000000000E+00 0. -1.
         11    1    4    4    0    0 -0.81391882078E+01 -0.54505665402E+01  0.33103395868E+01  0.10339894039E+02  0.51100000000E-03 0. -1.
        -11    1    4    4    0    0  0.46098587656E+01 -0.10381121064E+02 -0.47092793403E+01  0.12296169507E+02  0.51100000000E-03 0.  1.
         12    1    4    4    0    0  0.22469491397E+00 -0.17391498942E+02 -0.21805851384E+02  0.27892828430E+02  0.00000000000E+00 0. -1.
</event>
<event>
 8    1  0.1021894E-011  0.9118800E+02  0.7816164E-02  0.1184000E+00
        -11   -1    0    0    0    0  0.00000000000E+00  0.00000000000E+00  0.45593999997E+02  0.45594000000E+02  0.51100000000E-03 0. -1.
         11   -1    0    0    0    0 -0.00000000000E+00 -0.00000000000E+00 -0.45593999997E+02  0.45594000000E+02  0.51100000000E-03 0.  1.
         23    2    1    2    0    0  0.71054273576E-14  0.00000000000E+00 -0.35527136788E-14  0.91188000000E+02  0.91188000000E+02 0.  0.
    9900012    2    3    3    0    0  0.34645117424E+02 -0.15127168308E+02 -0.14968346038E+02  0.50528846474E+02  0.29999959343E+02 0.  0.
         12    1    3    3    0    0 -0.34645117424E+02  0.15127168308E+02  0.14968346038E+02  0.40659153526E+02  0.00000000000E+00 0. -1.
         11    1    4    4    0    0  0.20528132538E+02  0.48844461063E+01 -0.91570134565E+01  0.23002454977E+02  0.51100000000E-03 0. -1.
        -11    1    4    4    0    0  0.55244363650E+01 -0.90486754255E+01 -0.81886207996E+01  0.13395948453E+02  0.51100000000E-03 0.  1.
         12    1    4    4    0    0  0.85925485207E+01 -0.10962938988E+02  0.23772882184E+01  0.14130443044E+02  0.00000000000E+00 0. -1.
</event>
<event>
 8    1  0.1021894E-011  0.9118800E+02  0.7816164E-02  0.1184000E+00
        -11   -1    0    0    0    0  0.00000000000E+00  0.00000000000E+00  0.45593999997E+02  0.45594000000E+02  0.51100000000E-03 0. -1.
         11   -1    0    0    0    0 -0.00000000000E+00 -0.00000000000E+00 -0.45593999997E+02  0.45594000000E+02  0.51100000000E-03 0.  1.
         23    2    1    2    0    0  0.27755575616E-15 -0.88817841970E-15  0.00000000000E+00  0.91188000000E+02  0.91188000000E+02 0.  0.
    9900012    2    3    3    0    0 -0.36177053367E+00 -0.69603006216E+01  0.40057328786E+02  0.50528852787E+02  0.29999978530E+02 0.  0.
        -12    1    3    3    0    0  0.36177053367E+00  0.69603006216E+01 -0.40057328786E+02  0.40659147213E+02  0.00000000000E+00 0.  1.
         11    1    4    4    0    0  0.10309148511E+02 -0.13369023530E+02  0.16742224766E+02  0.23776278589E+02  0.51100000000E-03 0. -1.
        -11    1    4    4    0    0 -0.33264344013E+01  0.41209961171E+01  0.76997177574E+01  0.93452356111E+01  0.51100000000E-03 0.  1.
         12    1    4    4    0    0 -0.73444846433E+01  0.22877267910E+01  0.15615386262E+02  0.17407338586E+02  0.00000000000E+00 0. -1.
</event>
<event>
 8    1  0.1021894E-011  0.9118800E+02  0.7816164E-02  0.1184000E+00
        -11   -1    0    0    0    0  0.00000000000E+00  0.00000000000E+00  0.45593999997E+02  0.45594000000E+02  0.51100000000E-03 0. -1.
         11   -1    0    0    0    0 -0.00000000000E+00 -0.00000000000E+00 -0.45593999997E+02  0.45594000000E+02  0.51100000000E-03 0.  1.
         23    2    1    2    0    0 -0.17763568394E-14  0.00000000000E+00  0.00000000000E+00  0.91188000000E+02  0.91188000000E+02 0.  0.
    9900012    2    3    3    0    0  0.13447288995E+02 -0.17501425600E+02 -0.34147277602E+02  0.50528855310E+02  0.29999986199E+02 0.  0.
         12    1    3    3    0    0 -0.13447288995E+02  0.17501425600E+02  0.34147277602E+02  0.40659144690E+02  0.00000000000E+00 0. -1.
         11    1    4    4    0    0  0.83232585568E+01 -0.64504524895E+00 -0.27815192621E+02  0.29040965156E+02  0.51100000000E-03 0. -1.
        -11    1    4    4    0    0  0.43410965192E+01 -0.16775509376E+02 -0.84134778044E+01  0.19262643714E+02  0.51100000000E-03 0.  1.
         12    1    4    4    0    0  0.78293391893E+00 -0.80870975142E-01  0.20813928233E+01  0.22252464405E+01  0.00000000000E+00 0. -1.
</event>
<event>
 8    1  0.1240337E-011  0.9118800E+02  0.7816164E-02  0.1184000E+00
        -11   -1    0    0    0    0  0.00000000000E+00  0.00000000000E+00  0.45593999997E+02  0.45594000000E+02  0.51100000000E-03 0. -1.
         11   -1    0    0    0    0 -0.00000000000E+00 -0.00000000000E+00 -0.45593999997E+02  0.45594000000E+02  0.51100000000E-03 0.  1.
         23    2    1    2    0    0 -0.35527136788E-14  0.00000000000E+00  0.00000000000E+00  0.91188000000E+02  0.91188000000E+02 0.  0.
    9900012    2    3    3    0    0 -0.16305736185E+02  0.18781313776E+01 -0.37198864643E+02  0.50528930400E+02  0.30000214443E+02 0.  0.
         12    1    3    3    0    0  0.16305736185E+02 -0.18781313776E+01  0.37198864643E+02  0.40659069600E+02  0.00000000000E+00 0. -1.
         11    1    4    4    0    0 -0.12769327002E+02  0.71523943338E+01 -0.36757312662E+01  0.15090508852E+02  0.51100000000E-03 0. -1.
        -11    1    4    4    0    0 -0.63364248423E+01 -0.40672249455E+01 -0.16398891562E+02  0.18044839796E+02  0.51100000000E-03 0.  1.
         12    1    4    4    0    0  0.28000156594E+01 -0.12070380107E+01 -0.17124241815E+02  0.17393581753E+02  0.00000000000E+00 0. -1.
</event>
<event>
 8    1  0.1021894E-011  0.9118800E+02  0.7816164E-02  0.1184000E+00
        -11   -1    0    0    0    0  0.00000000000E+00  0.00000000000E+00  0.45593999997E+02  0.45594000000E+02  0.51100000000E-03 0. -1.
         11   -1    0    0    0    0 -0.00000000000E+00 -0.00000000000E+00 -0.45593999997E+02  0.45594000000E+02  0.51100000000E-03 0.  1.
         23    2    1    2    0    0  0.44408920985E-15  0.00000000000E+00 -0.35527136788E-14  0.91188000000E+02  0.91188000000E+02 0.  0.
    9900012    2    3    3    0    0  0.31445113435E+01 -0.26235576415E+02 -0.30902632465E+02  0.50528854477E+02  0.29999983668E+02 0.  0.
         12    1    3    3    0    0 -0.31445113435E+01  0.26235576415E+02  0.30902632465E+02  0.40659145523E+02  0.00000000000E+00 0. -1.
         11    1    4    4    0    0  0.13801047915E+02 -0.17454386988E+02 -0.25686809345E+02  0.33984359980E+02  0.51100000000E-03 0. -1.
        -11    1    4    4    0    0 -0.84236638038E+01 -0.26556101021E+01 -0.46980903321E+01  0.10004120647E+02  0.51100000000E-03 0.  1.
         12    1    4    4    0    0 -0.22328727673E+01 -0.61255793242E+01 -0.51773278858E+00  0.65403738496E+01  0.00000000000E+00 0. -1.
</event>
<event>
 8    1  0.1021894E-011  0.9118800E+02  0.7816164E-02  0.1184000E+00
        -11   -1    0    0    0    0  0.00000000000E+00  0.00000000000E+00  0.45593999997E+02  0.45594000000E+02  0.51100000000E-03 0. -1.
         11   -1    0    0    0    0 -0.00000000000E+00 -0.00000000000E+00 -0.45593999997E+02  0.45594000000E+02  0.51100000000E-03 0.  1.
         23    2    1    2    0    0  0.00000000000E+00  0.00000000000E+00  0.71054273576E-14  0.91188000000E+02  0.91188000000E+02 0.  0.
    9900012    2    3    3    0    0 -0.12871945041E+02  0.19328576581E+02 -0.33374917688E+02  0.50528856226E+02  0.29999988983E+02 0.  0.
         12    1    3    3    0    0  0.12871945041E+02 -0.19328576581E+02  0.33374917688E+02  0.40659143774E+02  0.00000000000E+00 0. -1.
         11    1    4    4    0    0 -0.77326564847E+00  0.11088072163E+02 -0.35394218736E+01  0.11664938556E+02  0.51100000000E-03 0. -1.
        -11    1    4    4    0    0 -0.14543865807E+02 -0.17225605529E+01 -0.17667964568E+02  0.22948817392E+02  0.51100000000E-03 0.  1.
        -12    1    4    4    0    0  0.24451864140E+01  0.99630649716E+01 -0.12167531246E+02  0.15915100278E+02  0.00000000000E+00 0.  1.
</event>
<event>
 8    1  0.1739161E-011  0.9118800E+02  0.7816164E-02  0.1184000E+00
        -11   -1    0    0    0    0  0.00000000000E+00  0.00000000000E+00  0.45593999997E+02  0.45594000000E+02  0.51100000000E-03 0. -1.
         11   -1    0    0    0    0 -0.00000000000E+00 -0.00000000000E+00 -0.45593999997E+02  0.45594000000E+02  0.51100000000E-03 0.  1.
         23    2    1    2    0    0  0.00000000000E+00  0.00000000000E+00  0.00000000000E+00  0.91188000000E+02  0.91188000000E+02 0.  0.
    9900012    2    3    3    0    0 -0.66553213980E+01  0.18314309870E+02 -0.35685556099E+02  0.50528853882E+02  0.29999981860E+02 0.  0.
         12    1    3    3    0    0  0.66553213980E+01 -0.18314309870E+02  0.35685556099E+02  0.40659146118E+02  0.00000000000E+00 0. -1.
         11    1    4    4    0    0  0.90807636855E+01  0.14131757201E+01 -0.38420243372E+01  0.99608476545E+01  0.51100000000E-03 0. -1.
        -11    1    4    4    0    0 -0.63502143370E+01  0.73887999266E+01 -0.21713563030E+02  0.23799126165E+02  0.51100000000E-03 0.  1.
         12    1    4    4    0    0 -0.93858707464E+01  0.95123342236E+01 -0.10129968732E+02  0.16768880063E+02  0.00000000000E+00 0. -1.
</event>
<event>
 8    1  0.1021894E-011  0.9118800E+02  0.7816164E-02  0.1184000E+00
        -11   -1    0    0    0    0  0.00000000000E+00  0.00000000000E+00  0.45593999997E+02  0.45594000000E+02  0.51100000000E-03 0. -1.
         11   -1    0    0    0    0 -0.00000000000E+00 -0.00000000000E+00 -0.45593999997E+02  0.45594000000E+02  0.51100000000E-03 0.  1.
         23    2    1    2    0    0 -0.22204460493E-14  0.35527136788E-14  0.00000000000E+00  0.91188000000E+02  0.91188000000E+02 0.  0.
    9900012    2    3    3    0    0  0.18602048056E+01 -0.20927498054E+02  0.34810085070E+02  0.50528898199E+02  0.30000116565E+02 0.  0.
        -12    1    3    3    0    0 -0.18602048056E+01  0.20927498054E+02 -0.34810085070E+02  0.40659101801E+02  0.00000000000E+00 0.  1.
         11    1    4    4    0    0  0.14502588556E+02 -0.55585376266E+01  0.18327344332E+02  0.24023196412E+02  0.51100000000E-03 0. -1.
        -11    1    4    4    0    0 -0.11132980449E+02 -0.95094175655E+01  0.12596588777E+02  0.19314407193E+02  0.51100000000E-03 0.  1.
         12    1    4    4    0    0 -0.15094033011E+01 -0.58595428618E+01  0.38861519607E+01  0.71912945939E+01  0.00000000000E+00 0. -1.
</event>
<event>
 8    1  0.1021894E-011  0.9118800E+02  0.7816164E-02  0.1184000E+00
        -11   -1    0    0    0    0  0.00000000000E+00  0.00000000000E+00  0.45593999997E+02  0.45594000000E+02  0.51100000000E-03 0. -1.
         11   -1    0    0    0    0 -0.00000000000E+00 -0.00000000000E+00 -0.45593999997E+02  0.45594000000E+02  0.51100000000E-03 0.  1.
         23    2    1    2    0    0 -0.71054273576E-14  0.35527136788E-14  0.00000000000E+00  0.91188000000E+02  0.91188000000E+02 0.  0.
    9900012    2    3    3    0    0 -0.30553577934E+02  0.25991918916E+02  0.66380226541E+01  0.50528876568E+02  0.30000050815E+02 0.  0.
        -12    1    3    3    0    0  0.30553577934E+02 -0.25991918916E+02 -0.66380226541E+01  0.40659123432E+02  0.00000000000E+00 0.  1.
         11    1    4    4    0    0 -0.34381695999E+02  0.23279463197E+02  0.53955041984E+01  0.41870585049E+02  0.51100000000E-03 0. -1.
        -11    1    4    4    0    0  0.25663470301E+01  0.40397450929E+01  0.33683079416E+01  0.58524504393E+01  0.51100000000E-03 0.  1.
         12    1    4    4    0    0  0.12617710348E+01 -0.13272893735E+01 -0.21257894858E+01  0.28058410795E+01  0.00000000000E+00 0. -1.
</event>
<event>
 8    1  0.1021894E-011  0.9118800E+02  0.7816164E-02  0.1184000E+00
        -11   -1    0    0    0    0  0.00000000000E+00  0.00000000000E+00  0.45593999997E+02  0.45594000000E+02  0.51100000000E-03 0.  1.
         11   -1    0    0    0    0 -0.00000000000E+00 -0.00000000000E+00 -0.45593999997E+02  0.45594000000E+02  0.51100000000E-03 0. -1.
         23    2    1    2    0    0  0.00000000000E+00  0.00000000000E+00  0.00000000000E+00  0.91188000000E+02  0.91188000000E+02 0.  0.
    9900012    2    3    3    0    0  0.75271900687E+01  0.37444955471E+02 -0.13942112595E+02  0.50528858541E+02  0.29999996023E+02 0.  0.
         12    1    3    3    0    0 -0.75271900687E+01 -0.37444955471E+02  0.13942112595E+02  0.40659141459E+02  0.00000000000E+00 0. -1.
         11    1    4    4    0    0  0.14717154775E+02  0.73986992674E+01 -0.34144738915E+01  0.16822426333E+02  0.51100000000E-03 0. -1.
        -11    1    4    4    0    0 -0.31933817928E+01  0.23243836840E+02 -0.10763540611E+02  0.25813319141E+02  0.51100000000E-03 0.  1.
         12    1    4    4    0    0 -0.39965829137E+01  0.68024193633E+01  0.23590190789E+00  0.78931130671E+01  0.00000000000E+00 0. -1.
</event>
<event>
 8    1  0.1021894E-011  0.9118800E+02  0.7816164E-02  0.1184000E+00
        -11   -1    0    0    0    0  0.00000000000E+00  0.00000000000E+00  0.45593999997E+02  0.45594000000E+02  0.51100000000E-03 0.  1.
         11   -1    0    0    0    0 -0.00000000000E+00 -0.00000000000E+00 -0.45593999997E+02  0.45594000000E+02  0.51100000000E-03 0. -1.
         23    2    1    2    0    0  0.00000000000E+00  0.00000000000E+00  0.35527136788E-14  0.91188000000E+02  0.91188000000E+02 0.  0.
    9900012    2    3    3    0    0 -0.33017070550E+02 -0.54614998549E+01 -0.23091352975E+02  0.50528861906E+02  0.30000006249E+02 0.  0.
         12    1    3    3    0    0  0.33017070550E+02  0.54614998549E+01  0.23091352975E+02  0.40659138094E+02  0.00000000000E+00 0. -1.
         11    1    4    4    0    0 -0.32172611049E+01 -0.69900954904E+01 -0.17720460787E+02  0.19319082141E+02  0.51100000000E-03 0. -1.
        -11    1    4    4    0    0 -0.29614362947E+02  0.68034592600E+00 -0.44681976778E+01  0.29957272140E+02  0.51100000000E-03 0.  1.
        -12    1    4    4    0    0 -0.18544649766E+00  0.84824970947E+00 -0.90269450954E+00  0.12525076250E+01  0.00000000000E+00 0.  1.
</event>
<event>
 8    1  0.1021894E-011  0.9118800E+02  0.7816164E-02  0.1184000E+00
        -11   -1    0    0    0    0  0.00000000000E+00  0.00000000000E+00  0.45593999997E+02  0.45594000000E+02  0.51100000000E-03 0. -1.
         11   -1    0    0    0    0 -0.00000000000E+00 -0.00000000000E+00 -0.45593999997E+02  0.45594000000E+02  0.51100000000E-03 0.  1.
         23    2    1    2    0    0  0.88817841970E-15  0.00000000000E+00  0.71054273576E-14  0.91188000000E+02  0.91188000000E+02 0.  0.
    9900012    2    3    3    0    0 -0.71184327896E+01  0.24440682362E+02 -0.31704030660E+02  0.50528873106E+02  0.30000040293E+02 0.  0.
         12    1    3    3    0    0  0.71184327896E+01 -0.24440682362E+02  0.31704030660E+02  0.40659126894E+02  0.00000000000E+00 0. -1.
         11    1    4    4    0    0  0.49950298067E+01  0.25115953979E+02 -0.17192663457E+02  0.30843948257E+02  0.51100000000E-03 0. -1.
        -11    1    4    4    0    0 -0.22102397317E+01 -0.20890352465E+01 -0.51686502934E+01  0.59970137610E+01  0.51100000000E-03 0.  1.
         12    1    4    4    0    0 -0.99032228646E+01  0.14137636290E+01 -0.93427169096E+01  0.13687911088E+02  0.00000000000E+00 0. -1.
</event>
<event>
 8    1  0.1021894E-011  0.9118800E+02  0.7816164E-02  0.1184000E+00
        -11   -1    0    0    0    0  0.00000000000E+00  0.00000000000E+00  0.45593999997E+02  0.45594000000E+02  0.51100000000E-03 0.  1.
         11   -1    0    0    0    0 -0.00000000000E+00 -0.00000000000E+00 -0.45593999997E+02  0.45594000000E+02  0.51100000000E-03 0. -1.
         23    2    1    2    0    0  0.00000000000E+00 -0.71054273576E-14  0.17763568394E-14  0.91188000000E+02  0.91188000000E+02 0.  0.
    9900012    2    3    3    0    0  0.25112239056E+01 -0.38088816033E+02  0.14003636683E+02  0.50528855977E+02  0.29999988227E+02 0.  0.
        -12    1    3    3    0    0 -0.25112239056E+01  0.38088816033E+02 -0.14003636683E+02  0.40659144023E+02  0.00000000000E+00 0.  1.
         11    1    4    4    0    0 -0.72962757571E+01 -0.23979544211E+02  0.42632307257E+01  0.25424974277E+02  0.51100000000E-03 0. -1.
        -11    1    4    4    0    0  0.91220251624E+01 -0.49508948773E+01 -0.16102131517E+01  0.10503118099E+02  0.51100000000E-03 0.  1.
        -12    1    4    4    0    0  0.68547450035E+00 -0.91583769450E+01  0.11350619109E+02  0.14600763601E+02  0.00000000000E+00 0.  1.
</event>
<event>
 8    1  0.1021894E-011  0.9118800E+02  0.7816164E-02  0.1184000E+00
        -11   -1    0    0    0    0  0.00000000000E+00  0.00000000000E+00  0.45593999997E+02  0.45594000000E+02  0.51100000000E-03 0. -1.
         11   -1    0    0    0    0 -0.00000000000E+00 -0.00000000000E+00 -0.45593999997E+02  0.45594000000E+02  0.51100000000E-03 0.  1.
         23    2    1    2    0    0 -0.88817841970E-15 -0.44408920985E-15  0.00000000000E+00  0.91188000000E+02  0.91188000000E+02 0.  0.
    9900012    2    3    3    0    0  0.57508981492E+01  0.38261830612E+01  0.40068103033E+02  0.50528863426E+02  0.30000010868E+02 0.  0.
        -12    1    3    3    0    0 -0.57508981492E+01 -0.38261830612E+01 -0.40068103033E+02  0.40659136574E+02  0.00000000000E+00 0.  1.
         11    1    4    4    0    0 -0.15882437292E+00 -0.40812254778E+01  0.20830748794E+02  0.21227381425E+02  0.51100000000E-03 0. -1.
        -11    1    4    4    0    0  0.91892129218E+01 -0.10769996695E+01  0.18177928396E+01  0.94289942984E+01  0.51100000000E-03 0.  1.
        -12    1    4    4    0    0 -0.32794903997E+01  0.89844082085E+01  0.17419561399E+02  0.19872487702E+02  0.00000000000E+00 0.  1.
</event>
<event>
 8    1  0.1021894E-011  0.9118800E+02  0.7816164E-02  0.1184000E+00
        -11   -1    0    0    0    0  0.00000000000E+00  0.00000000000E+00  0.45593999997E+02  0.45594000000E+02  0.51100000000E-03 0. -1.
         11   -1    0    0    0    0 -0.00000000000E+00 -0.00000000000E+00 -0.45593999997E+02  0.45594000000E+02  0.51100000000E-03 0.  1.
         23    2    1    2    0    0  0.00000000000E+00  0.35527136788E-14  0.00000000000E+00  0.91188000000E+02  0.91188000000E+02 0.  0.
    9900012    2    3    3    0    0  0.25299849055E+02  0.21579641843E+02  0.23396564409E+02  0.50528898554E+02  0.30000117644E+02 0.  0.
        -12    1    3    3    0    0 -0.25299849055E+02 -0.21579641843E+02 -0.23396564409E+02  0.40659101446E+02  0.00000000000E+00 0.  1.
         11    1    4    4    0    0  0.13759627811E+02  0.18511914844E+02 -0.10202406931E+00  0.23065748586E+02  0.51100000000E-03 0. -1.
        -11    1    4    4    0    0  0.94576716410E+01  0.49948931418E+01  0.14434205627E+02  0.17965043911E+02  0.51100000000E-03 0.  1.
         12    1    4    4    0    0  0.20825496033E+01 -0.19271661431E+01  0.90643828511E+01  0.94981060568E+01  0.00000000000E+00 0. -1.
</event>
<event>
 8    1  0.1021894E-011  0.9118800E+02  0.7816164E-02  0.1184000E+00
        -11   -1    0    0    0    0  0.00000000000E+00  0.00000000000E+00  0.45593999997E+02  0.45594000000E+02  0.51100000000E-03 0. -1.
         11   -1    0    0    0    0 -0.00000000000E+00 -0.00000000000E+00 -0.45593999997E+02  0.45594000000E+02  0.51100000000E-03 0.  1.
         23    2    1    2    0    0  0.00000000000E+00  0.00000000000E+00  0.35527136788E-14  0.91188000000E+02  0.91188000000E+02 0.  0.
    9900012    2    3    3    0    0 -0.30281567291E+02 -0.10651226295E+02  0.24954826603E+02  0.50528864372E+02  0.30000013745E+02 0.  0.
        -12    1    3    3    0    0  0.30281567291E+02  0.10651226295E+02 -0.24954826603E+02  0.40659135628E+02  0.00000000000E+00 0.  1.
         11    1    4    4    0    0 -0.38163020363E+01 -0.53824343308E+01  0.19895005266E+02  0.20960581943E+02  0.51100000000E-03 0. -1.
        -11    1    4    4    0    0 -0.24615205240E+02 -0.52151732037E+01  0.10865224977E+01  0.25185052947E+02  0.51100000000E-03 0.  1.
        -12    1    4    4    0    0 -0.18500600154E+01 -0.53618760030E-01  0.39732988391E+01  0.43832294826E+01  0.00000000000E+00 0.  1.
</event>
<event>
 8    1  0.1021894E-011  0.9118800E+02  0.7816164E-02  0.1184000E+00
        -11   -1    0    0    0    0  0.00000000000E+00  0.00000000000E+00  0.45593999997E+02  0.45594000000E+02  0.51100000000E-03 0. -1.
         11   -1    0    0    0    0 -0.00000000000E+00 -0.00000000000E+00 -0.45593999997E+02  0.45594000000E+02  0.51100000000E-03 0.  1.
         23    2    1    2    0    0  0.71054273576E-14  0.00000000000E+00 -0.35527136788E-14  0.91188000000E+02  0.91188000000E+02 0.  0.
    9900012    2    3    3    0    0  0.31997631166E+02 -0.12165716739E+02 -0.21938830397E+02  0.50528863964E+02  0.30000012505E+02 0.  0.
         12    1    3    3    0    0 -0.31997631166E+02  0.12165716739E+02  0.21938830397E+02  0.40659136036E+02  0.00000000000E+00 0. -1.
         11    1    4    4    0    0  0.24481898727E+01 -0.29721772209E+01  0.65720601057E+01  0.76170496506E+01  0.51100000000E-03 0. -1.
        -11    1    4    4    0    0  0.46807688952E+01 -0.24217896458E+01 -0.12921672702E+01  0.54262656638E+01  0.51100000000E-03 0.  1.
         12    1    4    4    0    0  0.24868672398E+02 -0.67717498722E+01 -0.27218723232E+02  0.37485548650E+02  0.00000000000E+00 0. -1.
</event>
<event>
 8    1  0.1021894E-011  0.9118800E+02  0.7816164E-02  0.1184000E+00
        -11   -1    0    0    0    0  0.00000000000E+00  0.00000000000E+00  0.45593999997E+02  0.45594000000E+02  0.51100000000E-03 0. -1.
         11   -1    0    0    0    0 -0.00000000000E+00 -0.00000000000E+00 -0.45593999997E+02  0.45594000000E+02  0.51100000000E-03 0.  1.
         23    2    1    2    0    0  0.20816681712E-15  0.00000000000E+00  0.00000000000E+00  0.91188000000E+02  0.91188000000E+02 0.  0.
    9900012    2    3    3    0    0 -0.91984346980E-01 -0.34464536153E+02 -0.21572042577E+02  0.50528859154E+02  0.29999997885E+02 0.  0.
         12    1    3    3    0    0  0.91984346980E-01  0.34464536153E+02  0.21572042577E+02  0.40659140846E+02  0.00000000000E+00 0. -1.
         11    1    4    4    0    0  0.16990626908E+01  0.20312246893E+01 -0.99791940168E+00  0.28299348330E+01  0.51100000000E-03 0. -1.
        -11    1    4    4    0    0 -0.12650200387E+01 -0.36869078858E+02 -0.11556885560E+02  0.38658645289E+02  0.51100000000E-03 0.  1.
        -12    1    4    4    0    0 -0.52602699905E+00  0.37331801517E+00 -0.90172376162E+01  0.90402790317E+01  0.00000000000E+00 0.  1.
</event>
<event>
 8    1  0.1021894E-011  0.9118800E+02  0.7816164E-02  0.1184000E+00
        -11   -1    0    0    0    0  0.00000000000E+00  0.00000000000E+00  0.45593999997E+02  0.45594000000E+02  0.51100000000E-03 0. -1.
         11   -1    0    0    0    0 -0.00000000000E+00 -0.00000000000E+00 -0.45593999997E+02  0.45594000000E+02  0.51100000000E-03 0.  1.
         23    2    1    2    0    0  0.00000000000E+00 -0.88817841970E-15  0.00000000000E+00  0.91188000000E+02  0.91188000000E+02 0.  0.
    9900012    2    3    3    0    0  0.18584571764E+02  0.76691414262E+01  0.35340680175E+02  0.50528859415E+02  0.29999998678E+02 0.  0.
        -12    1    3    3    0    0 -0.18584571764E+02 -0.76691414262E+01 -0.35340680175E+02  0.40659140585E+02  0.00000000000E+00 0.  1.
         11    1    4    4    0    0  0.33452630658E+01  0.14750601052E+02  0.20497893498E+02  0.25474195856E+02  0.51100000000E-03 0. -1.
        -11    1    4    4    0    0  0.42436807921E+01 -0.78925240596E+01  0.84121828956E+01  0.12290874014E+02  0.51100000000E-03 0.  1.
        -12    1    4    4    0    0  0.10995627906E+02  0.81106443357E+00  0.64306037812E+01  0.12763789545E+02  0.00000000000E+00 0.  1.
</event>
<event>
 8    1  0.1023969E-011  0.9118800E+02  0.7816164E-02  0.1184000E+00
        -11   -1    0    0    0    0  0.00000000000E+00  0.00000000000E+00  0.45593999997E+02  0.45594000000E+02  0.51100000000E-03 0. -1.
         11   -1    0    0    0    0 -0.00000000000E+00 -0.00000000000E+00 -0.45593999997E+02  0.45594000000E+02  0.51100000000E-03 0.  1.
         23    2    1    2    0    0 -0.71054273576E-14 -0.71054273576E-14  0.35527136788E-14  0.91188000000E+02  0.91188000000E+02 0.  0.
    9900012    2    3    3    0    0  0.23932718953E+02  0.24887246691E+02 -0.21471282502E+02  0.50528855191E+02  0.29999985838E+02 0.  0.
         12    1    3    3    0    0 -0.23932718953E+02 -0.24887246691E+02  0.21471282502E+02  0.40659144809E+02  0.00000000000E+00 0. -1.
         11    1    4    4    0    0  0.21824932108E+01 -0.48502251486E+01 -0.86014491765E+01  0.10113005923E+02  0.51100000000E-03 0. -1.
        -11    1    4    4    0    0  0.10472276243E+02  0.19489684691E+02 -0.11959018370E+02  0.25150238561E+02  0.51100000000E-03 0.  1.
         12    1    4    4    0    0  0.11277949499E+02  0.10247787149E+02 -0.91081495527E+00  0.15265610707E+02  0.00000000000E+00 0. -1.
</event>
<event>
 8    1  0.1021894E-011  0.9118800E+02  0.7816164E-02  0.1184000E+00
        -11   -1    0    0    0    0  0.00000000000E+00  0.00000000000E+00  0.45593999997E+02  0.45594000000E+02  0.51100000000E-03 0. -1.
         11   -1    0    0    0    0 -0.00000000000E+00 -0.00000000000E+00 -0.45593999997E+02  0.45594000000E+02  0.51100000000E-03 0.  1.
         23    2    1    2    0    0  0.00000000000E+00 -0.17763568394E-14  0.35527136788E-14  0.91188000000E+02  0.91188000000E+02 0.  0.
    9900012    2    3    3    0    0  0.30800546682E+02  0.11427241154E+02 -0.23956439877E+02  0.50528849396E+02  0.29999968223E+02 0.  0.
         12    1    3    3    0    0 -0.30800546682E+02 -0.11427241154E+02  0.23956439877E+02  0.40659150604E+02  0.00000000000E+00 0. -1.
         11    1    4    4    0    0  0.22016781072E+01 -0.71924818128E+01  0.45628807458E+00  0.75357401881E+01  0.51100000000E-03 0. -1.
        -11    1    4    4    0    0  0.13202251413E+02  0.14126772792E+02 -0.13971496346E+02  0.23855143309E+02  0.51100000000E-03 0.  1.
         12    1    4    4    0    0  0.15396617162E+02  0.44929501752E+01 -0.10441231605E+02  0.19137965898E+02  0.00000000000E+00 0. -1.
</event>
<event>
 8    1  0.1021894E-011  0.9118800E+02  0.7816164E-02  0.1184000E+00
        -11   -1    0    0    0    0  0.00000000000E+00  0.00000000000E+00  0.45593999997E+02  0.45594000000E+02  0.51100000000E-03 0. -1.
         11   -1    0    0    0    0 -0.00000000000E+00 -0.00000000000E+00 -0.45593999997E+02  0.45594000000E+02  0.51100000000E-03 0.  1.
         23    2    1    2    0    0  0.35527136788E-14  0.00000000000E+00  0.71054273576E-14  0.91188000000E+02  0.91188000000E+02 0.  0.
    9900012    2    3    3    0    0  0.16721656345E+02  0.36092243050E+01  0.36885302351E+02  0.50528858094E+02  0.29999994664E+02 0.  0.
        -12    1    3    3    0    0 -0.16721656345E+02 -0.36092243050E+01 -0.36885302351E+02  0.40659141906E+02  0.00000000000E+00 0.  1.
         11    1    4    4    0    0  0.17009410868E+02  0.61360104331E+01  0.25426050274E+02  0.31200235815E+02  0.51100000000E-03 0. -1.
        -11    1    4    4    0    0 -0.67986859735E+01 -0.51075506953E+01  0.54489195262E+01  0.10099501440E+02  0.51100000000E-03 0.  1.
        -12    1    4    4    0    0  0.65109314508E+01  0.25807645673E+01  0.60103325503E+01  0.92291208397E+01  0.00000000000E+00 0.  1.
</event>
<event>
 8    1  0.1021894E-011  0.9118800E+02  0.7816164E-02  0.1184000E+00
        -11   -1    0    0    0    0  0.00000000000E+00  0.00000000000E+00  0.45593999997E+02  0.45594000000E+02  0.51100000000E-03 0. -1.
         11   -1    0    0    0    0 -0.00000000000E+00 -0.00000000000E+00 -0.45593999997E+02  0.45594000000E+02  0.51100000000E-03 0.  1.
         23    2    1    2    0    0 -0.88817841970E-15 -0.44408920985E-15  0.71054273576E-14  0.91188000000E+02  0.91188000000E+02 0.  0.
    9900012    2    3    3    0    0  0.70512632006E+01  0.20802823699E+01  0.39988971038E+02  0.50528859673E+02  0.29999999463E+02 0.  0.
        -12    1    3    3    0    0 -0.70512632006E+01 -0.20802823699E+01 -0.39988971038E+02  0.40659140327E+02  0.00000000000E+00 0.  1.
         11    1    4    4    0    0  0.10065302259E+02 -0.68265423493E+01  0.36261082385E+02  0.38246281989E+02  0.51100000000E-03 0. -1.
        -11    1    4    4    0    0 -0.25086177999E+01  0.85304838574E+01  0.54635103174E+01  0.10436103840E+02  0.51100000000E-03 0.  1.
         12    1    4    4    0    0 -0.50542125820E+00  0.37634086184E+00 -0.17356216651E+01  0.18464738441E+01  0.00000000000E+00 0. -1.
</event>
<event>
 8    1  0.1021894E-011  0.9118800E+02  0.7816164E-02  0.1184000E+00
        -11   -1    0    0    0    0  0.00000000000E+00  0.00000000000E+00  0.45593999997E+02  0.45594000000E+02  0.51100000000E-03 0. -1.
         11   -1    0    0    0    0 -0.00000000000E+00 -0.00000000000E+00 -0.45593999997E+02  0.45594000000E+02  0.51100000000E-03 0.  1.
         23    2    1    2    0    0  0.00000000000E+00  0.88817841970E-15  0.00000000000E+00  0.91188000000E+02  0.91188000000E+02 0.  0.
    9900012    2    3    3    0    0  0.36462104961E+02 -0.60648414200E+01  0.16938064252E+02  0.50528863016E+02  0.30000009625E+02 0.  0.
        -12    1    3    3    0    0 -0.36462104961E+02  0.60648414200E+01 -0.16938064252E+02  0.40659136984E+02  0.00000000000E+00 0.  1.
         11    1    4    4    0    0  0.12727660364E+02 -0.81772965870E+00  0.44391985172E+00  0.12761625493E+02  0.51100000000E-03 0. -1.
        -11    1    4    4    0    0  0.12500508815E+02 -0.14693641155E+02  0.90245508570E+01  0.21298082765E+02  0.51100000000E-03 0.  1.
        -12    1    4    4    0    0  0.11233935782E+02  0.94465293939E+01  0.74695935430E+01  0.16469154758E+02  0.00000000000E+00 0.  1.
</event>
<event>
 8    1  0.1021894E-011  0.9118800E+02  0.7816164E-02  0.1184000E+00
        -11   -1    0    0    0    0  0.00000000000E+00  0.00000000000E+00  0.45593999997E+02  0.45594000000E+02  0.51100000000E-03 0. -1.
         11   -1    0    0    0    0 -0.00000000000E+00 -0.00000000000E+00 -0.45593999997E+02  0.45594000000E+02  0.51100000000E-03 0.  1.
         23    2    1    2    0    0  0.17763568394E-14  0.00000000000E+00  0.35527136788E-14  0.91188000000E+02  0.91188000000E+02 0.  0.
    9900012    2    3    3    0    0 -0.15135343122E+02  0.28652186377E+02 -0.24558895666E+02  0.50528858938E+02  0.29999997226E+02 0.  0.
         12    1    3    3    0    0  0.15135343122E+02 -0.28652186377E+02  0.24558895666E+02  0.40659141062E+02  0.00000000000E+00 0. -1.
         11    1    4    4    0    0 -0.10365845959E+02  0.91123543748E+01  0.27423940858E+01  0.14071477900E+02  0.51100000000E-03 0. -1.
        -11    1    4    4    0    0 -0.47401477126E+01  0.19524330603E+02 -0.17465829598E+02  0.26621864879E+02  0.51100000000E-03 0.  1.
        -12    1    4    4    0    0 -0.29349450816E-01  0.15501399520E-01 -0.98354601532E+01  0.98355161587E+01  0.00000000000E+00 0.  1.
</event>
<event>
 8    1  0.1021894E-011  0.9118800E+02  0.7816164E-02  0.1184000E+00
        -11   -1    0    0    0    0  0.00000000000E+00  0.00000000000E+00  0.45593999997E+02  0.45594000000E+02  0.51100000000E-03 0. -1.
         11   -1    0    0    0    0 -0.00000000000E+00 -0.00000000000E+00 -0.45593999997E+02  0.45594000000E+02  0.51100000000E-03 0.  1.
         23    2    1    2    0    0  0.00000000000E+00  0.00000000000E+00  0.88817841970E-15  0.91188000000E+02  0.91188000000E+02 0.  0.
    9900012    2    3    3    0    0  0.30286232995E+02  0.26591600180E+02  0.53662362847E+01  0.50528860793E+02  0.30000002866E+02 0.  0.
        -12    1    3    3    0    0 -0.30286232995E+02 -0.26591600180E+02 -0.53662362847E+01  0.40659139207E+02  0.00000000000E+00 0.  1.
         11    1    4    4    0    0  0.62878044338E+01  0.15261061069E+02  0.18388710095E+01  0.16607766749E+02  0.51100000000E-03 0. -1.
        -11    1    4    4    0    0  0.20120520090E+02 -0.10886033945E+01 -0.92142117592E+00  0.20171004023E+02  0.51100000000E-03 0.  1.
        -12    1    4    4    0    0  0.38779084718E+01  0.12419142506E+02  0.44487864511E+01  0.13750090021E+02  0.00000000000E+00 0.  1.
</event>
<event>
 8    1  0.1021894E-011  0.9118800E+02  0.7816164E-02  0.1184000E+00
        -11   -1    0    0    0    0  0.00000000000E+00  0.00000000000E+00  0.45593999997E+02  0.45594000000E+02  0.51100000000E-03 0. -1.
         11   -1    0    0    0    0 -0.00000000000E+00 -0.00000000000E+00 -0.45593999997E+02  0.45594000000E+02  0.51100000000E-03 0.  1.
         23    2    1    2    0    0  0.17763568394E-14  0.00000000000E+00  0.00000000000E+00  0.91188000000E+02  0.91188000000E+02 0.  0.
    9900012    2    3    3    0    0  0.12770869342E+02  0.25910215603E+01  0.38514386284E+02  0.50528850386E+02  0.29999971233E+02 0.  0.
        -12    1    3    3    0    0 -0.12770869342E+02 -0.25910215603E+01 -0.38514386284E+02  0.40659149614E+02  0.00000000000E+00 0.  1.
         11    1    4    4    0    0 -0.28315967491E+01  0.52891475064E+00  0.23856389847E+02  0.24029669739E+02  0.51100000000E-03 0. -1.
        -11    1    4    4    0    0  0.14326012546E+02 -0.44767222966E+01  0.12386800226E+02  0.19460434170E+02  0.51100000000E-03 0.  1.
        -12    1    4    4    0    0  0.12764535448E+01  0.65388291063E+01  0.22711962114E+01  0.70387464768E+01  0.00000000000E+00 0.  1.
</event>
<event>
 8    1  0.1021894E-011  0.9118800E+02  0.7816164E-02  0.1184000E+00
        -11   -1    0    0    0    0  0.00000000000E+00  0.00000000000E+00  0.45593999997E+02  0.45594000000E+02  0.51100000000E-03 0. -1.
         11   -1    0    0    0    0 -0.00000000000E+00 -0.00000000000E+00 -0.45593999997E+02  0.45594000000E+02  0.51100000000E-03 0.  1.
         23    2    1    2    0    0  0.71054273576E-14  0.00000000000E+00  0.17763568394E-14  0.91188000000E+02  0.91188000000E+02 0.  0.
    9900012    2    3    3    0    0  0.34824180134E+02  0.18891087132E+02  0.91415955584E+01  0.50528862474E+02  0.30000007976E+02 0.  0.
        -12    1    3    3    0    0 -0.34824180134E+02 -0.18891087132E+02 -0.91415955584E+01  0.40659137526E+02  0.00000000000E+00 0.  1.
         11    1    4    4    0    0  0.35905232509E+01  0.84652862650E+01  0.27331277446E+01  0.95928575666E+01  0.51100000000E-03 0. -1.
        -11    1    4    4    0    0  0.98964039297E+01 -0.70916854302E+01 -0.13761731427E+01  0.12252537115E+02  0.51100000000E-03 0.  1.
        -12    1    4    4    0    0  0.21337252953E+02  0.17517486297E+02  0.77846409564E+01  0.28683467792E+02  0.00000000000E+00 0.  1.
</event>
<event>
 8    1  0.1021894E-011  0.9118800E+02  0.7816164E-02  0.1184000E+00
        -11   -1    0    0    0    0  0.00000000000E+00  0.00000000000E+00  0.45593999997E+02  0.45594000000E+02  0.51100000000E-03 0. -1.
         11   -1    0    0    0    0 -0.00000000000E+00 -0.00000000000E+00 -0.45593999997E+02  0.45594000000E+02  0.51100000000E-03 0.  1.
         23    2    1    2    0    0 -0.17763568394E-14  0.00000000000E+00 -0.71054273576E-14  0.91188000000E+02  0.91188000000E+02 0.  0.
    9900012    2    3    3    0    0  0.12263763564E+02  0.15963341483E+02  0.35326153466E+02  0.50528864658E+02  0.30000014614E+02 0.  0.
        -12    1    3    3    0    0 -0.12263763564E+02 -0.15963341483E+02 -0.35326153466E+02  0.40659135342E+02  0.00000000000E+00 0.  1.
         11    1    4    4    0    0  0.12451646872E+02  0.80490882480E+00  0.28143997758E+02  0.30785970801E+02  0.51100000000E-03 0.  1.
        -11    1    4    4    0    0 -0.31824005675E+01  0.14300888800E+02  0.77537475084E+01  0.16575997543E+02  0.51100000000E-03 0. -1.
        -12    1    4    4    0    0  0.29945172586E+01  0.85754385786E+00 -0.57159180023E+00  0.31668963144E+01  0.00000000000E+00 0.  1.
</event>
<event>
 8    1  0.1021894E-011  0.9118800E+02  0.7816164E-02  0.1184000E+00
        -11   -1    0    0    0    0  0.00000000000E+00  0.00000000000E+00  0.45593999997E+02  0.45594000000E+02  0.51100000000E-03 0. -1.
         11   -1    0    0    0    0 -0.00000000000E+00 -0.00000000000E+00 -0.45593999997E+02  0.45594000000E+02  0.51100000000E-03 0.  1.
         23    2    1    2    0    0  0.00000000000E+00  0.00000000000E+00  0.00000000000E+00  0.91188000000E+02  0.91188000000E+02 0.  0.
    9900012    2    3    3    0    0  0.22818165096E+02  0.12337238628E+02  0.31309574432E+02  0.50528861219E+02  0.30000004162E+02 0.  0.
        -12    1    3    3    0    0 -0.22818165096E+02 -0.12337238628E+02 -0.31309574432E+02  0.40659138781E+02  0.00000000000E+00 0.  1.
         11    1    4    4    0    0  0.16023690111E+02  0.10231836724E+02  0.29306421224E+02  0.34933013794E+02  0.51100000000E-03 0. -1.
        -11    1    4    4    0    0  0.93720425129E+01 -0.22317027896E+01 -0.10620868520E+01  0.96924561876E+01  0.51100000000E-03 0.  1.
        -12    1    4    4    0    0 -0.25775675278E+01  0.43371046934E+01  0.30652400594E+01  0.59033912376E+01  0.00000000000E+00 0.  1.
</event>
<event>
 8    1  0.1021894E-011  0.9118800E+02  0.7816164E-02  0.1184000E+00
        -11   -1    0    0    0    0  0.00000000000E+00  0.00000000000E+00  0.45593999997E+02  0.45594000000E+02  0.51100000000E-03 0.  1.
         11   -1    0    0    0    0 -0.00000000000E+00 -0.00000000000E+00 -0.45593999997E+02  0.45594000000E+02  0.51100000000E-03 0. -1.
         23    2    1    2    0    0  0.71054273576E-14  0.00000000000E+00  0.00000000000E+00  0.91188000000E+02  0.91188000000E+02 0.  0.
    9900012    2    3    3    0    0  0.28620854984E+02 -0.23714371737E+02 -0.16481535066E+02  0.50528858776E+02  0.29999996736E+02 0.  0.
         12    1    3    3    0    0 -0.28620854984E+02  0.23714371737E+02  0.16481535066E+02  0.40659141224E+02  0.00000000000E+00 0. -1.
         11    1    4    4    0    0  0.20008693162E+02 -0.12489487489E+02 -0.15394752169E+02  0.28166176425E+02  0.51100000000E-03 0. -1.
        -11    1    4    4    0    0 -0.53231184332E+01 -0.27652757358E+01 -0.85360944950E+00  0.60589594075E+01  0.51100000000E-03 0.  1.
        -12    1    4    4    0    0  0.13935280255E+02 -0.84596085124E+01 -0.23317344798E+00  0.16303722944E+02  0.00000000000E+00 0.  1.
</event>
<event>
 8    1  0.1021894E-011  0.9118800E+02  0.7816164E-02  0.1184000E+00
        -11   -1    0    0    0    0  0.00000000000E+00  0.00000000000E+00  0.45593999997E+02  0.45594000000E+02  0.51100000000E-03 0. -1.
         11   -1    0    0    0    0 -0.00000000000E+00 -0.00000000000E+00 -0.45593999997E+02  0.45594000000E+02  0.51100000000E-03 0.  1.
         23    2    1    2    0    0 -0.35527136788E-14  0.88817841970E-15  0.00000000000E+00  0.91188000000E+02  0.91188000000E+02 0.  0.
    9900012    2    3    3    0    0  0.29576489364E+02 -0.61944390134E+01  0.27203403653E+02  0.50528868577E+02  0.30000026526E+02 0.  0.
        -12    1    3    3    0    0 -0.29576489364E+02  0.61944390134E+01 -0.27203403653E+02  0.40659131423E+02  0.00000000000E+00 0.  1.
         11    1    4    4    0    0  0.22160445625E+02 -0.64214421040E+01  0.10854204951E+02  0.25497726063E+02  0.51100000000E-03 0. -1.
        -11    1    4    4    0    0  0.38976247737E+01  0.88064514145E+01  0.92448624624E+01  0.13349627246E+02  0.51100000000E-03 0.  1.
        -12    1    4    4    0    0  0.35184189654E+01 -0.85794483239E+01  0.71043362394E+01  0.11681515268E+02  0.00000000000E+00 0.  1.
</event>
<event>
 8    1  0.1021894E-011  0.9118800E+02  0.7816164E-02  0.1184000E+00
        -11   -1    0    0    0    0  0.00000000000E+00  0.00000000000E+00  0.45593999997E+02  0.45594000000E+02  0.51100000000E-03 0. -1.
         11   -1    0    0    0    0 -0.00000000000E+00 -0.00000000000E+00 -0.45593999997E+02  0.45594000000E+02  0.51100000000E-03 0.  1.
         23    2    1    2    0    0 -0.71054273576E-14  0.35527136788E-14  0.00000000000E+00  0.91188000000E+02  0.91188000000E+02 0.  0.
    9900012    2    3    3    0    0 -0.21132397133E+02  0.25144938786E+02 -0.23964947446E+02  0.50528869891E+02  0.30000030521E+02 0.  0.
         12    1    3    3    0    0  0.21132397133E+02 -0.25144938786E+02  0.23964947446E+02  0.40659130109E+02  0.00000000000E+00 0. -1.
         11    1    4    4    0    0 -0.24456941640E+02  0.21299668762E+02 -0.17264498908E+02  0.36740724088E+02  0.51100000000E-03 0. -1.
        -11    1    4    4    0    0  0.26062206676E+01  0.37336636245E+01 -0.96926645234E+01  0.10708892382E+02  0.51100000000E-03 0.  1.
         12    1    4    4    0    0  0.71832383891E+00  0.11160639916E+00  0.29922159852E+01  0.30792534205E+01  0.00000000000E+00 0. -1.
</event>
<event>
 8    1  0.1021894E-011  0.9118800E+02  0.7816164E-02  0.1184000E+00
        -11   -1    0    0    0    0  0.00000000000E+00  0.00000000000E+00  0.45593999997E+02  0.45594000000E+02  0.51100000000E-03 0. -1.
         11   -1    0    0    0    0 -0.00000000000E+00 -0.00000000000E+00 -0.45593999997E+02  0.45594000000E+02  0.51100000000E-03 0.  1.
         23    2    1    2    0    0  0.00000000000E+00 -0.35527136788E-14 -0.35527136788E-14  0.91188000000E+02  0.91188000000E+02 0.  0.
    9900012    2    3    3    0    0 -0.26660122721E+02 -0.14731853124E+02 -0.26932819174E+02  0.50528851108E+02  0.29999973427E+02 0.  0.
         12    1    3    3    0    0  0.26660122721E+02  0.14731853124E+02  0.26932819174E+02  0.40659148892E+02  0.00000000000E+00 0. -1.
         11    1    4    4    0    0 -0.29914305229E+01 -0.41030284298E+01 -0.22655654049E+02  0.23217712194E+02  0.51100000000E-03 0. -1.
        -11    1    4    4    0    0 -0.22569905420E+02 -0.11698264865E+02 -0.37907444509E+01  0.25702524686E+02  0.51100000000E-03 0.  1.
         12    1    4    4    0    0 -0.10987867779E+01  0.10694401699E+01 -0.48642067432E+00  0.16086142274E+01  0.00000000000E+00 0. -1.
</event>
<event>
 8    1  0.1021894E-011  0.9118800E+02  0.7816164E-02  0.1184000E+00
        -11   -1    0    0    0    0  0.00000000000E+00  0.00000000000E+00  0.45593999997E+02  0.45594000000E+02  0.51100000000E-03 0. -1.
         11   -1    0    0    0    0 -0.00000000000E+00 -0.00000000000E+00 -0.45593999997E+02  0.45594000000E+02  0.51100000000E-03 0.  1.
         23    2    1    2    0    0  0.00000000000E+00  0.35527136788E-14  0.00000000000E+00  0.91188000000E+02  0.91188000000E+02 0.  0.
    9900012    2    3    3    0    0 -0.31785783080E+02  0.16667816754E+02 -0.19105323075E+02  0.50528862144E+02  0.30000006973E+02 0.  0.
         12    1    3    3    0    0  0.31785783080E+02 -0.16667816754E+02  0.19105323075E+02  0.40659137856E+02  0.00000000000E+00 0. -1.
         11    1    4    4    0    0 -0.38406677984E+01 -0.68853281426E+01 -0.45055233139E+01  0.90806504922E+01  0.51100000000E-03 0. -1.
        -11    1    4    4    0    0 -0.16165028759E+02  0.21315066870E+02 -0.91062182482E+01  0.28258864831E+02  0.51100000000E-03 0.  1.
         12    1    4    4    0    0 -0.11780086523E+02  0.22380780265E+01 -0.54935815131E+01  0.13189346821E+02  0.00000000000E+00 0. -1.
</event>
<event>
 8    1  0.1021894E-011  0.9118800E+02  0.7816164E-02  0.1184000E+00
        -11   -1    0    0    0    0  0.00000000000E+00  0.00000000000E+00  0.45593999997E+02  0.45594000000E+02  0.51100000000E-03 0. -1.
         11   -1    0    0    0    0 -0.00000000000E+00 -0.00000000000E+00 -0.45593999997E+02  0.45594000000E+02  0.51100000000E-03 0.  1.
         23    2    1    2    0    0  0.00000000000E+00  0.00000000000E+00  0.00000000000E+00  0.91188000000E+02  0.91188000000E+02 0.  0.
    9900012    2    3    3    0    0  0.13570767106E+02  0.29127305485E+02 -0.24911830189E+02  0.50528869069E+02  0.30000028024E+02 0.  0.
         12    1    3    3    0    0 -0.13570767106E+02 -0.29127305485E+02  0.24911830189E+02  0.40659130931E+02  0.00000000000E+00 0. -1.
         11    1    4    4    0    0  0.26445138610E+01  0.40498985778E+01 -0.22423752087E+02  0.22939481031E+02  0.51100000000E-03 0. -1.
        -11    1    4    4    0    0  0.84198771298E+01  0.17795963652E+02 -0.27827468600E+01  0.19883016208E+02  0.51100000000E-03 0.  1.
         12    1    4    4    0    0  0.25063761152E+01  0.72814432549E+01  0.29466875818E+00  0.77063718300E+01  0.00000000000E+00 0. -1.
</event>
<event>
 8    1  0.1021894E-011  0.9118800E+02  0.7816164E-02  0.1184000E+00
        -11   -1    0    0    0    0  0.00000000000E+00  0.00000000000E+00  0.45593999997E+02  0.45594000000E+02  0.51100000000E-03 0. -1.
         11   -1    0    0    0    0 -0.00000000000E+00 -0.00000000000E+00 -0.45593999997E+02  0.45594000000E+02  0.51100000000E-03 0.  1.
         23    2    1    2    0    0  0.00000000000E+00  0.00000000000E+00 -0.35527136788E-14  0.91188000000E+02  0.91188000000E+02 0.  0.
    9900012    2    3    3    0    0 -0.25618433841E+02 -0.11185318618E+02 -0.29525417698E+02  0.50528858405E+02  0.29999995606E+02 0.  0.
         12    1    3    3    0    0  0.25618433841E+02  0.11185318618E+02  0.29525417698E+02  0.40659141595E+02  0.00000000000E+00 0. -1.
         11    1    4    4    0    0 -0.27140329917E+02 -0.79877493881E+01 -0.12541375075E+02  0.30946530295E+02  0.51100000000E-03 0. -1.
        -11    1    4    4    0    0  0.60377482364E-01  0.25380222284E+01 -0.13715696369E+01  0.28855512128E+01  0.51100000000E-03 0.  1.
         12    1    4    4    0    0  0.14615185938E+01 -0.57355914585E+01 -0.15612472986E+02  0.16696776896E+02  0.00000000000E+00 0. -1.
</event>
<event>
 8    1  0.1021894E-011  0.9118800E+02  0.7816164E-02  0.1184000E+00
        -11   -1    0    0    0    0  0.00000000000E+00  0.00000000000E+00  0.45593999997E+02  0.45594000000E+02  0.51100000000E-03 0. -1.
         11   -1    0    0    0    0 -0.00000000000E+00 -0.00000000000E+00 -0.45593999997E+02  0.45594000000E+02  0.51100000000E-03 0.  1.
         23    2    1    2    0    0  0.00000000000E+00  0.00000000000E+00  0.00000000000E+00  0.91188000000E+02  0.91188000000E+02 0.  0.
    9900012    2    3    3    0    0  0.16418535528E+02  0.33308651973E+02  0.16556852975E+02  0.50528880659E+02  0.30000063251E+02 0.  0.
        -12    1    3    3    0    0 -0.16418535528E+02 -0.33308651973E+02 -0.16556852975E+02  0.40659119341E+02  0.00000000000E+00 0.  1.
         11    1    4    4    0    0  0.13544003164E+02  0.23034179114E+02  0.11019364987E+02  0.28903976095E+02  0.51100000000E-03 0. -1.
        -11    1    4    4    0    0  0.45047902773E+01 -0.42703596445E+01  0.24097004156E+01  0.66585105910E+01  0.51100000000E-03 0.  1.
        -12    1    4    4    0    0 -0.16302579134E+01  0.14544832504E+02  0.31277875720E+01  0.14966393973E+02  0.00000000000E+00 0.  1.
</event>
<event>
 8    1  0.1021894E-011  0.9118800E+02  0.7816164E-02  0.1184000E+00
        -11   -1    0    0    0    0  0.00000000000E+00  0.00000000000E+00  0.45593999997E+02  0.45594000000E+02  0.51100000000E-03 0. -1.
         11   -1    0    0    0    0 -0.00000000000E+00 -0.00000000000E+00 -0.45593999997E+02  0.45594000000E+02  0.51100000000E-03 0.  1.
         23    2    1    2    0    0 -0.35527136788E-14  0.00000000000E+00  0.00000000000E+00  0.91188000000E+02  0.91188000000E+02 0.  0.
    9900012    2    3    3    0    0 -0.17205989816E+02  0.12957123032E+02  0.34485249961E+02  0.50528860957E+02  0.30000003365E+02 0.  0.
        -12    1    3    3    0    0  0.17205989816E+02 -0.12957123032E+02 -0.34485249961E+02  0.40659139043E+02  0.00000000000E+00 0.  1.
         11    1    4    4    0    0 -0.11361061772E+02  0.11205675385E+02  0.25120502188E+02  0.29760385008E+02  0.51100000000E-03 0. -1.
        -11    1    4    4    0    0 -0.82391606551E-02  0.59568550486E+01 -0.28416218204E+01  0.65999246045E+01  0.51100000000E-03 0.  1.
        -12    1    4    4    0    0 -0.58366888833E+01 -0.42054074014E+01  0.12206369594E+02  0.14168551344E+02  0.00000000000E+00 0.  1.
</event>
<event>
 8    1  0.1021894E-011  0.9118800E+02  0.7816164E-02  0.1184000E+00
        -11   -1    0    0    0    0  0.00000000000E+00  0.00000000000E+00  0.45593999997E+02  0.45594000000E+02  0.51100000000E-03 0. -1.
         11   -1    0    0    0    0 -0.00000000000E+00 -0.00000000000E+00 -0.45593999997E+02  0.45594000000E+02  0.51100000000E-03 0.  1.
         23    2    1    2    0    0 -0.17763568394E-14  0.00000000000E+00  0.00000000000E+00  0.91188000000E+02  0.91188000000E+02 0.  0.
    9900012    2    3    3    0    0 -0.99990596034E+01 -0.48645970291E+01 -0.39109063135E+02  0.50528876589E+02  0.30000050881E+02 0.  0.
         12    1    3    3    0    0  0.99990596034E+01  0.48645970291E+01  0.39109063135E+02  0.40659123411E+02  0.00000000000E+00 0. -1.
         11    1    4    4    0    0 -0.18761375151E+02 -0.31258607059E+01 -0.15302424435E+02  0.24411562763E+02  0.51100000000E-03 0. -1.
        -11    1    4    4    0    0  0.45433434576E+01  0.21017600018E+01 -0.12093459705E+02  0.13088587883E+02  0.51100000000E-03 0.  1.
         12    1    4    4    0    0  0.42189720897E+01 -0.38404963250E+01 -0.11713178995E+02  0.13028725943E+02  0.00000000000E+00 0. -1.
</event>
<event>
 8    1  0.1021894E-011  0.9118800E+02  0.7816164E-02  0.1184000E+00
        -11   -1    0    0    0    0  0.00000000000E+00  0.00000000000E+00  0.45593999997E+02  0.45594000000E+02  0.51100000000E-03 0. -1.
         11   -1    0    0    0    0 -0.00000000000E+00 -0.00000000000E+00 -0.45593999997E+02  0.45594000000E+02  0.51100000000E-03 0.  1.
         23    2    1    2    0    0  0.00000000000E+00  0.00000000000E+00  0.00000000000E+00  0.91188000000E+02  0.91188000000E+02 0.  0.
    9900012    2    3    3    0    0  0.95541490103E+01 -0.12261917212E+02 -0.37570317833E+02  0.50528866228E+02  0.30000019387E+02 0.  0.
         12    1    3    3    0    0 -0.95541490103E+01  0.12261917212E+02  0.37570317833E+02  0.40659133772E+02  0.00000000000E+00 0. -1.
         11    1    4    4    0    0  0.12387353701E+02 -0.10801048212E+02 -0.39560491084E+02  0.42838553071E+02  0.51100000000E-03 0. -1.
        -11    1    4    4    0    0 -0.37081971723E+01 -0.35116352993E+01  0.82074863094E+00  0.51726141670E+01  0.51100000000E-03 0.  1.
         12    1    4    4    0    0  0.87499248205E+00  0.20507662998E+01  0.11694246202E+01  0.25176989896E+01  0.00000000000E+00 0. -1.
</event>
<event>
 8    1  0.1021894E-011  0.9118800E+02  0.7816164E-02  0.1184000E+00
        -11   -1    0    0    0    0  0.00000000000E+00  0.00000000000E+00  0.45593999997E+02  0.45594000000E+02  0.51100000000E-03 0. -1.
         11   -1    0    0    0    0 -0.00000000000E+00 -0.00000000000E+00 -0.45593999997E+02  0.45594000000E+02  0.51100000000E-03 0.  1.
         23    2    1    2    0    0  0.00000000000E+00  0.00000000000E+00  0.00000000000E+00  0.91188000000E+02  0.91188000000E+02 0.  0.
    9900012    2    3    3    0    0 -0.19376468478E+02  0.13904470181E+02 -0.32930009352E+02  0.50528839438E+02  0.29999937955E+02 0.  0.
         12    1    3    3    0    0  0.19376468478E+02 -0.13904470181E+02  0.32930009352E+02  0.40659160562E+02  0.00000000000E+00 0. -1.
         11    1    4    4    0    0 -0.40447773765E+00  0.17431412561E+02 -0.14653631652E+02  0.22776010778E+02  0.51100000000E-03 0.  1.
        -11    1    4    4    0    0 -0.11988457695E+02 -0.72192695854E+00 -0.15765799176E+02  0.19819301712E+02  0.51100000000E-03 0. -1.
        -12    1    4    4    0    0 -0.69835330459E+01 -0.28050154206E+01 -0.25105785239E+01  0.79335269482E+01  0.00000000000E+00 0.  1.
</event>
<event>
 8    1  0.1021894E-011  0.9118800E+02  0.7816164E-02  0.1184000E+00
        -11   -1    0    0    0    0  0.00000000000E+00  0.00000000000E+00  0.45593999997E+02  0.45594000000E+02  0.51100000000E-03 0. -1.
         11   -1    0    0    0    0 -0.00000000000E+00 -0.00000000000E+00 -0.45593999997E+02  0.45594000000E+02  0.51100000000E-03 0.  1.
         23    2    1    2    0    0  0.17763568394E-14 -0.17763568394E-14  0.00000000000E+00  0.91188000000E+02  0.91188000000E+02 0.  0.
    9900012    2    3    3    0    0 -0.14656082125E+02  0.12729500934E+02  0.35725723500E+02  0.50528828133E+02  0.29999903594E+02 0.  0.
        -12    1    3    3    0    0  0.14656082125E+02 -0.12729500934E+02 -0.35725723500E+02  0.40659171867E+02  0.00000000000E+00 0.  1.
         11    1    4    4    0    0  0.31727076080E+01  0.70329846893E+01  0.24492397539E+02  0.25678911283E+02  0.51100000000E-03 0. -1.
        -11    1    4    4    0    0 -0.69567738144E+01 -0.34419697425E+01  0.55997844664E+01  0.95708643259E+01  0.51100000000E-03 0.  1.
         12    1    4    4    0    0 -0.10872015919E+02  0.91384859876E+01  0.56335414944E+01  0.15279052525E+02  0.00000000000E+00 0. -1.
</event>
<event>
 8    1  0.1021894E-011  0.9118800E+02  0.7816164E-02  0.1184000E+00
        -11   -1    0    0    0    0  0.00000000000E+00  0.00000000000E+00  0.45593999997E+02  0.45594000000E+02  0.51100000000E-03 0. -1.
         11   -1    0    0    0    0 -0.00000000000E+00 -0.00000000000E+00 -0.45593999997E+02  0.45594000000E+02  0.51100000000E-03 0.  1.
         23    2    1    2    0    0  0.00000000000E+00  0.00000000000E+00 -0.71054273576E-14  0.91188000000E+02  0.91188000000E+02 0.  0.
    9900012    2    3    3    0    0 -0.66860034995E+01  0.11342580594E+02  0.38468304156E+02  0.50528841105E+02  0.29999943024E+02 0.  0.
        -12    1    3    3    0    0  0.66860034995E+01 -0.11342580594E+02 -0.38468304156E+02  0.40659158895E+02  0.00000000000E+00 0.  1.
         11    1    4    4    0    0  0.79284891587E+01  0.34081199540E+01  0.19549785910E+02  0.21369846779E+02  0.51100000000E-03 0. -1.
        -11    1    4    4    0    0 -0.26009182109E+01  0.64087505191E+01  0.26784050434E+00  0.69216036836E+01  0.51100000000E-03 0.  1.
         12    1    4    4    0    0 -0.12013574447E+02  0.15257101213E+01  0.18650677742E+02  0.22237390643E+02  0.00000000000E+00 0. -1.
</event>
<event>
 8    1  0.1021894E-011  0.9118800E+02  0.7816164E-02  0.1184000E+00
        -11   -1    0    0    0    0  0.00000000000E+00  0.00000000000E+00  0.45593999997E+02  0.45594000000E+02  0.51100000000E-03 0. -1.
         11   -1    0    0    0    0 -0.00000000000E+00 -0.00000000000E+00 -0.45593999997E+02  0.45594000000E+02  0.51100000000E-03 0.  1.
         23    2    1    2    0    0  0.44408920985E-15  0.22204460493E-15  0.00000000000E+00  0.91188000000E+02  0.91188000000E+02 0.  0.
    9900012    2    3    3    0    0  0.13136191249E+01  0.15252751171E+01 -0.40609282110E+02  0.50528857697E+02  0.29999993455E+02 0.  0.
         12    1    3    3    0    0 -0.13136191249E+01 -0.15252751171E+01  0.40609282110E+02  0.40659142303E+02  0.00000000000E+00 0. -1.
         11    1    4    4    0    0 -0.94156664469E+01 -0.36732677914E+01 -0.33213707256E+02  0.34717402277E+02  0.51100000000E-03 0. -1.
        -11    1    4    4    0    0  0.35970856408E+01 -0.10304376286E+01 -0.46170345084E+01  0.59428810124E+01  0.51100000000E-03 0.  1.
         12    1    4    4    0    0  0.71321999310E+01  0.62289805371E+01 -0.27785403456E+01  0.98685744077E+01  0.00000000000E+00 0. -1.
</event>
<event>
 8    1  0.1021894E-011  0.9118800E+02  0.7816164E-02  0.1184000E+00
        -11   -1    0    0    0    0  0.00000000000E+00  0.00000000000E+00  0.45593999997E+02  0.45594000000E+02  0.51100000000E-03 0.  1.
         11   -1    0    0    0    0 -0.00000000000E+00 -0.00000000000E+00 -0.45593999997E+02  0.45594000000E+02  0.51100000000E-03 0. -1.
         23    2    1    2    0    0  0.71054273576E-14  0.35527136788E-14 -0.44408920985E-15  0.91188000000E+02  0.91188000000E+02 0.  0.
    9900012    2    3    3    0    0  0.36009628221E+02  0.18803230003E+02 -0.17062660346E+01  0.50528854326E+02  0.29999983209E+02 0.  0.
        -12    1    3    3    0    0 -0.36009628221E+02 -0.18803230003E+02  0.17062660346E+01  0.40659145674E+02  0.00000000000E+00 0.  1.
         11    1    4    4    0    0  0.26687717858E+02  0.92737429993E+01 -0.72443843801E+01  0.29167065313E+02  0.51100000000E-03 0. -1.
        -11    1    4    4    0    0  0.13320641645E+02  0.78986720620E+01  0.67244208543E+01  0.16883315737E+02  0.51100000000E-03 0.  1.
         12    1    4    4    0    0 -0.39987312822E+01  0.16308149417E+01 -0.11863025088E+01  0.44784732760E+01  0.00000000000E+00 0. -1.
</event>
<event>
 8    1  0.1021894E-011  0.9118800E+02  0.7816164E-02  0.1184000E+00
        -11   -1    0    0    0    0  0.00000000000E+00  0.00000000000E+00  0.45593999997E+02  0.45594000000E+02  0.51100000000E-03 0. -1.
         11   -1    0    0    0    0 -0.00000000000E+00 -0.00000000000E+00 -0.45593999997E+02  0.45594000000E+02  0.51100000000E-03 0.  1.
         23    2    1    2    0    0  0.00000000000E+00  0.00000000000E+00 -0.17763568394E-14  0.91188000000E+02  0.91188000000E+02 0.  0.
    9900012    2    3    3    0    0 -0.37418209728E+02 -0.41519513831E+01  0.15355922825E+02  0.50528862215E+02  0.30000007190E+02 0.  0.
        -12    1    3    3    0    0  0.37418209728E+02  0.41519513831E+01 -0.15355922825E+02  0.40659137785E+02  0.00000000000E+00 0.  1.
         11    1    4    4    0    0 -0.27763412711E+02 -0.15168235177E+01  0.48228474342E+01  0.28219987537E+02  0.51100000000E-03 0. -1.
        -11    1    4    4    0    0 -0.11627142545E+01 -0.45718106820E+01  0.12516350086E+02  0.13375813137E+02  0.51100000000E-03 0.  1.
        -12    1    4    4    0    0 -0.84920827628E+01  0.19366828166E+01 -0.19832746949E+01  0.89330615411E+01  0.00000000000E+00 0.  1.
</event>
<event>
 8    1  0.1021894E-011  0.9118800E+02  0.7816164E-02  0.1184000E+00
        -11   -1    0    0    0    0  0.00000000000E+00  0.00000000000E+00  0.45593999997E+02  0.45594000000E+02  0.51100000000E-03 0. -1.
         11   -1    0    0    0    0 -0.00000000000E+00 -0.00000000000E+00 -0.45593999997E+02  0.45594000000E+02  0.51100000000E-03 0.  1.
         23    2    1    2    0    0  0.35527136788E-14 -0.35527136788E-14  0.71054273576E-14  0.91188000000E+02  0.91188000000E+02 0.  0.
    9900012    2    3    3    0    0 -0.18774745279E+02  0.10035578582E+02 -0.34640466655E+02  0.50528858005E+02  0.29999994391E+02 0.  0.
         12    1    3    3    0    0  0.18774745279E+02 -0.10035578582E+02  0.34640466655E+02  0.40659141995E+02  0.00000000000E+00 0. -1.
         11    1    4    4    0    0 -0.24397332539E+00 -0.14873219246E+01 -0.25857538560E+01  0.29929538513E+01  0.51100000000E-03 0. -1.
        -11    1    4    4    0    0  0.81079664123E+00 -0.32170113049E+01 -0.20221333757E+02  0.20491678606E+02  0.51100000000E-03 0.  1.
        -12    1    4    4    0    0 -0.19341568595E+02  0.14739911811E+02 -0.11833379042E+02  0.27044225547E+02  0.00000000000E+00 0.  1.
</event>
<event>
 8    1  0.1021894E-011  0.9118800E+02  0.7816164E-02  0.1184000E+00
        -11   -1    0    0    0    0  0.00000000000E+00  0.00000000000E+00  0.45593999997E+02  0.45594000000E+02  0.51100000000E-03 0. -1.
         11   -1    0    0    0    0 -0.00000000000E+00 -0.00000000000E+00 -0.45593999997E+02  0.45594000000E+02  0.51100000000E-03 0.  1.
         23    2    1    2    0    0  0.00000000000E+00  0.00000000000E+00 -0.71054273576E-14  0.91188000000E+02  0.91188000000E+02 0.  0.
    9900012    2    3    3    0    0  0.13579504284E+02 -0.45545021556E+01 -0.38052850677E+02  0.50528857472E+02  0.29999992772E+02 0.  0.
         12    1    3    3    0    0 -0.13579504284E+02  0.45545021556E+01  0.38052850677E+02  0.40659142528E+02  0.00000000000E+00 0. -1.
         11    1    4    4    0    0  0.19613499762E+01 -0.28728717137E+01  0.22209493188E+01  0.41270936203E+01  0.51100000000E-03 0. -1.
        -11    1    4    4    0    0  0.14918692776E+02 -0.92666134395E+00 -0.40334861725E+02  0.43015429395E+02  0.51100000000E-03 0.  1.
        -12    1    4    4    0    0 -0.33005384677E+01 -0.75496909791E+00  0.61061730014E-01  0.33863344564E+01  0.00000000000E+00 0.  1.
</event>
<event>
 8    1  0.1021894E-011  0.9118800E+02  0.7816164E-02  0.1184000E+00
        -11   -1    0    0    0    0  0.00000000000E+00  0.00000000000E+00  0.45593999997E+02  0.45594000000E+02  0.51100000000E-03 0. -1.
         11   -1    0    0    0    0 -0.00000000000E+00 -0.00000000000E+00 -0.45593999997E+02  0.45594000000E+02  0.51100000000E-03 0.  1.
         23    2    1    2    0    0  0.22204460493E-15 -0.44408920985E-15  0.00000000000E+00  0.91188000000E+02  0.91188000000E+02 0.  0.
    9900012    2    3    3    0    0 -0.16598570443E+01  0.28819409602E+01  0.40522964601E+02  0.50528789860E+02  0.29999787259E+02 0.  0.
        -12    1    3    3    0    0  0.16598570443E+01 -0.28819409602E+01 -0.40522964601E+02  0.40659210140E+02  0.00000000000E+00 0.  1.
         11    1    4    4    0    0 -0.56915367847E+01  0.88556700197E+01  0.37853923363E+02  0.39290405912E+02  0.51100000000E-03 0. -1.
        -11    1    4    4    0    0  0.25732507638E+01  0.84893498984E+00 -0.15137190207E+01  0.31038130816E+01  0.51100000000E-03 0.  1.
         12    1    4    4    0    0  0.14584289766E+01 -0.68226640493E+01  0.41827602588E+01  0.81345708671E+01  0.00000000000E+00 0. -1.
</event>
<event>
 8    1  0.1021894E-011  0.9118800E+02  0.7816164E-02  0.1184000E+00
        -11   -1    0    0    0    0  0.00000000000E+00  0.00000000000E+00  0.45593999997E+02  0.45594000000E+02  0.51100000000E-03 0.  1.
         11   -1    0    0    0    0 -0.00000000000E+00 -0.00000000000E+00 -0.45593999997E+02  0.45594000000E+02  0.51100000000E-03 0. -1.
         23    2    1    2    0    0  0.71054273576E-14 -0.88817841970E-15  0.88817841970E-15  0.91188000000E+02  0.91188000000E+02 0.  0.
    9900012    2    3    3    0    0  0.39968435825E+02  0.37407406217E+01 -0.64574313718E+01  0.50528838393E+02  0.29999934779E+02 0.  0.
        -12    1    3    3    0    0 -0.39968435825E+02 -0.37407406217E+01  0.64574313718E+01  0.40659161607E+02  0.00000000000E+00 0.  1.
         11    1    4    4    0    0  0.36179362554E+02 -0.12246206208E+01 -0.11425664617E+02  0.37960397557E+02  0.51100000000E-03 0. -1.
        -11    1    4    4    0    0  0.43106103025E+01 -0.18520770212E+01  0.23459194617E+01  0.52454636454E+01  0.51100000000E-03 0.  1.
         12    1    4    4    0    0 -0.52153703190E+00  0.68174382637E+01  0.26223137832E+01  0.73229771905E+01  0.00000000000E+00 0. -1.
</event>
<event>
 8    1  0.1021894E-011  0.9118800E+02  0.7816164E-02  0.1184000E+00
        -11   -1    0    0    0    0  0.00000000000E+00  0.00000000000E+00  0.45593999997E+02  0.45594000000E+02  0.51100000000E-03 0.  1.
         11   -1    0    0    0    0 -0.00000000000E+00 -0.00000000000E+00 -0.45593999997E+02  0.45594000000E+02  0.51100000000E-03 0. -1.
         23    2    1    2    0    0  0.88817841970E-15  0.71054273576E-14  0.00000000000E+00  0.91188000000E+02  0.91188000000E+02 0.  0.
    9900012    2    3    3    0    0  0.47968616290E+01  0.39961375276E+02  0.57657735497E+01  0.50528861543E+02  0.30000005147E+02 0.  0.
         12    1    3    3    0    0 -0.47968616290E+01 -0.39961375276E+02 -0.57657735497E+01  0.40659138457E+02  0.00000000000E+00 0. -1.
         11    1    4    4    0    0  0.54508548081E+01  0.18233239787E+02 -0.26034187943E+01  0.19207827596E+02  0.51100000000E-03 0. -1.
        -11    1    4    4    0    0 -0.12447987979E+01  0.13077141206E+01  0.10616415434E+02  0.10768840105E+02  0.51100000000E-03 0.  1.
        -12    1    4    4    0    0  0.59080561884E+00  0.20420421368E+02 -0.22472230903E+01  0.20552193842E+02  0.00000000000E+00 0.  1.
</event>
<event>
 8    1  0.1021894E-011  0.9118800E+02  0.7816164E-02  0.1184000E+00
        -11   -1    0    0    0    0  0.00000000000E+00  0.00000000000E+00  0.45593999997E+02  0.45594000000E+02  0.51100000000E-03 0. -1.
         11   -1    0    0    0    0 -0.00000000000E+00 -0.00000000000E+00 -0.45593999997E+02  0.45594000000E+02  0.51100000000E-03 0.  1.
         23    2    1    2    0    0  0.88817841970E-15 -0.35527136788E-14  0.00000000000E+00  0.91188000000E+02  0.91188000000E+02 0.  0.
    9900012    2    3    3    0    0  0.37171206210E+01 -0.16039121288E+02  0.37176533477E+02  0.50528867708E+02  0.30000023885E+02 0.  0.
        -12    1    3    3    0    0 -0.37171206210E+01  0.16039121288E+02 -0.37176533477E+02  0.40659132292E+02  0.00000000000E+00 0.  1.
         11    1    4    4    0    0  0.81742104016E+01 -0.97868163836E+01  0.33979591502E+02  0.36293417165E+02  0.51100000000E-03 0. -1.
        -11    1    4    4    0    0 -0.56682503112E+01 -0.73607602520E+01  0.59483320358E+01  0.11031432697E+02  0.51100000000E-03 0.  1.
         12    1    4    4    0    0  0.12111605306E+01  0.11084553476E+01 -0.27513900611E+01  0.32040178460E+01  0.00000000000E+00 0. -1.
</event>
<event>
 8    1  0.1021894E-011  0.9118800E+02  0.7816164E-02  0.1184000E+00
        -11   -1    0    0    0    0  0.00000000000E+00  0.00000000000E+00  0.45593999997E+02  0.45594000000E+02  0.51100000000E-03 0. -1.
         11   -1    0    0    0    0 -0.00000000000E+00 -0.00000000000E+00 -0.45593999997E+02  0.45594000000E+02  0.51100000000E-03 0.  1.
         23    2    1    2    0    0 -0.17763568394E-14 -0.17763568394E-14  0.00000000000E+00  0.91188000000E+02  0.91188000000E+02 0.  0.
    9900012    2    3    3    0    0 -0.49661613152E+01  0.12764141903E+02  0.38282881715E+02  0.50528866842E+02  0.30000021254E+02 0.  0.
        -12    1    3    3    0    0  0.49661613152E+01 -0.12764141903E+02 -0.38282881715E+02  0.40659133158E+02  0.00000000000E+00 0.  1.
         11    1    4    4    0    0 -0.11730934074E+02  0.19764014269E+01  0.33955220913E+02  0.35978854961E+02  0.51100000000E-03 0. -1.
        -11    1    4    4    0    0  0.14222810349E+01  0.10973837378E+01 -0.12202034229E+01  0.21716424808E+01  0.51100000000E-03 0.  1.
         12    1    4    4    0    0  0.53424917240E+01  0.96903567386E+01  0.55478642253E+01  0.12378369400E+02  0.00000000000E+00 0. -1.
</event>
<event>
 8    1  0.1021894E-011  0.9118800E+02  0.7816164E-02  0.1184000E+00
        -11   -1    0    0    0    0  0.00000000000E+00  0.00000000000E+00  0.45593999997E+02  0.45594000000E+02  0.51100000000E-03 0. -1.
         11   -1    0    0    0    0 -0.00000000000E+00 -0.00000000000E+00 -0.45593999997E+02  0.45594000000E+02  0.51100000000E-03 0.  1.
         23    2    1    2    0    0  0.00000000000E+00 -0.66613381478E-15  0.00000000000E+00  0.91188000000E+02  0.91188000000E+02 0.  0.
    9900012    2    3    3    0    0 -0.38645451359E+02  0.14929257691E+01 -0.12548531476E+02  0.50528863508E+02  0.30000011119E+02 0.  0.
         12    1    3    3    0    0  0.38645451359E+02 -0.14929257691E+01  0.12548531476E+02  0.40659136492E+02  0.00000000000E+00 0. -1.
         11    1    4    4    0    0 -0.17848642359E+02  0.40406608848E+01 -0.18522287059E+00  0.18301237178E+02  0.51100000000E-03 0. -1.
        -11    1    4    4    0    0 -0.10195607380E+02 -0.73903137492E+01 -0.15679603171E+02  0.20110124391E+02  0.51100000000E-03 0.  1.
        -12    1    4    4    0    0 -0.10601201620E+02  0.48425786335E+01  0.33162945661E+01  0.12117501939E+02  0.00000000000E+00 0.  1.
</event>
<event>
 8    1  0.1021894E-011  0.9118800E+02  0.7816164E-02  0.1184000E+00
        -11   -1    0    0    0    0  0.00000000000E+00  0.00000000000E+00  0.45593999997E+02  0.45594000000E+02  0.51100000000E-03 0. -1.
         11   -1    0    0    0    0 -0.00000000000E+00 -0.00000000000E+00 -0.45593999997E+02  0.45594000000E+02  0.51100000000E-03 0.  1.
         23    2    1    2    0    0  0.00000000000E+00 -0.88817841970E-15  0.00000000000E+00  0.91188000000E+02  0.91188000000E+02 0.  0.
    9900012    2    3    3    0    0 -0.99393065498E+01 -0.44765080955E+01 -0.39170613433E+02  0.50528857164E+02  0.29999991835E+02 0.  0.
         12    1    3    3    0    0  0.99393065498E+01  0.44765080955E+01  0.39170613433E+02  0.40659142836E+02  0.00000000000E+00 0. -1.
         11    1    4    4    0    0 -0.58144486912E+01  0.10949113545E+02 -0.24908036311E+02  0.27822673742E+02  0.51100000000E-03 0. -1.
        -11    1    4    4    0    0 -0.61986438179E+01 -0.12305431315E+02 -0.12333504635E+02  0.18492218955E+02  0.51100000000E-03 0.  1.
        -12    1    4    4    0    0  0.20737859593E+01 -0.31201903256E+01 -0.19290724871E+01  0.42139644675E+01  0.00000000000E+00 0.  1.
</event>
<event>
 8    1  0.1021894E-011  0.9118800E+02  0.7816164E-02  0.1184000E+00
        -11   -1    0    0    0    0  0.00000000000E+00  0.00000000000E+00  0.45593999997E+02  0.45594000000E+02  0.51100000000E-03 0. -1.
         11   -1    0    0    0    0 -0.00000000000E+00 -0.00000000000E+00 -0.45593999997E+02  0.45594000000E+02  0.51100000000E-03 0.  1.
         23    2    1    2    0    0  0.00000000000E+00  0.00000000000E+00  0.00000000000E+00  0.91188000000E+02  0.91188000000E+02 0.  0.
    9900012    2    3    3    0    0  0.18703177977E+02 -0.75774355486E+01 -0.35297868392E+02  0.50528857007E+02  0.29999991357E+02 0.  0.
         12    1    3    3    0    0 -0.18703177977E+02  0.75774355486E+01  0.35297868392E+02  0.40659142993E+02  0.00000000000E+00 0. -1.
         11    1    4    4    0    0  0.92726176784E+00 -0.20889023327E+01  0.27573903502E+01  0.35814144058E+01  0.51100000000E-03 0. -1.
        -11    1    4    4    0    0  0.74186378104E+01 -0.12213470292E+02 -0.26119517875E+02  0.29773045827E+02  0.51100000000E-03 0.  1.
        -12    1    4    4    0    0  0.10357278398E+02  0.67249370757E+01 -0.11935740867E+02  0.17174396774E+02  0.00000000000E+00 0.  1.
</event>
<event>
 8    1  0.1021894E-011  0.9118800E+02  0.7816164E-02  0.1184000E+00
        -11   -1    0    0    0    0  0.00000000000E+00  0.00000000000E+00  0.45593999997E+02  0.45594000000E+02  0.51100000000E-03 0. -1.
         11   -1    0    0    0    0 -0.00000000000E+00 -0.00000000000E+00 -0.45593999997E+02  0.45594000000E+02  0.51100000000E-03 0.  1.
         23    2    1    2    0    0 -0.35527136788E-14  0.00000000000E+00  0.00000000000E+00  0.91188000000E+02  0.91188000000E+02 0.  0.
    9900012    2    3    3    0    0  0.18295061406E+02  0.69108202577E+01  0.35646837854E+02  0.50528858870E+02  0.29999997021E+02 0.  0.
        -12    1    3    3    0    0 -0.18295061406E+02 -0.69108202577E+01 -0.35646837854E+02  0.40659141130E+02  0.00000000000E+00 0.  1.
         11    1    4    4    0    0 -0.34905993489E+01  0.14449330861E+01  0.18329971732E+02  0.18715233886E+02  0.51100000000E-03 0. -1.
        -11    1    4    4    0    0  0.20792159161E+02  0.80722790088E+01  0.18305546376E+02  0.28854264838E+02  0.51100000000E-03 0.  1.
        -12    1    4    4    0    0  0.99350159319E+00 -0.26063918372E+01 -0.98868025449E+00  0.29593601454E+01  0.00000000000E+00 0.  1.
</event>
<event>
 8    1  0.1021894E-011  0.9118800E+02  0.7816164E-02  0.1184000E+00
        -11   -1    0    0    0    0  0.00000000000E+00  0.00000000000E+00  0.45593999997E+02  0.45594000000E+02  0.51100000000E-03 0. -1.
         11   -1    0    0    0    0 -0.00000000000E+00 -0.00000000000E+00 -0.45593999997E+02  0.45594000000E+02  0.51100000000E-03 0.  1.
         23    2    1    2    0    0  0.00000000000E+00 -0.26645352591E-14  0.00000000000E+00  0.91188000000E+02  0.91188000000E+02 0.  0.
    9900012    2    3    3    0    0  0.82953181477E+01 -0.61356312300E+01  0.39328198119E+02  0.50528862760E+02  0.30000008846E+02 0.  0.
        -12    1    3    3    0    0 -0.82953181477E+01  0.61356312300E+01 -0.39328198119E+02  0.40659137240E+02  0.00000000000E+00 0.  1.
         11    1    4    4    0    0 -0.37093952826E+01  0.22319930367E+01  0.14463512776E+02  0.15097503381E+02  0.51100000000E-03 0. -1.
        -11    1    4    4    0    0  0.68184477400E+01  0.56714666087E+00 -0.15958114014E+01  0.70256315878E+01  0.51100000000E-03 0.  1.
        -12    1    4    4    0    0  0.51862656903E+01 -0.89347709276E+01  0.26460496745E+02  0.28405727791E+02  0.00000000000E+00 0.  1.
</event>
<event>
 8    1  0.1021894E-011  0.9118800E+02  0.7816164E-02  0.1184000E+00
        -11   -1    0    0    0    0  0.00000000000E+00  0.00000000000E+00  0.45593999997E+02  0.45594000000E+02  0.51100000000E-03 0. -1.
         11   -1    0    0    0    0 -0.00000000000E+00 -0.00000000000E+00 -0.45593999997E+02  0.45594000000E+02  0.51100000000E-03 0.  1.
         23    2    1    2    0    0  0.00000000000E+00  0.00000000000E+00  0.00000000000E+00  0.91188000000E+02  0.91188000000E+02 0.  0.
    9900012    2    3    3    0    0  0.23386809054E+02  0.29572344583E+02 -0.15221665704E+02  0.50528861929E+02  0.30000006319E+02 0.  0.
         12    1    3    3    0    0 -0.23386809054E+02 -0.29572344583E+02  0.15221665704E+02  0.40659138071E+02  0.00000000000E+00 0. -1.
         11    1    4    4    0    0  0.18503558248E+02  0.18312021923E+02  0.39616095493E+01  0.26332606503E+02  0.51100000000E-03 0. -1.
        -11    1    4    4    0    0  0.48376048665E+01  0.63687066030E+01 -0.17102836822E+02  0.18880409748E+02  0.51100000000E-03 0.  1.
         12    1    4    4    0    0  0.45645938990E-01  0.48916160571E+01 -0.20804384312E+01  0.53158456776E+01  0.00000000000E+00 0. -1.
</event>
<event>
 8    1  0.1021894E-011  0.9118800E+02  0.7816164E-02  0.1184000E+00
        -11   -1    0    0    0    0  0.00000000000E+00  0.00000000000E+00  0.45593999997E+02  0.45594000000E+02  0.51100000000E-03 0.  1.
         11   -1    0    0    0    0 -0.00000000000E+00 -0.00000000000E+00 -0.45593999997E+02  0.45594000000E+02  0.51100000000E-03 0. -1.
         23    2    1    2    0    0  0.00000000000E+00  0.00000000000E+00  0.00000000000E+00  0.91188000000E+02  0.91188000000E+02 0.  0.
    9900012    2    3    3    0    0  0.21251897109E+02 -0.30542800613E+02  0.16390844421E+02  0.50528861042E+02  0.30000003623E+02 0.  0.
        -12    1    3    3    0    0 -0.21251897109E+02  0.30542800613E+02 -0.16390844421E+02  0.40659138958E+02  0.00000000000E+00 0.  1.
         11    1    4    4    0    0  0.16472576372E+02 -0.95351154495E+01  0.65058129083E+01  0.20114417735E+02  0.51100000000E-03 0. -1.
        -11    1    4    4    0    0 -0.30518381360E+01 -0.14183537000E+02 -0.19826725089E+01  0.14642999296E+02  0.51100000000E-03 0.  1.
        -12    1    4    4    0    0  0.78311588723E+01 -0.68241481632E+01  0.11867704021E+02  0.15771444010E+02  0.00000000000E+00 0.  1.
</event>
<event>
 8    1  0.1021894E-011  0.9118800E+02  0.7816164E-02  0.1184000E+00
        -11   -1    0    0    0    0  0.00000000000E+00  0.00000000000E+00  0.45593999997E+02  0.45594000000E+02  0.51100000000E-03 0. -1.
         11   -1    0    0    0    0 -0.00000000000E+00 -0.00000000000E+00 -0.45593999997E+02  0.45594000000E+02  0.51100000000E-03 0.  1.
         23    2    1    2    0    0  0.17763568394E-14  0.00000000000E+00  0.00000000000E+00  0.91188000000E+02  0.91188000000E+02 0.  0.
    9900012    2    3    3    0    0  0.11366626079E+02 -0.23139252734E+02 -0.31441067132E+02  0.50528857019E+02  0.29999991395E+02 0.  0.
         12    1    3    3    0    0 -0.11366626079E+02  0.23139252734E+02  0.31441067132E+02  0.40659142981E+02  0.00000000000E+00 0. -1.
         11    1    4    4    0    0  0.32053382110E+00 -0.24834213266E+02 -0.13558674316E+02  0.28296263710E+02  0.51100000000E-03 0. -1.
        -11    1    4    4    0    0  0.90398012851E+01  0.14911450485E+01 -0.18015720576E+02  0.20211573639E+02  0.51100000000E-03 0.  1.
         12    1    4    4    0    0  0.20062909724E+01  0.20381548314E+00  0.13332775935E+00  0.20210196705E+01  0.00000000000E+00 0. -1.
</event>
<event>
 8    1  0.1021894E-011  0.9118800E+02  0.7816164E-02  0.1184000E+00
        -11   -1    0    0    0    0  0.00000000000E+00  0.00000000000E+00  0.45593999997E+02  0.45594000000E+02  0.51100000000E-03 0.  1.
         11   -1    0    0    0    0 -0.00000000000E+00 -0.00000000000E+00 -0.45593999997E+02  0.45594000000E+02  0.51100000000E-03 0. -1.
         23    2    1    2    0    0  0.35527136788E-14  0.00000000000E+00  0.00000000000E+00  0.91188000000E+02  0.91188000000E+02 0.  0.
    9900012    2    3    3    0    0 -0.24596228435E+02  0.29628357759E+02  0.13051932530E+02  0.50528843842E+02  0.29999951341E+02 0.  0.
        -12    1    3    3    0    0  0.24596228435E+02 -0.29628357759E+02 -0.13051932530E+02  0.40659156158E+02  0.00000000000E+00 0.  1.
         11    1    4    4    0    0 -0.82227724820E+01  0.20127961182E+02 -0.20387250825E+01  0.21838159465E+02  0.51100000000E-03 0. -1.
        -11    1    4    4    0    0 -0.16403139083E+02  0.12858110840E+02  0.11624080326E+02  0.23864476316E+02  0.51100000000E-03 0.  1.
        -12    1    4    4    0    0  0.29683129699E-01 -0.33577142625E+01  0.34665772866E+01  0.48262080602E+01  0.00000000000E+00 0.  1.
</event>
<event>
 8    1  0.1021894E-011  0.9118800E+02  0.7816164E-02  0.1184000E+00
        -11   -1    0    0    0    0  0.00000000000E+00  0.00000000000E+00  0.45593999997E+02  0.45594000000E+02  0.51100000000E-03 0. -1.
         11   -1    0    0    0    0 -0.00000000000E+00 -0.00000000000E+00 -0.45593999997E+02  0.45594000000E+02  0.51100000000E-03 0.  1.
         23    2    1    2    0    0  0.35527136788E-14  0.00000000000E+00  0.00000000000E+00  0.91188000000E+02  0.91188000000E+02 0.  0.
    9900012    2    3    3    0    0 -0.17647902424E+02 -0.11440942363E+02  0.34796868150E+02  0.50528860128E+02  0.30000000844E+02 0.  0.
        -12    1    3    3    0    0  0.17647902424E+02  0.11440942363E+02 -0.34796868150E+02  0.40659139872E+02  0.00000000000E+00 0.  1.
         11    1    4    4    0    0 -0.19248592124E+02 -0.90423443568E+01  0.24702795888E+02  0.32596018394E+02  0.51100000000E-03 0. -1.
        -11    1    4    4    0    0  0.39612468167E+01 -0.66154223428E+01  0.10562594016E+02  0.13077602293E+02  0.51100000000E-03 0.  1.
        -12    1    4    4    0    0 -0.23605571176E+01  0.42168243365E+01 -0.46852175493E+00  0.48552394405E+01  0.00000000000E+00 0.  1.
</event>
<event>
 8    1  0.1021894E-011  0.9118800E+02  0.7816164E-02  0.1184000E+00
        -11   -1    0    0    0    0  0.00000000000E+00  0.00000000000E+00  0.45593999997E+02  0.45594000000E+02  0.51100000000E-03 0. -1.
         11   -1    0    0    0    0 -0.00000000000E+00 -0.00000000000E+00 -0.45593999997E+02  0.45594000000E+02  0.51100000000E-03 0.  1.
         23    2    1    2    0    0  0.00000000000E+00  0.17763568394E-14  0.35527136788E-14  0.91188000000E+02  0.91188000000E+02 0.  0.
    9900012    2    3    3    0    0 -0.22752843946E+02 -0.14654967615E+02 -0.30343156480E+02  0.50528842009E+02  0.29999945769E+02 0.  0.
         12    1    3    3    0    0  0.22752843946E+02  0.14654967615E+02  0.30343156480E+02  0.40659157991E+02  0.00000000000E+00 0. -1.
         11    1    4    4    0    0 -0.93532812476E+01 -0.17696390838E+02 -0.84782125203E+01  0.21737667920E+02  0.51100000000E-03 0. -1.
        -11    1    4    4    0    0 -0.13961249375E+02  0.29367414875E+01 -0.11270803269E+02  0.18181637475E+02  0.51100000000E-03 0.  1.
        -12    1    4    4    0    0  0.56168667722E+00  0.10468173549E+00 -0.10594140690E+02  0.10609536614E+02  0.00000000000E+00 0.  1.
</event>
<event>
 8    1  0.1021894E-011  0.9118800E+02  0.7816164E-02  0.1184000E+00
        -11   -1    0    0    0    0  0.00000000000E+00  0.00000000000E+00  0.45593999997E+02  0.45594000000E+02  0.51100000000E-03 0. -1.
         11   -1    0    0    0    0 -0.00000000000E+00 -0.00000000000E+00 -0.45593999997E+02  0.45594000000E+02  0.51100000000E-03 0.  1.
         23    2    1    2    0    0  0.00000000000E+00  0.00000000000E+00  0.00000000000E+00  0.91188000000E+02  0.91188000000E+02 0.  0.
    9900012    2    3    3    0    0  0.12545429399E+02 -0.65211981815E+01  0.38121543580E+02  0.50528857000E+02  0.29999991338E+02 0.  0.
        -12    1    3    3    0    0 -0.12545429399E+02  0.65211981815E+01 -0.38121543580E+02  0.40659143000E+02  0.00000000000E+00 0.  1.
         11    1    4    4    0    0  0.14565386720E+02 -0.12162881286E+02  0.13830763164E+02  0.23481400755E+02  0.51100000000E-03 0. -1.
        -11    1    4    4    0    0  0.12490367179E+01  0.25786778255E+01  0.21667497979E+02  0.21856123650E+02  0.51100000000E-03 0.  1.
        -12    1    4    4    0    0 -0.32689940393E+01  0.30630052788E+01  0.26232824378E+01  0.51913325953E+01  0.00000000000E+00 0.  1.
</event>
<event>
 8    1  0.1099674E-011  0.9118800E+02  0.7816164E-02  0.1184000E+00
        -11   -1    0    0    0    0  0.00000000000E+00  0.00000000000E+00  0.45593999997E+02  0.45594000000E+02  0.51100000000E-03 0. -1.
         11   -1    0    0    0    0 -0.00000000000E+00 -0.00000000000E+00 -0.45593999997E+02  0.45594000000E+02  0.51100000000E-03 0.  1.
         23    2    1    2    0    0  0.00000000000E+00  0.00000000000E+00  0.00000000000E+00  0.91188000000E+02  0.91188000000E+02 0.  0.
    9900012    2    3    3    0    0  0.17356457190E+02  0.16624804076E+02 -0.32795355486E+02  0.50528855171E+02  0.29999985778E+02 0.  0.
         12    1    3    3    0    0 -0.17356457190E+02 -0.16624804076E+02  0.32795355486E+02  0.40659144829E+02  0.00000000000E+00 0. -1.
         11    1    4    4    0    0 -0.10919401746E+01  0.30349734719E-01  0.34449974936E+01  0.36140368624E+01  0.51100000000E-03 0. -1.
        -11    1    4    4    0    0  0.10351731898E+02  0.34671135810E+00 -0.20153505581E+02  0.22659266306E+02  0.51100000000E-03 0.  1.
         12    1    4    4    0    0  0.80966654664E+01  0.16247742983E+02 -0.16086847399E+02  0.24255552003E+02  0.00000000000E+00 0. -1.
</event>
<event>
 8    1 -0.1021894E-011  0.9118800E+02  0.7816164E-02  0.1184000E+00
        -11   -1    0    0    0    0  0.00000000000E+00  0.00000000000E+00  0.45593999997E+02  0.45594000000E+02  0.51100000000E-03 0.  1.
         11   -1    0    0    0    0 -0.00000000000E+00 -0.00000000000E+00 -0.45593999997E+02  0.45594000000E+02  0.51100000000E-03 0. -1.
         23    2    1    2    0    0  0.22204460493E-15  0.71054273576E-14  0.88817841970E-15  0.91188000000E+02  0.91188000000E+02 0.  0.
    9900012    2    3    3    0    0 -0.15900770351E+01  0.40280795195E+02  0.53004661311E+01  0.50528858989E+02  0.29999997383E+02 0.  0.
        -12    1    3    3    0    0  0.15900770351E+01 -0.40280795195E+02 -0.53004661311E+01  0.40659141011E+02  0.00000000000E+00 0.  1.
         11    1    4    4    0    0 -0.84641270924E+01  0.29531856913E+02  0.12783985760E+02  0.33274649695E+02  0.51100000000E-03 0. -1.
        -11    1    4    4    0    0 -0.14423600511E+01 -0.22534468585E+00  0.21996751371E+00  0.14763362464E+01  0.51100000000E-03 0.  1.
         12    1    4    4    0    0  0.83164101084E+01  0.10974282968E+02 -0.77034871423E+01  0.15777873048E+02  0.00000000000E+00 0. -1.
</event>
<event>
 8    1  0.1021894E-011  0.9118800E+02  0.7816164E-02  0.1184000E+00
        -11   -1    0    0    0    0  0.00000000000E+00  0.00000000000E+00  0.45593999997E+02  0.45594000000E+02  0.51100000000E-03 0. -1.
         11   -1    0    0    0    0 -0.00000000000E+00 -0.00000000000E+00 -0.45593999997E+02  0.45594000000E+02  0.51100000000E-03 0.  1.
         23    2    1    2    0    0 -0.35527136788E-14  0.00000000000E+00 -0.35527136788E-14  0.91188000000E+02  0.91188000000E+02 0.  0.
    9900012    2    3    3    0    0  0.25245411504E+02 -0.26826882805E+02  0.17209054383E+02  0.50528880533E+02  0.30000062869E+02 0.  0.
        -12    1    3    3    0    0 -0.25245411504E+02  0.26826882805E+02 -0.17209054383E+02  0.40659119467E+02  0.00000000000E+00 0.  1.
         11    1    4    4    0    0  0.22724109340E+02 -0.19267377448E+02  0.21963122544E+02  0.37013453380E+02  0.51100000000E-03 0. -1.
        -11    1    4    4    0    0  0.14035771306E+00  0.14471592294E+01  0.16585891606E+01  0.22056491986E+01  0.51100000000E-03 0.  1.
         12    1    4    4    0    0  0.23809444516E+01 -0.90066645868E+01 -0.64126573216E+01  0.11309777955E+02  0.00000000000E+00 0. -1.
</event>
<event>
 8    1  0.1021894E-011  0.9118800E+02  0.7816164E-02  0.1184000E+00
        -11   -1    0    0    0    0  0.00000000000E+00  0.00000000000E+00  0.45593999997E+02  0.45594000000E+02  0.51100000000E-03 0. -1.
         11   -1    0    0    0    0 -0.00000000000E+00 -0.00000000000E+00 -0.45593999997E+02  0.45594000000E+02  0.51100000000E-03 0.  1.
         23    2    1    2    0    0 -0.26645352591E-14  0.71054273576E-14  0.35527136788E-14  0.91188000000E+02  0.91188000000E+02 0.  0.
    9900012    2    3    3    0    0  0.73422181738E+01 -0.27710275800E+02 -0.28833952063E+02  0.50528876249E+02  0.30000049846E+02 0.  0.
         12    1    3    3    0    0 -0.73422181738E+01  0.27710275800E+02  0.28833952063E+02  0.40659123751E+02  0.00000000000E+00 0. -1.
         11    1    4    4    0    0  0.17052961505E+02 -0.11170899511E+02 -0.15414573587E+02  0.25557808418E+02  0.51100000000E-03 0.  1.
        -11    1    4    4    0    0 -0.83620847917E+01 -0.75056194036E+01 -0.42071242564E+01  0.11998278188E+02  0.51100000000E-03 0. -1.
        -12    1    4    4    0    0 -0.13486585399E+01 -0.90337568857E+01 -0.92122542199E+01  0.12972789644E+02  0.00000000000E+00 0.  1.
</event>
<event>
 8    1  0.1021894E-011  0.9118800E+02  0.7816164E-02  0.1184000E+00
        -11   -1    0    0    0    0  0.00000000000E+00  0.00000000000E+00  0.45593999997E+02  0.45594000000E+02  0.51100000000E-03 0. -1.
         11   -1    0    0    0    0 -0.00000000000E+00 -0.00000000000E+00 -0.45593999997E+02  0.45594000000E+02  0.51100000000E-03 0.  1.
         23    2    1    2    0    0  0.35527136788E-14 -0.88817841970E-15  0.00000000000E+00  0.91188000000E+02  0.91188000000E+02 0.  0.
    9900012    2    3    3    0    0 -0.17054205621E+02  0.76405961708E+01 -0.36110110855E+02  0.50528871318E+02  0.30000034858E+02 0.  0.
         12    1    3    3    0    0  0.17054205621E+02 -0.76405961708E+01  0.36110110855E+02  0.40659128682E+02  0.00000000000E+00 0. -1.
         11    1    4    4    0    0 -0.68300979089E+01 -0.78462919376E+01 -0.45935707662E+01  0.11371694125E+02  0.51100000000E-03 0. -1.
        -11    1    4    4    0    0 -0.12180519227E+02  0.14496635635E+02 -0.31734136093E+02  0.36953658644E+02  0.51100000000E-03 0.  1.
         12    1    4    4    0    0  0.19564115150E+01  0.99025247369E+00  0.21759600332E+00  0.22035185495E+01  0.00000000000E+00 0. -1.
</event>
<event>
 8    1  0.1021894E-011  0.9118800E+02  0.7816164E-02  0.1184000E+00
        -11   -1    0    0    0    0  0.00000000000E+00  0.00000000000E+00  0.45593999997E+02  0.45594000000E+02  0.51100000000E-03 0. -1.
         11   -1    0    0    0    0 -0.00000000000E+00 -0.00000000000E+00 -0.45593999997E+02  0.45594000000E+02  0.51100000000E-03 0.  1.
         23    2    1    2    0    0  0.35527136788E-14  0.35527136788E-14 -0.35527136788E-14  0.91188000000E+02  0.91188000000E+02 0.  0.
    9900012    2    3    3    0    0  0.24142986304E+02  0.26632802072E+02 -0.18999347921E+02  0.50528866275E+02  0.30000019529E+02 0.  0.
         12    1    3    3    0    0 -0.24142986304E+02 -0.26632802072E+02  0.18999347921E+02  0.40659133725E+02  0.00000000000E+00 0. -1.
         11    1    4    4    0    0  0.65718020163E+01  0.89202263043E+01 -0.12899935516E+02  0.17004921512E+02  0.51100000000E-03 0. -1.
        -11    1    4    4    0    0  0.22419729814E+02  0.13932713679E+02 -0.27937146149E+01  0.26543730654E+02  0.51100000000E-03 0.  1.
        -12    1    4    4    0    0 -0.48485455262E+01  0.37798620886E+01 -0.33056977898E+01  0.69802141089E+01  0.00000000000E+00 0.  1.
</event>
<event>
 8    1  0.1021894E-011  0.9118800E+02  0.7816164E-02  0.1184000E+00
        -11   -1    0    0    0    0  0.00000000000E+00  0.00000000000E+00  0.45593999997E+02  0.45594000000E+02  0.51100000000E-03 0. -1.
         11   -1    0    0    0    0 -0.00000000000E+00 -0.00000000000E+00 -0.45593999997E+02  0.45594000000E+02  0.51100000000E-03 0.  1.
         23    2    1    2    0    0 -0.88817841970E-15  0.00000000000E+00 -0.71054273576E-14  0.91188000000E+02  0.91188000000E+02 0.  0.
    9900012    2    3    3    0    0 -0.61179104222E+01 -0.30832541326E+01  0.40077803458E+02  0.50528860634E+02  0.30000002382E+02 0.  0.
        -12    1    3    3    0    0  0.61179104222E+01  0.30832541326E+01 -0.40077803458E+02  0.40659139366E+02  0.00000000000E+00 0.  1.
         11    1    4    4    0    0  0.10823944460E+01 -0.19661524710E+01  0.14926264944E+02  0.15094062366E+02  0.51100000000E-03 0. -1.
        -11    1    4    4    0    0 -0.51264964337E+01  0.10370192429E+01 -0.37139753873E+01  0.64148256433E+01  0.51100000000E-03 0.  1.
        -12    1    4    4    0    0 -0.20738084345E+01 -0.21541209045E+01  0.28865513902E+02  0.29019972625E+02  0.00000000000E+00 0.  1.
</event>
<event>
 8    1  0.1021894E-011  0.9118800E+02  0.7816164E-02  0.1184000E+00
        -11   -1    0    0    0    0  0.00000000000E+00  0.00000000000E+00  0.45593999997E+02  0.45594000000E+02  0.51100000000E-03 0. -1.
         11   -1    0    0    0    0 -0.00000000000E+00 -0.00000000000E+00 -0.45593999997E+02  0.45594000000E+02  0.51100000000E-03 0.  1.
         23    2    1    2    0    0  0.00000000000E+00  0.13322676296E-14  0.00000000000E+00  0.91188000000E+02  0.91188000000E+02 0.  0.
    9900012    2    3    3    0    0 -0.36254306596E+02  0.23093755856E+01 -0.18260827960E+02  0.50528858345E+02  0.29999995425E+02 0.  0.
         12    1    3    3    0    0  0.36254306596E+02 -0.23093755856E+01  0.18260827960E+02  0.40659141655E+02  0.00000000000E+00 0. -1.
         11    1    4    4    0    0 -0.19080624102E+02 -0.59941223919E+01  0.18640266989E+00  0.20000861621E+02  0.51100000000E-03 0. -1.
        -11    1    4    4    0    0 -0.18158572164E+02  0.80049735248E+01 -0.20312675191E+02  0.28397501965E+02  0.51100000000E-03 0.  1.
         12    1    4    4    0    0  0.98488966973E+00  0.29852445275E+00  0.18654445607E+01  0.21304947593E+01  0.00000000000E+00 0. -1.
</event>
<event>
 8    1  0.1021894E-011  0.9118800E+02  0.7816164E-02  0.1184000E+00
        -11   -1    0    0    0    0  0.00000000000E+00  0.00000000000E+00  0.45593999997E+02  0.45594000000E+02  0.51100000000E-03 0.  1.
         11   -1    0    0    0    0 -0.00000000000E+00 -0.00000000000E+00 -0.45593999997E+02  0.45594000000E+02  0.51100000000E-03 0. -1.
         23    2    1    2    0    0  0.00000000000E+00 -0.26645352591E-14 -0.44408920985E-15  0.91188000000E+02  0.91188000000E+02 0.  0.
    9900012    2    3    3    0    0  0.40182145941E+02 -0.56160512229E+01  0.26499691997E+01  0.50528840877E+02  0.29999942331E+02 0.  0.
         12    1    3    3    0    0 -0.40182145941E+02  0.56160512229E+01 -0.26499691997E+01  0.40659159123E+02  0.00000000000E+00 0. -1.
         11    1    4    4    0    0  0.25448573659E+02  0.37994424489E+01 -0.11128125904E+02  0.28033923211E+02  0.51100000000E-03 0. -1.
        -11    1    4    4    0    0  0.22367237465E+01 -0.29591240625E+01  0.31177373093E+01  0.48455788639E+01  0.51100000000E-03 0.  1.
         12    1    4    4    0    0  0.12496848536E+02 -0.64563696094E+01  0.10660357794E+02  0.17649338802E+02  0.00000000000E+00 0. -1.
</event>
<event>
 8    1  0.1021894E-011  0.9118800E+02  0.7816164E-02  0.1184000E+00
        -11   -1    0    0    0    0  0.00000000000E+00  0.00000000000E+00  0.45593999997E+02  0.45594000000E+02  0.51100000000E-03 0. -1.
         11   -1    0    0    0    0 -0.00000000000E+00 -0.00000000000E+00 -0.45593999997E+02  0.45594000000E+02  0.51100000000E-03 0.  1.
         23    2    1    2    0    0  0.35527136788E-14  0.35527136788E-14  0.35527136788E-14  0.91188000000E+02  0.91188000000E+02 0.  0.
    9900012    2    3    3    0    0 -0.24281470524E+02 -0.12010987167E+02 -0.30320162326E+02  0.50528857522E+02  0.29999992924E+02 0.  0.
         12    1    3    3    0    0  0.24281470524E+02  0.12010987167E+02  0.30320162326E+02  0.40659142478E+02  0.00000000000E+00 0. -1.
         11    1    4    4    0    0 -0.98483322530E+01 -0.28314660687E+01  0.14802927663E+01  0.10353652264E+02  0.51100000000E-03 0. -1.
        -11    1    4    4    0    0 -0.84768308843E+01 -0.71753887171E+00 -0.27813842823E+02  0.29085759002E+02  0.51100000000E-03 0.  1.
        -12    1    4    4    0    0 -0.59563073866E+01 -0.84619822266E+01 -0.39866122697E+01  0.11089446256E+02  0.00000000000E+00 0.  1.
</event>
<event>
 8    1  0.1021894E-011  0.9118800E+02  0.7816164E-02  0.1184000E+00
        -11   -1    0    0    0    0  0.00000000000E+00  0.00000000000E+00  0.45593999997E+02  0.45594000000E+02  0.51100000000E-03 0.  1.
         11   -1    0    0    0    0 -0.00000000000E+00 -0.00000000000E+00 -0.45593999997E+02  0.45594000000E+02  0.51100000000E-03 0. -1.
         23    2    1    2    0    0  0.35527136788E-14  0.17763568394E-14  0.00000000000E+00  0.91188000000E+02  0.91188000000E+02 0.  0.
    9900012    2    3    3    0    0  0.29675849572E+02 -0.37106427192E+01 -0.27545244379E+02  0.50528863203E+02  0.30000010191E+02 0.  0.
         12    1    3    3    0    0 -0.29675849572E+02  0.37106427192E+01  0.27545244379E+02  0.40659136797E+02  0.00000000000E+00 0. -1.
         11    1    4    4    0    0  0.19195685532E+02  0.72790078086E+01 -0.24239980679E+02  0.31765310660E+02  0.51100000000E-03 0. -1.
        -11    1    4    4    0    0  0.77229775558E+01 -0.73709029948E+00 -0.45811567791E+00  0.77715863678E+01  0.51100000000E-03 0.  1.
         12    1    4    4    0    0  0.27571864841E+01 -0.10252560228E+02 -0.28471480219E+01  0.10991966175E+02  0.00000000000E+00 0. -1.
</event>
<event>
 8    1  0.1021894E-011  0.9118800E+02  0.7816164E-02  0.1184000E+00
        -11   -1    0    0    0    0  0.00000000000E+00  0.00000000000E+00  0.45593999997E+02  0.45594000000E+02  0.51100000000E-03 0. -1.
         11   -1    0    0    0    0 -0.00000000000E+00 -0.00000000000E+00 -0.45593999997E+02  0.45594000000E+02  0.51100000000E-03 0.  1.
         23    2    1    2    0    0  0.00000000000E+00  0.00000000000E+00  0.00000000000E+00  0.91188000000E+02  0.91188000000E+02 0.  0.
    9900012    2    3    3    0    0 -0.89602136147E+01 -0.37319275240E+02 -0.13421992488E+02  0.50528885219E+02  0.30000077111E+02 0.  0.
         12    1    3    3    0    0  0.89602136147E+01  0.37319275240E+02  0.13421992488E+02  0.40659114781E+02  0.00000000000E+00 0. -1.
         11    1    4    4    0    0 -0.12705566389E+02 -0.14430190216E+02  0.23724151810E+01  0.19372407206E+02  0.51100000000E-03 0. -1.
        -11    1    4    4    0    0  0.25853230873E+01 -0.91076892284E+01 -0.14430840911E+02  0.17259289331E+02  0.51100000000E-03 0.  1.
         12    1    4    4    0    0  0.11600296866E+01 -0.13781395796E+02 -0.13635667582E+01  0.13897188682E+02  0.00000000000E+00 0. -1.
</event>
<event>
 8    1  0.1021894E-011  0.9118800E+02  0.7816164E-02  0.1184000E+00
        -11   -1    0    0    0    0  0.00000000000E+00  0.00000000000E+00  0.45593999997E+02  0.45594000000E+02  0.51100000000E-03 0.  1.
         11   -1    0    0    0    0 -0.00000000000E+00 -0.00000000000E+00 -0.45593999997E+02  0.45594000000E+02  0.51100000000E-03 0. -1.
         23    2    1    2    0    0 -0.71054273576E-14  0.44408920985E-15  0.00000000000E+00  0.91188000000E+02  0.91188000000E+02 0.  0.
    9900012    2    3    3    0    0  0.35887024155E+02 -0.26863612835E+01  0.18922751642E+02  0.50528861183E+02  0.30000004053E+02 0.  0.
        -12    1    3    3    0    0 -0.35887024155E+02  0.26863612835E+01 -0.18922751642E+02  0.40659138817E+02  0.00000000000E+00 0.  1.
         11    1    4    4    0    0  0.25558697417E+01  0.41771978501E+01  0.44837556827E+00  0.49175698192E+01  0.51100000000E-03 0. -1.
        -11    1    4    4    0    0  0.34882103814E+02 -0.36804448313E+01  0.10071795203E+02  0.36493121263E+02  0.51100000000E-03 0.  1.
        -12    1    4    4    0    0 -0.15509494011E+01 -0.31831143023E+01  0.84025808704E+01  0.91181701010E+01  0.00000000000E+00 0.  1.
</event>
<event>
 8    1  0.1021894E-011  0.9118800E+02  0.7816164E-02  0.1184000E+00
        -11   -1    0    0    0    0  0.00000000000E+00  0.00000000000E+00  0.45593999997E+02  0.45594000000E+02  0.51100000000E-03 0. -1.
         11   -1    0    0    0    0 -0.00000000000E+00 -0.00000000000E+00 -0.45593999997E+02  0.45594000000E+02  0.51100000000E-03 0.  1.
         23    2    1    2    0    0  0.00000000000E+00 -0.35527136788E-14  0.00000000000E+00  0.91188000000E+02  0.91188000000E+02 0.  0.
    9900012    2    3    3    0    0 -0.15635424779E+02 -0.18755339960E+02 -0.32510556716E+02  0.50528861015E+02  0.30000003540E+02 0.  0.
         12    1    3    3    0    0  0.15635424779E+02  0.18755339960E+02  0.32510556716E+02  0.40659138985E+02  0.00000000000E+00 0. -1.
         11    1    4    4    0    0 -0.77651001130E+01 -0.15503473571E+02 -0.13275215978E+02  0.21837715816E+02  0.51100000000E-03 0. -1.
        -11    1    4    4    0    0 -0.69213740915E+01  0.61013122645E+01 -0.16492523730E+02  0.18898009681E+02  0.51100000000E-03 0.  1.
        -12    1    4    4    0    0 -0.94895057439E+00 -0.93531786541E+01 -0.27428170074E+01  0.97931355175E+01  0.00000000000E+00 0.  1.
</event>
<event>
 8    1  0.1021894E-011  0.9118800E+02  0.7816164E-02  0.1184000E+00
        -11   -1    0    0    0    0  0.00000000000E+00  0.00000000000E+00  0.45593999997E+02  0.45594000000E+02  0.51100000000E-03 0. -1.
         11   -1    0    0    0    0 -0.00000000000E+00 -0.00000000000E+00 -0.45593999997E+02  0.45594000000E+02  0.51100000000E-03 0.  1.
         23    2    1    2    0    0  0.00000000000E+00  0.00000000000E+00  0.00000000000E+00  0.91188000000E+02  0.91188000000E+02 0.  0.
    9900012    2    3    3    0    0  0.16106057567E+02  0.17147451203E+02  0.33162096949E+02  0.50528870064E+02  0.30000031047E+02 0.  0.
        -12    1    3    3    0    0 -0.16106057567E+02 -0.17147451203E+02 -0.33162096949E+02  0.40659129936E+02  0.00000000000E+00 0.  1.
         11    1    4    4    0    0 -0.78629232003E+01  0.31459120683E+01  0.69878652868E+01  0.10979644144E+02  0.51100000000E-03 0. -1.
        -11    1    4    4    0    0  0.41045777327E+01  0.76433225721E+01  0.93238195045E+01  0.12735837182E+02  0.51100000000E-03 0.  1.
         12    1    4    4    0    0  0.19864403035E+02  0.63582165624E+01  0.16850412158E+02  0.26813388739E+02  0.00000000000E+00 0. -1.
</event>
<event>
 8    1  0.1021894E-011  0.9118800E+02  0.7816164E-02  0.1184000E+00
        -11   -1    0    0    0    0  0.00000000000E+00  0.00000000000E+00  0.45593999997E+02  0.45594000000E+02  0.51100000000E-03 0. -1.
         11   -1    0    0    0    0 -0.00000000000E+00 -0.00000000000E+00 -0.45593999997E+02  0.45594000000E+02  0.51100000000E-03 0.  1.
         23    2    1    2    0    0  0.00000000000E+00  0.00000000000E+00 -0.35527136788E-14  0.91188000000E+02  0.91188000000E+02 0.  0.
    9900012    2    3    3    0    0  0.17578971764E+02 -0.20035878010E+02 -0.30703588902E+02  0.50528843253E+02  0.29999949552E+02 0.  0.
         12    1    3    3    0    0 -0.17578971764E+02  0.20035878010E+02  0.30703588902E+02  0.40659156747E+02  0.00000000000E+00 0. -1.
         11    1    4    4    0    0  0.11195561897E+02 -0.15903444672E+02 -0.61514121762E+01  0.20398530110E+02  0.51100000000E-03 0. -1.
        -11    1    4    4    0    0  0.57729752183E+01 -0.80167972913E+01 -0.69115374287E+01  0.12056767045E+02  0.51100000000E-03 0.  1.
         12    1    4    4    0    0  0.61043464924E+00  0.38843639529E+01 -0.17640639297E+02  0.18073546099E+02  0.00000000000E+00 0. -1.
</event>
<event>
 8    1  0.1021894E-011  0.9118800E+02  0.7816164E-02  0.1184000E+00
        -11   -1    0    0    0    0  0.00000000000E+00  0.00000000000E+00  0.45593999997E+02  0.45594000000E+02  0.51100000000E-03 0.  1.
         11   -1    0    0    0    0 -0.00000000000E+00 -0.00000000000E+00 -0.45593999997E+02  0.45594000000E+02  0.51100000000E-03 0. -1.
         23    2    1    2    0    0  0.00000000000E+00  0.71054273576E-14  0.22204460493E-15  0.91188000000E+02  0.91188000000E+02 0.  0.
    9900012    2    3    3    0    0 -0.10393482243E+02  0.39304367794E+02 -0.55540040827E+00  0.50528852562E+02  0.29999977847E+02 0.  0.
        -12    1    3    3    0    0  0.10393482243E+02 -0.39304367794E+02  0.55540040827E+00  0.40659147438E+02  0.00000000000E+00 0.  1.
         11    1    4    4    0    0  0.27566463909E+01  0.21780547264E+02 -0.31904921188E+01  0.22184917819E+02  0.51100000000E-03 0. -1.
        -11    1    4    4    0    0 -0.51615506757E+01  0.93043593720E+01  0.10095906869E+02  0.14667652998E+02  0.51100000000E-03 0.  1.
         12    1    4    4    0    0 -0.79885779581E+01  0.82194611579E+01 -0.74608151586E+01  0.13676281744E+02  0.00000000000E+00 0. -1.
</event>
<event>
 8    1  0.1021894E-011  0.9118800E+02  0.7816164E-02  0.1184000E+00
        -11   -1    0    0    0    0  0.00000000000E+00  0.00000000000E+00  0.45593999997E+02  0.45594000000E+02  0.51100000000E-03 0. -1.
         11   -1    0    0    0    0 -0.00000000000E+00 -0.00000000000E+00 -0.45593999997E+02  0.45594000000E+02  0.51100000000E-03 0.  1.
         23    2    1    2    0    0 -0.35527136788E-14  0.88817841970E-15  0.71054273576E-14  0.91188000000E+02  0.91188000000E+02 0.  0.
    9900012    2    3    3    0    0 -0.20346733939E+02  0.50577581455E+01  0.34836695625E+02  0.50528857590E+02  0.29999993130E+02 0.  0.
        -12    1    3    3    0    0  0.20346733939E+02 -0.50577581455E+01 -0.34836695625E+02  0.40659142410E+02  0.00000000000E+00 0.  1.
         11    1    4    4    0    0 -0.17327303905E+01  0.68045960409E+01  0.22529851889E+02  0.23598709886E+02  0.51100000000E-03 0. -1.
        -11    1    4    4    0    0 -0.11007818605E+02 -0.55535130312E+01  0.13566236743E+02  0.18331839980E+02  0.51100000000E-03 0.  1.
        -12    1    4    4    0    0 -0.76061849429E+01  0.38066751358E+01 -0.12593930061E+01  0.85983077241E+01  0.00000000000E+00 0.  1.
</event>
<event>
 8    1  0.1260773E-011  0.9118800E+02  0.7816164E-02  0.1184000E+00
        -11   -1    0    0    0    0  0.00000000000E+00  0.00000000000E+00  0.45593999997E+02  0.45594000000E+02  0.51100000000E-03 0. -1.
         11   -1    0    0    0    0 -0.00000000000E+00 -0.00000000000E+00 -0.45593999997E+02  0.45594000000E+02  0.51100000000E-03 0.  1.
         23    2    1    2    0    0 -0.17763568394E-14  0.10658141036E-13  0.35527136788E-14  0.91188000000E+02  0.91188000000E+02 0.  0.
    9900012    2    3    3    0    0  0.60629485781E+01 -0.29053452798E+02 -0.27790339729E+02  0.50528862685E+02  0.30000008618E+02 0.  0.
         12    1    3    3    0    0 -0.60629485781E+01  0.29053452798E+02  0.27790339729E+02  0.40659137315E+02  0.00000000000E+00 0. -1.
         11    1    4    4    0    0 -0.37173687494E+01  0.19842373226E+01 -0.12480988230E+02  0.13173120193E+02  0.51100000000E-03 0. -1.
        -11    1    4    4    0    0  0.41528891770E+01 -0.94863737346E+01 -0.10132575737E+02  0.14488162978E+02  0.51100000000E-03 0.  1.
         12    1    4    4    0    0  0.56274281506E+01 -0.21551316386E+02 -0.51767757630E+01  0.22867579514E+02  0.00000000000E+00 0. -1.
</event>
<event>
 8    1  0.1021894E-011  0.9118800E+02  0.7816164E-02  0.1184000E+00
        -11   -1    0    0    0    0  0.00000000000E+00  0.00000000000E+00  0.45593999997E+02  0.45594000000E+02  0.51100000000E-03 0. -1.
         11   -1    0    0    0    0 -0.00000000000E+00 -0.00000000000E+00 -0.45593999997E+02  0.45594000000E+02  0.51100000000E-03 0.  1.
         23    2    1    2    0    0  0.00000000000E+00  0.35527136788E-14  0.00000000000E+00  0.91188000000E+02  0.91188000000E+02 0.  0.
    9900012    2    3    3    0    0  0.21223793569E+02 -0.23600858700E+02 -0.25410936153E+02  0.50528860548E+02  0.30000002121E+02 0.  0.
         12    1    3    3    0    0 -0.21223793569E+02  0.23600858700E+02  0.25410936153E+02  0.40659139452E+02  0.00000000000E+00 0. -1.
         11    1    4    4    0    0  0.14895144891E+02 -0.39561705428E+01  0.20001972889E+01  0.15540830613E+02  0.51100000000E-03 0. -1.
        -11    1    4    4    0    0  0.10476154052E+01 -0.69046262063E+01 -0.14510112991E+02  0.16103252478E+02  0.51100000000E-03 0.  1.
         12    1    4    4    0    0  0.52810332725E+01 -0.12740061951E+02 -0.12901020451E+02  0.18884777457E+02  0.00000000000E+00 0. -1.
</event>
<event>
 8    1  0.1021894E-011  0.9118800E+02  0.7816164E-02  0.1184000E+00
        -11   -1    0    0    0    0  0.00000000000E+00  0.00000000000E+00  0.45593999997E+02  0.45594000000E+02  0.51100000000E-03 0.  1.
         11   -1    0    0    0    0 -0.00000000000E+00 -0.00000000000E+00 -0.45593999997E+02  0.45594000000E+02  0.51100000000E-03 0. -1.
         23    2    1    2    0    0  0.00000000000E+00  0.00000000000E+00  0.88817841970E-15  0.91188000000E+02  0.91188000000E+02 0.  0.
    9900012    2    3    3    0    0  0.99779842975E+01  0.39106657201E+02 -0.49271924766E+01  0.50528830877E+02  0.29999911934E+02 0.  0.
         12    1    3    3    0    0 -0.99779842975E+01 -0.39106657201E+02  0.49271924766E+01  0.40659169123E+02  0.00000000000E+00 0. -1.
         11    1    4    4    0    0  0.16401732526E+02  0.37820623779E+02 -0.42193350782E+01  0.41439343644E+02  0.51100000000E-03 0. -1.
        -11    1    4    4    0    0 -0.76061569821E+00 -0.15735755301E+01  0.15694106120E+01  0.23489840612E+01  0.51100000000E-03 0.  1.
         12    1    4    4    0    0 -0.56631325305E+01  0.28596089520E+01 -0.22772680104E+01  0.67405031717E+01  0.00000000000E+00 0. -1.
</event>
<event>
 8    1  0.1021894E-011  0.9118800E+02  0.7816164E-02  0.1184000E+00
        -11   -1    0    0    0    0  0.00000000000E+00  0.00000000000E+00  0.45593999997E+02  0.45594000000E+02  0.51100000000E-03 0. -1.
         11   -1    0    0    0    0 -0.00000000000E+00 -0.00000000000E+00 -0.45593999997E+02  0.45594000000E+02  0.51100000000E-03 0.  1.
         23    2    1    2    0    0  0.88817841970E-15  0.00000000000E+00  0.00000000000E+00  0.91188000000E+02  0.91188000000E+02 0.  0.
    9900012    2    3    3    0    0 -0.61432932590E+01  0.28022881396E+02  0.28812085331E+02  0.50528951869E+02  0.30000279700E+02 0.  0.
        -12    1    3    3    0    0  0.61432932590E+01 -0.28022881396E+02 -0.28812085331E+02  0.40659048131E+02  0.00000000000E+00 0.  1.
         11    1    4    4    0    0  0.29971945357E+01  0.13299588480E+02  0.12816974094E+02  0.18711949498E+02  0.51100000000E-03 0. -1.
        -11    1    4    4    0    0 -0.12570039389E+02  0.12895020270E+02  0.30037590046E+01  0.18256779739E+02  0.51100000000E-03 0.  1.
        -12    1    4    4    0    0  0.34295515943E+01  0.18282726452E+01  0.12991352233E+02  0.13560222633E+02  0.00000000000E+00 0.  1.
</event>
<event>
 8    1  0.1021894E-011  0.9118800E+02  0.7816164E-02  0.1184000E+00
        -11   -1    0    0    0    0  0.00000000000E+00  0.00000000000E+00  0.45593999997E+02  0.45594000000E+02  0.51100000000E-03 0. -1.
         11   -1    0    0    0    0 -0.00000000000E+00 -0.00000000000E+00 -0.45593999997E+02  0.45594000000E+02  0.51100000000E-03 0.  1.
         23    2    1    2    0    0 -0.17763568394E-14  0.35527136788E-14  0.00000000000E+00  0.91188000000E+02  0.91188000000E+02 0.  0.
    9900012    2    3    3    0    0 -0.14961159766E+02  0.26592445681E+02 -0.26873329193E+02  0.50528803122E+02  0.29999827570E+02 0.  0.
         12    1    3    3    0    0  0.14961159766E+02 -0.26592445681E+02  0.26873329193E+02  0.40659196878E+02  0.00000000000E+00 0. -1.
         11    1    4    4    0    0 -0.12091995026E+02  0.44455650104E+01 -0.67475470363E+01  0.14543341543E+02  0.51100000000E-03 0. -1.
        -11    1    4    4    0    0 -0.50460747257E+00  0.23185438813E+02 -0.22619528563E+02  0.32395405142E+02  0.51100000000E-03 0.  1.
        -12    1    4    4    0    0 -0.23645572681E+01 -0.10385581424E+01  0.24937464061E+01  0.35900564379E+01  0.00000000000E+00 0.  1.
</event>
<event>
 8    1  0.1021894E-011  0.9118800E+02  0.7816164E-02  0.1184000E+00
        -11   -1    0    0    0    0  0.00000000000E+00  0.00000000000E+00  0.45593999997E+02  0.45594000000E+02  0.51100000000E-03 0.  1.
         11   -1    0    0    0    0 -0.00000000000E+00 -0.00000000000E+00 -0.45593999997E+02  0.45594000000E+02  0.51100000000E-03 0. -1.
         23    2    1    2    0    0  0.71054273576E-14  0.00000000000E+00  0.00000000000E+00  0.91188000000E+02  0.91188000000E+02 0.  0.
    9900012    2    3    3    0    0  0.35036274130E+02 -0.15042125561E+02  0.14119477778E+02  0.50528859588E+02  0.29999999205E+02 0.  0.
        -12    1    3    3    0    0 -0.35036274130E+02  0.15042125561E+02 -0.14119477778E+02  0.40659140412E+02  0.00000000000E+00 0.  1.
         11    1    4    4    0    0  0.21985361990E+01  0.10469959678E+01 -0.11372809781E+01  0.26875956279E+01  0.51100000000E-03 0. -1.
        -11    1    4    4    0    0  0.26573529933E+02  0.14763428408E+01  0.10362643434E+02  0.28560750349E+02  0.51100000000E-03 0.  1.
        -12    1    4    4    0    0  0.62642079982E+01 -0.17565464369E+02  0.48941153216E+01  0.19280513612E+02  0.00000000000E+00 0.  1.
</event>
<event>
 8    1  0.1021894E-011  0.9118800E+02  0.7816164E-02  0.1184000E+00
        -11   -1    0    0    0    0  0.00000000000E+00  0.00000000000E+00  0.45593999997E+02  0.45594000000E+02  0.51100000000E-03 0. -1.
         11   -1    0    0    0    0 -0.00000000000E+00 -0.00000000000E+00 -0.45593999997E+02  0.45594000000E+02  0.51100000000E-03 0.  1.
         23    2    1    2    0    0  0.00000000000E+00 -0.35527136788E-14  0.35527136788E-14  0.91188000000E+02  0.91188000000E+02 0.  0.
    9900012    2    3    3    0    0 -0.20340692081E+02  0.17343094402E+02 -0.30637242611E+02  0.50528839746E+02  0.29999938891E+02 0.  0.
         12    1    3    3    0    0  0.20340692081E+02 -0.17343094402E+02  0.30637242611E+02  0.40659160254E+02  0.00000000000E+00 0. -1.
         11    1    4    4    0    0  0.18713914100E+01 -0.13384767925E+01  0.34611737756E+01  0.41561220025E+01  0.51100000000E-03 0. -1.
        -11    1    4    4    0    0 -0.14795018142E+02  0.49113179374E+01 -0.19623040759E+02  0.25061471118E+02  0.51100000000E-03 0.  1.
        -12    1    4    4    0    0 -0.74170653495E+01  0.13770253257E+02 -0.14475375628E+02  0.21311246626E+02  0.00000000000E+00 0.  1.
</event>
<event>
 8    1  0.1021894E-011  0.9118800E+02  0.7816164E-02  0.1184000E+00
        -11   -1    0    0    0    0  0.00000000000E+00  0.00000000000E+00  0.45593999997E+02  0.45594000000E+02  0.51100000000E-03 0. -1.
         11   -1    0    0    0    0 -0.00000000000E+00 -0.00000000000E+00 -0.45593999997E+02  0.45594000000E+02  0.51100000000E-03 0.  1.
         23    2    1    2    0    0  0.00000000000E+00  0.00000000000E+00  0.00000000000E+00  0.91188000000E+02  0.91188000000E+02 0.  0.
    9900012    2    3    3    0    0 -0.14359483829E+02 -0.31407251687E+02  0.21460558855E+02  0.50528858092E+02  0.29999994655E+02 0.  0.
        -12    1    3    3    0    0  0.14359483829E+02  0.31407251687E+02 -0.21460558855E+02  0.40659141908E+02  0.00000000000E+00 0.  1.
         11    1    4    4    0    0 -0.67095917709E+01 -0.17528481579E+02  0.21978919302E+02  0.28902234898E+02  0.51100000000E-03 0. -1.
        -11    1    4    4    0    0 -0.68672775175E+01 -0.17045305010E+01 -0.49631176020E+01  0.86427693087E+01  0.51100000000E-03 0.  1.
         12    1    4    4    0    0 -0.78261454101E+00 -0.12174239607E+02  0.44447571550E+01  0.12983853884E+02  0.00000000000E+00 0. -1.
</event>
<event>
 8    1  0.1021894E-011  0.9118800E+02  0.7816164E-02  0.1184000E+00
        -11   -1    0    0    0    0  0.00000000000E+00  0.00000000000E+00  0.45593999997E+02  0.45594000000E+02  0.51100000000E-03 0. -1.
         11   -1    0    0    0    0 -0.00000000000E+00 -0.00000000000E+00 -0.45593999997E+02  0.45594000000E+02  0.51100000000E-03 0.  1.
         23    2    1    2    0    0  0.00000000000E+00  0.15543122345E-14  0.00000000000E+00  0.91188000000E+02  0.91188000000E+02 0.  0.
    9900012    2    3    3    0    0  0.42105472561E+01  0.16633139553E+01 -0.40406334627E+02  0.50528841136E+02  0.29999943117E+02 0.  0.
         12    1    3    3    0    0 -0.42105472561E+01 -0.16633139553E+01  0.40406334627E+02  0.40659158864E+02  0.00000000000E+00 0. -1.
         11    1    4    4    0    0 -0.24263372840E+01 -0.38257887686E+00 -0.21703828746E+00  0.24658842414E+01  0.51100000000E-03 0. -1.
        -11    1    4    4    0    0  0.14133277502E+02 -0.52087860017E+01 -0.29522128924E+02  0.33142677638E+02  0.51100000000E-03 0.  1.
        -12    1    4    4    0    0 -0.74963929616E+01  0.72546788338E+01 -0.10667167416E+02  0.14920279256E+02  0.00000000000E+00 0.  1.
</event>
<event>
 8    1  0.1021894E-011  0.9118800E+02  0.7816164E-02  0.1184000E+00
        -11   -1    0    0    0    0  0.00000000000E+00  0.00000000000E+00  0.45593999997E+02  0.45594000000E+02  0.51100000000E-03 0. -1.
         11   -1    0    0    0    0 -0.00000000000E+00 -0.00000000000E+00 -0.45593999997E+02  0.45594000000E+02  0.51100000000E-03 0.  1.
         23    2    1    2    0    0  0.00000000000E+00  0.00000000000E+00  0.35527136788E-14  0.91188000000E+02  0.91188000000E+02 0.  0.
    9900012    2    3    3    0    0 -0.25013744744E+02 -0.14028408319E+02 -0.28821553176E+02  0.50528860885E+02  0.30000003147E+02 0.  0.
         12    1    3    3    0    0  0.25013744744E+02  0.14028408319E+02  0.28821553176E+02  0.40659139115E+02  0.00000000000E+00 0. -1.
         11    1    4    4    0    0  0.37581780132E+01 -0.43774750545E+01 -0.33273139383E+01  0.66601207298E+01  0.51100000000E-03 0. -1.
        -11    1    4    4    0    0 -0.18284690658E+02 -0.19011314047E+01 -0.24719421334E+02  0.30805746289E+02  0.51100000000E-03 0.  1.
        -12    1    4    4    0    0 -0.10487232099E+02 -0.77498018601E+01 -0.77481790358E+00  0.13062993867E+02  0.00000000000E+00 0.  1.
</event>
<event>
 8    1  0.1021894E-011  0.9118800E+02  0.7816164E-02  0.1184000E+00
        -11   -1    0    0    0    0  0.00000000000E+00  0.00000000000E+00  0.45593999997E+02  0.45594000000E+02  0.51100000000E-03 0. -1.
         11   -1    0    0    0    0 -0.00000000000E+00 -0.00000000000E+00 -0.45593999997E+02  0.45594000000E+02  0.51100000000E-03 0.  1.
         23    2    1    2    0    0  0.00000000000E+00  0.17763568394E-14 -0.71054273576E-14  0.91188000000E+02  0.91188000000E+02 0.  0.
    9900012    2    3    3    0    0 -0.32314947101E+02 -0.65957927240E+01  0.23778261304E+02  0.50528855906E+02  0.29999988013E+02 0.  0.
        -12    1    3    3    0    0  0.32314947101E+02  0.65957927240E+01 -0.23778261304E+02  0.40659144094E+02  0.00000000000E+00 0.  1.
         11    1    4    4    0    0 -0.17617161779E+02 -0.14595023283E+02  0.12568245220E+02  0.26102488042E+02  0.51100000000E-03 0. -1.
        -11    1    4    4    0    0 -0.83173574798E+01  0.57016590332E+01 -0.13287845871E+01  0.10171185768E+02  0.51100000000E-03 0.  1.
        -12    1    4    4    0    0 -0.63804278419E+01  0.22975715262E+01  0.12538800670E+02  0.14255182097E+02  0.00000000000E+00 0.  1.
</event>
<event>
 8    1  0.1021894E-011  0.9118800E+02  0.7816164E-02  0.1184000E+00
        -11   -1    0    0    0    0  0.00000000000E+00  0.00000000000E+00  0.45593999997E+02  0.45594000000E+02  0.51100000000E-03 0. -1.
         11   -1    0    0    0    0 -0.00000000000E+00 -0.00000000000E+00 -0.45593999997E+02  0.45594000000E+02  0.51100000000E-03 0.  1.
         23    2    1    2    0    0  0.00000000000E+00  0.00000000000E+00 -0.35527136788E-14  0.91188000000E+02  0.91188000000E+02 0.  0.
    9900012    2    3    3    0    0 -0.46118667931E+01 -0.36499783667E+02 -0.17310769791E+02  0.50528852520E+02  0.29999977719E+02 0.  0.
         12    1    3    3    0    0  0.46118667931E+01  0.36499783667E+02  0.17310769791E+02  0.40659147480E+02  0.00000000000E+00 0. -1.
         11    1    4    4    0    0  0.51467315411E+01 -0.59598154609E+01 -0.16459525067E+02  0.18246210882E+02  0.51100000000E-03 0. -1.
        -11    1    4    4    0    0 -0.32462095925E+01 -0.60687050377E+01 -0.10299919585E+01  0.69590186987E+01  0.51100000000E-03 0.  1.
         12    1    4    4    0    0 -0.65123887417E+01 -0.24471263168E+02  0.17874723389E+00  0.25323622939E+02  0.00000000000E+00 0. -1.
</event>
<event>
 8    1  0.1021894E-011  0.9118800E+02  0.7816164E-02  0.1184000E+00
        -11   -1    0    0    0    0  0.00000000000E+00  0.00000000000E+00  0.45593999997E+02  0.45594000000E+02  0.51100000000E-03 0. -1.
         11   -1    0    0    0    0 -0.00000000000E+00 -0.00000000000E+00 -0.45593999997E+02  0.45594000000E+02  0.51100000000E-03 0.  1.
         23    2    1    2    0    0  0.00000000000E+00  0.00000000000E+00 -0.14210854715E-13  0.91188000000E+02  0.91188000000E+02 0.  0.
    9900012    2    3    3    0    0  0.17569946596E+02  0.11727146546E+02 -0.34740989859E+02  0.50528863685E+02  0.30000011657E+02 0.  0.
         12    1    3    3    0    0 -0.17569946596E+02 -0.11727146546E+02  0.34740989859E+02  0.40659136315E+02  0.00000000000E+00 0. -1.
         11    1    4    4    0    0 -0.82245563413E+00 -0.27684289253E+01  0.14669991069E+01  0.32392466139E+01  0.51100000000E-03 0. -1.
        -11    1    4    4    0    0  0.21247965620E+02  0.10383950727E+02 -0.22288711497E+02  0.32497525077E+02  0.51100000000E-03 0.  1.
         12    1    4    4    0    0 -0.28555633896E+01  0.41116247437E+01 -0.13919277469E+02  0.14792091994E+02  0.00000000000E+00 0. -1.
</event>
<event>
 8    1  0.1021894E-011  0.9118800E+02  0.7816164E-02  0.1184000E+00
        -11   -1    0    0    0    0  0.00000000000E+00  0.00000000000E+00  0.45593999997E+02  0.45594000000E+02  0.51100000000E-03 0. -1.
         11   -1    0    0    0    0 -0.00000000000E+00 -0.00000000000E+00 -0.45593999997E+02  0.45594000000E+02  0.51100000000E-03 0.  1.
         23    2    1    2    0    0  0.00000000000E+00  0.00000000000E+00  0.00000000000E+00  0.91188000000E+02  0.91188000000E+02 0.  0.
    9900012    2    3    3    0    0  0.18186787718E+02  0.13544648368E+02 -0.33748317122E+02  0.50528860124E+02  0.30000000832E+02 0.  0.
         12    1    3    3    0    0 -0.18186787718E+02 -0.13544648368E+02  0.33748317122E+02  0.40659139876E+02  0.00000000000E+00 0. -1.
         11    1    4    4    0    0  0.13443489906E+02 -0.21741858508E+01 -0.12252485365E+02  0.18318785517E+02  0.51100000000E-03 0. -1.
        -11    1    4    4    0    0 -0.41325028059E+01  0.58588671427E+01 -0.26424602215E+00  0.71745194862E+01  0.51100000000E-03 0.  1.
        -12    1    4    4    0    0  0.88758006181E+01  0.98599670761E+01 -0.21231585735E+02  0.25035555120E+02  0.00000000000E+00 0.  1.
</event>
<event>
 8    1  0.1021894E-011  0.9118800E+02  0.7816164E-02  0.1184000E+00
        -11   -1    0    0    0    0  0.00000000000E+00  0.00000000000E+00  0.45593999997E+02  0.45594000000E+02  0.51100000000E-03 0. -1.
         11   -1    0    0    0    0 -0.00000000000E+00 -0.00000000000E+00 -0.45593999997E+02  0.45594000000E+02  0.51100000000E-03 0.  1.
         23    2    1    2    0    0 -0.88817841970E-15  0.00000000000E+00  0.00000000000E+00  0.91188000000E+02  0.91188000000E+02 0.  0.
    9900012    2    3    3    0    0 -0.52561584004E+01  0.74189477597E+01 -0.39629503979E+02  0.50528861143E+02  0.30000003930E+02 0.  0.
         12    1    3    3    0    0  0.52561584004E+01 -0.74189477597E+01  0.39629503979E+02  0.40659138857E+02  0.00000000000E+00 0. -1.
         11    1    4    4    0    0 -0.14576498362E+02  0.77139902877E+01 -0.31866447033E+02  0.35881059035E+02  0.51100000000E-03 0. -1.
        -11    1    4    4    0    0  0.16108848295E+01 -0.35321222565E+01 -0.13499294301E+01  0.41101274063E+01  0.51100000000E-03 0.  1.
         12    1    4    4    0    0  0.77094551321E+01  0.32370797285E+01 -0.64131275152E+01  0.10537674702E+02  0.00000000000E+00 0. -1.
</event>
<event>
 8    1  0.1021894E-011  0.9118800E+02  0.7816164E-02  0.1184000E+00
        -11   -1    0    0    0    0  0.00000000000E+00  0.00000000000E+00  0.45593999997E+02  0.45594000000E+02  0.51100000000E-03 0. -1.
         11   -1    0    0    0    0 -0.00000000000E+00 -0.00000000000E+00 -0.45593999997E+02  0.45594000000E+02  0.51100000000E-03 0.  1.
         23    2    1    2    0    0 -0.92287288922E-15  0.35527136788E-14  0.00000000000E+00  0.91188000000E+02  0.91188000000E+02 0.  0.
    9900012    2    3    3    0    0  0.14525392112E-01  0.21591680315E+02  0.34452361877E+02  0.50528854550E+02  0.29999983891E+02 0.  0.
        -12    1    3    3    0    0 -0.14525392112E-01 -0.21591680315E+02 -0.34452361877E+02  0.40659145450E+02  0.00000000000E+00 0.  1.
         11    1    4    4    0    0  0.87730763649E+00  0.37242729191E+01  0.19607361368E+02  0.19977199442E+02  0.51100000000E-03 0. -1.
        -11    1    4    4    0    0 -0.49164210396E+01  0.20856240070E+02  0.10330498727E+02  0.23788088404E+02  0.51100000000E-03 0.  1.
        -12    1    4    4    0    0  0.40536387953E+01 -0.29888326738E+01  0.45145017818E+01  0.67635667049E+01  0.00000000000E+00 0.  1.
</event>
<event>
 8    1  0.1021894E-011  0.9118800E+02  0.7816164E-02  0.1184000E+00
        -11   -1    0    0    0    0  0.00000000000E+00  0.00000000000E+00  0.45593999997E+02  0.45594000000E+02  0.51100000000E-03 0.  1.
         11   -1    0    0    0    0 -0.00000000000E+00 -0.00000000000E+00 -0.45593999997E+02  0.45594000000E+02  0.51100000000E-03 0. -1.
         23    2    1    2    0    0  0.00000000000E+00  0.00000000000E+00 -0.22204460493E-15  0.91188000000E+02  0.91188000000E+02 0.  0.
    9900012    2    3    3    0    0  0.25186843036E+02  0.31897894032E+02  0.11455804169E+01  0.50528867443E+02  0.30000023080E+02 0.  0.
        -12    1    3    3    0    0 -0.25186843036E+02 -0.31897894032E+02 -0.11455804169E+01  0.40659132557E+02  0.00000000000E+00 0.  1.
         11    1    4    4    0    0  0.19682726194E+02  0.31444776326E+02  0.98444808212E+01  0.38380951936E+02  0.51100000000E-03 0. -1.
        -11    1    4    4    0    0 -0.12270886406E+01 -0.10109760498E+01 -0.15611951894E+01  0.22282616062E+01  0.51100000000E-03 0.  1.
         12    1    4    4    0    0  0.67312054830E+01  0.14640937556E+01 -0.71377052149E+01  0.99196539010E+01  0.00000000000E+00 0. -1.
</event>
<event>
 8    1  0.1114342E-011  0.9118800E+02  0.7816164E-02  0.1184000E+00
        -11   -1    0    0    0    0  0.00000000000E+00  0.00000000000E+00  0.45593999997E+02  0.45594000000E+02  0.51100000000E-03 0. -1.
         11   -1    0    0    0    0 -0.00000000000E+00 -0.00000000000E+00 -0.45593999997E+02  0.45594000000E+02  0.51100000000E-03 0.  1.
         23    2    1    2    0    0  0.35527136788E-14  0.00000000000E+00  0.00000000000E+00  0.91188000000E+02  0.91188000000E+02 0.  0.
    9900012    2    3    3    0    0 -0.21192129697E+02 -0.23932523475E+02 -0.25125556821E+02  0.50528860234E+02  0.30000001167E+02 0.  0.
         12    1    3    3    0    0  0.21192129697E+02  0.23932523475E+02  0.25125556821E+02  0.40659139766E+02  0.00000000000E+00 0. -1.
         11    1    4    4    0    0 -0.40320099120E+01 -0.61831343245E+01  0.56447827923E+01  0.92925683768E+01  0.51100000000E-03 0. -1.
        -11    1    4    4    0    0 -0.17297494666E+02 -0.17259554875E+02 -0.23348900129E+02  0.33797436200E+02  0.51100000000E-03 0.  1.
         12    1    4    4    0    0  0.13737488124E+00 -0.48983427575E+00 -0.74214394837E+01  0.74388556571E+01  0.00000000000E+00 0. -1.
</event>
<event>
 8    1  0.1021894E-011  0.9118800E+02  0.7816164E-02  0.1184000E+00
        -11   -1    0    0    0    0  0.00000000000E+00  0.00000000000E+00  0.45593999997E+02  0.45594000000E+02  0.51100000000E-03 0. -1.
         11   -1    0    0    0    0 -0.00000000000E+00 -0.00000000000E+00 -0.45593999997E+02  0.45594000000E+02  0.51100000000E-03 0.  1.
         23    2    1    2    0    0  0.00000000000E+00  0.00000000000E+00  0.35527136788E-14  0.91188000000E+02  0.91188000000E+02 0.  0.
    9900012    2    3    3    0    0 -0.16637725305E+02  0.19270834603E+02  0.31701523775E+02  0.50528861061E+02  0.30000003682E+02 0.  0.
        -12    1    3    3    0    0  0.16637725305E+02 -0.19270834603E+02 -0.31701523775E+02  0.40659138939E+02  0.00000000000E+00 0.  1.
         11    1    4    4    0    0 -0.23030051411E+02  0.14491585513E+02  0.30917139726E+02  0.41185663133E+02  0.51100000000E-03 0. -1.
        -11    1    4    4    0    0  0.11870203240E+01 -0.81128275906E+00 -0.63843479098E+00  0.15731485016E+01  0.51100000000E-03 0.  1.
         12    1    4    4    0    0  0.52053057819E+01  0.55905318485E+01  0.14228188402E+01  0.77700494262E+01  0.00000000000E+00 0. -1.
</event>
<event>
 8    1  0.1021894E-011  0.9118800E+02  0.7816164E-02  0.1184000E+00
        -11   -1    0    0    0    0  0.00000000000E+00  0.00000000000E+00  0.45593999997E+02  0.45594000000E+02  0.51100000000E-03 0. -1.
         11   -1    0    0    0    0 -0.00000000000E+00 -0.00000000000E+00 -0.45593999997E+02  0.45594000000E+02  0.51100000000E-03 0.  1.
         23    2    1    2    0    0 -0.35527136788E-14  0.00000000000E+00 -0.35527136788E-14  0.91188000000E+02  0.91188000000E+02 0.  0.
    9900012    2    3    3    0    0 -0.24428164039E+02  0.21234949775E+02 -0.24607061610E+02  0.50528858698E+02  0.29999996500E+02 0.  0.
         12    1    3    3    0    0  0.24428164039E+02 -0.21234949775E+02  0.24607061610E+02  0.40659141302E+02  0.00000000000E+00 0. -1.
         11    1    4    4    0    0  0.28196432732E+01  0.25029356191E+01 -0.15102818186E+01  0.40615300484E+01  0.51100000000E-03 0. -1.
        -11    1    4    4    0    0 -0.17754563961E+02  0.23691733838E+02 -0.17238391730E+02  0.34259085560E+02  0.51100000000E-03 0.  1.
        -12    1    4    4    0    0 -0.94932433520E+01 -0.49597196824E+01 -0.58583880611E+01  0.12208243090E+02  0.00000000000E+00 0.  1.
</event>
<event>
 8    1  0.1021894E-011  0.9118800E+02  0.7816164E-02  0.1184000E+00
        -11   -1    0    0    0    0  0.00000000000E+00  0.00000000000E+00  0.45593999997E+02  0.45594000000E+02  0.51100000000E-03 0. -1.
         11   -1    0    0    0    0 -0.00000000000E+00 -0.00000000000E+00 -0.45593999997E+02  0.45594000000E+02  0.51100000000E-03 0.  1.
         23    2    1    2    0    0  0.35527136788E-14  0.00000000000E+00 -0.71054273576E-14  0.91188000000E+02  0.91188000000E+02 0.  0.
    9900012    2    3    3    0    0  0.11257139205E+02 -0.21801185698E+02 -0.32421401107E+02  0.50528903470E+02  0.30000132586E+02 0.  0.
         12    1    3    3    0    0 -0.11257139205E+02  0.21801185698E+02  0.32421401107E+02  0.40659096530E+02  0.00000000000E+00 0. -1.
         11    1    4    4    0    0 -0.68158317831E+01 -0.14328486074E+02 -0.11803572451E+02  0.19775879221E+02  0.51100000000E-03 0. -1.
        -11    1    4    4    0    0  0.16127591027E+02 -0.67301916348E+01 -0.22116522863E+02  0.28187501762E+02  0.51100000000E-03 0.  1.
         12    1    4    4    0    0  0.19453799606E+01 -0.74250798869E+00  0.14986942068E+01  0.25655224867E+01  0.00000000000E+00 0. -1.
</event>
<event>
 8    1  0.1021894E-011  0.9118800E+02  0.7816164E-02  0.1184000E+00
        -11   -1    0    0    0    0  0.00000000000E+00  0.00000000000E+00  0.45593999997E+02  0.45594000000E+02  0.51100000000E-03 0. -1.
         11   -1    0    0    0    0 -0.00000000000E+00 -0.00000000000E+00 -0.45593999997E+02  0.45594000000E+02  0.51100000000E-03 0.  1.
         23    2    1    2    0    0  0.00000000000E+00  0.17763568394E-14 -0.35527136788E-14  0.91188000000E+02  0.91188000000E+02 0.  0.
    9900012    2    3    3    0    0  0.28008038706E+02  0.44493683843E+01  0.29136191134E+02  0.50528871320E+02  0.30000034865E+02 0.  0.
        -12    1    3    3    0    0 -0.28008038706E+02 -0.44493683843E+01 -0.29136191134E+02  0.40659128680E+02  0.00000000000E+00 0.  1.
         11    1    4    4    0    0  0.36363266842E+01 -0.16471586127E+01  0.59742131408E+01  0.71852088462E+01  0.51100000000E-03 0. -1.
        -11    1    4    4    0    0  0.77153065694E+01  0.14169138709E+02  0.38351827839E+01  0.16583096046E+02  0.51100000000E-03 0.  1.
        -12    1    4    4    0    0  0.16656405453E+02 -0.80726117125E+01  0.19326795210E+02  0.26760566428E+02  0.00000000000E+00 0.  1.
</event>
<event>
 8    1  0.1021894E-011  0.9118800E+02  0.7816164E-02  0.1184000E+00
        -11   -1    0    0    0    0  0.00000000000E+00  0.00000000000E+00  0.45593999997E+02  0.45594000000E+02  0.51100000000E-03 0. -1.
         11   -1    0    0    0    0 -0.00000000000E+00 -0.00000000000E+00 -0.45593999997E+02  0.45594000000E+02  0.51100000000E-03 0.  1.
         23    2    1    2    0    0  0.00000000000E+00  0.00000000000E+00  0.00000000000E+00  0.91188000000E+02  0.91188000000E+02 0.  0.
    9900012    2    3    3    0    0 -0.33404033898E+02  0.11304944530E+02  0.20236849651E+02  0.50528913251E+02  0.30000162317E+02 0.  0.
        -12    1    3    3    0    0  0.33404033898E+02 -0.11304944530E+02 -0.20236849651E+02  0.40659086749E+02  0.00000000000E+00 0.  1.
         11    1    4    4    0    0 -0.13231279937E+02  0.62326127385E+00  0.83609802833E+01  0.15664010181E+02  0.51100000000E-03 0. -1.
        -11    1    4    4    0    0  0.52442153199E+01  0.19424555936E+01  0.29941963594E+00  0.56004089524E+01  0.51100000000E-03 0.  1.
        -12    1    4    4    0    0 -0.25416969281E+02  0.87392276631E+01  0.11576449732E+02  0.29264494117E+02  0.00000000000E+00 0.  1.
</event>
<event>
 8    1  0.1021894E-011  0.9118800E+02  0.7816164E-02  0.1184000E+00
        -11   -1    0    0    0    0  0.00000000000E+00  0.00000000000E+00  0.45593999997E+02  0.45594000000E+02  0.51100000000E-03 0. -1.
         11   -1    0    0    0    0 -0.00000000000E+00 -0.00000000000E+00 -0.45593999997E+02  0.45594000000E+02  0.51100000000E-03 0.  1.
         23    2    1    2    0    0 -0.71054273576E-14 -0.13322676296E-14 -0.35527136788E-14  0.91188000000E+02  0.91188000000E+02 0.  0.
    9900012    2    3    3    0    0  0.32059838767E+02 -0.18382295791E+01  0.24938981749E+02  0.50528866212E+02  0.30000019337E+02 0.  0.
        -12    1    3    3    0    0 -0.32059838767E+02  0.18382295791E+01 -0.24938981749E+02  0.40659133788E+02  0.00000000000E+00 0.  1.
         11    1    4    4    0    0  0.12081558730E+02  0.77900892308E+01  0.19226606890E+00  0.14376596192E+02  0.51100000000E-03 0. -1.
        -11    1    4    4    0    0  0.16723585712E+02 -0.11904317149E+02  0.14415059631E+02  0.25083560957E+02  0.51100000000E-03 0.  1.
        -12    1    4    4    0    0  0.32546943251E+01  0.22759983395E+01  0.10331656049E+02  0.11068709063E+02  0.00000000000E+00 0.  1.
</event>
<event>
 8    1  0.1021894E-011  0.9118800E+02  0.7816164E-02  0.1184000E+00
        -11   -1    0    0    0    0  0.00000000000E+00  0.00000000000E+00  0.45593999997E+02  0.45594000000E+02  0.51100000000E-03 0. -1.
         11   -1    0    0    0    0 -0.00000000000E+00 -0.00000000000E+00 -0.45593999997E+02  0.45594000000E+02  0.51100000000E-03 0.  1.
         23    2    1    2    0    0 -0.88817841970E-15  0.00000000000E+00  0.17763568394E-14  0.91188000000E+02  0.91188000000E+02 0.  0.
    9900012    2    3    3    0    0 -0.54221172868E+01  0.37058362610E+02  0.15825440923E+02  0.50528853727E+02  0.29999981389E+02 0.  0.
        -12    1    3    3    0    0  0.54221172868E+01 -0.37058362610E+02 -0.15825440923E+02  0.40659146273E+02  0.00000000000E+00 0.  1.
         11    1    4    4    0    0  0.37368535836E+01  0.30347474765E+02  0.11866053879E+02  0.32798422740E+02  0.51100000000E-03 0.  1.
        -11    1    4    4    0    0 -0.23329662738E+01 -0.14933225573E+01  0.62308669827E+01  0.68188303624E+01  0.51100000000E-03 0. -1.
        -12    1    4    4    0    0 -0.68260045966E+01  0.82042104031E+01 -0.22714799385E+01  0.10911600625E+02  0.00000000000E+00 0.  1.
</event>
<event>
 8    1  0.1021894E-011  0.9118800E+02  0.7816164E-02  0.1184000E+00
        -11   -1    0    0    0    0  0.00000000000E+00  0.00000000000E+00  0.45593999997E+02  0.45594000000E+02  0.51100000000E-03 0. -1.
         11   -1    0    0    0    0 -0.00000000000E+00 -0.00000000000E+00 -0.45593999997E+02  0.45594000000E+02  0.51100000000E-03 0.  1.
         23    2    1    2    0    0  0.35527136788E-14 -0.17763568394E-14  0.35527136788E-14  0.91188000000E+02  0.91188000000E+02 0.  0.
    9900012    2    3    3    0    0 -0.26422425303E+02  0.11208020429E+02 -0.28799320870E+02  0.50528866175E+02  0.30000019224E+02 0.  0.
         12    1    3    3    0    0  0.26422425303E+02 -0.11208020429E+02  0.28799320870E+02  0.40659133825E+02  0.00000000000E+00 0. -1.
         11    1    4    4    0    0  0.40673962553E+01  0.39786281492E+00 -0.13014263994E+02  0.13640860482E+02  0.51100000000E-03 0. -1.
        -11    1    4    4    0    0 -0.20921804596E+02  0.45257722350E+01 -0.13213143477E+02  0.25155350976E+02  0.51100000000E-03 0.  1.
         12    1    4    4    0    0 -0.95680169620E+01  0.62843853788E+01 -0.25719133987E+01  0.11732654717E+02  0.00000000000E+00 0. -1.
</event>
<event>
 8    1  0.1021894E-011  0.9118800E+02  0.7816164E-02  0.1184000E+00
        -11   -1    0    0    0    0  0.00000000000E+00  0.00000000000E+00  0.45593999997E+02  0.45594000000E+02  0.51100000000E-03 0. -1.
         11   -1    0    0    0    0 -0.00000000000E+00 -0.00000000000E+00 -0.45593999997E+02  0.45594000000E+02  0.51100000000E-03 0.  1.
         23    2    1    2    0    0 -0.33306690739E-15  0.00000000000E+00  0.00000000000E+00  0.91188000000E+02  0.91188000000E+02 0.  0.
    9900012    2    3    3    0    0 -0.58025806259E+00 -0.13307044899E+02 -0.38415513293E+02  0.50528858286E+02  0.29999995247E+02 0.  0.
         12    1    3    3    0    0  0.58025806259E+00  0.13307044899E+02  0.38415513293E+02  0.40659141714E+02  0.00000000000E+00 0. -1.
         11    1    4    4    0    0 -0.51844591811E+01 -0.97080339035E+00 -0.62174399020E+00  0.53110867130E+01  0.51100000000E-03 0. -1.
        -11    1    4    4    0    0  0.72793733624E+01 -0.11522497379E+02 -0.39606134858E+02  0.41885595866E+02  0.51100000000E-03 0.  1.
         12    1    4    4    0    0 -0.26751722439E+01 -0.81374412928E+00  0.18123655551E+01  0.33321757078E+01  0.00000000000E+00 0. -1.
</event>
<event>
 8    1  0.1021894E-011  0.9118800E+02  0.7816164E-02  0.1184000E+00
        -11   -1    0    0    0    0  0.00000000000E+00  0.00000000000E+00  0.45593999997E+02  0.45594000000E+02  0.51100000000E-03 0. -1.
         11   -1    0    0    0    0 -0.00000000000E+00 -0.00000000000E+00 -0.45593999997E+02  0.45594000000E+02  0.51100000000E-03 0.  1.
         23    2    1    2    0    0  0.00000000000E+00  0.00000000000E+00  0.00000000000E+00  0.91188000000E+02  0.91188000000E+02 0.  0.
    9900012    2    3    3    0    0 -0.20589159598E+02 -0.21340124280E+02 -0.27818175067E+02  0.50528864971E+02  0.30000015565E+02 0.  0.
         12    1    3    3    0    0  0.20589159598E+02  0.21340124280E+02  0.27818175067E+02  0.40659135029E+02  0.00000000000E+00 0. -1.
         11    1    4    4    0    0  0.11174039677E+01  0.27577371132E+01 -0.11318020138E+02  0.11702618755E+02  0.51100000000E-03 0. -1.
        -11    1    4    4    0    0 -0.15741105800E+02 -0.82180091903E+01 -0.54245153670E+01  0.18567268353E+02  0.51100000000E-03 0.  1.
         12    1    4    4    0    0 -0.59654577659E+01 -0.15879852203E+02 -0.11075639562E+02  0.20258977863E+02  0.00000000000E+00 0. -1.
</event>
<event>
 8    1  0.1021894E-011  0.9118800E+02  0.7816164E-02  0.1184000E+00
        -11   -1    0    0    0    0  0.00000000000E+00  0.00000000000E+00  0.45593999997E+02  0.45594000000E+02  0.51100000000E-03 0. -1.
         11   -1    0    0    0    0 -0.00000000000E+00 -0.00000000000E+00 -0.45593999997E+02  0.45594000000E+02  0.51100000000E-03 0.  1.
         23    2    1    2    0    0 -0.88817841970E-15  0.00000000000E+00  0.00000000000E+00  0.91188000000E+02  0.91188000000E+02 0.  0.
    9900012    2    3    3    0    0 -0.29424260528E+01  0.34229248674E+01 -0.40407810882E+02  0.50528862454E+02  0.30000007916E+02 0.  0.
         12    1    3    3    0    0  0.29424260528E+01 -0.34229248674E+01  0.40407810882E+02  0.40659137546E+02  0.00000000000E+00 0. -1.
         11    1    4    4    0    0  0.60601100247E+01 -0.80267309986E+00 -0.56924104938E+01  0.83530087459E+01  0.51100000000E-03 0. -1.
        -11    1    4    4    0    0 -0.98784592142E+01  0.79457239688E-01 -0.32107112247E+01  0.10387441298E+02  0.51100000000E-03 0.  1.
        -12    1    4    4    0    0  0.87592313667E+00  0.41461407275E+01 -0.31504689163E+02  0.31788412410E+02  0.00000000000E+00 0.  1.
</event>
<event>
 8    1  0.1021894E-011  0.9118800E+02  0.7816164E-02  0.1184000E+00
        -11   -1    0    0    0    0  0.00000000000E+00  0.00000000000E+00  0.45593999997E+02  0.45594000000E+02  0.51100000000E-03 0. -1.
         11   -1    0    0    0    0 -0.00000000000E+00 -0.00000000000E+00 -0.45593999997E+02  0.45594000000E+02  0.51100000000E-03 0.  1.
         23    2    1    2    0    0  0.00000000000E+00  0.00000000000E+00  0.17763568394E-14  0.91188000000E+02  0.91188000000E+02 0.  0.
    9900012    2    3    3    0    0 -0.12577514234E+02 -0.36871251220E+02  0.11639703347E+02  0.50528859271E+02  0.29999998240E+02 0.  0.
        -12    1    3    3    0    0  0.12577514234E+02  0.36871251220E+02 -0.11639703347E+02  0.40659140729E+02  0.00000000000E+00 0.  1.
         11    1    4    4    0    0 -0.19480101799E+02 -0.34739918684E+02  0.68912782506E+01  0.40420613955E+02  0.51100000000E-03 0. -1.
        -11    1    4    4    0    0  0.30063253098E+01 -0.29097021244E-01 -0.70099095628E+00  0.30871065882E+01  0.51100000000E-03 0.  1.
         12    1    4    4    0    0  0.38962622555E+01 -0.21022355141E+01  0.54494160528E+01  0.70211387279E+01  0.00000000000E+00 0. -1.
</event>
<event>
 8    1  0.1021894E-011  0.9118800E+02  0.7816164E-02  0.1184000E+00
        -11   -1    0    0    0    0  0.00000000000E+00  0.00000000000E+00  0.45593999997E+02  0.45594000000E+02  0.51100000000E-03 0. -1.
         11   -1    0    0    0    0 -0.00000000000E+00 -0.00000000000E+00 -0.45593999997E+02  0.45594000000E+02  0.51100000000E-03 0.  1.
         23    2    1    2    0    0 -0.71054273576E-14  0.00000000000E+00  0.35527136788E-14  0.91188000000E+02  0.91188000000E+02 0.  0.
    9900012    2    3    3    0    0  0.33622360158E+02 -0.16025505156E+02 -0.16305915349E+02  0.50528895319E+02  0.30000107811E+02 0.  0.
         12    1    3    3    0    0 -0.33622360158E+02  0.16025505156E+02  0.16305915349E+02  0.40659104681E+02  0.00000000000E+00 0. -1.
         11    1    4    4    0    0  0.98727112461E+01 -0.41350595864E+01  0.71805984975E+01  0.12889148156E+02  0.51100000000E-03 0. -1.
        -11    1    4    4    0    0  0.13190366181E+02 -0.13186532119E+02 -0.16585606508E+02  0.24959021071E+02  0.51100000000E-03 0.  1.
         12    1    4    4    0    0  0.10559282731E+02  0.12960865493E+01 -0.69009073386E+01  0.12680726092E+02  0.00000000000E+00 0. -1.
</event>
<event>
 8    1  0.1021894E-011  0.9118800E+02  0.7816164E-02  0.1184000E+00
        -11   -1    0    0    0    0  0.00000000000E+00  0.00000000000E+00  0.45593999997E+02  0.45594000000E+02  0.51100000000E-03 0.  1.
         11   -1    0    0    0    0 -0.00000000000E+00 -0.00000000000E+00 -0.45593999997E+02  0.45594000000E+02  0.51100000000E-03 0. -1.
         23    2    1    2    0    0  0.00000000000E+00 -0.35527136788E-14  0.00000000000E+00  0.91188000000E+02  0.91188000000E+02 0.  0.
    9900012    2    3    3    0    0  0.19214305003E+02  0.29775537164E+02 -0.19934931270E+02  0.50528762244E+02  0.29999703316E+02 0.  0.
         12    1    3    3    0    0 -0.19214305003E+02 -0.29775537164E+02  0.19934931270E+02  0.40659237756E+02  0.00000000000E+00 0. -1.
         11    1    4    4    0    0  0.46113672772E+01 -0.30947294662E+01  0.40302405735E+01  0.68618436280E+01  0.51100000000E-03 0. -1.
        -11    1    4    4    0    0  0.53295211876E+01  0.19601255295E+02 -0.13122050185E+02  0.24182663346E+02  0.51100000000E-03 0.  1.
        -12    1    4    4    0    0  0.92734165379E+01  0.13269011335E+02 -0.10843121659E+02  0.19484255270E+02  0.00000000000E+00 0.  1.
</event>
<event>
 8    1  0.1021894E-011  0.9118800E+02  0.7816164E-02  0.1184000E+00
        -11   -1    0    0    0    0  0.00000000000E+00  0.00000000000E+00  0.45593999997E+02  0.45594000000E+02  0.51100000000E-03 0. -1.
         11   -1    0    0    0    0 -0.00000000000E+00 -0.00000000000E+00 -0.45593999997E+02  0.45594000000E+02  0.51100000000E-03 0.  1.
         23    2    1    2    0    0 -0.17763568394E-14 -0.15543122345E-14  0.00000000000E+00  0.91188000000E+02  0.91188000000E+02 0.  0.
    9900012    2    3    3    0    0  0.11473456014E+02 -0.58111818991E+00  0.39002451806E+02  0.50528817296E+02  0.29999870653E+02 0.  0.
        -12    1    3    3    0    0 -0.11473456014E+02  0.58111818991E+00 -0.39002451806E+02  0.40659182704E+02  0.00000000000E+00 0.  1.
         11    1    4    4    0    0  0.93058703295E+01  0.10158326033E+02  0.23312900331E+02  0.27079182640E+02  0.51100000000E-03 0. -1.
        -11    1    4    4    0    0  0.77124464713E+01 -0.72209532294E+01  0.75215565773E+01  0.12969109828E+02  0.51100000000E-03 0.  1.
         12    1    4    4    0    0 -0.55448607865E+01 -0.35184909937E+01  0.81679948983E+01  0.10480524828E+02  0.00000000000E+00 0. -1.
</event>
<event>
 8    1  0.1021894E-011  0.9118800E+02  0.7816164E-02  0.1184000E+00
        -11   -1    0    0    0    0  0.00000000000E+00  0.00000000000E+00  0.45593999997E+02  0.45594000000E+02  0.51100000000E-03 0. -1.
         11   -1    0    0    0    0 -0.00000000000E+00 -0.00000000000E+00 -0.45593999997E+02  0.45594000000E+02  0.51100000000E-03 0.  1.
         23    2    1    2    0    0  0.00000000000E+00 -0.44408920985E-15  0.00000000000E+00  0.91188000000E+02  0.91188000000E+02 0.  0.
    9900012    2    3    3    0    0 -0.29228640194E+02 -0.34684593802E+01 -0.28050350348E+02  0.50528858682E+02  0.29999996449E+02 0.  0.
         12    1    3    3    0    0  0.29228640194E+02  0.34684593802E+01  0.28050350348E+02  0.40659141318E+02  0.00000000000E+00 0. -1.
         11    1    4    4    0    0 -0.28319033456E+01  0.13495935849E+01  0.30852389791E+01  0.43999749115E+01  0.51100000000E-03 0. -1.
        -11    1    4    4    0    0 -0.24536934970E+02 -0.99258163678E+01 -0.30902013485E+02  0.40688050408E+02  0.51100000000E-03 0.  1.
        -12    1    4    4    0    0 -0.18598018785E+01  0.51077634027E+01 -0.23357584243E+00  0.54408333626E+01  0.00000000000E+00 0.  1.
</event>
<event>
 8    1  0.1021894E-011  0.9118800E+02  0.7816164E-02  0.1184000E+00
        -11   -1    0    0    0    0  0.00000000000E+00  0.00000000000E+00  0.45593999997E+02  0.45594000000E+02  0.51100000000E-03 0.  1.
         11   -1    0    0    0    0 -0.00000000000E+00 -0.00000000000E+00 -0.45593999997E+02  0.45594000000E+02  0.51100000000E-03 0. -1.
         23    2    1    2    0    0  0.00000000000E+00  0.15543122345E-14  0.00000000000E+00  0.91188000000E+02  0.91188000000E+02 0.  0.
    9900012    2    3    3    0    0 -0.39224675203E+02  0.16286368953E+01 -0.10580151934E+02  0.50528840910E+02  0.29999942431E+02 0.  0.
        -12    1    3    3    0    0  0.39224675203E+02 -0.16286368953E+01  0.10580151934E+02  0.40659159090E+02  0.00000000000E+00 0.  1.
         11    1    4    4    0    0 -0.18565862028E+02  0.28161190662E+01 -0.63333498543E+01  0.19817494294E+02  0.51100000000E-03 0. -1.
        -11    1    4    4    0    0 -0.88992977966E+01 -0.96976113957E+01  0.43238955445E+01  0.13854141655E+02  0.51100000000E-03 0.  1.
        -12    1    4    4    0    0 -0.11759515378E+02  0.85101292248E+01 -0.85706976243E+01  0.16857204962E+02  0.00000000000E+00 0.  1.
</event>
<event>
 8    1  0.1021894E-011  0.9118800E+02  0.7816164E-02  0.1184000E+00
        -11   -1    0    0    0    0  0.00000000000E+00  0.00000000000E+00  0.45593999997E+02  0.45594000000E+02  0.51100000000E-03 0. -1.
         11   -1    0    0    0    0 -0.00000000000E+00 -0.00000000000E+00 -0.45593999997E+02  0.45594000000E+02  0.51100000000E-03 0.  1.
         23    2    1    2    0    0  0.35527136788E-14  0.00000000000E+00  0.00000000000E+00  0.91188000000E+02  0.91188000000E+02 0.  0.
    9900012    2    3    3    0    0  0.17312209899E+02  0.36180507355E+01  0.36610967332E+02  0.50528857956E+02  0.29999994244E+02 0.  0.
        -12    1    3    3    0    0 -0.17312209899E+02 -0.36180507355E+01 -0.36610967332E+02  0.40659142044E+02  0.00000000000E+00 0.  1.
         11    1    4    4    0    0  0.98459512585E+01 -0.35300139865E+01  0.15393241435E+01  0.10572288021E+02  0.51100000000E-03 0. -1.
        -11    1    4    4    0    0 -0.15527755235E+01  0.84358684945E+01  0.24724694273E+02  0.26170317084E+02  0.51100000000E-03 0.  1.
        -12    1    4    4    0    0  0.90190341644E+01 -0.12878037725E+01  0.10346948915E+02  0.13786252851E+02  0.00000000000E+00 0.  1.
</event>
<event>
 8    1  0.1021894E-011  0.9118800E+02  0.7816164E-02  0.1184000E+00
        -11   -1    0    0    0    0  0.00000000000E+00  0.00000000000E+00  0.45593999997E+02  0.45594000000E+02  0.51100000000E-03 0. -1.
         11   -1    0    0    0    0 -0.00000000000E+00 -0.00000000000E+00 -0.45593999997E+02  0.45594000000E+02  0.51100000000E-03 0.  1.
         23    2    1    2    0    0 -0.17763568394E-14  0.11102230246E-15  0.00000000000E+00  0.91188000000E+02  0.91188000000E+02 0.  0.
    9900012    2    3    3    0    0  0.10851935972E+02  0.87126523801E+00 -0.39174501923E+02  0.50528865499E+02  0.30000017171E+02 0.  0.
         12    1    3    3    0    0 -0.10851935972E+02 -0.87126523801E+00  0.39174501923E+02  0.40659134501E+02  0.00000000000E+00 0. -1.
         11    1    4    4    0    0  0.11739997878E+01 -0.43721797713E+01 -0.22611673656E+01  0.50603467836E+01  0.51100000000E-03 0. -1.
        -11    1    4    4    0    0  0.14732791038E+02  0.40794500109E+01 -0.37255649395E+02  0.40270093820E+02  0.51100000000E-03 0.  1.
        -12    1    4    4    0    0 -0.50548548532E+01  0.11639949984E+01  0.34231483819E+00  0.51984248952E+01  0.00000000000E+00 0.  1.
</event>
<event>
 8    1  0.1021894E-011  0.9118800E+02  0.7816164E-02  0.1184000E+00
        -11   -1    0    0    0    0  0.00000000000E+00  0.00000000000E+00  0.45593999997E+02  0.45594000000E+02  0.51100000000E-03 0. -1.
         11   -1    0    0    0    0 -0.00000000000E+00 -0.00000000000E+00 -0.45593999997E+02  0.45594000000E+02  0.51100000000E-03 0.  1.
         23    2    1    2    0    0  0.00000000000E+00  0.71054273576E-14 -0.17763568394E-14  0.91188000000E+02  0.91188000000E+02 0.  0.
    9900012    2    3    3    0    0  0.17164084458E+01 -0.39268717333E+02  0.10401386613E+02  0.50528842822E+02  0.29999948243E+02 0.  0.
        -12    1    3    3    0    0 -0.17164084458E+01  0.39268717333E+02 -0.10401386613E+02  0.40659157178E+02  0.00000000000E+00 0.  1.
         11    1    4    4    0    0  0.91523105241E+01 -0.15817373017E+02  0.37247317068E+01  0.18650139507E+02  0.51100000000E-03 0. -1.
        -11    1    4    4    0    0 -0.12147940715E+02 -0.70760764792E+01  0.41078424748E+01  0.14646422499E+02  0.51100000000E-03 0.  1.
         12    1    4    4    0    0  0.47120386367E+01 -0.16375267837E+02  0.25688124319E+01  0.17232280817E+02  0.00000000000E+00 0. -1.
</event>
<event>
 8    1  0.1021894E-011  0.9118800E+02  0.7816164E-02  0.1184000E+00
        -11   -1    0    0    0    0  0.00000000000E+00  0.00000000000E+00  0.45593999997E+02  0.45594000000E+02  0.51100000000E-03 0. -1.
         11   -1    0    0    0    0 -0.00000000000E+00 -0.00000000000E+00 -0.45593999997E+02  0.45594000000E+02  0.51100000000E-03 0.  1.
         23    2    1    2    0    0  0.00000000000E+00  0.00000000000E+00  0.00000000000E+00  0.91188000000E+02  0.91188000000E+02 0.  0.
    9900012    2    3    3    0    0 -0.33203390542E+02 -0.14116125146E+02 -0.18746571874E+02  0.50528879379E+02  0.30000059361E+02 0.  0.
         12    1    3    3    0    0  0.33203390542E+02  0.14116125146E+02  0.18746571874E+02  0.40659120621E+02  0.00000000000E+00 0. -1.
         11    1    4    4    0    0  0.27883033502E+00  0.37170662630E+01  0.27753366723E+01  0.46472380900E+01  0.51100000000E-03 0. -1.
        -11    1    4    4    0    0 -0.23679033279E+02 -0.11560677836E+02 -0.21861615707E+02  0.34238518231E+02  0.51100000000E-03 0.  1.
        -12    1    4    4    0    0 -0.98031875980E+01 -0.62725135724E+01  0.33970716044E+00  0.11643123058E+02  0.00000000000E+00 0.  1.
</event>
<event>
 8    1  0.1021894E-011  0.9118800E+02  0.7816164E-02  0.1184000E+00
        -11   -1    0    0    0    0  0.00000000000E+00  0.00000000000E+00  0.45593999997E+02  0.45594000000E+02  0.51100000000E-03 0. -1.
         11   -1    0    0    0    0 -0.00000000000E+00 -0.00000000000E+00 -0.45593999997E+02  0.45594000000E+02  0.51100000000E-03 0.  1.
         23    2    1    2    0    0  0.17763568394E-14 -0.88817841970E-15 -0.71054273576E-14  0.91188000000E+02  0.91188000000E+02 0.  0.
    9900012    2    3    3    0    0  0.58871679390E+01 -0.66981004588E+01 -0.39669160373E+02  0.50528861042E+02  0.30000003623E+02 0.  0.
         12    1    3    3    0    0 -0.58871679390E+01  0.66981004588E+01  0.39669160373E+02  0.40659138958E+02  0.00000000000E+00 0. -1.
         11    1    4    4    0    0 -0.27436481953E+01 -0.82222417460E+01 -0.72506507177E-01  0.86682248588E+01  0.51100000000E-03 0. -1.
        -11    1    4    4    0    0  0.22131038240E+01  0.41902904870E+01 -0.27538234100E+02  0.27942990185E+02  0.51100000000E-03 0.  1.
         12    1    4    4    0    0  0.64177123102E+01 -0.26661491999E+01 -0.12058419766E+02  0.13917645998E+02  0.00000000000E+00 0. -1.
</event>
<event>
 8    1  0.1021894E-011  0.9118800E+02  0.7816164E-02  0.1184000E+00
        -11   -1    0    0    0    0  0.00000000000E+00  0.00000000000E+00  0.45593999997E+02  0.45594000000E+02  0.51100000000E-03 0. -1.
         11   -1    0    0    0    0 -0.00000000000E+00 -0.00000000000E+00 -0.45593999997E+02  0.45594000000E+02  0.51100000000E-03 0.  1.
         23    2    1    2    0    0  0.35527136788E-14  0.00000000000E+00 -0.35527136788E-14  0.91188000000E+02  0.91188000000E+02 0.  0.
    9900012    2    3    3    0    0  0.19334506619E+02 -0.27122102794E+02 -0.23318118548E+02  0.50528852705E+02  0.29999978281E+02 0.  0.
         12    1    3    3    0    0 -0.19334506619E+02  0.27122102794E+02  0.23318118548E+02  0.40659147295E+02  0.00000000000E+00 0. -1.
         11    1    4    4    0    0 -0.15814214090E+01 -0.60248414059E+01  0.43747155397E+01  0.76116846988E+01  0.51100000000E-03 0. -1.
        -11    1    4    4    0    0  0.22543557956E+02 -0.21251577869E+02 -0.25199724658E+02  0.39935794600E+02  0.51100000000E-03 0.  1.
        -12    1    4    4    0    0 -0.16276299275E+01  0.15431648083E+00 -0.24931094297E+01  0.29813734059E+01  0.00000000000E+00 0.  1.
</event>
<event>
 8    1  0.1021894E-011  0.9118800E+02  0.7816164E-02  0.1184000E+00
        -11   -1    0    0    0    0  0.00000000000E+00  0.00000000000E+00  0.45593999997E+02  0.45594000000E+02  0.51100000000E-03 0. -1.
         11   -1    0    0    0    0 -0.00000000000E+00 -0.00000000000E+00 -0.45593999997E+02  0.45594000000E+02  0.51100000000E-03 0.  1.
         23    2    1    2    0    0 -0.44408920985E-15 -0.35527136788E-14 -0.71054273576E-14  0.91188000000E+02  0.91188000000E+02 0.  0.
    9900012    2    3    3    0    0  0.21113471514E+01  0.17625542986E+02  0.36579354282E+02  0.50528847130E+02  0.29999961338E+02 0.  0.
        -12    1    3    3    0    0 -0.21113471514E+01 -0.17625542986E+02 -0.36579354282E+02  0.40659152870E+02  0.00000000000E+00 0.  1.
         11    1    4    4    0    0 -0.74417143951E+01  0.90782812263E+01  0.10035950647E+01  0.11781405115E+02  0.51100000000E-03 0.  1.
        -11    1    4    4    0    0  0.65203085982E+01  0.65272119271E+01  0.33050437433E+02  0.34313996190E+02  0.51100000000E-03 0. -1.
        -12    1    4    4    0    0  0.30327529483E+01  0.20200498327E+01  0.25253217845E+01  0.44334458254E+01  0.00000000000E+00 0.  1.
</event>
<event>
 8    1  0.1021894E-011  0.9118800E+02  0.7816164E-02  0.1184000E+00
        -11   -1    0    0    0    0  0.00000000000E+00  0.00000000000E+00  0.45593999997E+02  0.45594000000E+02  0.51100000000E-03 0. -1.
         11   -1    0    0    0    0 -0.00000000000E+00 -0.00000000000E+00 -0.45593999997E+02  0.45594000000E+02  0.51100000000E-03 0.  1.
         23    2    1    2    0    0  0.00000000000E+00 -0.88817841970E-15  0.00000000000E+00  0.91188000000E+02  0.91188000000E+02 0.  0.
    9900012    2    3    3    0    0 -0.18207621427E+02 -0.50521589458E+01  0.36001733061E+02  0.50528848860E+02  0.29999966594E+02 0.  0.
        -12    1    3    3    0    0  0.18207621427E+02  0.50521589458E+01 -0.36001733061E+02  0.40659151140E+02  0.00000000000E+00 0.  1.
         11    1    4    4    0    0 -0.12126340871E+02  0.19761881531E+01  0.29939110736E+02  0.32362073704E+02  0.51100000000E-03 0. -1.
        -11    1    4    4    0    0  0.27695511642E+00 -0.84820631663E+01 -0.10092554660E+01  0.85463849989E+01  0.51100000000E-03 0.  1.
         12    1    4    4    0    0 -0.63582356719E+01  0.14537160673E+01  0.70718777916E+01  0.96203901565E+01  0.00000000000E+00 0. -1.
</event>
<event>
 8    1  0.1021894E-011  0.9118800E+02  0.7816164E-02  0.1184000E+00
        -11   -1    0    0    0    0  0.00000000000E+00  0.00000000000E+00  0.45593999997E+02  0.45594000000E+02  0.51100000000E-03 0. -1.
         11   -1    0    0    0    0 -0.00000000000E+00 -0.00000000000E+00 -0.45593999997E+02  0.45594000000E+02  0.51100000000E-03 0.  1.
         23    2    1    2    0    0  0.00000000000E+00  0.00000000000E+00  0.00000000000E+00  0.91188000000E+02  0.91188000000E+02 0.  0.
    9900012    2    3    3    0    0  0.75397357338E+01  0.28406846052E+02  0.28095720913E+02  0.50528855258E+02  0.29999986041E+02 0.  0.
        -12    1    3    3    0    0 -0.75397357338E+01 -0.28406846052E+02 -0.28095720913E+02  0.40659144742E+02  0.00000000000E+00 0.  1.
         11    1    4    4    0    0 -0.66310740530E+01  0.30347468502E+01  0.10267765761E+02  0.12593960677E+02  0.51100000000E-03 0. -1.
        -11    1    4    4    0    0  0.64183861918E+01  0.56573726850E+01 -0.21441508435E+01  0.88203701796E+01  0.51100000000E-03 0.  1.
        -12    1    4    4    0    0  0.77524235951E+01  0.19714726517E+02  0.19972105995E+02  0.29114524401E+02  0.00000000000E+00 0.  1.
</event>
<event>
 8    1  0.1021894E-011  0.9118800E+02  0.7816164E-02  0.1184000E+00
        -11   -1    0    0    0    0  0.00000000000E+00  0.00000000000E+00  0.45593999997E+02  0.45594000000E+02  0.51100000000E-03 0. -1.
         11   -1    0    0    0    0 -0.00000000000E+00 -0.00000000000E+00 -0.45593999997E+02  0.45594000000E+02  0.51100000000E-03 0.  1.
         23    2    1    2    0    0  0.00000000000E+00 -0.17763568394E-14  0.00000000000E+00  0.91188000000E+02  0.91188000000E+02 0.  0.
    9900012    2    3    3    0    0  0.20003156911E+02 -0.91666208133E+01 -0.34190821400E+02  0.50528862139E+02  0.30000006959E+02 0.  0.
         12    1    3    3    0    0 -0.20003156911E+02  0.91666208133E+01  0.34190821400E+02  0.40659137861E+02  0.00000000000E+00 0. -1.
         11    1    4    4    0    0  0.60567190006E+01  0.35476772833E+01 -0.20199980231E+01  0.73041256447E+01  0.51100000000E-03 0. -1.
        -11    1    4    4    0    0  0.96536860924E+01 -0.18699965479E+02 -0.20208287015E+02  0.29176312797E+02  0.51100000000E-03 0.  1.
        -12    1    4    4    0    0  0.42927518181E+01  0.59856673820E+01 -0.11962536362E+02  0.14048423698E+02  0.00000000000E+00 0.  1.
</event>
<event>
 8    1  0.1021894E-011  0.9118800E+02  0.7816164E-02  0.1184000E+00
        -11   -1    0    0    0    0  0.00000000000E+00  0.00000000000E+00  0.45593999997E+02  0.45594000000E+02  0.51100000000E-03 0. -1.
         11   -1    0    0    0    0 -0.00000000000E+00 -0.00000000000E+00 -0.45593999997E+02  0.45594000000E+02  0.51100000000E-03 0.  1.
         23    2    1    2    0    0  0.00000000000E+00  0.00000000000E+00  0.00000000000E+00  0.91188000000E+02  0.91188000000E+02 0.  0.
    9900012    2    3    3    0    0  0.19047957007E+02  0.31853575935E+02  0.16603921232E+02  0.50528866140E+02  0.30000019118E+02 0.  0.
        -12    1    3    3    0    0 -0.19047957007E+02 -0.31853575935E+02 -0.16603921232E+02  0.40659133860E+02  0.00000000000E+00 0.  1.
         11    1    4    4    0    0  0.81512022846E+01 -0.31248550891E+00  0.12892272565E+02  0.15256160658E+02  0.51100000000E-03 0. -1.
        -11    1    4    4    0    0  0.39306582120E+01  0.20722749403E+02  0.53929160078E+01  0.21770759292E+02  0.51100000000E-03 0.  1.
         12    1    4    4    0    0  0.69660965101E+01  0.11443312041E+02 -0.16812673402E+01  0.13501946190E+02  0.00000000000E+00 0. -1.
</event>
<event>
 8    1  0.1021894E-011  0.9118800E+02  0.7816164E-02  0.1184000E+00
        -11   -1    0    0    0    0  0.00000000000E+00  0.00000000000E+00  0.45593999997E+02  0.45594000000E+02  0.51100000000E-03 0.  1.
         11   -1    0    0    0    0 -0.00000000000E+00 -0.00000000000E+00 -0.45593999997E+02  0.45594000000E+02  0.51100000000E-03 0. -1.
         23    2    1    2    0    0  0.00000000000E+00  0.00000000000E+00 -0.35527136788E-14  0.91188000000E+02  0.91188000000E+02 0.  0.
    9900012    2    3    3    0    0 -0.24623730657E+02  0.21662591756E+02  0.24032673174E+02  0.50528863598E+02  0.30000011392E+02 0.  0.
        -12    1    3    3    0    0  0.24623730657E+02 -0.21662591756E+02 -0.24032673174E+02  0.40659136402E+02  0.00000000000E+00 0.  1.
         11    1    4    4    0    0 -0.23046111187E+02  0.13797906531E+02  0.27552104149E+02  0.38478876137E+02  0.51100000000E-03 0. -1.
        -11    1    4    4    0    0  0.32950259756E+01  0.45419331063E+01 -0.14031266679E+01  0.57840398710E+01  0.51100000000E-03 0.  1.
         12    1    4    4    0    0 -0.48726454457E+01  0.33227521186E+01 -0.21163043066E+01  0.62659475899E+01  0.00000000000E+00 0. -1.
</event>
<event>
 8    1  0.1021894E-011  0.9118800E+02  0.7816164E-02  0.1184000E+00
        -11   -1    0    0    0    0  0.00000000000E+00  0.00000000000E+00  0.45593999997E+02  0.45594000000E+02  0.51100000000E-03 0.  1.
         11   -1    0    0    0    0 -0.00000000000E+00 -0.00000000000E+00 -0.45593999997E+02  0.45594000000E+02  0.51100000000E-03 0. -1.
         23    2    1    2    0    0  0.17763568394E-14 -0.35527136788E-14  0.71054273576E-14  0.91188000000E+02  0.91188000000E+02 0.  0.
    9900012    2    3    3    0    0  0.13981214637E+02 -0.27947072870E+02  0.26012589858E+02  0.50528830360E+02  0.29999910362E+02 0.  0.
        -12    1    3    3    0    0 -0.13981214637E+02  0.27947072870E+02 -0.26012589858E+02  0.40659169640E+02  0.00000000000E+00 0.  1.
         11    1    4    4    0    0  0.32613249984E+01 -0.25659735159E+02  0.14507302778E+02  0.29656703851E+02  0.51100000000E-03 0. -1.
        -11    1    4    4    0    0  0.15836716277E+01  0.50348921118E+01  0.58185635303E+01  0.78558154394E+01  0.51100000000E-03 0.  1.
        -12    1    4    4    0    0  0.91362180111E+01 -0.73222298227E+01  0.56867235491E+01  0.13016311069E+02  0.00000000000E+00 0.  1.
</event>
<event>
 8    1  0.1021894E-011  0.9118800E+02  0.7816164E-02  0.1184000E+00
        -11   -1    0    0    0    0  0.00000000000E+00  0.00000000000E+00  0.45593999997E+02  0.45594000000E+02  0.51100000000E-03 0. -1.
         11   -1    0    0    0    0 -0.00000000000E+00 -0.00000000000E+00 -0.45593999997E+02  0.45594000000E+02  0.51100000000E-03 0.  1.
         23    2    1    2    0    0  0.44408920985E-15 -0.35527136788E-14  0.35527136788E-14  0.91188000000E+02  0.91188000000E+02 0.  0.
    9900012    2    3    3    0    0  0.17711752872E+01  0.28929243361E+02 -0.28515401313E+02  0.50528852254E+02  0.29999976912E+02 0.  0.
         12    1    3    3    0    0 -0.17711752872E+01 -0.28929243361E+02  0.28515401313E+02  0.40659147746E+02  0.00000000000E+00 0. -1.
         11    1    4    4    0    0  0.79445291481E+01  0.56900657531E+01  0.29436798085E+01  0.10205765172E+02  0.51100000000E-03 0. -1.
        -11    1    4    4    0    0 -0.57035131062E+01  0.19689779230E+02 -0.30255117339E+02  0.36545719220E+02  0.51100000000E-03 0.  1.
        -12    1    4    4    0    0 -0.46984075467E+00  0.35493983775E+01 -0.12039637830E+01  0.37773678624E+01  0.00000000000E+00 0.  1.
</event>
<event>
 8    1  0.1021894E-011  0.9118800E+02  0.7816164E-02  0.1184000E+00
        -11   -1    0    0    0    0  0.00000000000E+00  0.00000000000E+00  0.45593999997E+02  0.45594000000E+02  0.51100000000E-03 0. -1.
         11   -1    0    0    0    0 -0.00000000000E+00 -0.00000000000E+00 -0.45593999997E+02  0.45594000000E+02  0.51100000000E-03 0.  1.
         23    2    1    2    0    0  0.00000000000E+00  0.00000000000E+00  0.17763568394E-14  0.91188000000E+02  0.91188000000E+02 0.  0.
    9900012    2    3    3    0    0  0.27995750251E+02 -0.25632600130E+02 -0.14573016063E+02  0.50528867955E+02  0.30000024635E+02 0.  0.
         12    1    3    3    0    0 -0.27995750251E+02  0.25632600130E+02  0.14573016063E+02  0.40659132045E+02  0.00000000000E+00 0. -1.
         11    1    4    4    0    0  0.18361927916E+02 -0.11479039266E+00 -0.19996320632E+01  0.18470844655E+02  0.51100000000E-03 0. -1.
        -11    1    4    4    0    0  0.22425898190E+01 -0.15162886302E+02 -0.11742377870E+02  0.19308696704E+02  0.51100000000E-03 0.  1.
         12    1    4    4    0    0  0.73912325154E+01 -0.10354923435E+02 -0.83100613008E+00  0.12749326595E+02  0.00000000000E+00 0. -1.
</event>
<event>
 8    1  0.1021894E-011  0.9118800E+02  0.7816164E-02  0.1184000E+00
        -11   -1    0    0    0    0  0.00000000000E+00  0.00000000000E+00  0.45593999997E+02  0.45594000000E+02  0.51100000000E-03 0. -1.
         11   -1    0    0    0    0 -0.00000000000E+00 -0.00000000000E+00 -0.45593999997E+02  0.45594000000E+02  0.51100000000E-03 0.  1.
         23    2    1    2    0    0  0.88817841970E-15  0.00000000000E+00  0.71054273576E-14  0.91188000000E+02  0.91188000000E+02 0.  0.
    9900012    2    3    3    0    0  0.51278835019E+01 -0.25517600366E+02  0.31236556701E+02  0.50528860902E+02  0.30000003199E+02 0.  0.
        -12    1    3    3    0    0 -0.51278835019E+01  0.25517600366E+02 -0.31236556701E+02  0.40659139098E+02  0.00000000000E+00 0.  1.
         11    1    4    4    0    0  0.75761115480E+01  0.28893446620E+01  0.37678071807E+01  0.89410374105E+01  0.51100000000E-03 0. -1.
        -11    1    4    4    0    0 -0.33898287133E+01 -0.10314200771E+02  0.18310784146E+02  0.21287519643E+02  0.51100000000E-03 0.  1.
         12    1    4    4    0    0  0.94160066710E+00 -0.18092744257E+02  0.91579653741E+01  0.20300303849E+02  0.00000000000E+00 0. -1.
</event>
<event>
 8    1  0.1021894E-011  0.9118800E+02  0.7816164E-02  0.1184000E+00
        -11   -1    0    0    0    0  0.00000000000E+00  0.00000000000E+00  0.45593999997E+02  0.45594000000E+02  0.51100000000E-03 0. -1.
         11   -1    0    0    0    0 -0.00000000000E+00 -0.00000000000E+00 -0.45593999997E+02  0.45594000000E+02  0.51100000000E-03 0.  1.
         23    2    1    2    0    0 -0.71054273576E-14 -0.71054273576E-14  0.17763568394E-14  0.91188000000E+02  0.91188000000E+02 0.  0.
    9900012    2    3    3    0    0  0.28423911688E+02  0.26837887262E+02 -0.11179173909E+02  0.50528869690E+02  0.30000029909E+02 0.  0.
         12    1    3    3    0    0 -0.28423911688E+02 -0.26837887262E+02  0.11179173909E+02  0.40659130310E+02  0.00000000000E+00 0. -1.
         11    1    4    4    0    0  0.22380676845E+02  0.13657273142E+02 -0.25725218990E+01  0.26344518878E+02  0.51100000000E-03 0. -1.
        -11    1    4    4    0    0 -0.56041673621E-01 -0.34893864580E+01 -0.49570307053E+01  0.60622695582E+01  0.51100000000E-03 0.  1.
        -12    1    4    4    0    0  0.60992765159E+01  0.16670000578E+02 -0.36496213048E+01  0.18122081254E+02  0.00000000000E+00 0.  1.
</event>
<event>
 8    1  0.1021894E-011  0.9118800E+02  0.7816164E-02  0.1184000E+00
        -11   -1    0    0    0    0  0.00000000000E+00  0.00000000000E+00  0.45593999997E+02  0.45594000000E+02  0.51100000000E-03 0. -1.
         11   -1    0    0    0    0 -0.00000000000E+00 -0.00000000000E+00 -0.45593999997E+02  0.45594000000E+02  0.51100000000E-03 0.  1.
         23    2    1    2    0    0  0.00000000000E+00  0.00000000000E+00  0.00000000000E+00  0.91188000000E+02  0.91188000000E+02 0.  0.
    9900012    2    3    3    0    0 -0.16784204098E+02 -0.21245167604E+02 -0.30333138029E+02  0.50528856915E+02  0.29999991079E+02 0.  0.
         12    1    3    3    0    0  0.16784204098E+02  0.21245167604E+02  0.30333138029E+02  0.40659143085E+02  0.00000000000E+00 0. -1.
         11    1    4    4    0    0  0.29353850306E+01  0.93579460405E+00 -0.41660729164E+01  0.51815403718E+01  0.51100000000E-03 0. -1.
        -11    1    4    4    0    0 -0.14481594301E+02 -0.10457265489E+02 -0.19914779233E+01  0.17973228969E+02  0.51100000000E-03 0.  1.
        -12    1    4    4    0    0 -0.52379948272E+01 -0.11723696719E+02 -0.24175587189E+02  0.27374087574E+02  0.00000000000E+00 0.  1.
</event>
<event>
 8    1  0.1021894E-011  0.9118800E+02  0.7816164E-02  0.1184000E+00
        -11   -1    0    0    0    0  0.00000000000E+00  0.00000000000E+00  0.45593999997E+02  0.45594000000E+02  0.51100000000E-03 0. -1.
         11   -1    0    0    0    0 -0.00000000000E+00 -0.00000000000E+00 -0.45593999997E+02  0.45594000000E+02  0.51100000000E-03 0.  1.
         23    2    1    2    0    0  0.00000000000E+00  0.00000000000E+00  0.00000000000E+00  0.91188000000E+02  0.91188000000E+02 0.  0.
    9900012    2    3    3    0    0  0.77363447256E+01 -0.37958541607E+02 -0.12347828005E+02  0.50528797264E+02  0.29999809764E+02 0.  0.
         12    1    3    3    0    0 -0.77363447256E+01  0.37958541607E+02  0.12347828005E+02  0.40659202736E+02  0.00000000000E+00 0. -1.
         11    1    4    4    0    0  0.60123075017E+01 -0.41682679196E+01  0.37686496015E+01  0.82295211905E+01  0.51100000000E-03 0. -1.
        -11    1    4    4    0    0  0.46533977724E+01 -0.12600328790E+02 -0.16022025713E+02  0.20907599208E+02  0.51100000000E-03 0.  1.
        -12    1    4    4    0    0 -0.29293605485E+01 -0.21189944897E+02 -0.94451893886E-01  0.21391676866E+02  0.00000000000E+00 0.  1.
</event>
<event>
 8    1  0.1021894E-011  0.9118800E+02  0.7816164E-02  0.1184000E+00
        -11   -1    0    0    0    0  0.00000000000E+00  0.00000000000E+00  0.45593999997E+02  0.45594000000E+02  0.51100000000E-03 0. -1.
         11   -1    0    0    0    0 -0.00000000000E+00 -0.00000000000E+00 -0.45593999997E+02  0.45594000000E+02  0.51100000000E-03 0.  1.
         23    2    1    2    0    0  0.00000000000E+00  0.00000000000E+00  0.00000000000E+00  0.91188000000E+02  0.91188000000E+02 0.  0.
    9900012    2    3    3    0    0 -0.19622286184E+02 -0.27467945886E+02 -0.22663702645E+02  0.50528861004E+02  0.30000003509E+02 0.  0.
         12    1    3    3    0    0  0.19622286184E+02  0.27467945886E+02  0.22663702645E+02  0.40659138996E+02  0.00000000000E+00 0. -1.
         11    1    4    4    0    0 -0.15294716862E+02 -0.15023376294E+02 -0.22261166885E+02  0.30906144220E+02  0.51100000000E-03 0. -1.
        -11    1    4    4    0    0 -0.79715900927E+01 -0.13574395512E+02 -0.93927011241E+00  0.15769993365E+02  0.51100000000E-03 0.  1.
         12    1    4    4    0    0  0.36440207705E+01  0.11298259202E+01  0.53673435238E+00  0.38527234200E+01  0.00000000000E+00 0. -1.
</event>
<event>
 8    1  0.1021894E-011  0.9118800E+02  0.7816164E-02  0.1184000E+00
        -11   -1    0    0    0    0  0.00000000000E+00  0.00000000000E+00  0.45593999997E+02  0.45594000000E+02  0.51100000000E-03 0. -1.
         11   -1    0    0    0    0 -0.00000000000E+00 -0.00000000000E+00 -0.45593999997E+02  0.45594000000E+02  0.51100000000E-03 0.  1.
         23    2    1    2    0    0  0.00000000000E+00 -0.35527136788E-14 -0.35527136788E-14  0.91188000000E+02  0.91188000000E+02 0.  0.
    9900012    2    3    3    0    0 -0.23822942303E+02  0.25849375555E+02  0.20431434796E+02  0.50528851897E+02  0.29999975828E+02 0.  0.
        -12    1    3    3    0    0  0.23822942303E+02 -0.25849375555E+02 -0.20431434796E+02  0.40659148103E+02  0.00000000000E+00 0.  1.
         11    1    4    4    0    0 -0.11985272175E+02  0.17598581067E+02  0.20129253661E+02  0.29300915650E+02  0.51100000000E-03 0. -1.
        -11    1    4    4    0    0 -0.13893349516E+02  0.53293658536E+01 -0.42179373240E+01  0.15466683442E+02  0.51100000000E-03 0.  1.
        -12    1    4    4    0    0  0.20556793873E+01  0.29214286348E+01  0.45201184589E+01  0.57612528059E+01  0.00000000000E+00 0.  1.
</event>
<event>
 8    1  0.1021894E-011  0.9118800E+02  0.7816164E-02  0.1184000E+00
        -11   -1    0    0    0    0  0.00000000000E+00  0.00000000000E+00  0.45593999997E+02  0.45594000000E+02  0.51100000000E-03 0. -1.
         11   -1    0    0    0    0 -0.00000000000E+00 -0.00000000000E+00 -0.45593999997E+02  0.45594000000E+02  0.51100000000E-03 0.  1.
         23    2    1    2    0    0  0.17763568394E-14  0.17763568394E-14  0.71054273576E-14  0.91188000000E+02  0.91188000000E+02 0.  0.
    9900012    2    3    3    0    0 -0.56806931232E+01  0.12754856203E+02  0.38186509715E+02  0.50528853977E+02  0.29999982148E+02 0.  0.
        -12    1    3    3    0    0  0.56806931232E+01 -0.12754856203E+02 -0.38186509715E+02  0.40659146023E+02  0.00000000000E+00 0.  1.
         11    1    4    4    0    0 -0.10859686965E+02  0.18129703092E+01  0.23538186571E+02  0.25985878658E+02  0.51100000000E-03 0. -1.
        -11    1    4    4    0    0  0.87577799910E+01  0.46859743113E+01  0.14190397838E+02  0.17321214064E+02  0.51100000000E-03 0.  1.
        -12    1    4    4    0    0 -0.35787861487E+01  0.62559115823E+01  0.45792530612E+00  0.72217612540E+01  0.00000000000E+00 0.  1.
</event>
<event>
 8    1  0.1021894E-011  0.9118800E+02  0.7816164E-02  0.1184000E+00
        -11   -1    0    0    0    0  0.00000000000E+00  0.00000000000E+00  0.45593999997E+02  0.45594000000E+02  0.51100000000E-03 0. -1.
         11   -1    0    0    0    0 -0.00000000000E+00 -0.00000000000E+00 -0.45593999997E+02  0.45594000000E+02  0.51100000000E-03 0.  1.
         23    2    1    2    0    0  0.88817841970E-15  0.00000000000E+00  0.00000000000E+00  0.91188000000E+02  0.91188000000E+02 0.  0.
    9900012    2    3    3    0    0  0.38709048013E+01  0.36422572625E+02 -0.17651570686E+02  0.50528860212E+02  0.30000001100E+02 0.  0.
         12    1    3    3    0    0 -0.38709048013E+01 -0.36422572625E+02  0.17651570686E+02  0.40659139788E+02  0.00000000000E+00 0. -1.
         11    1    4    4    0    0 -0.94070883462E+00  0.31514168381E+00  0.13182186128E+01  0.16498327081E+01  0.51100000000E-03 0. -1.
        -11    1    4    4    0    0  0.10061300626E+02  0.30795637627E+02 -0.23608953093E+02  0.40087201618E+02  0.51100000000E-03 0.  1.
        -12    1    4    4    0    0 -0.52496869897E+01  0.53117933143E+01  0.46391637942E+01  0.87918258862E+01  0.00000000000E+00 0.  1.
</event>
<event>
 8    1  0.1021894E-011  0.9118800E+02  0.7816164E-02  0.1184000E+00
        -11   -1    0    0    0    0  0.00000000000E+00  0.00000000000E+00  0.45593999997E+02  0.45594000000E+02  0.51100000000E-03 0.  1.
         11   -1    0    0    0    0 -0.00000000000E+00 -0.00000000000E+00 -0.45593999997E+02  0.45594000000E+02  0.51100000000E-03 0. -1.
         23    2    1    2    0    0  0.00000000000E+00  0.35527136788E-14  0.17763568394E-14  0.91188000000E+02  0.91188000000E+02 0.  0.
    9900012    2    3    3    0    0 -0.22093197384E+02 -0.31341050955E+02 -0.13520165080E+02  0.50528859461E+02  0.29999998816E+02 0.  0.
         12    1    3    3    0    0  0.22093197384E+02  0.31341050955E+02  0.13520165080E+02  0.40659140539E+02  0.00000000000E+00 0. -1.
         11    1    4    4    0    0 -0.18942157947E+01  0.16561713171E+01  0.46015532672E+01  0.52445447505E+01  0.51100000000E-03 0. -1.
        -11    1    4    4    0    0 -0.38754103196E+01 -0.63384138018E+01 -0.10917407527E+02  0.13205456525E+02  0.51100000000E-03 0.  1.
        -12    1    4    4    0    0 -0.16323571270E+02 -0.26658808470E+02 -0.72043108203E+01  0.32078858185E+02  0.00000000000E+00 0.  1.
</event>
<event>
 8    1  0.1021894E-011  0.9118800E+02  0.7816164E-02  0.1184000E+00
        -11   -1    0    0    0    0  0.00000000000E+00  0.00000000000E+00  0.45593999997E+02  0.45594000000E+02  0.51100000000E-03 0. -1.
         11   -1    0    0    0    0 -0.00000000000E+00 -0.00000000000E+00 -0.45593999997E+02  0.45594000000E+02  0.51100000000E-03 0.  1.
         23    2    1    2    0    0  0.00000000000E+00  0.88817841970E-15  0.00000000000E+00  0.91188000000E+02  0.91188000000E+02 0.  0.
    9900012    2    3    3    0    0  0.16931550217E+02 -0.65212924522E+01  0.36386255466E+02  0.50528877594E+02  0.30000053933E+02 0.  0.
        -12    1    3    3    0    0 -0.16931550217E+02  0.65212924522E+01 -0.36386255466E+02  0.40659122406E+02  0.00000000000E+00 0.  1.
         11    1    4    4    0    0  0.22854656853E+02 -0.42450245055E+01  0.31372656174E+02  0.39046115410E+02  0.51100000000E-03 0. -1.
        -11    1    4    4    0    0 -0.63297425244E+01  0.14345977272E+01  0.23743779717E+01  0.69109610097E+01  0.51100000000E-03 0.  1.
         12    1    4    4    0    0  0.40663588857E+00 -0.37108656739E+01  0.26392213204E+01  0.45718011739E+01  0.00000000000E+00 0. -1.
</event>
<event>
 8    1  0.1021894E-011  0.9118800E+02  0.7816164E-02  0.1184000E+00
        -11   -1    0    0    0    0  0.00000000000E+00  0.00000000000E+00  0.45593999997E+02  0.45594000000E+02  0.51100000000E-03 0. -1.
         11   -1    0    0    0    0 -0.00000000000E+00 -0.00000000000E+00 -0.45593999997E+02  0.45594000000E+02  0.51100000000E-03 0.  1.
         23    2    1    2    0    0  0.00000000000E+00  0.00000000000E+00  0.00000000000E+00  0.91188000000E+02  0.91188000000E+02 0.  0.
    9900012    2    3    3    0    0 -0.37988717779E+02 -0.11294135728E+02  0.90811417753E+01  0.50528839700E+02  0.29999938752E+02 0.  0.
         12    1    3    3    0    0  0.37988717779E+02  0.11294135728E+02 -0.90811417753E+01  0.40659160300E+02  0.00000000000E+00 0. -1.
         11    1    4    4    0    0 -0.31386938515E+02 -0.60017424942E+01  0.34855053753E+01  0.32145132917E+02  0.51100000000E-03 0. -1.
        -11    1    4    4    0    0  0.35599621358E+01 -0.63146790532E+01  0.16459919758E+01  0.74335584883E+01  0.51100000000E-03 0.  1.
        -12    1    4    4    0    0 -0.10161741400E+02  0.10222858195E+01  0.39496444242E+01  0.10950148294E+02  0.00000000000E+00 0.  1.
</event>
<event>
 8    1  0.1021894E-011  0.9118800E+02  0.7816164E-02  0.1184000E+00
        -11   -1    0    0    0    0  0.00000000000E+00  0.00000000000E+00  0.45593999997E+02  0.45594000000E+02  0.51100000000E-03 0. -1.
         11   -1    0    0    0    0 -0.00000000000E+00 -0.00000000000E+00 -0.45593999997E+02  0.45594000000E+02  0.51100000000E-03 0.  1.
         23    2    1    2    0    0  0.13322676296E-14  0.00000000000E+00  0.00000000000E+00  0.91188000000E+02  0.91188000000E+02 0.  0.
    9900012    2    3    3    0    0  0.18714778269E+01  0.74921426068E+01  0.39919052603E+02  0.50528863378E+02  0.30000010725E+02 0.  0.
        -12    1    3    3    0    0 -0.18714778269E+01 -0.74921426068E+01 -0.39919052603E+02  0.40659136622E+02  0.00000000000E+00 0.  1.
         11    1    4    4    0    0 -0.10535043423E+02  0.35063344113E+01  0.16822177349E+02  0.20156070350E+02  0.51100000000E-03 0. -1.
        -11    1    4    4    0    0  0.15409097048E+02  0.98022315633E+00  0.18839005586E+02  0.24357939999E+02  0.51100000000E-03 0.  1.
        -12    1    4    4    0    0 -0.30025757986E+01  0.30055850392E+01  0.42578696685E+01  0.60148530297E+01  0.00000000000E+00 0.  1.
</event>
<event>
 8    1  0.1021894E-011  0.9118800E+02  0.7816164E-02  0.1184000E+00
        -11   -1    0    0    0    0  0.00000000000E+00  0.00000000000E+00  0.45593999997E+02  0.45594000000E+02  0.51100000000E-03 0. -1.
         11   -1    0    0    0    0 -0.00000000000E+00 -0.00000000000E+00 -0.45593999997E+02  0.45594000000E+02  0.51100000000E-03 0.  1.
         23    2    1    2    0    0  0.35527136788E-14  0.35527136788E-14 -0.71054273576E-14  0.91188000000E+02  0.91188000000E+02 0.  0.
    9900012    2    3    3    0    0 -0.15862795239E+02 -0.18510191870E+02  0.32540902513E+02  0.50528858196E+02  0.29999994974E+02 0.  0.
        -12    1    3    3    0    0  0.15862795239E+02  0.18510191870E+02 -0.32540902513E+02  0.40659141804E+02  0.00000000000E+00 0.  1.
         11    1    4    4    0    0  0.22276310217E+01 -0.16506105376E+02  0.55692741422E+01  0.17562194322E+02  0.51100000000E-03 0. -1.
        -11    1    4    4    0    0 -0.70249602410E+01 -0.32719168506E+01  0.97050195053E+01  0.12419456917E+02  0.51100000000E-03 0.  1.
         12    1    4    4    0    0 -0.11065466020E+02  0.12678303569E+01  0.17266608865E+02  0.20547206957E+02  0.00000000000E+00 0. -1.
</event>
<event>
 8    1  0.1021894E-011  0.9118800E+02  0.7816164E-02  0.1184000E+00
        -11   -1    0    0    0    0  0.00000000000E+00  0.00000000000E+00  0.45593999997E+02  0.45594000000E+02  0.51100000000E-03 0. -1.
         11   -1    0    0    0    0 -0.00000000000E+00 -0.00000000000E+00 -0.45593999997E+02  0.45594000000E+02  0.51100000000E-03 0.  1.
         23    2    1    2    0    0  0.00000000000E+00  0.44408920985E-15  0.00000000000E+00  0.91188000000E+02  0.91188000000E+02 0.  0.
    9900012    2    3    3    0    0 -0.14006022509E+01  0.35674845508E+01 -0.40478104197E+02  0.50528861396E+02  0.30000004699E+02 0.  0.
         12    1    3    3    0    0  0.14006022509E+01 -0.35674845508E+01  0.40478104197E+02  0.40659138604E+02  0.00000000000E+00 0. -1.
         11    1    4    4    0    0 -0.62972844575E+01 -0.16103350559E+01 -0.22149098720E+02  0.23083144172E+02  0.51100000000E-03 0.  1.
        -11    1    4    4    0    0  0.38726154898E+00  0.11594134943E+02 -0.66307164257E+01  0.13361898711E+02  0.51100000000E-03 0. -1.
        -12    1    4    4    0    0  0.45094206576E+01 -0.64163153364E+01 -0.11698289051E+02  0.14083818512E+02  0.00000000000E+00 0.  1.
</event>
<event>
 8    1  0.1021894E-011  0.9118800E+02  0.7816164E-02  0.1184000E+00
        -11   -1    0    0    0    0  0.00000000000E+00  0.00000000000E+00  0.45593999997E+02  0.45594000000E+02  0.51100000000E-03 0. -1.
         11   -1    0    0    0    0 -0.00000000000E+00 -0.00000000000E+00 -0.45593999997E+02  0.45594000000E+02  0.51100000000E-03 0.  1.
         23    2    1    2    0    0 -0.44408920985E-15 -0.17763568394E-14  0.00000000000E+00  0.91188000000E+02  0.91188000000E+02 0.  0.
    9900012    2    3    3    0    0 -0.26720088362E+01 -0.96430197043E+01  0.39408603026E+02  0.50528862618E+02  0.30000008413E+02 0.  0.
        -12    1    3    3    0    0  0.26720088362E+01  0.96430197043E+01 -0.39408603026E+02  0.40659137382E+02  0.00000000000E+00 0.  1.
         11    1    4    4    0    0  0.62599542297E+01 -0.95233918691E+00  0.11644967830E+02  0.13255159483E+02  0.51100000000E-03 0. -1.
        -11    1    4    4    0    0 -0.11329197796E+02 -0.11019153912E+02  0.89437135108E+01  0.18159363625E+02  0.51100000000E-03 0.  1.
        -12    1    4    4    0    0  0.23972347302E+01  0.23284733943E+01  0.18819921684E+02  0.19114339510E+02  0.00000000000E+00 0.  1.
</event>
<event>
 8    1  0.1021894E-011  0.9118800E+02  0.7816164E-02  0.1184000E+00
        -11   -1    0    0    0    0  0.00000000000E+00  0.00000000000E+00  0.45593999997E+02  0.45594000000E+02  0.51100000000E-03 0. -1.
         11   -1    0    0    0    0 -0.00000000000E+00 -0.00000000000E+00 -0.45593999997E+02  0.45594000000E+02  0.51100000000E-03 0.  1.
         23    2    1    2    0    0 -0.35527136788E-14  0.66613381478E-15  0.35527136788E-14  0.91188000000E+02  0.91188000000E+02 0.  0.
    9900012    2    3    3    0    0 -0.26471835916E+02 -0.11773021216E+01  0.30838561026E+02  0.50528917580E+02  0.30000175477E+02 0.  0.
        -12    1    3    3    0    0  0.26471835916E+02  0.11773021216E+01 -0.30838561026E+02  0.40659082420E+02  0.00000000000E+00 0.  1.
         11    1    4    4    0    0 -0.19403451107E+01 -0.93365083267E+01  0.47836387508E+01  0.10668576608E+02  0.51100000000E-03 0.  1.
        -11    1    4    4    0    0 -0.22349705067E+02  0.10719778665E+02  0.26702940581E+02  0.36434461807E+02  0.51100000000E-03 0. -1.
         12    1    4    4    0    0 -0.21817857386E+01 -0.25605724597E+01 -0.64801830626E+00  0.34258791654E+01  0.00000000000E+00 0. -1.
</event>
<event>
 8    1  0.1021894E-011  0.9118800E+02  0.7816164E-02  0.1184000E+00
        -11   -1    0    0    0    0  0.00000000000E+00  0.00000000000E+00  0.45593999997E+02  0.45594000000E+02  0.51100000000E-03 0. -1.
         11   -1    0    0    0    0 -0.00000000000E+00 -0.00000000000E+00 -0.45593999997E+02  0.45594000000E+02  0.51100000000E-03 0.  1.
         23    2    1    2    0    0  0.71054273576E-14 -0.88817841970E-15  0.35527136788E-14  0.91188000000E+02  0.91188000000E+02 0.  0.
    9900012    2    3    3    0    0 -0.34392462413E+02  0.20935761081E+01 -0.21585670903E+02  0.50528859329E+02  0.29999998418E+02 0.  0.
         12    1    3    3    0    0  0.34392462413E+02 -0.20935761081E+01  0.21585670903E+02  0.40659140671E+02  0.00000000000E+00 0. -1.
         11    1    4    4    0    0 -0.28685325949E+02  0.71532217163E+01 -0.46706619212E+01  0.29930445850E+02  0.51100000000E-03 0. -1.
        -11    1    4    4    0    0  0.24242089881E+01 -0.16069377696E+01 -0.37899984189E+01  0.47773555959E+01  0.51100000000E-03 0.  1.
         12    1    4    4    0    0 -0.81313454514E+01 -0.34527078387E+01 -0.13125010563E+02  0.15821057884E+02  0.00000000000E+00 0. -1.
</event>
