<event>
 7    1  0.2891523E-011  0.5052886E+02  0.7816164E-02  0.1300439E+00
        -11   -1    0    0    0    0  0.00000000000E+00  0.00000000000E+00  0.45593999997E+02  0.45594000000E+02  0.51100000000E-03 0.  1.
         11   -1    0    0    0    0 -0.00000000000E+00 -0.00000000000E+00 -0.45593999997E+02  0.45594000000E+02  0.51100000000E-03 0. -1.
    9900012    2    1    2    0    0  0.38401331794E+02 -0.13317395149E+02  0.10724990309E+01  0.50528861406E+02  0.30000004728E+02 0.  0.
         12    1    1    2    0    0 -0.38401331794E+02  0.13317395149E+02 -0.10724990309E+01  0.40659138594E+02  0.00000000000E+00 0. -1.
         11    1    3    3    0    0  0.22318816607E+02 -0.16735395698E+02  0.94475500895E+01  0.29452661117E+02  0.51100000000E-03 0. -1.
        -11    1    3    3    0    0  0.12050556133E+02  0.18789784539E+01 -0.63306202369E+00  0.12212584941E+02  0.51100000000E-03 0.  1.
         12    1    3    3    0    0  0.40319590536E+01  0.15390220956E+01 -0.77419890349E+01  0.88636153480E+01  0.00000000000E+00 0. -1.
</event>
<event>
 7    1  0.2891523E-011  0.5052886E+02  0.7816164E-02  0.1300439E+00
        -11   -1    0    0    0    0  0.00000000000E+00  0.00000000000E+00  0.45593999997E+02  0.45594000000E+02  0.51100000000E-03 0.  1.
         11   -1    0    0    0    0 -0.00000000000E+00 -0.00000000000E+00 -0.45593999997E+02  0.45594000000E+02  0.51100000000E-03 0. -1.
    9900012    2    1    2    0    0  0.47652022650E+01  0.31766703911E+02  0.24926599467E+02  0.50528855998E+02  0.29999988292E+02 0.  0.
         12    1    1    2    0    0 -0.47652022650E+01 -0.31766703911E+02 -0.24926599467E+02  0.40659144002E+02  0.00000000000E+00 0. -1.
         11    1    3    3    0    0  0.19624269462E+01  0.96186275410E+01  0.19477027848E+01  0.10008129780E+02  0.51100000000E-03 0. -1.
        -11    1    3    3    0    0 -0.70752995338E+01  0.18889051606E+01  0.14855520724E+02  0.16562437092E+02  0.51100000000E-03 0.  1.
        -12    1    3    3    0    0  0.98780748526E+01  0.20259171209E+02  0.81233759585E+01  0.23958289126E+02  0.00000000000E+00 0.  1.
</event>
<event>
 7    1  0.2891523E-011  0.5052886E+02  0.7816164E-02  0.1300439E+00
        -11   -1    0    0    0    0  0.00000000000E+00  0.00000000000E+00  0.45593999997E+02  0.45594000000E+02  0.51100000000E-03 0. -1.
         11   -1    0    0    0    0 -0.00000000000E+00 -0.00000000000E+00 -0.45593999997E+02  0.45594000000E+02  0.51100000000E-03 0.  1.
    9900012    2    1    2    0    0  0.23055964269E+02 -0.33477349340E+02  0.92497508628E+00  0.50528856058E+02  0.29999988473E+02 0.  0.
         12    1    1    2    0    0 -0.23055964269E+02  0.33477349340E+02 -0.92497508628E+00  0.40659143942E+02  0.00000000000E+00 0. -1.
         11    1    3    3    0    0  0.34464040746E+01 -0.17945875600E+01  0.26523641069E+01  0.47046021269E+01  0.51100000000E-03 0. -1.
        -11    1    3    3    0    0  0.98123452811E+01 -0.30149740126E+02 -0.96383201371E+01  0.33138892029E+02  0.51100000000E-03 0.  1.
        -12    1    3    3    0    0  0.97972149134E+01 -0.15330216543E+01  0.79109311165E+01  0.12685361902E+02  0.00000000000E+00 0.  1.
</event>
<event>
 7    1  0.2891523E-011  0.5052886E+02  0.7816164E-02  0.1300439E+00
        -11   -1    0    0    0    0  0.00000000000E+00  0.00000000000E+00  0.45593999997E+02  0.45594000000E+02  0.51100000000E-03 0.  1.
         11   -1    0    0    0    0 -0.00000000000E+00 -0.00000000000E+00 -0.45593999997E+02  0.45594000000E+02  0.51100000000E-03 0. -1.
    9900012    2    1    2    0    0  0.72017970737E+01 -0.15489295925E+02  0.36896899167E+02  0.50528864034E+02  0.30000012719E+02 0.  0.
         12    1    1    2    0    0 -0.72017970737E+01  0.15489295925E+02 -0.36896899167E+02  0.40659135966E+02  0.00000000000E+00 0. -1.
         11    1    3    3    0    0  0.89297446723E+01  0.95758131489E+00  0.31496572866E+01  0.95172287548E+01  0.51100000000E-03 0. -1.
        -11    1    3    3    0    0 -0.70425481218E+00 -0.15271655259E+02  0.12611229824E+02  0.19818237740E+02  0.51100000000E-03 0.  1.
        -12    1    3    3    0    0 -0.10236927863E+01 -0.11752219808E+01  0.21136012056E+02  0.21193397540E+02  0.00000000000E+00 0.  1.
</event>
<event>
 7    1  0.2891523E-011  0.5052886E+02  0.7816164E-02  0.1300439E+00
        -11   -1    0    0    0    0  0.00000000000E+00  0.00000000000E+00  0.45593999997E+02  0.45594000000E+02  0.51100000000E-03 0. -1.
         11   -1    0    0    0    0 -0.00000000000E+00 -0.00000000000E+00 -0.45593999997E+02  0.45594000000E+02  0.51100000000E-03 0.  1.
    9900012    2    1    2    0    0 -0.13586230909E+02  0.36808482922E+02 -0.10663759116E+02  0.50528857808E+02  0.29999993793E+02 0.  0.
         12    1    1    2    0    0  0.13586230909E+02 -0.36808482922E+02  0.10663759116E+02  0.40659142192E+02  0.00000000000E+00 0. -1.
         11    1    3    3    0    0 -0.15444537200E+02  0.89031246967E+01 -0.88377269238E+01  0.19897356009E+02  0.51100000000E-03 0. -1.
        -11    1    3    3    0    0  0.18396671503E+01  0.10014164928E+02 -0.65757300368E+01  0.12120565177E+02  0.51100000000E-03 0.  1.
         12    1    3    3    0    0  0.18639140828E-01  0.17891193297E+02  0.47496978451E+01  0.18510936622E+02  0.00000000000E+00 0. -1.
</event>
<event>
 7    1  0.2891523E-011  0.5052886E+02  0.7816164E-02  0.1300439E+00
        -11   -1    0    0    0    0  0.00000000000E+00  0.00000000000E+00  0.45593999997E+02  0.45594000000E+02  0.51100000000E-03 0.  1.
         11   -1    0    0    0    0 -0.00000000000E+00 -0.00000000000E+00 -0.45593999997E+02  0.45594000000E+02  0.51100000000E-03 0. -1.
    9900012    2    1    2    0    0  0.38341649051E+02 -0.36435417399E+00  0.13525925700E+02  0.50528862381E+02  0.30000007693E+02 0.  0.
         12    1    1    2    0    0 -0.38341649051E+02  0.36435417399E+00 -0.13525925700E+02  0.40659137619E+02  0.00000000000E+00 0. -1.
         11    1    3    3    0    0 -0.84317930214E+00 -0.60870618083E+01  0.57810338044E+00  0.61723153333E+01  0.51100000000E-03 0. -1.
        -11    1    3    3    0    0  0.17762427520E+02  0.80935588917E+01  0.11721557682E+02  0.22768496694E+02  0.51100000000E-03 0.  1.
         12    1    3    3    0    0  0.21422400833E+02 -0.23708512573E+01  0.12262646371E+01  0.21588050354E+02  0.00000000000E+00 0. -1.
</event>
<event>
 7    1  0.2891523E-011  0.5052880E+02  0.7816164E-02  0.1300439E+00
        -11   -1    0    0    0    0  0.00000000000E+00  0.00000000000E+00  0.45593999997E+02  0.45594000000E+02  0.51100000000E-03 0.  1.
         11   -1    0    0    0    0 -0.00000000000E+00 -0.00000000000E+00 -0.45593999997E+02  0.45594000000E+02  0.51100000000E-03 0. -1.
    9900012    2    1    2    0    0 -0.30566329094E+02  0.26811254583E+02 -0.16376716749E+00  0.50528798504E+02  0.29999813531E+02 0.  0.
         12    1    1    2    0    0  0.30566329094E+02 -0.26811254583E+02  0.16376716749E+00  0.40659201496E+02  0.00000000000E+00 0. -1.
         11    1    3    3    0    0 -0.17704485311E+02  0.12506442097E+02  0.12674356615E+02  0.25109743326E+02  0.51100000000E-03 0. -1.
        -11    1    3    3    0    0 -0.39547215148E+01  0.64857126455E-01 -0.62094058630E+01  0.73621158738E+01  0.51100000000E-03 0.  1.
        -12    1    3    3    0    0 -0.89071222683E+01  0.14239955360E+02 -0.66287179192E+01  0.18056939304E+02  0.00000000000E+00 0.  1.
</event>
<event>
 7    1  0.2891523E-011  0.5052886E+02  0.7816164E-02  0.1300439E+00
        -11   -1    0    0    0    0  0.00000000000E+00  0.00000000000E+00  0.45593999997E+02  0.45594000000E+02  0.51100000000E-03 0.  1.
         11   -1    0    0    0    0 -0.00000000000E+00 -0.00000000000E+00 -0.45593999997E+02  0.45594000000E+02  0.51100000000E-03 0. -1.
    9900012    2    1    2    0    0  0.37562479181E+02 -0.25292522163E+01 -0.15356709853E+02  0.50528862079E+02  0.30000006775E+02 0.  0.
         12    1    1    2    0    0 -0.37562479181E+02  0.25292522163E+01  0.15356709853E+02  0.40659137921E+02  0.00000000000E+00 0. -1.
         11    1    3    3    0    0  0.18160294038E+02 -0.78967404860E+01 -0.31176526249E+01  0.20046808924E+02  0.51100000000E-03 0. -1.
        -11    1    3    3    0    0  0.11762361313E+01  0.48834828838E+01 -0.11135835188E+02  0.12216331778E+02  0.51100000000E-03 0.  1.
        -12    1    3    3    0    0  0.18225949011E+02  0.48400538585E+00 -0.11032220404E+01  0.18265721377E+02  0.00000000000E+00 0.  1.
</event>
<event>
 7    1  0.2891523E-011  0.5052882E+02  0.7816164E-02  0.1300439E+00
        -11   -1    0    0    0    0  0.00000000000E+00  0.00000000000E+00  0.45593999997E+02  0.45594000000E+02  0.51100000000E-03 0. -1.
         11   -1    0    0    0    0 -0.00000000000E+00 -0.00000000000E+00 -0.45593999997E+02  0.45594000000E+02  0.51100000000E-03 0.  1.
    9900012    2    1    2    0    0 -0.36273355747E+02 -0.14528490392E+02 -0.11239923523E+02  0.50528815908E+02  0.29999866434E+02 0.  0.
         12    1    1    2    0    0  0.36273355747E+02  0.14528490392E+02  0.11239923523E+02  0.40659184092E+02  0.00000000000E+00 0. -1.
         11    1    3    3    0    0  0.25812781606E+01 -0.32743910215E-01 -0.56408006491E+01  0.62034426999E+01  0.51100000000E-03 0. -1.
        -11    1    3    3    0    0 -0.19045621801E+02 -0.70700065758E+01  0.46156173260E+01  0.20833257698E+02  0.51100000000E-03 0.  1.
         12    1    3    3    0    0 -0.19809012106E+02 -0.74257399063E+01 -0.10214740200E+02  0.23492115510E+02  0.00000000000E+00 0. -1.
</event>
<event>
 7    1  0.2891523E-011  0.5052886E+02  0.7816164E-02  0.1300439E+00
        -11   -1    0    0    0    0  0.00000000000E+00  0.00000000000E+00  0.45593999997E+02  0.45594000000E+02  0.51100000000E-03 0. -1.
         11   -1    0    0    0    0 -0.00000000000E+00 -0.00000000000E+00 -0.45593999997E+02  0.45594000000E+02  0.51100000000E-03 0.  1.
    9900012    2    1    2    0    0 -0.73055280845E+01  0.31114533193E+01 -0.39876233869E+02  0.50528856995E+02  0.29999991321E+02 0.  0.
         12    1    1    2    0    0  0.73055280845E+01 -0.31114533193E+01  0.39876233869E+02  0.40659143005E+02  0.00000000000E+00 0. -1.
         11    1    3    3    0    0 -0.36527943194E+01 -0.98108508066E+01 -0.23782415202E+02  0.25984591068E+02  0.51100000000E-03 0. -1.
        -11    1    3    3    0    0 -0.41503749827E+01  0.97985172269E+01 -0.17956960416E+02  0.20873164110E+02  0.51100000000E-03 0.  1.
         12    1    3    3    0    0  0.49764121761E+00  0.31237868990E+01  0.18631417484E+01  0.36711018165E+01  0.00000000000E+00 0. -1.
</event>
<event>
 7    1  0.2891523E-011  0.5052885E+02  0.7816164E-02  0.1300439E+00
        -11   -1    0    0    0    0  0.00000000000E+00  0.00000000000E+00  0.45593999997E+02  0.45594000000E+02  0.51100000000E-03 0. -1.
         11   -1    0    0    0    0 -0.00000000000E+00 -0.00000000000E+00 -0.45593999997E+02  0.45594000000E+02  0.51100000000E-03 0.  1.
    9900012    2    1    2    0    0 -0.27171338181E+02 -0.29581421271E+02 -0.63106408899E+01  0.50528852303E+02  0.29999977062E+02 0.  0.
         12    1    1    2    0    0  0.27171338181E+02  0.29581421271E+02  0.63106408899E+01  0.40659147697E+02  0.00000000000E+00 0. -1.
         11    1    3    3    0    0 -0.36198826015E+01 -0.36443690866E+01  0.36348146009E+01  0.62926030808E+01  0.51100000000E-03 0. -1.
        -11    1    3    3    0    0 -0.26755774040E+02 -0.25845101697E+02 -0.13384723747E+02  0.39534688012E+02  0.51100000000E-03 0.  1.
        -12    1    3    3    0    0  0.32043184597E+01 -0.91950487281E-01  0.34392682557E+01  0.47015612107E+01  0.00000000000E+00 0.  1.
</event>
<event>
 7    1  0.2891523E-011  0.5052886E+02  0.7816164E-02  0.1300439E+00
        -11   -1    0    0    0    0  0.00000000000E+00  0.00000000000E+00  0.45593999997E+02  0.45594000000E+02  0.51100000000E-03 0.  1.
         11   -1    0    0    0    0 -0.00000000000E+00 -0.00000000000E+00 -0.45593999997E+02  0.45594000000E+02  0.51100000000E-03 0. -1.
    9900012    2    1    2    0    0 -0.25905920023E+02 -0.19483470805E+02  0.24544728849E+02  0.50528855381E+02  0.29999986417E+02 0.  0.
         12    1    1    2    0    0  0.25905920023E+02  0.19483470805E+02 -0.24544728849E+02  0.40659144619E+02  0.00000000000E+00 0. -1.
         11    1    3    3    0    0 -0.33767214242E+01  0.24446011080E+01  0.46098780086E+01  0.62152471929E+01  0.51100000000E-03 0. -1.
        -11    1    3    3    0    0 -0.25902447630E+02 -0.14540786845E+02  0.20625512174E+02  0.36163282871E+02  0.51100000000E-03 0.  1.
        -12    1    3    3    0    0  0.33732490313E+01 -0.73872850683E+01 -0.69066133330E+00  0.81503253177E+01  0.00000000000E+00 0.  1.
</event>
<event>
 7    1  0.2891523E-011  0.5052886E+02  0.7816164E-02  0.1300439E+00
        -11   -1    0    0    0    0  0.00000000000E+00  0.00000000000E+00  0.45593999997E+02  0.45594000000E+02  0.51100000000E-03 0.  1.
         11   -1    0    0    0    0 -0.00000000000E+00 -0.00000000000E+00 -0.45593999997E+02  0.45594000000E+02  0.51100000000E-03 0. -1.
    9900012    2    1    2    0    0 -0.89291896617E+01  0.11439099243E+02  0.37981339814E+02  0.50528860885E+02  0.30000003147E+02 0.  0.
         12    1    1    2    0    0  0.89291896617E+01 -0.11439099243E+02 -0.37981339814E+02  0.40659139115E+02  0.00000000000E+00 0. -1.
         11    1    3    3    0    0 -0.98186671404E+01  0.42359585418E+01  0.22957733917E+01  0.10937099474E+02  0.51100000000E-03 0. -1.
        -11    1    3    3    0    0 -0.20870442878E+01  0.71910182809E+01  0.35837464227E+02  0.36611341689E+02  0.51100000000E-03 0.  1.
        -12    1    3    3    0    0  0.29765217665E+01  0.12122420224E-01 -0.15189780484E+00  0.29804197226E+01  0.00000000000E+00 0.  1.
</event>
<event>
 7    1  0.2891523E-011  0.5052887E+02  0.7816164E-02  0.1300439E+00
        -11   -1    0    0    0    0  0.00000000000E+00  0.00000000000E+00  0.45593999997E+02  0.45594000000E+02  0.51100000000E-03 0. -1.
         11   -1    0    0    0    0 -0.00000000000E+00 -0.00000000000E+00 -0.45593999997E+02  0.45594000000E+02  0.51100000000E-03 0.  1.
    9900012    2    1    2    0    0 -0.38696114271E+02  0.12453141812E+02  0.83373020050E+00  0.50528866872E+02  0.30000021343E+02 0.  0.
         12    1    1    2    0    0  0.38696114271E+02 -0.12453141812E+02 -0.83373020050E+00  0.40659133128E+02  0.00000000000E+00 0. -1.
         11    1    3    3    0    0  0.10567615039E+01  0.50642497491E+01  0.44742161714E+01  0.68397354486E+01  0.51100000000E-03 0. -1.
        -11    1    3    3    0    0 -0.24769475026E+02 -0.14675586261E+01  0.31381356319E+01  0.25010568104E+02  0.51100000000E-03 0.  1.
         12    1    3    3    0    0 -0.14983400750E+02  0.88564506892E+01 -0.67786216028E+01  0.18678563319E+02  0.00000000000E+00 0. -1.
</event>
<event>
 7    1  0.2891523E-011  0.5052886E+02  0.7816164E-02  0.1300439E+00
        -11   -1    0    0    0    0  0.00000000000E+00  0.00000000000E+00  0.45593999997E+02  0.45594000000E+02  0.51100000000E-03 0.  1.
         11   -1    0    0    0    0 -0.00000000000E+00 -0.00000000000E+00 -0.45593999997E+02  0.45594000000E+02  0.51100000000E-03 0. -1.
    9900012    2    1    2    0    0 -0.34838547639E+02 -0.15457997738E+02  0.14159497549E+02  0.50528862448E+02  0.30000007896E+02 0.  0.
         12    1    1    2    0    0  0.34838547639E+02  0.15457997738E+02 -0.14159497549E+02  0.40659137552E+02  0.00000000000E+00 0. -1.
         11    1    3    3    0    0 -0.17868087319E+02 -0.11145045414E+02  0.80144219238E+01  0.22532455276E+02  0.51100000000E-03 0. -1.
        -11    1    3    3    0    0 -0.65173611832E+01  0.68282866748E+01 -0.33415273743E+01  0.10013356139E+02  0.51100000000E-03 0.  1.
        -12    1    3    3    0    0 -0.10453099136E+02 -0.11141238999E+02  0.94866030000E+01  0.17983051033E+02  0.00000000000E+00 0.  1.
</event>
<event>
 7    1  0.2891523E-011  0.5052886E+02  0.7816164E-02  0.1300439E+00
        -11   -1    0    0    0    0  0.00000000000E+00  0.00000000000E+00  0.45593999997E+02  0.45594000000E+02  0.51100000000E-03 0.  1.
         11   -1    0    0    0    0 -0.00000000000E+00 -0.00000000000E+00 -0.45593999997E+02  0.45594000000E+02  0.51100000000E-03 0. -1.
    9900012    2    1    2    0    0 -0.11156125012E+02  0.43714423634E+00  0.39096231253E+02  0.50528861807E+02  0.30000005950E+02 0.  0.
         12    1    1    2    0    0  0.11156125012E+02 -0.43714423634E+00 -0.39096231253E+02  0.40659138193E+02  0.00000000000E+00 0. -1.
         11    1    3    3    0    0 -0.10511382153E+02  0.46055211772E+01  0.13565688676E+02  0.17768733483E+02  0.51100000000E-03 0. -1.
        -11    1    3    3    0    0  0.69261616848E+01 -0.87058858576E+01  0.10322332080E+02  0.15176122828E+02  0.51100000000E-03 0.  1.
        -12    1    3    3    0    0 -0.75709045441E+01  0.45375089168E+01  0.15208210497E+02  0.17584005497E+02  0.00000000000E+00 0.  1.
</event>
<event>
 7    1  0.2891523E-011  0.5052880E+02  0.7816164E-02  0.1300439E+00
        -11   -1    0    0    0    0  0.00000000000E+00  0.00000000000E+00  0.45593999997E+02  0.45594000000E+02  0.51100000000E-03 0.  1.
         11   -1    0    0    0    0 -0.00000000000E+00 -0.00000000000E+00 -0.45593999997E+02  0.45594000000E+02  0.51100000000E-03 0. -1.
    9900012    2    1    2    0    0 -0.25435532763E+02 -0.26764578757E+02  0.17025317002E+02  0.50528801508E+02  0.29999822664E+02 0.  0.
         12    1    1    2    0    0  0.25435532763E+02  0.26764578757E+02 -0.17025317002E+02  0.40659198492E+02  0.00000000000E+00 0. -1.
         11    1    3    3    0    0 -0.19705676492E+02 -0.24118656395E+01  0.18252008437E+01  0.19936452549E+02  0.51100000000E-03 0. -1.
        -11    1    3    3    0    0 -0.69677634692E+01 -0.17130252898E+02  0.13936418131E+02  0.23156403924E+02  0.51100000000E-03 0.  1.
         12    1    3    3    0    0  0.12379071985E+01 -0.72224602197E+01  0.12636980275E+01  0.74359450349E+01  0.00000000000E+00 0. -1.
</event>
<event>
 7    1  0.2891523E-011  0.5052888E+02  0.7816164E-02  0.1300439E+00
        -11   -1    0    0    0    0  0.00000000000E+00  0.00000000000E+00  0.45593999997E+02  0.45594000000E+02  0.51100000000E-03 0.  1.
         11   -1    0    0    0    0 -0.00000000000E+00 -0.00000000000E+00 -0.45593999997E+02  0.45594000000E+02  0.51100000000E-03 0. -1.
    9900012    2    1    2    0    0  0.23790095054E+02  0.17244866738E+00  0.32972193266E+02  0.50528881835E+02  0.30000066826E+02 0.  0.
         12    1    1    2    0    0 -0.23790095054E+02 -0.17244866738E+00 -0.32972193266E+02  0.40659118165E+02  0.00000000000E+00 0. -1.
         11    1    3    3    0    0  0.10502037478E+02  0.23326780767E+01  0.17246162377E+01  0.10895342107E+02  0.51100000000E-03 0. -1.
        -11    1    3    3    0    0  0.64190292783E+01 -0.80662577509E+01  0.28280985820E+02  0.30101206126E+02  0.51100000000E-03 0.  1.
        -12    1    3    3    0    0  0.68690282970E+01  0.59060283416E+01  0.29665912076E+01  0.95323336025E+01  0.00000000000E+00 0.  1.
</event>
<event>
 7    1  0.2891523E-011  0.5052886E+02  0.7816164E-02  0.1300439E+00
        -11   -1    0    0    0    0  0.00000000000E+00  0.00000000000E+00  0.45593999997E+02  0.45594000000E+02  0.51100000000E-03 0.  1.
         11   -1    0    0    0    0 -0.00000000000E+00 -0.00000000000E+00 -0.45593999997E+02  0.45594000000E+02  0.51100000000E-03 0. -1.
    9900012    2    1    2    0    0  0.98550653961E+01 -0.25233214033E+02  0.30320425149E+02  0.50528860983E+02  0.30000003444E+02 0.  0.
         12    1    1    2    0    0 -0.98550653961E+01  0.25233214033E+02 -0.30320425149E+02  0.40659139017E+02  0.00000000000E+00 0. -1.
         11    1    3    3    0    0  0.12950867434E+02 -0.72760242134E+01  0.45656685477E+01  0.15540618559E+02  0.51100000000E-03 0. -1.
        -11    1    3    3    0    0 -0.58939670615E+01 -0.72880346041E+01  0.20961684180E+02  0.22961848794E+02  0.51100000000E-03 0.  1.
         12    1    3    3    0    0  0.27981650235E+01 -0.10669155215E+02  0.47930724217E+01  0.12026393630E+02  0.00000000000E+00 0. -1.
</event>
<event>
 7    1  0.2891523E-011  0.5052886E+02  0.7816164E-02  0.1300439E+00
        -11   -1    0    0    0    0  0.00000000000E+00  0.00000000000E+00  0.45593999997E+02  0.45594000000E+02  0.51100000000E-03 0.  1.
         11   -1    0    0    0    0 -0.00000000000E+00 -0.00000000000E+00 -0.45593999997E+02  0.45594000000E+02  0.51100000000E-03 0. -1.
    9900012    2    1    2    0    0  0.20904129647E+02  0.14864226281E+02  0.31547389226E+02  0.50528860483E+02  0.30000001925E+02 0.  0.
         12    1    1    2    0    0 -0.20904129647E+02 -0.14864226281E+02 -0.31547389226E+02  0.40659139517E+02  0.00000000000E+00 0. -1.
         11    1    3    3    0    0 -0.11601236199E+01  0.51603569158E+01  0.35347503450E+01  0.63615745358E+01  0.51100000000E-03 0. -1.
        -11    1    3    3    0    0  0.27366634522E+02  0.89402920881E+01  0.23686370065E+02  0.37281438207E+02  0.51100000000E-03 0.  1.
        -12    1    3    3    0    0 -0.53023812547E+01  0.76357727717E+00  0.43262688161E+01  0.68858477399E+01  0.00000000000E+00 0.  1.
</event>
<event>
 7    1  0.2891523E-011  0.5052887E+02  0.7816164E-02  0.1300439E+00
        -11   -1    0    0    0    0  0.00000000000E+00  0.00000000000E+00  0.45593999997E+02  0.45594000000E+02  0.51100000000E-03 0.  1.
         11   -1    0    0    0    0 -0.00000000000E+00 -0.00000000000E+00 -0.45593999997E+02  0.45594000000E+02  0.51100000000E-03 0. -1.
    9900012    2    1    2    0    0 -0.41178087993E+01  0.24476700341E+02  0.32204036002E+02  0.50528866417E+02  0.30000019962E+02 0.  0.
         12    1    1    2    0    0  0.41178087993E+01 -0.24476700341E+02 -0.32204036002E+02  0.40659133583E+02  0.00000000000E+00 0. -1.
         11    1    3    3    0    0 -0.10185051692E+02  0.37320247409E+01  0.12778875017E+02  0.16761948980E+02  0.51100000000E-03 0. -1.
        -11    1    3    3    0    0  0.41890736045E+01  0.23692184450E+02  0.16152191403E+02  0.28978634010E+02  0.51100000000E-03 0.  1.
        -12    1    3    3    0    0  0.18781692887E+01 -0.29475088500E+01  0.32729695814E+01  0.47882834272E+01  0.00000000000E+00 0.  1.
</event>
<event>
 7    1  0.2891523E-011  0.5052886E+02  0.7816164E-02  0.1300439E+00
        -11   -1    0    0    0    0  0.00000000000E+00  0.00000000000E+00  0.45593999997E+02  0.45594000000E+02  0.51100000000E-03 0. -1.
         11   -1    0    0    0    0 -0.00000000000E+00 -0.00000000000E+00 -0.45593999997E+02  0.45594000000E+02  0.51100000000E-03 0.  1.
    9900012    2    1    2    0    0 -0.18506231392E+02 -0.27023826326E+02  0.24091447391E+02  0.50528860474E+02  0.30000001896E+02 0.  0.
         12    1    1    2    0    0  0.18506231392E+02  0.27023826326E+02 -0.24091447391E+02  0.40659139526E+02  0.00000000000E+00 0. -1.
         11    1    3    3    0    0  0.70434819017E+01 -0.97001181327E+01  0.83351336033E+01  0.14600595246E+02  0.51100000000E-03 0.  1.
        -11    1    3    3    0    0 -0.18800116012E+02 -0.11400616230E+02  0.15578732904E+02  0.26946527265E+02  0.51100000000E-03 0. -1.
        -12    1    3    3    0    0 -0.67495972817E+01 -0.59230919626E+01  0.17758088398E+00  0.89817379628E+01  0.00000000000E+00 0.  1.
</event>
<event>
 7    1  0.2891523E-011  0.5052888E+02  0.7816164E-02  0.1300439E+00
        -11   -1    0    0    0    0  0.00000000000E+00  0.00000000000E+00  0.45593999997E+02  0.45594000000E+02  0.51100000000E-03 0.  1.
         11   -1    0    0    0    0 -0.00000000000E+00 -0.00000000000E+00 -0.45593999997E+02  0.45594000000E+02  0.51100000000E-03 0. -1.
    9900012    2    1    2    0    0 -0.12746819908E+02 -0.29796330210E+02  0.24553236325E+02  0.50528878935E+02  0.30000058011E+02 0.  0.
         12    1    1    2    0    0  0.12746819908E+02  0.29796330210E+02 -0.24553236325E+02  0.40659121065E+02  0.00000000000E+00 0. -1.
         11    1    3    3    0    0 -0.11386362419E+01 -0.24077326233E+02  0.98893208498E+01  0.26054036120E+02  0.51100000000E-03 0. -1.
        -11    1    3    3    0    0 -0.54076482824E+01 -0.65363756095E+01  0.15972194720E+02  0.18085294316E+02  0.51100000000E-03 0.  1.
         12    1    3    3    0    0 -0.62005353838E+01  0.81737163312E+00 -0.13082792453E+01  0.63895484986E+01  0.00000000000E+00 0. -1.
</event>
<event>
 7    1  0.2891523E-011  0.5052886E+02  0.7816164E-02  0.1300439E+00
        -11   -1    0    0    0    0  0.00000000000E+00  0.00000000000E+00  0.45593999997E+02  0.45594000000E+02  0.51100000000E-03 0.  1.
         11   -1    0    0    0    0 -0.00000000000E+00 -0.00000000000E+00 -0.45593999997E+02  0.45594000000E+02  0.51100000000E-03 0. -1.
    9900012    2    1    2    0    0 -0.30100214139E+02 -0.26317967897E+02  0.73829053257E+01  0.50528860603E+02  0.30000002289E+02 0.  0.
         12    1    1    2    0    0  0.30100214139E+02  0.26317967897E+02 -0.73829053257E+01  0.40659139397E+02  0.00000000000E+00 0. -1.
         11    1    3    3    0    0 -0.25334734123E+02 -0.29933077361E+02  0.40744182116E+01  0.39426371345E+02  0.51100000000E-03 0. -1.
        -11    1    3    3    0    0 -0.20008683426E+01  0.33444787803E+00 -0.29102129293E+01  0.35474877114E+01  0.51100000000E-03 0.  1.
         12    1    3    3    0    0 -0.27646116736E+01  0.32806615857E+01  0.62187000434E+01  0.75550015471E+01  0.00000000000E+00 0. -1.
</event>
<event>
 7    1  0.2891523E-011  0.5052886E+02  0.7816164E-02  0.1300439E+00
        -11   -1    0    0    0    0  0.00000000000E+00  0.00000000000E+00  0.45593999997E+02  0.45594000000E+02  0.51100000000E-03 0. -1.
         11   -1    0    0    0    0 -0.00000000000E+00 -0.00000000000E+00 -0.45593999997E+02  0.45594000000E+02  0.51100000000E-03 0.  1.
    9900012    2    1    2    0    0  0.36423378915E+02 -0.11924489841E+02  0.13576072839E+02  0.50528859044E+02  0.29999997550E+02 0.  0.
         12    1    1    2    0    0 -0.36423378915E+02  0.11924489841E+02 -0.13576072839E+02  0.40659140956E+02  0.00000000000E+00 0. -1.
         11    1    3    3    0    0  0.74439806836E+01 -0.56172143641E+00 -0.80375859751E+01  0.10969556416E+02  0.51100000000E-03 0. -1.
        -11    1    3    3    0    0  0.18518739200E+02 -0.12170005401E+02  0.11412879969E+02  0.24926021793E+02  0.51100000000E-03 0.  1.
        -12    1    3    3    0    0  0.10460659032E+02  0.80723699569E+00  0.10200778845E+02  0.14633280835E+02  0.00000000000E+00 0.  1.
</event>
<event>
 7    1  0.2891523E-011  0.5052884E+02  0.7816164E-02  0.1300439E+00
        -11   -1    0    0    0    0  0.00000000000E+00  0.00000000000E+00  0.45593999997E+02  0.45594000000E+02  0.51100000000E-03 0.  1.
         11   -1    0    0    0    0 -0.00000000000E+00 -0.00000000000E+00 -0.45593999997E+02  0.45594000000E+02  0.51100000000E-03 0. -1.
    9900012    2    1    2    0    0 -0.24091139578E+02  0.32333381806E+02 -0.52284295598E+01  0.50528842841E+02  0.29999948300E+02 0.  0.
         12    1    1    2    0    0  0.24091139578E+02 -0.32333381806E+02  0.52284295598E+01  0.40659157159E+02  0.00000000000E+00 0. -1.
         11    1    3    3    0    0 -0.14632275008E+02  0.24108603951E+02 -0.16216394975E+02  0.32531518910E+02  0.51100000000E-03 0. -1.
        -11    1    3    3    0    0 -0.50507137356E+01  0.18181890783E+01  0.12077934188E+01  0.55022073722E+01  0.51100000000E-03 0.  1.
         12    1    3    3    0    0 -0.44081508354E+01  0.64065887767E+01  0.97801719965E+01  0.12495116559E+02  0.00000000000E+00 0. -1.
</event>
<event>
 7    1  0.2891523E-011  0.5052886E+02  0.7816164E-02  0.1300439E+00
        -11   -1    0    0    0    0  0.00000000000E+00  0.00000000000E+00  0.45593999997E+02  0.45594000000E+02  0.51100000000E-03 0.  1.
         11   -1    0    0    0    0 -0.00000000000E+00 -0.00000000000E+00 -0.45593999997E+02  0.45594000000E+02  0.51100000000E-03 0. -1.
    9900012    2    1    2    0    0 -0.30953613536E+02  0.76765773095E+01  0.25221217604E+02  0.50528857761E+02  0.29999993651E+02 0.  0.
         12    1    1    2    0    0  0.30953613536E+02 -0.76765773095E+01 -0.25221217604E+02  0.40659142239E+02  0.00000000000E+00 0. -1.
         11    1    3    3    0    0 -0.73715844409E+00  0.42676407282E+01 -0.15362365822E+01  0.45952348204E+01  0.51100000000E-03 0. -1.
        -11    1    3    3    0    0 -0.24672576638E+02  0.46450312319E+01  0.30214764116E+02  0.39284148507E+02  0.51100000000E-03 0.  1.
        -12    1    3    3    0    0 -0.55438784543E+01 -0.12360946506E+01 -0.34573099292E+01  0.66494744340E+01  0.00000000000E+00 0.  1.
</event>
<event>
 7    1  0.2891523E-011  0.5052880E+02  0.7816164E-02  0.1300439E+00
        -11   -1    0    0    0    0  0.00000000000E+00  0.00000000000E+00  0.45593999997E+02  0.45594000000E+02  0.51100000000E-03 0.  1.
         11   -1    0    0    0    0 -0.00000000000E+00 -0.00000000000E+00 -0.45593999997E+02  0.45594000000E+02  0.51100000000E-03 0. -1.
    9900012    2    1    2    0    0 -0.89111824636E+01  0.39521133027E+02  0.34411335141E+01  0.50528800198E+02  0.29999818683E+02 0.  0.
         12    1    1    2    0    0  0.89111824636E+01 -0.39521133027E+02 -0.34411335141E+01  0.40659199802E+02  0.00000000000E+00 0. -1.
         11    1    3    3    0    0 -0.16837711457E+02  0.31910063849E+02 -0.27824130574E+01  0.36187049129E+02  0.51100000000E-03 0. -1.
        -11    1    3    3    0    0  0.53703859398E+01  0.73359952749E+01  0.71941932167E+01  0.11593717614E+02  0.51100000000E-03 0.  1.
         12    1    3    3    0    0  0.25561430536E+01  0.27507390296E+00 -0.97064664530E+00  0.27480334555E+01  0.00000000000E+00 0. -1.
</event>
<event>
 7    1  0.2891523E-011  0.5052889E+02  0.7816164E-02  0.1300439E+00
        -11   -1    0    0    0    0  0.00000000000E+00  0.00000000000E+00  0.45593999997E+02  0.45594000000E+02  0.51100000000E-03 0. -1.
         11   -1    0    0    0    0 -0.00000000000E+00 -0.00000000000E+00 -0.45593999997E+02  0.45594000000E+02  0.51100000000E-03 0.  1.
    9900012    2    1    2    0    0  0.24494443399E+02 -0.29230213954E+02  0.14098933780E+02  0.50528891562E+02  0.30000096392E+02 0.  0.
         12    1    1    2    0    0 -0.24494443399E+02  0.29230213954E+02 -0.14098933780E+02  0.40659108438E+02  0.00000000000E+00 0. -1.
         11    1    3    3    0    0  0.25000674503E+02 -0.10956214267E+02  0.71858246286E+01  0.28226024030E+02  0.51100000000E-03 0. -1.
        -11    1    3    3    0    0 -0.44472487841E+01 -0.15171669358E+02  0.69908374033E+01  0.17286682178E+02  0.51100000000E-03 0.  1.
        -12    1    3    3    0    0  0.39410176804E+01 -0.31023303288E+01 -0.77728251744E-01  0.50161853541E+01  0.00000000000E+00 0.  1.
</event>
<event>
 7    1  0.2891523E-011  0.5052886E+02  0.7816164E-02  0.1300439E+00
        -11   -1    0    0    0    0  0.00000000000E+00  0.00000000000E+00  0.45593999997E+02  0.45594000000E+02  0.51100000000E-03 0. -1.
         11   -1    0    0    0    0 -0.00000000000E+00 -0.00000000000E+00 -0.45593999997E+02  0.45594000000E+02  0.51100000000E-03 0.  1.
    9900012    2    1    2    0    0 -0.36047112871E+02 -0.18690513170E+02 -0.21062238517E+01  0.50528858251E+02  0.29999995139E+02 0.  0.
         12    1    1    2    0    0  0.36047112871E+02  0.18690513170E+02  0.21062238517E+01  0.40659141749E+02  0.00000000000E+00 0. -1.
         11    1    3    3    0    0 -0.13255412719E+02 -0.28797880602E+01  0.89295492004E+01  0.16239950579E+02  0.51100000000E-03 0. -1.
        -11    1    3    3    0    0 -0.22248827877E+02 -0.75259939228E+01 -0.11118503226E+02  0.25985997012E+02  0.51100000000E-03 0.  1.
        -12    1    3    3    0    0 -0.54287227454E+00 -0.82847311874E+01  0.82730174074E-01  0.83029106604E+01  0.00000000000E+00 0.  1.
</event>
<event>
 7    1  0.2891523E-011  0.5052886E+02  0.7816164E-02  0.1300439E+00
        -11   -1    0    0    0    0  0.00000000000E+00  0.00000000000E+00  0.45593999997E+02  0.45594000000E+02  0.51100000000E-03 0. -1.
         11   -1    0    0    0    0 -0.00000000000E+00 -0.00000000000E+00 -0.45593999997E+02  0.45594000000E+02  0.51100000000E-03 0.  1.
    9900012    2    1    2    0    0 -0.15078327483E+02  0.28742764063E+01 -0.37650339827E+02  0.50528861868E+02  0.30000006134E+02 0.  0.
         12    1    1    2    0    0  0.15078327483E+02 -0.28742764063E+01  0.37650339827E+02  0.40659138132E+02  0.00000000000E+00 0. -1.
         11    1    3    3    0    0 -0.17515612665E+02  0.11924316174E+02 -0.16708462772E+02  0.26984416460E+02  0.51100000000E-03 0. -1.
        -11    1    3    3    0    0 -0.13520977990E+00 -0.38612737123E+01 -0.13899753749E+02  0.14426741521E+02  0.51100000000E-03 0.  1.
         12    1    3    3    0    0  0.25724949619E+01 -0.51887660556E+01 -0.70421233063E+01  0.91177038869E+01  0.00000000000E+00 0. -1.
</event>
<event>
 7    1  0.2891523E-011  0.5052884E+02  0.7816164E-02  0.1300439E+00
        -11   -1    0    0    0    0  0.00000000000E+00  0.00000000000E+00  0.45593999997E+02  0.45594000000E+02  0.51100000000E-03 0.  1.
         11   -1    0    0    0    0 -0.00000000000E+00 -0.00000000000E+00 -0.45593999997E+02  0.45594000000E+02  0.51100000000E-03 0. -1.
    9900012    2    1    2    0    0 -0.22844368978E+02  0.19807764749E+02  0.27183711523E+02  0.50528844690E+02  0.29999953920E+02 0.  0.
         12    1    1    2    0    0  0.22844368978E+02 -0.19807764749E+02 -0.27183711523E+02  0.40659155310E+02  0.00000000000E+00 0. -1.
         11    1    3    3    0    0  0.40542011027E+01  0.78419359722E+01  0.11074527323E+02  0.14162544336E+02  0.51100000000E-03 0. -1.
        -11    1    3    3    0    0 -0.19241087255E+02  0.23752798695E+01  0.55221876798E+01  0.20158272502E+02  0.51100000000E-03 0.  1.
         12    1    3    3    0    0 -0.76574828259E+01  0.95905489070E+01  0.10586996519E+02  0.16208027853E+02  0.00000000000E+00 0. -1.
</event>
<event>
 7    1  0.2891523E-011  0.5052888E+02  0.7816164E-02  0.1300439E+00
        -11   -1    0    0    0    0  0.00000000000E+00  0.00000000000E+00  0.45593999997E+02  0.45594000000E+02  0.51100000000E-03 0.  1.
         11   -1    0    0    0    0 -0.00000000000E+00 -0.00000000000E+00 -0.45593999997E+02  0.45594000000E+02  0.51100000000E-03 0. -1.
    9900012    2    1    2    0    0  0.65106732611E+01 -0.39345402109E+02  0.79192387085E+01  0.50528882017E+02  0.30000067379E+02 0.  0.
         12    1    1    2    0    0 -0.65106732611E+01  0.39345402109E+02 -0.79192387085E+01  0.40659117983E+02  0.00000000000E+00 0. -1.
         11    1    3    3    0    0 -0.24504328366E+01 -0.18445771978E+01 -0.68909039507E+01  0.75426549467E+01  0.51100000000E-03 0. -1.
        -11    1    3    3    0    0  0.14626337392E+01 -0.28316942390E+02  0.87695240640E+01  0.29679842930E+02  0.51100000000E-03 0.  1.
         12    1    3    3    0    0  0.74984723585E+01 -0.91838825213E+01  0.60406185953E+01  0.13306384140E+02  0.00000000000E+00 0. -1.
</event>
<event>
 7    1  0.2891523E-011  0.5052886E+02  0.7816164E-02  0.1300439E+00
        -11   -1    0    0    0    0  0.00000000000E+00  0.00000000000E+00  0.45593999997E+02  0.45594000000E+02  0.51100000000E-03 0. -1.
         11   -1    0    0    0    0 -0.00000000000E+00 -0.00000000000E+00 -0.45593999997E+02  0.45594000000E+02  0.51100000000E-03 0.  1.
    9900012    2    1    2    0    0 -0.27222990080E+02 -0.15270007975E+02 -0.26055731052E+02  0.50528862613E+02  0.30000008398E+02 0.  0.
         12    1    1    2    0    0  0.27222990080E+02  0.15270007975E+02  0.26055731052E+02  0.40659137387E+02  0.00000000000E+00 0. -1.
         11    1    3    3    0    0 -0.10951922945E+02  0.33552344760E+01 -0.11955283878E+02  0.16556902713E+02  0.51100000000E-03 0. -1.
        -11    1    3    3    0    0 -0.17508513435E+02 -0.19486533939E+02 -0.16628335199E+02  0.31028609047E+02  0.51100000000E-03 0.  1.
        -12    1    3    3    0    0  0.12374462993E+01  0.86129148867E+00  0.25278880256E+01  0.29433508527E+01  0.00000000000E+00 0.  1.
</event>
<event>
 7    1  0.2891523E-011  0.5052886E+02  0.7816164E-02  0.1300439E+00
        -11   -1    0    0    0    0  0.00000000000E+00  0.00000000000E+00  0.45593999997E+02  0.45594000000E+02  0.51100000000E-03 0.  1.
         11   -1    0    0    0    0 -0.00000000000E+00 -0.00000000000E+00 -0.45593999997E+02  0.45594000000E+02  0.51100000000E-03 0. -1.
    9900012    2    1    2    0    0  0.15161519268E+02  0.13110851766E+02  0.35375124515E+02  0.50528861605E+02  0.30000005336E+02 0.  0.
         12    1    1    2    0    0 -0.15161519268E+02 -0.13110851766E+02 -0.35375124515E+02  0.40659138395E+02  0.00000000000E+00 0. -1.
         11    1    3    3    0    0  0.17130719875E+02  0.45055006813E+01  0.29541979070E+02  0.34445458735E+02  0.51100000000E-03 0.  1.
        -11    1    3    3    0    0 -0.22030300334E+01  0.18084312019E+01  0.83566744276E+01  0.88293698807E+01  0.51100000000E-03 0. -1.
         12    1    3    3    0    0  0.23382942591E+00  0.67969198823E+01 -0.25235289827E+01  0.72540329896E+01  0.00000000000E+00 0. -1.
</event>
<event>
 7    1  0.2891523E-011  0.5052886E+02  0.7816164E-02  0.1300439E+00
        -11   -1    0    0    0    0  0.00000000000E+00  0.00000000000E+00  0.45593999997E+02  0.45594000000E+02  0.51100000000E-03 0.  1.
         11   -1    0    0    0    0 -0.00000000000E+00 -0.00000000000E+00 -0.45593999997E+02  0.45594000000E+02  0.51100000000E-03 0. -1.
    9900012    2    1    2    0    0  0.67453805896E+01 -0.39512104560E+02  0.68160662107E+01  0.50528864192E+02  0.30000013197E+02 0.  0.
         12    1    1    2    0    0 -0.67453805896E+01  0.39512104560E+02 -0.68160662107E+01  0.40659135808E+02  0.00000000000E+00 0. -1.
         11    1    3    3    0    0  0.56810204096E+01 -0.17626559123E+01 -0.63161562470E+01  0.86761038927E+01  0.51100000000E-03 0. -1.
        -11    1    3    3    0    0  0.58953676386E+01 -0.18191286600E+02  0.31896889078E+01  0.19386912683E+02  0.51100000000E-03 0.  1.
         12    1    3    3    0    0 -0.48310074585E+01 -0.19558162048E+02  0.99425335499E+01  0.22465847617E+02  0.00000000000E+00 0. -1.
</event>
<event>
 7    1  0.2891523E-011  0.5052888E+02  0.7816164E-02  0.1300439E+00
        -11   -1    0    0    0    0  0.00000000000E+00  0.00000000000E+00  0.45593999997E+02  0.45594000000E+02  0.51100000000E-03 0. -1.
         11   -1    0    0    0    0 -0.00000000000E+00 -0.00000000000E+00 -0.45593999997E+02  0.45594000000E+02  0.51100000000E-03 0.  1.
    9900012    2    1    2    0    0  0.16247789096E+02  0.26532159044E+02 -0.26176669905E+02  0.50528878498E+02  0.30000056681E+02 0.  0.
         12    1    1    2    0    0 -0.16247789096E+02 -0.26532159044E+02  0.26176669905E+02  0.40659121502E+02  0.00000000000E+00 0. -1.
         11    1    3    3    0    0  0.41256746829E+01  0.51656567184E+01  0.30772204809E+01  0.72920838634E+01  0.51100000000E-03 0. -1.
        -11    1    3    3    0    0 -0.47064310016E+00  0.17748435434E+02 -0.21965684492E+02  0.28243933167E+02  0.51100000000E-03 0.  1.
        -12    1    3    3    0    0  0.12592757513E+02  0.36180668913E+01 -0.72882058936E+01  0.14992861467E+02  0.00000000000E+00 0.  1.
</event>
<event>
 7    1  0.2891523E-011  0.5052889E+02  0.7816164E-02  0.1300439E+00
        -11   -1    0    0    0    0  0.00000000000E+00  0.00000000000E+00  0.45593999997E+02  0.45594000000E+02  0.51100000000E-03 0.  1.
         11   -1    0    0    0    0 -0.00000000000E+00 -0.00000000000E+00 -0.45593999997E+02  0.45594000000E+02  0.51100000000E-03 0. -1.
    9900012    2    1    2    0    0  0.15178207243E+02  0.26445509357E+02  0.26896473644E+02  0.50528889893E+02  0.30000091317E+02 0.  0.
         12    1    1    2    0    0 -0.15178207243E+02 -0.26445509357E+02 -0.26896473644E+02  0.40659110107E+02  0.00000000000E+00 0. -1.
         11    1    3    3    0    0  0.10261888483E+02  0.12211774194E+02  0.21167465548E+01  0.16090817271E+02  0.51100000000E-03 0. -1.
        -11    1    3    3    0    0  0.72144692860E-01  0.17631210280E+02  0.20986176498E+02  0.27409567400E+02  0.51100000000E-03 0.  1.
        -12    1    3    3    0    0  0.48441740667E+01 -0.33974751173E+01  0.37935505910E+01  0.70285052214E+01  0.00000000000E+00 0.  1.
</event>
<event>
 7    1  0.2891523E-011  0.5052887E+02  0.7816164E-02  0.1300439E+00
        -11   -1    0    0    0    0  0.00000000000E+00  0.00000000000E+00  0.45593999997E+02  0.45594000000E+02  0.51100000000E-03 0.  1.
         11   -1    0    0    0    0 -0.00000000000E+00 -0.00000000000E+00 -0.45593999997E+02  0.45594000000E+02  0.51100000000E-03 0. -1.
    9900012    2    1    2    0    0 -0.36230595055E+02  0.83475705038E+01  0.16456818512E+02  0.50528870313E+02  0.30000031803E+02 0.  0.
         12    1    1    2    0    0  0.36230595055E+02 -0.83475705038E+01 -0.16456818512E+02  0.40659129687E+02  0.00000000000E+00 0. -1.
         11    1    3    3    0    0  0.17464336184E+01 -0.89447121640E+00  0.36112349214E+01  0.41098816357E+01  0.51100000000E-03 0. -1.
        -11    1    3    3    0    0 -0.31251649448E+02  0.15845468269E+02  0.11612758341E+02  0.36913420519E+02  0.51100000000E-03 0.  1.
        -12    1    3    3    0    0 -0.67253792254E+01 -0.66034265484E+01  0.12328252499E+01  0.95055681578E+01  0.00000000000E+00 0.  1.
</event>
<event>
 7    1  0.2891523E-011  0.5052886E+02  0.7816164E-02  0.1300439E+00
        -11   -1    0    0    0    0  0.00000000000E+00  0.00000000000E+00  0.45593999997E+02  0.45594000000E+02  0.51100000000E-03 0. -1.
         11   -1    0    0    0    0 -0.00000000000E+00 -0.00000000000E+00 -0.45593999997E+02  0.45594000000E+02  0.51100000000E-03 0.  1.
    9900012    2    1    2    0    0 -0.11344948155E+02  0.37740716338E+02  0.10004810131E+02  0.50528859033E+02  0.29999997518E+02 0.  0.
         12    1    1    2    0    0  0.11344948155E+02 -0.37740716338E+02 -0.10004810131E+02  0.40659140967E+02  0.00000000000E+00 0. -1.
         11    1    3    3    0    0  0.21265266540E+01 -0.35615195328E+01 -0.37298547355E+00  0.41648115704E+01  0.51100000000E-03 0. -1.
        -11    1    3    3    0    0 -0.44694365731E+01  0.30233640265E+02  0.43275418150E+01  0.30867077694E+02  0.51100000000E-03 0.  1.
        -12    1    3    3    0    0 -0.90020382363E+01  0.11068595606E+02  0.60502537900E+01  0.15496969769E+02  0.00000000000E+00 0.  1.
</event>
<event>
 7    1  0.2891523E-011  0.5052887E+02  0.7816164E-02  0.1300439E+00
        -11   -1    0    0    0    0  0.00000000000E+00  0.00000000000E+00  0.45593999997E+02  0.45594000000E+02  0.51100000000E-03 0. -1.
         11   -1    0    0    0    0 -0.00000000000E+00 -0.00000000000E+00 -0.45593999997E+02  0.45594000000E+02  0.51100000000E-03 0.  1.
    9900012    2    1    2    0    0  0.83606379070E+01 -0.39227544235E+02 -0.66681639673E+01  0.50528869369E+02  0.30000028935E+02 0.  0.
         12    1    1    2    0    0 -0.83606379070E+01  0.39227544235E+02  0.66681639673E+01  0.40659130631E+02  0.00000000000E+00 0. -1.
         11    1    3    3    0    0  0.15823698196E+02 -0.19120079600E+02  0.39404424699E+01  0.25129543482E+02  0.51100000000E-03 0. -1.
        -11    1    3    3    0    0  0.14031385661E+01 -0.61394067501E+01 -0.45953543008E+01  0.77960499286E+01  0.51100000000E-03 0.  1.
         12    1    3    3    0    0 -0.88661988551E+01 -0.13968057885E+02 -0.60132521365E+01  0.17603275958E+02  0.00000000000E+00 0. -1.
</event>
<event>
 7    1  0.2891523E-011  0.5052886E+02  0.7816164E-02  0.1300439E+00
        -11   -1    0    0    0    0  0.00000000000E+00  0.00000000000E+00  0.45593999997E+02  0.45594000000E+02  0.51100000000E-03 0.  1.
         11   -1    0    0    0    0 -0.00000000000E+00 -0.00000000000E+00 -0.45593999997E+02  0.45594000000E+02  0.51100000000E-03 0. -1.
    9900012    2    1    2    0    0 -0.28097059090E+02 -0.29152749617E+02  0.37200169286E+01  0.50528855079E+02  0.29999985499E+02 0.  0.
         12    1    1    2    0    0  0.28097059090E+02  0.29152749617E+02 -0.37200169286E+01  0.40659144921E+02  0.00000000000E+00 0. -1.
         11    1    3    3    0    0 -0.22899694403E+02 -0.14688779368E+02  0.95792523871E+01  0.28842994291E+02  0.51100000000E-03 0. -1.
        -11    1    3    3    0    0 -0.10113900960E+01 -0.15087747283E+02 -0.87457755421E+00  0.15146878033E+02  0.51100000000E-03 0.  1.
        -12    1    3    3    0    0 -0.41859745902E+01  0.62377703342E+00 -0.49846579043E+01  0.65389827557E+01  0.00000000000E+00 0.  1.
</event>
<event>
 7    1  0.2891523E-011  0.5052888E+02  0.7816164E-02  0.1300439E+00
        -11   -1    0    0    0    0  0.00000000000E+00  0.00000000000E+00  0.45593999997E+02  0.45594000000E+02  0.51100000000E-03 0. -1.
         11   -1    0    0    0    0 -0.00000000000E+00 -0.00000000000E+00 -0.45593999997E+02  0.45594000000E+02  0.51100000000E-03 0.  1.
    9900012    2    1    2    0    0  0.26869546986E+02 -0.15884835797E+02 -0.26055011416E+02  0.50528878226E+02  0.30000055857E+02 0.  0.
         12    1    1    2    0    0 -0.26869546986E+02  0.15884835797E+02  0.26055011416E+02  0.40659121774E+02  0.00000000000E+00 0. -1.
         11    1    3    3    0    0  0.21600805983E+01  0.71983389111E+01 -0.88387842808E+01  0.11601988584E+02  0.51100000000E-03 0. -1.
        -11    1    3    3    0    0  0.18006066995E+02 -0.13581945639E+02 -0.74832900137E+01  0.23763150584E+02  0.51100000000E-03 0.  1.
         12    1    3    3    0    0  0.67033993926E+01 -0.95012290695E+01 -0.97329371210E+01  0.15163739059E+02  0.00000000000E+00 0. -1.
</event>
<event>
 7    1  0.2891523E-011  0.5052886E+02  0.7816164E-02  0.1300439E+00
        -11   -1    0    0    0    0  0.00000000000E+00  0.00000000000E+00  0.45593999997E+02  0.45594000000E+02  0.51100000000E-03 0.  1.
         11   -1    0    0    0    0 -0.00000000000E+00 -0.00000000000E+00 -0.45593999997E+02  0.45594000000E+02  0.51100000000E-03 0. -1.
    9900012    2    1    2    0    0  0.28382477038E+01  0.86272054621E+01  0.39631823794E+02  0.50528858576E+02  0.29999996127E+02 0.  0.
         12    1    1    2    0    0 -0.28382477038E+01 -0.86272054621E+01 -0.39631823794E+02  0.40659141424E+02  0.00000000000E+00 0. -1.
         11    1    3    3    0    0  0.97046733961E+01 -0.68023213053E+01  0.14066955805E+02  0.18393789896E+02  0.51100000000E-03 0. -1.
        -11    1    3    3    0    0 -0.13558114785E+01  0.13395203777E+02  0.16006261449E+02  0.20915786259E+02  0.51100000000E-03 0.  1.
         12    1    3    3    0    0 -0.55106142138E+01  0.20343229901E+01  0.95586065408E+01  0.11219282421E+02  0.00000000000E+00 0. -1.
</event>
<event>
 7    1  0.2891523E-011  0.5052886E+02  0.7816164E-02  0.1300439E+00
        -11   -1    0    0    0    0  0.00000000000E+00  0.00000000000E+00  0.45593999997E+02  0.45594000000E+02  0.51100000000E-03 0.  1.
         11   -1    0    0    0    0 -0.00000000000E+00 -0.00000000000E+00 -0.45593999997E+02  0.45594000000E+02  0.51100000000E-03 0. -1.
    9900012    2    1    2    0    0  0.18730985783E+02  0.18565526933E+02  0.30945708101E+02  0.50528862422E+02  0.30000007818E+02 0.  0.
         12    1    1    2    0    0 -0.18730985783E+02 -0.18565526933E+02 -0.30945708101E+02  0.40659137578E+02  0.00000000000E+00 0. -1.
         11    1    3    3    0    0 -0.63056924086E+01  0.11330672283E+01  0.10490313633E+02  0.12291959912E+02  0.51100000000E-03 0. -1.
        -11    1    3    3    0    0  0.12250785444E+02  0.86654727511E+01  0.16365439656E+02  0.22203598299E+02  0.51100000000E-03 0.  1.
         12    1    3    3    0    0  0.12785892747E+02  0.87669869533E+01  0.40899548121E+01  0.16033304211E+02  0.00000000000E+00 0. -1.
</event>
<event>
 7    1  0.2891523E-011  0.5052891E+02  0.7816164E-02  0.1300439E+00
        -11   -1    0    0    0    0  0.00000000000E+00  0.00000000000E+00  0.45593999997E+02  0.45594000000E+02  0.51100000000E-03 0.  1.
         11   -1    0    0    0    0 -0.00000000000E+00 -0.00000000000E+00 -0.45593999997E+02  0.45594000000E+02  0.51100000000E-03 0. -1.
    9900012    2    1    2    0    0  0.38468730946E+02 -0.48901882225E+01  0.12223123092E+02  0.50528905820E+02  0.30000139729E+02 0.  0.
         12    1    1    2    0    0 -0.38468730946E+02  0.48901882225E+01 -0.12223123092E+02  0.40659094180E+02  0.00000000000E+00 0. -1.
         11    1    3    3    0    0 -0.32646722471E+01  0.12798201856E+01  0.31288774328E+01  0.46995636860E+01  0.51100000000E-03 0. -1.
        -11    1    3    3    0    0  0.36689947176E+02 -0.76664410626E+01  0.12558633335E+02  0.39530315125E+02  0.51100000000E-03 0.  1.
        -12    1    3    3    0    0  0.50434560168E+01  0.14964326546E+01 -0.34643876763E+01  0.62990270086E+01  0.00000000000E+00 0.  1.
</event>
<event>
 7    1  0.2891523E-011  0.5052887E+02  0.7816164E-02  0.1300439E+00
        -11   -1    0    0    0    0  0.00000000000E+00  0.00000000000E+00  0.45593999997E+02  0.45594000000E+02  0.51100000000E-03 0.  1.
         11   -1    0    0    0    0 -0.00000000000E+00 -0.00000000000E+00 -0.45593999997E+02  0.45594000000E+02  0.51100000000E-03 0. -1.
    9900012    2    1    2    0    0 -0.18750350522E+02 -0.34390874841E+02  0.10902170309E+02  0.50528865301E+02  0.30000016569E+02 0.  0.
         12    1    1    2    0    0  0.18750350522E+02  0.34390874841E+02 -0.10902170309E+02  0.40659134699E+02  0.00000000000E+00 0. -1.
         11    1    3    3    0    0 -0.16102774652E+02 -0.93324517402E+01  0.46105334608E+01  0.19174228173E+02  0.51100000000E-03 0. -1.
        -11    1    3    3    0    0  0.20450688190E+00 -0.15890852657E+02  0.12240823315E+02  0.20059879784E+02  0.51100000000E-03 0.  1.
         12    1    3    3    0    0 -0.28520827521E+01 -0.91675704432E+01 -0.59491864667E+01  0.11294757345E+02  0.00000000000E+00 0. -1.
</event>
<event>
 7    1  0.2891523E-011  0.5052888E+02  0.7816164E-02  0.1300439E+00
        -11   -1    0    0    0    0  0.00000000000E+00  0.00000000000E+00  0.45593999997E+02  0.45594000000E+02  0.51100000000E-03 0.  1.
         11   -1    0    0    0    0 -0.00000000000E+00 -0.00000000000E+00 -0.45593999997E+02  0.45594000000E+02  0.51100000000E-03 0. -1.
    9900012    2    1    2    0    0 -0.25033479659E+02 -0.70904410904E+00  0.32031015846E+02  0.50528882652E+02  0.30000069310E+02 0.  0.
         12    1    1    2    0    0  0.25033479659E+02  0.70904410904E+00 -0.32031015846E+02  0.40659117348E+02  0.00000000000E+00 0. -1.
         11    1    3    3    0    0 -0.17688176747E+02  0.93352495409E+01  0.27562627557E+02  0.34054616702E+02  0.51100000000E-03 0.  1.
        -11    1    3    3    0    0 -0.32261568283E+01 -0.10634209017E+02  0.51662431473E+01  0.12254980939E+02  0.51100000000E-03 0. -1.
        -12    1    3    3    0    0 -0.41191460838E+01  0.58991536743E+00 -0.69785485843E+00  0.42192850110E+01  0.00000000000E+00 0.  1.
</event>
<event>
 7    1  0.2891523E-011  0.5052883E+02  0.7816164E-02  0.1300439E+00
        -11   -1    0    0    0    0  0.00000000000E+00  0.00000000000E+00  0.45593999997E+02  0.45594000000E+02  0.51100000000E-03 0. -1.
         11   -1    0    0    0    0 -0.00000000000E+00 -0.00000000000E+00 -0.45593999997E+02  0.45594000000E+02  0.51100000000E-03 0.  1.
    9900012    2    1    2    0    0  0.32482458214E+02 -0.22212436024E+02 -0.10230637985E+02  0.50528826874E+02  0.29999899765E+02 0.  0.
         12    1    1    2    0    0 -0.32482458214E+02  0.22212436024E+02  0.10230637985E+02  0.40659173126E+02  0.00000000000E+00 0. -1.
         11    1    3    3    0    0  0.44270082471E+01 -0.15099221770E+01 -0.94153527382E+01  0.10513188596E+02  0.51100000000E-03 0. -1.
        -11    1    3    3    0    0  0.24477792726E+02 -0.24587977046E+02 -0.12391555711E+01  0.34716947717E+02  0.51100000000E-03 0.  1.
        -12    1    3    3    0    0  0.35776572412E+01  0.38854631999E+01  0.42387032445E+00  0.52986905614E+01  0.00000000000E+00 0.  1.
</event>
<event>
 7    1  0.2891523E-011  0.5052887E+02  0.7816164E-02  0.1300439E+00
        -11   -1    0    0    0    0  0.00000000000E+00  0.00000000000E+00  0.45593999997E+02  0.45594000000E+02  0.51100000000E-03 0. -1.
         11   -1    0    0    0    0 -0.00000000000E+00 -0.00000000000E+00 -0.45593999997E+02  0.45594000000E+02  0.51100000000E-03 0.  1.
    9900012    2    1    2    0    0 -0.17820307337E+02 -0.19361735635E+02 -0.30995557835E+02  0.50528871063E+02  0.30000034084E+02 0.  0.
         12    1    1    2    0    0  0.17820307337E+02  0.19361735635E+02  0.30995557835E+02  0.40659128937E+02  0.00000000000E+00 0. -1.
         11    1    3    3    0    0 -0.62319124830E+00 -0.95159754258E+01  0.31331668436E+01  0.10037872801E+02  0.51100000000E-03 0. -1.
        -11    1    3    3    0    0 -0.38220820771E+01 -0.21592652671E+01 -0.16461099290E+02  0.17036388349E+02  0.51100000000E-03 0.  1.
         12    1    3    3    0    0 -0.13375034011E+02 -0.76864949421E+01 -0.17667625389E+02  0.23454609913E+02  0.00000000000E+00 0. -1.
</event>
<event>
 7    1  0.2891523E-011  0.5052885E+02  0.7816164E-02  0.1300439E+00
        -11   -1    0    0    0    0  0.00000000000E+00  0.00000000000E+00  0.45593999997E+02  0.45594000000E+02  0.51100000000E-03 0.  1.
         11   -1    0    0    0    0 -0.00000000000E+00 -0.00000000000E+00 -0.45593999997E+02  0.45594000000E+02  0.51100000000E-03 0. -1.
    9900012    2    1    2    0    0 -0.36211612023E+02 -0.79642679101E+01  0.16687000472E+02  0.50528851050E+02  0.29999973250E+02 0.  0.
         12    1    1    2    0    0  0.36211612023E+02  0.79642679101E+01 -0.16687000472E+02  0.40659148950E+02  0.00000000000E+00 0. -1.
         11    1    3    3    0    0 -0.15136242517E+02 -0.69219629855E+01 -0.54997987600E+01  0.17529038644E+02  0.51100000000E-03 0. -1.
        -11    1    3    3    0    0 -0.13577082145E+02 -0.44508659916E+01  0.19813782040E+02  0.24428125729E+02  0.51100000000E-03 0.  1.
         12    1    3    3    0    0 -0.74982873603E+01  0.34085610671E+01  0.23730171923E+01  0.85716866765E+01  0.00000000000E+00 0. -1.
</event>
<event>
 7    1  0.2891523E-011  0.5052887E+02  0.7816164E-02  0.1300439E+00
        -11   -1    0    0    0    0  0.00000000000E+00  0.00000000000E+00  0.45593999997E+02  0.45594000000E+02  0.51100000000E-03 0.  1.
         11   -1    0    0    0    0 -0.00000000000E+00 -0.00000000000E+00 -0.45593999997E+02  0.45594000000E+02  0.51100000000E-03 0. -1.
    9900012    2    1    2    0    0  0.13415770566E+02  0.36626254445E+02  0.11476053463E+02  0.50528865508E+02  0.30000017199E+02 0.  0.
         12    1    1    2    0    0 -0.13415770566E+02 -0.36626254445E+02 -0.11476053463E+02  0.40659134492E+02  0.00000000000E+00 0. -1.
         11    1    3    3    0    0  0.54923077960E+01  0.14291528504E+02 -0.26198539081E+01  0.15533089411E+02  0.51100000000E-03 0. -1.
        -11    1    3    3    0    0 -0.22747161119E+01 -0.16810790388E+01  0.75980034578E+01  0.81074050677E+01  0.51100000000E-03 0.  1.
        -12    1    3    3    0    0  0.10198178882E+02  0.24015804980E+02  0.64979039137E+01  0.26888371029E+02  0.00000000000E+00 0.  1.
</event>
<event>
 7    1  0.2891523E-011  0.5052892E+02  0.7816164E-02  0.1300439E+00
        -11   -1    0    0    0    0  0.00000000000E+00  0.00000000000E+00  0.45593999997E+02  0.45594000000E+02  0.51100000000E-03 0. -1.
         11   -1    0    0    0    0 -0.00000000000E+00 -0.00000000000E+00 -0.45593999997E+02  0.45594000000E+02  0.51100000000E-03 0.  1.
    9900012    2    1    2    0    0 -0.66770893304E+00 -0.31315952886E+02 -0.25923471646E+02  0.50528915867E+02  0.30000170268E+02 0.  0.
         12    1    1    2    0    0  0.66770893304E+00  0.31315952886E+02  0.25923471646E+02  0.40659084133E+02  0.00000000000E+00 0. -1.
         11    1    3    3    0    0 -0.91579944800E+00 -0.14238020545E+01  0.31676994636E+01  0.35916877749E+01  0.51100000000E-03 0. -1.
        -11    1    3    3    0    0  0.17778957391E+01 -0.10239315021E+02 -0.24620938978E+02  0.26724429307E+02  0.51100000000E-03 0.  1.
        -12    1    3    3    0    0 -0.15298052241E+01 -0.19652835810E+02 -0.44702321318E+01  0.20212798785E+02  0.00000000000E+00 0.  1.
</event>
<event>
 7    1  0.2891523E-011  0.5052887E+02  0.7816164E-02  0.1300439E+00
        -11   -1    0    0    0    0  0.00000000000E+00  0.00000000000E+00  0.45593999997E+02  0.45594000000E+02  0.51100000000E-03 0.  1.
         11   -1    0    0    0    0 -0.00000000000E+00 -0.00000000000E+00 -0.45593999997E+02  0.45594000000E+02  0.51100000000E-03 0. -1.
    9900012    2    1    2    0    0 -0.34054868836E+02  0.22152037912E+02  0.16486666430E+01  0.50528868470E+02  0.30000026200E+02 0.  0.
         12    1    1    2    0    0  0.34054868836E+02 -0.22152037912E+02 -0.16486666430E+01  0.40659131530E+02  0.00000000000E+00 0. -1.
         11    1    3    3    0    0 -0.39467781933E+01  0.72539684646E+00  0.48135839827E+01  0.62668851682E+01  0.51100000000E-03 0. -1.
        -11    1    3    3    0    0 -0.12227021700E+02  0.73132211661E+01 -0.13151443370E+02  0.19389268332E+02  0.51100000000E-03 0.  1.
        -12    1    3    3    0    0 -0.17881068943E+02  0.14113419900E+02  0.99865260300E+01  0.24872714969E+02  0.00000000000E+00 0.  1.
</event>
<event>
 7    1  0.2891523E-011  0.5052886E+02  0.7816164E-02  0.1300439E+00
        -11   -1    0    0    0    0  0.00000000000E+00  0.00000000000E+00  0.45593999997E+02  0.45594000000E+02  0.51100000000E-03 0.  1.
         11   -1    0    0    0    0 -0.00000000000E+00 -0.00000000000E+00 -0.45593999997E+02  0.45594000000E+02  0.51100000000E-03 0. -1.
    9900012    2    1    2    0    0 -0.32995301680E+02  0.23757989896E+02 -0.18343043446E+00  0.50528860024E+02  0.30000000529E+02 0.  0.
         12    1    1    2    0    0  0.32995301680E+02 -0.23757989896E+02  0.18343043446E+00  0.40659139976E+02  0.00000000000E+00 0. -1.
         11    1    3    3    0    0 -0.13330554094E+01 -0.77496055024E+00 -0.54232915220E+01  0.56382348100E+01  0.51100000000E-03 0. -1.
        -11    1    3    3    0    0 -0.29352979090E+02  0.21450421445E+02 -0.22956501976E+01  0.36427846103E+02  0.51100000000E-03 0.  1.
        -12    1    3    3    0    0 -0.23092671810E+01  0.30825290009E+01  0.75355112851E+01  0.84627791111E+01  0.00000000000E+00 0.  1.
</event>
<event>
 7    1  0.2891523E-011  0.5052886E+02  0.7816164E-02  0.1300439E+00
        -11   -1    0    0    0    0  0.00000000000E+00  0.00000000000E+00  0.45593999997E+02  0.45594000000E+02  0.51100000000E-03 0. -1.
         11   -1    0    0    0    0 -0.00000000000E+00 -0.00000000000E+00 -0.45593999997E+02  0.45594000000E+02  0.51100000000E-03 0.  1.
    9900012    2    1    2    0    0 -0.19042976533E+02 -0.25013641696E+02 -0.25784655641E+02  0.50528859667E+02  0.29999999443E+02 0.  0.
         12    1    1    2    0    0  0.19042976533E+02  0.25013641696E+02  0.25784655641E+02  0.40659140333E+02  0.00000000000E+00 0. -1.
         11    1    3    3    0    0  0.26597428464E+01 -0.10394150938E+01  0.16576946079E+01  0.33019036056E+01  0.51100000000E-03 0. -1.
        -11    1    3    3    0    0 -0.16978447526E+02 -0.34202102599E+01 -0.13244042215E+02  0.21802985417E+02  0.51100000000E-03 0.  1.
        -12    1    3    3    0    0 -0.47242718536E+01 -0.20554016342E+02 -0.14198308033E+02  0.25423970645E+02  0.00000000000E+00 0.  1.
</event>
<event>
 7    1  0.3823148E-011  0.5052886E+02  0.7816164E-02  0.1300439E+00
        -11   -1    0    0    0    0  0.00000000000E+00  0.00000000000E+00  0.45593999997E+02  0.45594000000E+02  0.51100000000E-03 0. -1.
         11   -1    0    0    0    0 -0.00000000000E+00 -0.00000000000E+00 -0.45593999997E+02  0.45594000000E+02  0.51100000000E-03 0.  1.
    9900012    2    1    2    0    0 -0.24699938291E+02  0.14148012146E+02 -0.29032961035E+02  0.50528855571E+02  0.29999986993E+02 0.  0.
         12    1    1    2    0    0  0.24699938291E+02 -0.14148012146E+02  0.29032961035E+02  0.40659144429E+02  0.00000000000E+00 0. -1.
         11    1    3    3    0    0 -0.11157428265E+02  0.16377140658E+01 -0.94186445599E-01  0.11277374881E+02  0.51100000000E-03 0. -1.
        -11    1    3    3    0    0  0.37299231797E+01  0.77390808275E+01 -0.98346126693E+01  0.13058533823E+02  0.51100000000E-03 0.  1.
        -12    1    3    3    0    0 -0.17272433206E+02  0.47712172526E+01 -0.19104161920E+02  0.26192946867E+02  0.00000000000E+00 0.  1.
</event>
<event>
 7    1  0.2891523E-011  0.5052885E+02  0.7816164E-02  0.1300439E+00
        -11   -1    0    0    0    0  0.00000000000E+00  0.00000000000E+00  0.45593999997E+02  0.45594000000E+02  0.51100000000E-03 0.  1.
         11   -1    0    0    0    0 -0.00000000000E+00 -0.00000000000E+00 -0.45593999997E+02  0.45594000000E+02  0.51100000000E-03 0. -1.
    9900012    2    1    2    0    0  0.17536499731E+02  0.36635202178E+02 -0.18706309485E+01  0.50528854392E+02  0.29999983410E+02 0.  0.
         12    1    1    2    0    0 -0.17536499731E+02 -0.36635202178E+02  0.18706309485E+01  0.40659145608E+02  0.00000000000E+00 0. -1.
         11    1    3    3    0    0  0.13345310071E+02  0.22705237429E+02 -0.41047342449E+01  0.26654717239E+02  0.51100000000E-03 0. -1.
        -11    1    3    3    0    0 -0.62658517884E+01  0.72151086470E+01 -0.35141578413E+01  0.10181748230E+02  0.51100000000E-03 0.  1.
        -12    1    3    3    0    0  0.10457041448E+02  0.67148561021E+01  0.57482611377E+01  0.13692388923E+02  0.00000000000E+00 0.  1.
</event>
<event>
 7    1  0.2891523E-011  0.5052886E+02  0.7816164E-02  0.1300439E+00
        -11   -1    0    0    0    0  0.00000000000E+00  0.00000000000E+00  0.45593999997E+02  0.45594000000E+02  0.51100000000E-03 0. -1.
         11   -1    0    0    0    0 -0.00000000000E+00 -0.00000000000E+00 -0.45593999997E+02  0.45594000000E+02  0.51100000000E-03 0.  1.
    9900012    2    1    2    0    0  0.37506789597E+02 -0.13753528681E+02 -0.75661707926E+01  0.50528858869E+02  0.29999997018E+02 0.  0.
         12    1    1    2    0    0 -0.37506789597E+02  0.13753528681E+02  0.75661707926E+01  0.40659141131E+02  0.00000000000E+00 0. -1.
         11    1    3    3    0    0  0.39680944902E+01 -0.39400713375E+01  0.86525100659E+01  0.10302226300E+02  0.51100000000E-03 0. -1.
        -11    1    3    3    0    0  0.22849298229E+02 -0.20629371202E+01 -0.65418499333E+01  0.23856695914E+02  0.51100000000E-03 0.  1.
         12    1    3    3    0    0  0.10689396877E+02 -0.77505202234E+01 -0.96768309252E+01  0.16369936655E+02  0.00000000000E+00 0. -1.
</event>
<event>
 7    1  0.2891523E-011  0.5052887E+02  0.7816164E-02  0.1300439E+00
        -11   -1    0    0    0    0  0.00000000000E+00  0.00000000000E+00  0.45593999997E+02  0.45594000000E+02  0.51100000000E-03 0.  1.
         11   -1    0    0    0    0 -0.00000000000E+00 -0.00000000000E+00 -0.45593999997E+02  0.45594000000E+02  0.51100000000E-03 0. -1.
    9900012    2    1    2    0    0  0.40065848390E+02 -0.60031897449E+01  0.34430584739E+01  0.50528866390E+02  0.30000019878E+02 0.  0.
         12    1    1    2    0    0 -0.40065848390E+02  0.60031897449E+01 -0.34430584739E+01  0.40659133610E+02  0.00000000000E+00 0. -1.
         11    1    3    3    0    0  0.29496907881E+01 -0.72415956899E+01  0.51203222304E+01  0.93466081487E+01  0.51100000000E-03 0. -1.
        -11    1    3    3    0    0  0.24455379896E+02  0.47740462141E+01 -0.85572546335E+01  0.26345468875E+02  0.51100000000E-03 0.  1.
        -12    1    3    3    0    0  0.12660777706E+02 -0.35356402691E+01  0.68799908770E+01  0.14836789366E+02  0.00000000000E+00 0.  1.
</event>
<event>
 7    1  0.2891523E-011  0.5052886E+02  0.7816164E-02  0.1300439E+00
        -11   -1    0    0    0    0  0.00000000000E+00  0.00000000000E+00  0.45593999997E+02  0.45594000000E+02  0.51100000000E-03 0. -1.
         11   -1    0    0    0    0 -0.00000000000E+00 -0.00000000000E+00 -0.45593999997E+02  0.45594000000E+02  0.51100000000E-03 0.  1.
    9900012    2    1    2    0    0  0.28272010165E+02 -0.14854150546E+02 -0.25163734195E+02  0.50528857537E+02  0.29999992970E+02 0.  0.
         12    1    1    2    0    0 -0.28272010165E+02  0.14854150546E+02  0.25163734195E+02  0.40659142463E+02  0.00000000000E+00 0. -1.
         11    1    3    3    0    0  0.36668961853E+01 -0.47945480235E+01  0.14412823031E+01  0.62057322953E+01  0.51100000000E-03 0. -1.
        -11    1    3    3    0    0  0.55638758930E+01 -0.30894629430E+01 -0.22826681287E+02  0.23697233490E+02  0.51100000000E-03 0.  1.
        -12    1    3    3    0    0  0.19041238086E+02 -0.69701395792E+01 -0.37783352109E+01  0.20625891752E+02  0.00000000000E+00 0.  1.
</event>
<event>
 7    1  0.2891523E-011  0.5052887E+02  0.7816164E-02  0.1300439E+00
        -11   -1    0    0    0    0  0.00000000000E+00  0.00000000000E+00  0.45593999997E+02  0.45594000000E+02  0.51100000000E-03 0.  1.
         11   -1    0    0    0    0 -0.00000000000E+00 -0.00000000000E+00 -0.45593999997E+02  0.45594000000E+02  0.51100000000E-03 0. -1.
    9900012    2    1    2    0    0 -0.21324600870E+02 -0.18623264353E+02  0.29182186841E+02  0.50528873026E+02  0.30000040051E+02 0.  0.
         12    1    1    2    0    0  0.21324600870E+02  0.18623264353E+02 -0.29182186841E+02  0.40659126974E+02  0.00000000000E+00 0. -1.
         11    1    3    3    0    0 -0.21022561931E+02 -0.44252312797E+01  0.13246041207E+02  0.25238628924E+02  0.51100000000E-03 0. -1.
        -11    1    3    3    0    0  0.25745635770E+01 -0.66544589966E+01  0.15663653367E+02  0.17212211921E+02  0.51100000000E-03 0.  1.
        -12    1    3    3    0    0 -0.28766025155E+01 -0.75435740767E+01  0.27249226690E+00  0.80780321811E+01  0.00000000000E+00 0.  1.
</event>
<event>
 7    1  0.2891523E-011  0.5052880E+02  0.7816164E-02  0.1300439E+00
        -11   -1    0    0    0    0  0.00000000000E+00  0.00000000000E+00  0.45593999997E+02  0.45594000000E+02  0.51100000000E-03 0.  1.
         11   -1    0    0    0    0 -0.00000000000E+00 -0.00000000000E+00 -0.45593999997E+02  0.45594000000E+02  0.51100000000E-03 0. -1.
    9900012    2    1    2    0    0  0.89118077072E+01 -0.38028136053E+02  0.11296497668E+02  0.50528802912E+02  0.29999826932E+02 0.  0.
         12    1    1    2    0    0 -0.89118077072E+01  0.38028136053E+02 -0.11296497668E+02  0.40659197088E+02  0.00000000000E+00 0. -1.
         11    1    3    3    0    0  0.23153011851E+01 -0.49574987270E+01 -0.81154590492E+01  0.97876498224E+01  0.51100000000E-03 0. -1.
        -11    1    3    3    0    0 -0.31438545000E+00 -0.21465841990E+02  0.75254911677E+01  0.22748939055E+02  0.51100000000E-03 0.  1.
         12    1    3    3    0    0  0.69108919721E+01 -0.11604795336E+02  0.11886465549E+02  0.17992214035E+02  0.00000000000E+00 0. -1.
</event>
<event>
 7    1  0.2891523E-011  0.5052885E+02  0.7816164E-02  0.1300439E+00
        -11   -1    0    0    0    0  0.00000000000E+00  0.00000000000E+00  0.45593999997E+02  0.45594000000E+02  0.51100000000E-03 0.  1.
         11   -1    0    0    0    0 -0.00000000000E+00 -0.00000000000E+00 -0.45593999997E+02  0.45594000000E+02  0.51100000000E-03 0. -1.
    9900012    2    1    2    0    0 -0.36488259298E+01 -0.38219017891E+02 -0.13385025479E+02  0.50528853842E+02  0.29999981737E+02 0.  0.
         12    1    1    2    0    0  0.36488259298E+01  0.38219017891E+02  0.13385025479E+02  0.40659146158E+02  0.00000000000E+00 0. -1.
         11    1    3    3    0    0 -0.47915510395E-01 -0.10785202131E+02 -0.90269055902E+01  0.14064419849E+02  0.51100000000E-03 0. -1.
        -11    1    3    3    0    0 -0.10793937109E+02 -0.15137909697E+02  0.52049245904E+01  0.19306906240E+02  0.51100000000E-03 0.  1.
        -12    1    3    3    0    0  0.71930266892E+01 -0.12295906064E+02 -0.95630444793E+01  0.17157527753E+02  0.00000000000E+00 0.  1.
</event>
<event>
 7    1  0.2891523E-011  0.5052886E+02  0.7816164E-02  0.1300439E+00
        -11   -1    0    0    0    0  0.00000000000E+00  0.00000000000E+00  0.45593999997E+02  0.45594000000E+02  0.51100000000E-03 0. -1.
         11   -1    0    0    0    0 -0.00000000000E+00 -0.00000000000E+00 -0.45593999997E+02  0.45594000000E+02  0.51100000000E-03 0.  1.
    9900012    2    1    2    0    0 -0.23649291039E+02 -0.17654372017E+02 -0.27967836740E+02  0.50528859455E+02  0.29999998798E+02 0.  0.
         12    1    1    2    0    0  0.23649291039E+02  0.17654372017E+02  0.27967836740E+02  0.40659140545E+02  0.00000000000E+00 0. -1.
         11    1    3    3    0    0 -0.27559986975E+00 -0.34621379922E+01 -0.19486991515E+02  0.19794069651E+02  0.51100000000E-03 0. -1.
        -11    1    3    3    0    0 -0.19451099348E+02 -0.60692122221E+01 -0.44584357180E+01  0.20858050056E+02  0.51100000000E-03 0.  1.
         12    1    3    3    0    0 -0.39225918216E+01 -0.81230218028E+01 -0.40224095074E+01  0.98767397481E+01  0.00000000000E+00 0. -1.
</event>
<event>
 7    1  0.2891523E-011  0.5052886E+02  0.7816164E-02  0.1300439E+00
        -11   -1    0    0    0    0  0.00000000000E+00  0.00000000000E+00  0.45593999997E+02  0.45594000000E+02  0.51100000000E-03 0.  1.
         11   -1    0    0    0    0 -0.00000000000E+00 -0.00000000000E+00 -0.45593999997E+02  0.45594000000E+02  0.51100000000E-03 0. -1.
    9900012    2    1    2    0    0 -0.25194471337E+02  0.19949439239E+02 -0.24908319281E+02  0.50528857347E+02  0.29999992391E+02 0.  0.
         12    1    1    2    0    0  0.25194471337E+02 -0.19949439239E+02  0.24908319281E+02  0.40659142653E+02  0.00000000000E+00 0. -1.
         11    1    3    3    0    0  0.58306087694E+01  0.32234199795E+01 -0.43816983553E+01  0.79740651943E+01  0.51100000000E-03 0. -1.
        -11    1    3    3    0    0 -0.23994610046E+02  0.64864517488E+01 -0.13756038740E+02  0.28408519314E+02  0.51100000000E-03 0.  1.
        -12    1    3    3    0    0 -0.70304700603E+01  0.10239567511E+02 -0.67705821856E+01  0.14146272838E+02  0.00000000000E+00 0.  1.
</event>
<event>
 7    1  0.2891523E-011  0.5052884E+02  0.7816164E-02  0.1300439E+00
        -11   -1    0    0    0    0  0.00000000000E+00  0.00000000000E+00  0.45593999997E+02  0.45594000000E+02  0.51100000000E-03 0.  1.
         11   -1    0    0    0    0 -0.00000000000E+00 -0.00000000000E+00 -0.45593999997E+02  0.45594000000E+02  0.51100000000E-03 0. -1.
    9900012    2    1    2    0    0  0.24077270049E+02 -0.32724124503E+02 -0.16075532230E+01  0.50528837627E+02  0.29999932452E+02 0.  0.
         12    1    1    2    0    0 -0.24077270049E+02  0.32724124503E+02  0.16075532230E+01  0.40659162373E+02  0.00000000000E+00 0. -1.
         11    1    3    3    0    0 -0.45790726937E+01 -0.14984165127E+01  0.22159625577E+01  0.53031734931E+01  0.51100000000E-03 0. -1.
        -11    1    3    3    0    0  0.99949844220E+01 -0.17207181383E+02  0.45783008975E+01  0.20419295877E+02  0.51100000000E-03 0.  1.
         12    1    3    3    0    0  0.18661358321E+02 -0.14018526607E+02 -0.84018166782E+01  0.24806368257E+02  0.00000000000E+00 0. -1.
</event>
<event>
 7    1  0.2891523E-011  0.5052886E+02  0.7816164E-02  0.1300439E+00
        -11   -1    0    0    0    0  0.00000000000E+00  0.00000000000E+00  0.45593999997E+02  0.45594000000E+02  0.51100000000E-03 0. -1.
         11   -1    0    0    0    0 -0.00000000000E+00 -0.00000000000E+00 -0.45593999997E+02  0.45594000000E+02  0.51100000000E-03 0.  1.
    9900012    2    1    2    0    0  0.23604893501E+02  0.29750310787E+02 -0.14522171242E+02  0.50528862691E+02  0.30000008637E+02 0.  0.
         12    1    1    2    0    0 -0.23604893501E+02 -0.29750310787E+02  0.14522171242E+02  0.40659137309E+02  0.00000000000E+00 0. -1.
         11    1    3    3    0    0  0.99211451674E+00  0.19474958231E+02  0.10184274736E+01  0.19526788883E+02  0.51100000000E-03 0. -1.
        -11    1    3    3    0    0  0.14627761997E+02  0.94380942646E+01 -0.57346143476E+01  0.18328525482E+02  0.51100000000E-03 0.  1.
         12    1    3    3    0    0  0.79850169874E+01  0.83725829097E+00 -0.98059843684E+01  0.12673548326E+02  0.00000000000E+00 0. -1.
</event>
<event>
 7    1  0.2891523E-011  0.5052885E+02  0.7816164E-02  0.1300439E+00
        -11   -1    0    0    0    0  0.00000000000E+00  0.00000000000E+00  0.45593999997E+02  0.45594000000E+02  0.51100000000E-03 0.  1.
         11   -1    0    0    0    0 -0.00000000000E+00 -0.00000000000E+00 -0.45593999997E+02  0.45594000000E+02  0.51100000000E-03 0. -1.
    9900012    2    1    2    0    0  0.36403580307E+02  0.77735636008E+01  0.16355954971E+02  0.50528853264E+02  0.29999979982E+02 0.  0.
         12    1    1    2    0    0 -0.36403580307E+02 -0.77735636008E+01 -0.16355954971E+02  0.40659146736E+02  0.00000000000E+00 0. -1.
         11    1    3    3    0    0  0.42430091285E+01 -0.89591740910E+00  0.63365842082E+01  0.76784174253E+01  0.51100000000E-03 0. -1.
        -11    1    3    3    0    0  0.14447982505E+02  0.16793747419E+02  0.46311628081E+01  0.22632318044E+02  0.51100000000E-03 0.  1.
        -12    1    3    3    0    0  0.17712588674E+02 -0.81242664088E+01  0.53882079549E+01  0.20218117795E+02  0.00000000000E+00 0.  1.
</event>
<event>
 7    1  0.2891523E-011  0.5052885E+02  0.7816164E-02  0.1300439E+00
        -11   -1    0    0    0    0  0.00000000000E+00  0.00000000000E+00  0.45593999997E+02  0.45594000000E+02  0.51100000000E-03 0.  1.
         11   -1    0    0    0    0 -0.00000000000E+00 -0.00000000000E+00 -0.45593999997E+02  0.45594000000E+02  0.51100000000E-03 0. -1.
    9900012    2    1    2    0    0  0.16293310944E+02  0.89348240228E+01  0.36164395779E+02  0.50528848707E+02  0.29999966129E+02 0.  0.
         12    1    1    2    0    0 -0.16293310944E+02 -0.89348240228E+01 -0.36164395779E+02  0.40659151293E+02  0.00000000000E+00 0. -1.
         11    1    3    3    0    0 -0.34706508719E+01 -0.24554720184E+01  0.17990419364E+02  0.18485939237E+02  0.51100000000E-03 0. -1.
        -11    1    3    3    0    0  0.12354043701E+02 -0.23425794157E+00  0.64081138635E+01  0.13919094658E+02  0.51100000000E-03 0.  1.
         12    1    3    3    0    0  0.74099181157E+01  0.11624553983E+02  0.11765862551E+02  0.18123814812E+02  0.00000000000E+00 0. -1.
</event>
<event>
 7    1  0.2891523E-011  0.5052886E+02  0.7816164E-02  0.1300439E+00
        -11   -1    0    0    0    0  0.00000000000E+00  0.00000000000E+00  0.45593999997E+02  0.45594000000E+02  0.51100000000E-03 0.  1.
         11   -1    0    0    0    0 -0.00000000000E+00 -0.00000000000E+00 -0.45593999997E+02  0.45594000000E+02  0.51100000000E-03 0. -1.
    9900012    2    1    2    0    0  0.28831074411E+02 -0.22084888367E+02  0.18280933395E+02  0.50528859924E+02  0.30000000226E+02 0.  0.
         12    1    1    2    0    0 -0.28831074411E+02  0.22084888367E+02 -0.18280933395E+02  0.40659140076E+02  0.00000000000E+00 0. -1.
         11    1    3    3    0    0 -0.41443369453E+00  0.21141130263E+01  0.11509834561E+02  0.11709719085E+02  0.51100000000E-03 0. -1.
        -11    1    3    3    0    0  0.95145243955E+01 -0.10693258938E+02  0.25784340272E+01  0.14543736916E+02  0.51100000000E-03 0.  1.
         12    1    3    3    0    0  0.19730983710E+02 -0.13505742456E+02  0.41926648073E+01  0.24275403923E+02  0.00000000000E+00 0. -1.
</event>
<event>
 7    1  0.2891523E-011  0.5052886E+02  0.7816164E-02  0.1300439E+00
        -11   -1    0    0    0    0  0.00000000000E+00  0.00000000000E+00  0.45593999997E+02  0.45594000000E+02  0.51100000000E-03 0.  1.
         11   -1    0    0    0    0 -0.00000000000E+00 -0.00000000000E+00 -0.45593999997E+02  0.45594000000E+02  0.51100000000E-03 0. -1.
    9900012    2    1    2    0    0 -0.16343080492E+01  0.73292046688E+01  0.39959697496E+02  0.50528860463E+02  0.30000001864E+02 0.  0.
         12    1    1    2    0    0  0.16343080492E+01 -0.73292046688E+01 -0.39959697496E+02  0.40659139537E+02  0.00000000000E+00 0. -1.
         11    1    3    3    0    0 -0.74302891051E+01 -0.53689997817E+01  0.34170435415E+02  0.35378722583E+02  0.51100000000E-03 0.  1.
        -11    1    3    3    0    0  0.34877406119E+01  0.85237599728E+01  0.34218669257E+01  0.98248660128E+01  0.51100000000E-03 0. -1.
        -12    1    3    3    0    0  0.23082404440E+01  0.41744444776E+01  0.23673951553E+01  0.53252718678E+01  0.00000000000E+00 0.  1.
</event>
<event>
 7    1  0.2891523E-011  0.5052875E+02  0.7816164E-02  0.1300439E+00
        -11   -1    0    0    0    0  0.00000000000E+00  0.00000000000E+00  0.45593999997E+02  0.45594000000E+02  0.51100000000E-03 0.  1.
         11   -1    0    0    0    0 -0.00000000000E+00 -0.00000000000E+00 -0.45593999997E+02  0.45594000000E+02  0.51100000000E-03 0. -1.
    9900012    2    1    2    0    0  0.24029254475E+02 -0.84720891262E+01  0.31685846967E+02  0.50528754277E+02  0.29999679098E+02 0.  0.
         12    1    1    2    0    0 -0.24029254475E+02  0.84720891262E+01 -0.31685846967E+02  0.40659245723E+02  0.00000000000E+00 0. -1.
         11    1    3    3    0    0 -0.41166681710E+01 -0.26866445747E+00  0.55283310395E+01  0.68979404002E+01  0.51100000000E-03 0. -1.
        -11    1    3    3    0    0  0.11328606368E+02 -0.81257376982E+01  0.18370046290E+01  0.14061988539E+02  0.51100000000E-03 0.  1.
        -12    1    3    3    0    0  0.16817316277E+02 -0.77686970524E-01  0.24320511299E+02  0.29568825338E+02  0.00000000000E+00 0.  1.
</event>
<event>
 7    1  0.2891523E-011  0.5052886E+02  0.7816164E-02  0.1300439E+00
        -11   -1    0    0    0    0  0.00000000000E+00  0.00000000000E+00  0.45593999997E+02  0.45594000000E+02  0.51100000000E-03 0. -1.
         11   -1    0    0    0    0 -0.00000000000E+00 -0.00000000000E+00 -0.45593999997E+02  0.45594000000E+02  0.51100000000E-03 0.  1.
    9900012    2    1    2    0    0 -0.23453060815E+01  0.37602436034E+02 -0.15287972042E+02  0.50528859017E+02  0.29999997469E+02 0.  0.
         12    1    1    2    0    0  0.23453060815E+01 -0.37602436034E+02  0.15287972042E+02  0.40659140983E+02  0.00000000000E+00 0. -1.
         11    1    3    3    0    0  0.19805450648E+01  0.99492656378E+01 -0.14969271391E+02  0.18082851869E+02  0.51100000000E-03 0. -1.
        -11    1    3    3    0    0 -0.64310141288E+01  0.29033190839E+02  0.66265946619E+00  0.29744297451E+02  0.51100000000E-03 0.  1.
        -12    1    3    3    0    0  0.21051629825E+01 -0.13800204434E+01 -0.98136011689E+00  0.27017096968E+01  0.00000000000E+00 0.  1.
</event>
<event>
 7    1  0.2891523E-011  0.5052887E+02  0.7816164E-02  0.1300439E+00
        -11   -1    0    0    0    0  0.00000000000E+00  0.00000000000E+00  0.45593999997E+02  0.45594000000E+02  0.51100000000E-03 0.  1.
         11   -1    0    0    0    0 -0.00000000000E+00 -0.00000000000E+00 -0.45593999997E+02  0.45594000000E+02  0.51100000000E-03 0. -1.
    9900012    2    1    2    0    0 -0.23723895524E+00  0.22800490162E+02  0.33663725289E+02  0.50528867763E+02  0.30000024052E+02 0.  0.
         12    1    1    2    0    0  0.23723895524E+00 -0.22800490162E+02 -0.33663725289E+02  0.40659132237E+02  0.00000000000E+00 0. -1.
         11    1    3    3    0    0 -0.21919951345E+01 -0.16249547886E+01  0.37203776202E+01  0.46137328307E+01  0.51100000000E-03 0. -1.
        -11    1    3    3    0    0  0.97460890847E+01  0.17604433739E+02  0.29294350977E+02  0.35539574268E+02  0.51100000000E-03 0.  1.
        -12    1    3    3    0    0 -0.77913329054E+01  0.68210112110E+01  0.64899669115E+00  0.10375560664E+02  0.00000000000E+00 0.  1.
</event>
<event>
 7    1  0.2891523E-011  0.5052886E+02  0.7816164E-02  0.1300439E+00
        -11   -1    0    0    0    0  0.00000000000E+00  0.00000000000E+00  0.45593999997E+02  0.45594000000E+02  0.51100000000E-03 0. -1.
         11   -1    0    0    0    0 -0.00000000000E+00 -0.00000000000E+00 -0.45593999997E+02  0.45594000000E+02  0.51100000000E-03 0.  1.
    9900012    2    1    2    0    0 -0.29315259134E+01  0.35351524746E+02 -0.19870612440E+02  0.50528863452E+02  0.30000010950E+02 0.  0.
         12    1    1    2    0    0  0.29315259134E+01 -0.35351524746E+02  0.19870612440E+02  0.40659136548E+02  0.00000000000E+00 0. -1.
         11    1    3    3    0    0 -0.29502042718E+01 -0.34955162422E+01 -0.50352267911E+01  0.68026353822E+01  0.51100000000E-03 0. -1.
        -11    1    3    3    0    0  0.51063969489E+01  0.30680927081E+02 -0.86325389491E+01  0.32278712882E+02  0.51100000000E-03 0.  1.
         12    1    3    3    0    0 -0.50877185904E+01  0.81661139077E+01 -0.62028466999E+01  0.11447515189E+02  0.00000000000E+00 0. -1.
</event>
<event>
 7    1  0.2891523E-011  0.5052887E+02  0.7816164E-02  0.1300439E+00
        -11   -1    0    0    0    0  0.00000000000E+00  0.00000000000E+00  0.45593999997E+02  0.45594000000E+02  0.51100000000E-03 0.  1.
         11   -1    0    0    0    0 -0.00000000000E+00 -0.00000000000E+00 -0.45593999997E+02  0.45594000000E+02  0.51100000000E-03 0. -1.
    9900012    2    1    2    0    0 -0.67110746167E+01 -0.32323473521E+02  0.23734358973E+02  0.50528865002E+02  0.30000015659E+02 0.  0.
         12    1    1    2    0    0  0.67110746167E+01  0.32323473521E+02 -0.23734358973E+02  0.40659134998E+02  0.00000000000E+00 0. -1.
         11    1    3    3    0    0 -0.66247086750E+01 -0.28505445383E-01  0.15003808370E+01  0.67925488962E+01  0.51100000000E-03 0. -1.
        -11    1    3    3    0    0  0.58178266739E+00 -0.31505089194E+02  0.25357189075E+02  0.40446213101E+02  0.51100000000E-03 0.  1.
        -12    1    3    3    0    0 -0.66814860905E+00 -0.78987888134E+00 -0.31232109388E+01  0.32901030044E+01  0.00000000000E+00 0.  1.
</event>
<event>
 7    1  0.2891523E-011  0.5052887E+02  0.7816164E-02  0.1300439E+00
        -11   -1    0    0    0    0  0.00000000000E+00  0.00000000000E+00  0.45593999997E+02  0.45594000000E+02  0.51100000000E-03 0. -1.
         11   -1    0    0    0    0 -0.00000000000E+00 -0.00000000000E+00 -0.45593999997E+02  0.45594000000E+02  0.51100000000E-03 0.  1.
    9900012    2    1    2    0    0 -0.35254039534E+01  0.40493610186E+02 -0.10020726511E+01  0.50528867095E+02  0.30000022023E+02 0.  0.
         12    1    1    2    0    0  0.35254039534E+01 -0.40493610186E+02  0.10020726511E+01  0.40659132905E+02  0.00000000000E+00 0. -1.
         11    1    3    3    0    0 -0.57418939277E+01  0.42259435690E+01  0.41391695323E+01  0.82438261508E+01  0.51100000000E-03 0. -1.
        -11    1    3    3    0    0  0.18213909091E+01  0.37951895112E+02 -0.12381452964E+01  0.38015744257E+02  0.51100000000E-03 0.  1.
         12    1    3    3    0    0  0.39509906522E+00 -0.16842284944E+01 -0.39030968871E+01  0.42692966871E+01  0.00000000000E+00 0. -1.
</event>
<event>
 7    1  0.2891523E-011  0.5052886E+02  0.7816164E-02  0.1300439E+00
        -11   -1    0    0    0    0  0.00000000000E+00  0.00000000000E+00  0.45593999997E+02  0.45594000000E+02  0.51100000000E-03 0. -1.
         11   -1    0    0    0    0 -0.00000000000E+00 -0.00000000000E+00 -0.45593999997E+02  0.45594000000E+02  0.51100000000E-03 0.  1.
    9900012    2    1    2    0    0  0.14063841801E+02 -0.19407671826E+02 -0.32843817803E+02  0.50528859087E+02  0.29999997682E+02 0.  0.
         12    1    1    2    0    0 -0.14063841801E+02  0.19407671826E+02  0.32843817803E+02  0.40659140913E+02  0.00000000000E+00 0. -1.
         11    1    3    3    0    0 -0.60776307328E+00 -0.29275014293E+01 -0.28681329423E+00  0.30036482316E+01  0.51100000000E-03 0. -1.
        -11    1    3    3    0    0  0.21420758394E+02 -0.67504965792E+01 -0.24299363446E+02  0.33088928033E+02  0.51100000000E-03 0.  1.
        -12    1    3    3    0    0 -0.67491535193E+01 -0.97296738176E+01 -0.82576410626E+01  0.14436282823E+02  0.00000000000E+00 0.  1.
</event>
<event>
 7    1  0.2891523E-011  0.5052886E+02  0.7816164E-02  0.1300439E+00
        -11   -1    0    0    0    0  0.00000000000E+00  0.00000000000E+00  0.45593999997E+02  0.45594000000E+02  0.51100000000E-03 0.  1.
         11   -1    0    0    0    0 -0.00000000000E+00 -0.00000000000E+00 -0.45593999997E+02  0.45594000000E+02  0.51100000000E-03 0. -1.
    9900012    2    1    2    0    0 -0.31038163337E+02 -0.85395726750E+01  0.24836943140E+02  0.50528860445E+02  0.30000001809E+02 0.  0.
         12    1    1    2    0    0  0.31038163337E+02  0.85395726750E+01 -0.24836943140E+02  0.40659139555E+02  0.00000000000E+00 0. -1.
         11    1    3    3    0    0  0.17857010774E+01  0.67289090660E+01  0.33232115258E+01  0.77143166038E+01  0.51100000000E-03 0. -1.
        -11    1    3    3    0    0 -0.19236430421E+02 -0.12699585942E+02  0.15217219001E+02  0.27620345632E+02  0.51100000000E-03 0.  1.
         12    1    3    3    0    0 -0.13587433993E+02 -0.25688957993E+01  0.62965126133E+01  0.15194198210E+02  0.00000000000E+00 0. -1.
</event>
<event>
 7    1  0.2891523E-011  0.5052888E+02  0.7816164E-02  0.1300439E+00
        -11   -1    0    0    0    0  0.00000000000E+00  0.00000000000E+00  0.45593999997E+02  0.45594000000E+02  0.51100000000E-03 0.  1.
         11   -1    0    0    0    0 -0.00000000000E+00 -0.00000000000E+00 -0.45593999997E+02  0.45594000000E+02  0.51100000000E-03 0. -1.
    9900012    2    1    2    0    0 -0.13466475153E+02  0.76288699449E+01  0.37598120499E+02  0.50528877103E+02  0.30000052443E+02 0.  0.
         12    1    1    2    0    0  0.13466475153E+02 -0.76288699449E+01 -0.37598120499E+02  0.40659122897E+02  0.00000000000E+00 0. -1.
         11    1    3    3    0    0  0.30652337020E+01 -0.12853716042E+01  0.75953240104E+01  0.82907650367E+01  0.51100000000E-03 0. -1.
        -11    1    3    3    0    0 -0.12207642681E+02  0.32418344536E+01  0.13405168323E+01  0.12701693434E+02  0.51100000000E-03 0.  1.
        -12    1    3    3    0    0 -0.43240661731E+01  0.56724070955E+01  0.28662279656E+02  0.29536418632E+02  0.00000000000E+00 0.  1.
</event>
<event>
 7    1  0.2891523E-011  0.5052886E+02  0.7816164E-02  0.1300439E+00
        -11   -1    0    0    0    0  0.00000000000E+00  0.00000000000E+00  0.45593999997E+02  0.45594000000E+02  0.51100000000E-03 0. -1.
         11   -1    0    0    0    0 -0.00000000000E+00 -0.00000000000E+00 -0.45593999997E+02  0.45594000000E+02  0.51100000000E-03 0.  1.
    9900012    2    1    2    0    0  0.25761619147E+02 -0.31300494200E+02 -0.31279482942E+01  0.50528855656E+02  0.29999987253E+02 0.  0.
         12    1    1    2    0    0 -0.25761619147E+02  0.31300494200E+02  0.31279482942E+01  0.40659144344E+02  0.00000000000E+00 0. -1.
         11    1    3    3    0    0 -0.26887201474E+01 -0.44731898837E+00  0.18847794298E+01  0.33138654270E+01  0.51100000000E-03 0. -1.
        -11    1    3    3    0    0  0.18097994345E+02 -0.19668065271E+02  0.72048498170E+01  0.27681763888E+02  0.51100000000E-03 0.  1.
        -12    1    3    3    0    0  0.10352344949E+02 -0.11185109941E+02 -0.12217577541E+02  0.19533226341E+02  0.00000000000E+00 0.  1.
</event>
<event>
 7    1  0.2891523E-011  0.5052886E+02  0.7816164E-02  0.1300439E+00
        -11   -1    0    0    0    0  0.00000000000E+00  0.00000000000E+00  0.45593999997E+02  0.45594000000E+02  0.51100000000E-03 0. -1.
         11   -1    0    0    0    0 -0.00000000000E+00 -0.00000000000E+00 -0.45593999997E+02  0.45594000000E+02  0.51100000000E-03 0.  1.
    9900012    2    1    2    0    0 -0.25601214614E+02  0.25020109891E+02 -0.19280498469E+02  0.50528859455E+02  0.29999998799E+02 0.  0.
         12    1    1    2    0    0  0.25601214614E+02 -0.25020109891E+02  0.19280498469E+02  0.40659140545E+02  0.00000000000E+00 0. -1.
         11    1    3    3    0    0  0.46302098418E+00  0.77314557499E+01  0.49036691029E+00  0.77608154477E+01  0.51100000000E-03 0. -1.
        -11    1    3    3    0    0 -0.10864632480E+02 -0.21872668195E+01  0.68826615423E-01  0.11082829622E+02  0.51100000000E-03 0.  1.
        -12    1    3    3    0    0 -0.15199603118E+02  0.19475920961E+02 -0.19839691994E+02  0.31685214385E+02  0.00000000000E+00 0.  1.
</event>
<event>
 7    1  0.2891523E-011  0.5052886E+02  0.7816164E-02  0.1300439E+00
        -11   -1    0    0    0    0  0.00000000000E+00  0.00000000000E+00  0.45593999997E+02  0.45594000000E+02  0.51100000000E-03 0. -1.
         11   -1    0    0    0    0 -0.00000000000E+00 -0.00000000000E+00 -0.45593999997E+02  0.45594000000E+02  0.51100000000E-03 0.  1.
    9900012    2    1    2    0    0  0.27572579094E+02  0.15242806872E+02 -0.25701667314E+02  0.50528856108E+02  0.29999988627E+02 0.  0.
         12    1    1    2    0    0 -0.27572579094E+02 -0.15242806872E+02  0.25701667314E+02  0.40659143892E+02  0.00000000000E+00 0. -1.
         11    1    3    3    0    0  0.16014841371E+02  0.10416297051E+02 -0.65808560184E+00  0.19115634055E+02  0.51100000000E-03 0. -1.
        -11    1    3    3    0    0  0.81367487405E+01  0.95765300748E+01 -0.13336713872E+02  0.18324424834E+02  0.51100000000E-03 0.  1.
         12    1    3    3    0    0  0.34209889830E+01 -0.47500202533E+01 -0.11706867841E+02  0.13088797220E+02  0.00000000000E+00 0. -1.
</event>
<event>
 7    1  0.2891523E-011  0.5052885E+02  0.7816164E-02  0.1300439E+00
        -11   -1    0    0    0    0  0.00000000000E+00  0.00000000000E+00  0.45593999997E+02  0.45594000000E+02  0.51100000000E-03 0.  1.
         11   -1    0    0    0    0 -0.00000000000E+00 -0.00000000000E+00 -0.45593999997E+02  0.45594000000E+02  0.51100000000E-03 0. -1.
    9900012    2    1    2    0    0  0.24185052750E+02  0.22861578468E+02  0.23358039413E+02  0.50528849101E+02  0.29999967328E+02 0.  0.
         12    1    1    2    0    0 -0.24185052750E+02 -0.22861578468E+02 -0.23358039413E+02  0.40659150899E+02  0.00000000000E+00 0. -1.
         11    1    3    3    0    0  0.16069424530E+02  0.16795216843E+02  0.46878352921E+01  0.23712475904E+02  0.51100000000E-03 0. -1.
        -11    1    3    3    0    0 -0.13951862604E+01  0.69805293684E+00  0.15310822229E+02  0.15390097472E+02  0.51100000000E-03 0.  1.
         12    1    3    3    0    0  0.95108144798E+01  0.53683086887E+01  0.33593818921E+01  0.11426275725E+02  0.00000000000E+00 0. -1.
</event>
<event>
 7    1  0.2891523E-011  0.5052885E+02  0.7816164E-02  0.1300439E+00
        -11   -1    0    0    0    0  0.00000000000E+00  0.00000000000E+00  0.45593999997E+02  0.45594000000E+02  0.51100000000E-03 0.  1.
         11   -1    0    0    0    0 -0.00000000000E+00 -0.00000000000E+00 -0.45593999997E+02  0.45594000000E+02  0.51100000000E-03 0. -1.
    9900012    2    1    2    0    0 -0.10340307169E+02 -0.25208172218E+02  0.30179342424E+02  0.50528848409E+02  0.29999965225E+02 0.  0.
         12    1    1    2    0    0  0.10340307169E+02  0.25208172218E+02 -0.30179342424E+02  0.40659151591E+02  0.00000000000E+00 0. -1.
         11    1    3    3    0    0  0.21073939816E+00 -0.10507268692E+02  0.23684307221E+02  0.25911262325E+02  0.51100000000E-03 0. -1.
        -11    1    3    3    0    0 -0.51905456385E+01 -0.16919397060E+02  0.63876661685E+01  0.18815154537E+02  0.51100000000E-03 0.  1.
         12    1    3    3    0    0 -0.53605009281E+01  0.22184935341E+01  0.10736903485E+00  0.58024315482E+01  0.00000000000E+00 0. -1.
</event>
<event>
 7    1  0.2891523E-011  0.5052886E+02  0.7816164E-02  0.1300439E+00
        -11   -1    0    0    0    0  0.00000000000E+00  0.00000000000E+00  0.45593999997E+02  0.45594000000E+02  0.51100000000E-03 0. -1.
         11   -1    0    0    0    0 -0.00000000000E+00 -0.00000000000E+00 -0.45593999997E+02  0.45594000000E+02  0.51100000000E-03 0.  1.
    9900012    2    1    2    0    0  0.29295957451E+02 -0.27969329664E+02 -0.35537973088E+01  0.50528855886E+02  0.29999987950E+02 0.  0.
         12    1    1    2    0    0 -0.29295957451E+02  0.27969329664E+02  0.35537973088E+01  0.40659144114E+02  0.00000000000E+00 0. -1.
         11    1    3    3    0    0  0.72229945432E+01 -0.42839448787E+01 -0.13238357829E+02  0.15677306917E+02  0.51100000000E-03 0. -1.
        -11    1    3    3    0    0  0.15578722133E+02 -0.17658540836E+02  0.29701511475E+01  0.23734836125E+02  0.51100000000E-03 0.  1.
         12    1    3    3    0    0  0.64942407746E+01 -0.60268439486E+01  0.67144093730E+01  0.11116712844E+02  0.00000000000E+00 0. -1.
</event>
<event>
 7    1  0.2891523E-011  0.5052877E+02  0.7816164E-02  0.1300439E+00
        -11   -1    0    0    0    0  0.00000000000E+00  0.00000000000E+00  0.45593999997E+02  0.45594000000E+02  0.51100000000E-03 0.  1.
         11   -1    0    0    0    0 -0.00000000000E+00 -0.00000000000E+00 -0.45593999997E+02  0.45594000000E+02  0.51100000000E-03 0. -1.
    9900012    2    1    2    0    0 -0.25682421175E+02  0.31350645739E+02  0.32746506251E+01  0.50528768792E+02  0.29999723219E+02 0.  0.
         12    1    1    2    0    0  0.25682421175E+02 -0.31350645739E+02 -0.32746506251E+01  0.40659231208E+02  0.00000000000E+00 0. -1.
         11    1    3    3    0    0 -0.17432396793E+02  0.17950684046E+02 -0.64807152085E+01  0.25847924202E+02  0.51100000000E-03 0. -1.
        -11    1    3    3    0    0 -0.83263695504E+00 -0.12725268128E+00  0.92052313628E+01  0.92436876975E+01  0.51100000000E-03 0.  1.
        -12    1    3    3    0    0 -0.74173874273E+01  0.13527214375E+02  0.55013447086E+00  0.15437156893E+02  0.00000000000E+00 0.  1.
</event>
<event>
 7    1  0.2891523E-011  0.5052887E+02  0.7816164E-02  0.1300439E+00
        -11   -1    0    0    0    0  0.00000000000E+00  0.00000000000E+00  0.45593999997E+02  0.45594000000E+02  0.51100000000E-03 0.  1.
         11   -1    0    0    0    0 -0.00000000000E+00 -0.00000000000E+00 -0.45593999997E+02  0.45594000000E+02  0.51100000000E-03 0. -1.
    9900012    2    1    2    0    0  0.23994048552E+02 -0.25659494650E+02  0.20470496250E+02  0.50528865131E+02  0.30000016051E+02 0.  0.
         12    1    1    2    0    0 -0.23994048552E+02  0.25659494650E+02 -0.20470496250E+02  0.40659134869E+02  0.00000000000E+00 0. -1.
         11    1    3    3    0    0  0.25905075230E+01 -0.10387505546E+02 -0.39891368404E+01  0.11424719414E+02  0.51100000000E-03 0. -1.
        -11    1    3    3    0    0  0.22480714711E+02 -0.15403223869E+02  0.25698404093E+02  0.37457306532E+02  0.51100000000E-03 0.  1.
        -12    1    3    3    0    0 -0.10771736816E+01  0.13123476478E+00 -0.12387710026E+01  0.16468391848E+01  0.00000000000E+00 0.  1.
</event>
<event>
 7    1  0.2891523E-011  0.5052886E+02  0.7816164E-02  0.1300439E+00
        -11   -1    0    0    0    0  0.00000000000E+00  0.00000000000E+00  0.45593999997E+02  0.45594000000E+02  0.51100000000E-03 0. -1.
         11   -1    0    0    0    0 -0.00000000000E+00 -0.00000000000E+00 -0.45593999997E+02  0.45594000000E+02  0.51100000000E-03 0.  1.
    9900012    2    1    2    0    0 -0.42213388717E+01 -0.40093047855E+02 -0.52814048475E+01  0.50528862954E+02  0.30000009436E+02 0.  0.
         12    1    1    2    0    0  0.42213388717E+01  0.40093047855E+02  0.52814048475E+01  0.40659137046E+02  0.00000000000E+00 0. -1.
         11    1    3    3    0    0  0.72139185734E+01 -0.26393694362E+02  0.59091452780E+01  0.27992601191E+02  0.51100000000E-03 0. -1.
        -11    1    3    3    0    0 -0.23314277339E+01 -0.82482055329E+01 -0.28274971707E+01  0.90256961118E+01  0.51100000000E-03 0.  1.
         12    1    3    3    0    0 -0.91038297112E+01 -0.54511479594E+01 -0.83630529548E+01  0.13510565651E+02  0.00000000000E+00 0. -1.
</event>
<event>
 7    1  0.2891523E-011  0.5052886E+02  0.7816164E-02  0.1300439E+00
        -11   -1    0    0    0    0  0.00000000000E+00  0.00000000000E+00  0.45593999997E+02  0.45594000000E+02  0.51100000000E-03 0. -1.
         11   -1    0    0    0    0 -0.00000000000E+00 -0.00000000000E+00 -0.45593999997E+02  0.45594000000E+02  0.51100000000E-03 0.  1.
    9900012    2    1    2    0    0 -0.25077673781E+02  0.11859557482E+02 -0.29725861262E+02  0.50528860145E+02  0.30000000898E+02 0.  0.
         12    1    1    2    0    0  0.25077673781E+02 -0.11859557482E+02  0.29725861262E+02  0.40659139855E+02  0.00000000000E+00 0. -1.
         11    1    3    3    0    0 -0.55141137875E+01 -0.54013222526E-01 -0.61591832004E+00  0.55486686626E+01  0.51100000000E-03 0. -1.
        -11    1    3    3    0    0 -0.66918439630E+01 -0.19126350208E+01 -0.24590913144E+02  0.25556837791E+02  0.51100000000E-03 0.  1.
        -12    1    3    3    0    0 -0.12871716031E+02  0.13826205725E+02 -0.45190297984E+01  0.19423353692E+02  0.00000000000E+00 0.  1.
</event>
<event>
 7    1  0.2891523E-011  0.5052886E+02  0.7816164E-02  0.1300439E+00
        -11   -1    0    0    0    0  0.00000000000E+00  0.00000000000E+00  0.45593999997E+02  0.45594000000E+02  0.51100000000E-03 0. -1.
         11   -1    0    0    0    0 -0.00000000000E+00 -0.00000000000E+00 -0.45593999997E+02  0.45594000000E+02  0.51100000000E-03 0.  1.
    9900012    2    1    2    0    0 -0.26236689093E+02  0.74430145687E+01 -0.30156309122E+02  0.50528864492E+02  0.30000014109E+02 0.  0.
         12    1    1    2    0    0  0.26236689093E+02 -0.74430145687E+01  0.30156309122E+02  0.40659135508E+02  0.00000000000E+00 0. -1.
         11    1    3    3    0    0  0.98409339011E+00 -0.70157493210E+01 -0.90690403607E+00  0.71422442920E+01  0.51100000000E-03 0. -1.
        -11    1    3    3    0    0 -0.26544384801E+02  0.12784319938E+02 -0.24543634098E+02  0.38346227659E+02  0.51100000000E-03 0.  1.
        -12    1    3    3    0    0 -0.67639768279E+00  0.16744439520E+01 -0.47057709874E+01  0.50403925402E+01  0.00000000000E+00 0.  1.
</event>
<event>
 7    1  0.2891523E-011  0.5052886E+02  0.7816164E-02  0.1300439E+00
        -11   -1    0    0    0    0  0.00000000000E+00  0.00000000000E+00  0.45593999997E+02  0.45594000000E+02  0.51100000000E-03 0. -1.
         11   -1    0    0    0    0 -0.00000000000E+00 -0.00000000000E+00 -0.45593999997E+02  0.45594000000E+02  0.51100000000E-03 0.  1.
    9900012    2    1    2    0    0  0.26277725694E+02 -0.31024940108E+02 -0.31610350280E+00  0.50528859604E+02  0.29999999252E+02 0.  0.
         12    1    1    2    0    0 -0.26277725694E+02  0.31024940108E+02  0.31610350280E+00  0.40659140396E+02  0.00000000000E+00 0. -1.
         11    1    3    3    0    0 -0.18920079154E+01 -0.56064823160E+01 -0.50287870297E+01  0.77653742449E+01  0.51100000000E-03 0. -1.
        -11    1    3    3    0    0  0.30387233845E+02 -0.25334166229E+02  0.25184497793E+01  0.39642736394E+02  0.51100000000E-03 0.  1.
        -12    1    3    3    0    0 -0.22175002359E+01 -0.84291563131E-01  0.21942337476E+01  0.31207489651E+01  0.00000000000E+00 0.  1.
</event>
<event>
 7    1  0.2891523E-011  0.5052886E+02  0.7816164E-02  0.1300439E+00
        -11   -1    0    0    0    0  0.00000000000E+00  0.00000000000E+00  0.45593999997E+02  0.45594000000E+02  0.51100000000E-03 0.  1.
         11   -1    0    0    0    0 -0.00000000000E+00 -0.00000000000E+00 -0.45593999997E+02  0.45594000000E+02  0.51100000000E-03 0. -1.
    9900012    2    1    2    0    0  0.33236607593E+01 -0.24875557408E+02  0.31989462651E+02  0.50528858373E+02  0.29999995509E+02 0.  0.
         12    1    1    2    0    0 -0.33236607593E+01  0.24875557408E+02 -0.31989462651E+02  0.40659141627E+02  0.00000000000E+00 0. -1.
         11    1    3    3    0    0  0.13077156480E+02 -0.15987392237E+02  0.77994556497E+01  0.22078048846E+02  0.51100000000E-03 0. -1.
        -11    1    3    3    0    0 -0.50641931901E+01 -0.72351003896E+01  0.96353654221E+01  0.13070309767E+02  0.51100000000E-03 0.  1.
         12    1    3    3    0    0 -0.46893025302E+01 -0.16530647814E+01  0.14554641579E+02  0.15380499760E+02  0.00000000000E+00 0. -1.
</event>
<event>
 7    1  0.2891523E-011  0.5052885E+02  0.7816164E-02  0.1300439E+00
        -11   -1    0    0    0    0  0.00000000000E+00  0.00000000000E+00  0.45593999997E+02  0.45594000000E+02  0.51100000000E-03 0.  1.
         11   -1    0    0    0    0 -0.00000000000E+00 -0.00000000000E+00 -0.45593999997E+02  0.45594000000E+02  0.51100000000E-03 0. -1.
    9900012    2    1    2    0    0  0.11024681257E+02  0.37650953966E+02  0.10678400931E+02  0.50528853700E+02  0.29999981308E+02 0.  0.
         12    1    1    2    0    0 -0.11024681257E+02 -0.37650953966E+02 -0.10678400931E+02  0.40659146300E+02  0.00000000000E+00 0. -1.
         11    1    3    3    0    0  0.69877407130E+01 -0.21532609411E+01  0.46645886807E+01  0.86731448030E+01  0.51100000000E-03 0. -1.
        -11    1    3    3    0    0  0.35688669788E+01  0.29611841341E+02  0.91216326618E+01  0.31189776239E+02  0.51100000000E-03 0.  1.
         12    1    3    3    0    0  0.46807356539E+00  0.10192373566E+02 -0.31078204120E+01  0.10665932659E+02  0.00000000000E+00 0. -1.
</event>
<event>
 7    1  0.2891523E-011  0.5052886E+02  0.7816164E-02  0.1300439E+00
        -11   -1    0    0    0    0  0.00000000000E+00  0.00000000000E+00  0.45593999997E+02  0.45594000000E+02  0.51100000000E-03 0.  1.
         11   -1    0    0    0    0 -0.00000000000E+00 -0.00000000000E+00 -0.45593999997E+02  0.45594000000E+02  0.51100000000E-03 0. -1.
    9900012    2    1    2    0    0  0.12412272241E+02  0.35482351527E+02  0.15495297528E+02  0.50528855671E+02  0.29999987298E+02 0.  0.
         12    1    1    2    0    0 -0.12412272241E+02 -0.35482351527E+02 -0.15495297528E+02  0.40659144329E+02  0.00000000000E+00 0. -1.
         11    1    3    3    0    0  0.38756249461E+00 -0.98384595166E+00 -0.26890152911E+01  0.28894568764E+01  0.51100000000E-03 0. -1.
        -11    1    3    3    0    0  0.72647452959E+01  0.35665394401E+02  0.21029757919E+02  0.42036265300E+02  0.51100000000E-03 0.  1.
        -12    1    3    3    0    0  0.47599644510E+01  0.80080307708E+00 -0.28454450995E+01  0.56031334945E+01  0.00000000000E+00 0.  1.
</event>
<event>
 7    1  0.4408731E-011  0.5052886E+02  0.7816164E-02  0.1300439E+00
        -11   -1    0    0    0    0  0.00000000000E+00  0.00000000000E+00  0.45593999997E+02  0.45594000000E+02  0.51100000000E-03 0. -1.
         11   -1    0    0    0    0 -0.00000000000E+00 -0.00000000000E+00 -0.45593999997E+02  0.45594000000E+02  0.51100000000E-03 0.  1.
    9900012    2    1    2    0    0  0.17093046793E+02  0.36329074526E+01 -0.36712331400E+02  0.50528861519E+02  0.30000005073E+02 0.  0.
         12    1    1    2    0    0 -0.17093046793E+02 -0.36329074526E+01  0.36712331400E+02  0.40659138481E+02  0.00000000000E+00 0. -1.
         11    1    3    3    0    0  0.27464788501E+01  0.29781077403E+01  0.25041572155E+01  0.47626752365E+01  0.51100000000E-03 0. -1.
        -11    1    3    3    0    0  0.13689548446E+02  0.81721008413E+01 -0.28556710325E+02  0.32705850755E+02  0.51100000000E-03 0.  1.
        -12    1    3    3    0    0  0.65701949696E+00 -0.75173011291E+01 -0.10659778290E+02  0.13060335527E+02  0.00000000000E+00 0.  1.
</event>
<event>
 7    1  0.2891523E-011  0.5052886E+02  0.7816164E-02  0.1300439E+00
        -11   -1    0    0    0    0  0.00000000000E+00  0.00000000000E+00  0.45593999997E+02  0.45594000000E+02  0.51100000000E-03 0.  1.
         11   -1    0    0    0    0 -0.00000000000E+00 -0.00000000000E+00 -0.45593999997E+02  0.45594000000E+02  0.51100000000E-03 0. -1.
    9900012    2    1    2    0    0 -0.89063931067E+01 -0.26629119648E+02  0.29406316708E+02  0.50528864326E+02  0.30000013606E+02 0.  0.
         12    1    1    2    0    0  0.89063931067E+01  0.26629119648E+02 -0.29406316708E+02  0.40659135674E+02  0.00000000000E+00 0. -1.
         11    1    3    3    0    0 -0.32991171883E+01 -0.41738948486E+01  0.22563430042E+02  0.23182190318E+02  0.51100000000E-03 0. -1.
        -11    1    3    3    0    0 -0.75569418058E+01 -0.89149988410E+01 -0.73157280186E+00  0.11709815234E+02  0.51100000000E-03 0.  1.
        -12    1    3    3    0    0  0.19496658874E+01 -0.13540225958E+02  0.75744594682E+01  0.15636858774E+02  0.00000000000E+00 0.  1.
</event>
<event>
 7    1  0.2891523E-011  0.5052886E+02  0.7816164E-02  0.1300439E+00
        -11   -1    0    0    0    0  0.00000000000E+00  0.00000000000E+00  0.45593999997E+02  0.45594000000E+02  0.51100000000E-03 0.  1.
         11   -1    0    0    0    0 -0.00000000000E+00 -0.00000000000E+00 -0.45593999997E+02  0.45594000000E+02  0.51100000000E-03 0. -1.
    9900012    2    1    2    0    0 -0.17103481291E+02 -0.38951819781E+01  0.36680565202E+02  0.50528863530E+02  0.30000011186E+02 0.  0.
         12    1    1    2    0    0  0.17103481291E+02  0.38951819781E+01 -0.36680565202E+02  0.40659136470E+02  0.00000000000E+00 0. -1.
         11    1    3    3    0    0  0.11925965854E+01  0.17276083160E+01 -0.39244398493E+01  0.44506342808E+01  0.51100000000E-03 0. -1.
        -11    1    3    3    0    0 -0.93842843997E+01 -0.22210861656E+01  0.94744117504E+01  0.13518967998E+02  0.51100000000E-03 0.  1.
         12    1    3    3    0    0 -0.89117934767E+01 -0.34017041286E+01  0.31130593301E+02  0.32559261251E+02  0.00000000000E+00 0. -1.
</event>
<event>
 7    1  0.2891523E-011  0.5052888E+02  0.7816164E-02  0.1300439E+00
        -11   -1    0    0    0    0  0.00000000000E+00  0.00000000000E+00  0.45593999997E+02  0.45594000000E+02  0.51100000000E-03 0.  1.
         11   -1    0    0    0    0 -0.00000000000E+00 -0.00000000000E+00 -0.45593999997E+02  0.45594000000E+02  0.51100000000E-03 0. -1.
    9900012    2    1    2    0    0  0.29291694985E+02  0.10492385651E+02  0.26173844525E+02  0.50528884306E+02  0.30000074337E+02 0.  0.
         12    1    1    2    0    0 -0.29291694985E+02 -0.10492385651E+02 -0.26173844525E+02  0.40659115694E+02  0.00000000000E+00 0. -1.
         11    1    3    3    0    0  0.17308291320E+01  0.23126867768E+01 -0.23388211867E+01  0.37167693521E+01  0.51100000000E-03 0. -1.
        -11    1    3    3    0    0  0.23181025538E+02  0.15610109763E+02  0.25006655276E+02  0.37501577036E+02  0.51100000000E-03 0.  1.
        -12    1    3    3    0    0  0.43798403146E+01 -0.74304108885E+01  0.35060104361E+01  0.93105379185E+01  0.00000000000E+00 0.  1.
</event>
<event>
 7    1  0.2891523E-011  0.5052886E+02  0.7816164E-02  0.1300439E+00
        -11   -1    0    0    0    0  0.00000000000E+00  0.00000000000E+00  0.45593999997E+02  0.45594000000E+02  0.51100000000E-03 0.  1.
         11   -1    0    0    0    0 -0.00000000000E+00 -0.00000000000E+00 -0.45593999997E+02  0.45594000000E+02  0.51100000000E-03 0. -1.
    9900012    2    1    2    0    0  0.12718974487E+01 -0.16583657378E+02  0.37101621002E+02  0.50528859624E+02  0.29999999312E+02 0.  0.
         12    1    1    2    0    0 -0.12718974487E+01  0.16583657378E+02 -0.37101621002E+02  0.40659140376E+02  0.00000000000E+00 0. -1.
         11    1    3    3    0    0 -0.36902191766E+01 -0.37380622156E+01  0.11020642740E+01  0.53670636873E+01  0.51100000000E-03 0. -1.
        -11    1    3    3    0    0  0.65837269140E+01 -0.15868270560E+01  0.32590916006E+02  0.33287103908E+02  0.51100000000E-03 0.  1.
        -12    1    3    3    0    0 -0.16216102887E+01 -0.11258768106E+02  0.34086407221E+01  0.11874692029E+02  0.00000000000E+00 0.  1.
</event>
<event>
 7    1  0.2891523E-011  0.5052884E+02  0.7816164E-02  0.1300439E+00
        -11   -1    0    0    0    0  0.00000000000E+00  0.00000000000E+00  0.45593999997E+02  0.45594000000E+02  0.51100000000E-03 0.  1.
         11   -1    0    0    0    0 -0.00000000000E+00 -0.00000000000E+00 -0.45593999997E+02  0.45594000000E+02  0.51100000000E-03 0. -1.
    9900012    2    1    2    0    0 -0.13974628895E+02  0.18876741767E+02  0.33189543781E+02  0.50528838069E+02  0.29999933795E+02 0.  0.
         12    1    1    2    0    0  0.13974628895E+02 -0.18876741767E+02 -0.33189543781E+02  0.40659161931E+02  0.00000000000E+00 0. -1.
         11    1    3    3    0    0 -0.98911149625E+01  0.11075767306E+02  0.62466599850E+01  0.16109858405E+02  0.51100000000E-03 0. -1.
        -11    1    3    3    0    0 -0.16679402811E+01  0.79642281367E+01  0.29673891163E+02  0.30769315424E+02  0.51100000000E-03 0.  1.
         12    1    3    3    0    0 -0.24155736513E+01 -0.16325367519E+00 -0.27310073670E+01  0.36496642402E+01  0.00000000000E+00 0. -1.
</event>
<event>
 7    1  0.2891523E-011  0.5052884E+02  0.7816164E-02  0.1300439E+00
        -11   -1    0    0    0    0  0.00000000000E+00  0.00000000000E+00  0.45593999997E+02  0.45594000000E+02  0.51100000000E-03 0.  1.
         11   -1    0    0    0    0 -0.00000000000E+00 -0.00000000000E+00 -0.45593999997E+02  0.45594000000E+02  0.51100000000E-03 0. -1.
    9900012    2    1    2    0    0  0.15070062614E+02  0.36606506248E+02  0.92749310715E+01  0.50528838262E+02  0.29999934382E+02 0.  0.
         12    1    1    2    0    0 -0.15070062614E+02 -0.36606506248E+02 -0.92749310715E+01  0.40659161738E+02  0.00000000000E+00 0. -1.
         11    1    3    3    0    0  0.18413126586E+02  0.36195732903E+02  0.48397908574E+00  0.40612911089E+02  0.51100000000E-03 0. -1.
        -11    1    3    3    0    0 -0.96713643579E+00  0.24226662318E+00  0.66151278082E+01  0.66898402209E+01  0.51100000000E-03 0.  1.
         12    1    3    3    0    0 -0.23759275367E+01  0.16850672129E+00  0.21758241776E+01  0.32260869528E+01  0.00000000000E+00 0. -1.
</event>
<event>
 7    1  0.2891523E-011  0.5052881E+02  0.7816164E-02  0.1300439E+00
        -11   -1    0    0    0    0  0.00000000000E+00  0.00000000000E+00  0.45593999997E+02  0.45594000000E+02  0.51100000000E-03 0. -1.
         11   -1    0    0    0    0 -0.00000000000E+00 -0.00000000000E+00 -0.45593999997E+02  0.45594000000E+02  0.51100000000E-03 0.  1.
    9900012    2    1    2    0    0  0.10760546558E+02  0.19204088510E+02 -0.34184554394E+02  0.50528805015E+02  0.29999833322E+02 0.  0.
         12    1    1    2    0    0 -0.10760546558E+02 -0.19204088510E+02  0.34184554394E+02  0.40659194985E+02  0.00000000000E+00 0. -1.
         11    1    3    3    0    0  0.49335355205E+01  0.26609597814E+01  0.21362089164E+01  0.59986555565E+01  0.51100000000E-03 0. -1.
        -11    1    3    3    0    0  0.12487152284E+02  0.13247666861E+02 -0.27723610402E+02  0.33166673384E+02  0.51100000000E-03 0.  1.
         12    1    3    3    0    0 -0.66601412466E+01  0.32954618683E+01 -0.85971529087E+01  0.11363476074E+02  0.00000000000E+00 0. -1.
</event>
<event>
 7    1  0.2891523E-011  0.5052886E+02  0.7816164E-02  0.1300439E+00
        -11   -1    0    0    0    0  0.00000000000E+00  0.00000000000E+00  0.45593999997E+02  0.45594000000E+02  0.51100000000E-03 0.  1.
         11   -1    0    0    0    0 -0.00000000000E+00 -0.00000000000E+00 -0.45593999997E+02  0.45594000000E+02  0.51100000000E-03 0. -1.
    9900012    2    1    2    0    0 -0.30694845853E+02  0.15741018404E+02  0.21522365521E+02  0.50528862774E+02  0.30000008889E+02 0.  0.
         12    1    1    2    0    0  0.30694845853E+02 -0.15741018404E+02 -0.21522365521E+02  0.40659137226E+02  0.00000000000E+00 0. -1.
         11    1    3    3    0    0 -0.11192459271E+02  0.12902466017E+02  0.21954990886E+02  0.27816656861E+02  0.51100000000E-03 0. -1.
        -11    1    3    3    0    0 -0.33753985315E+01  0.79816790701E+00 -0.47608166247E+01  0.58903108958E+01  0.51100000000E-03 0.  1.
        -12    1    3    3    0    0 -0.16126988051E+02  0.20403844794E+01  0.43281912604E+01  0.16821895018E+02  0.00000000000E+00 0.  1.
</event>
<event>
 7    1  0.2891523E-011  0.5052886E+02  0.7816164E-02  0.1300439E+00
        -11   -1    0    0    0    0  0.00000000000E+00  0.00000000000E+00  0.45593999997E+02  0.45594000000E+02  0.51100000000E-03 0.  1.
         11   -1    0    0    0    0 -0.00000000000E+00 -0.00000000000E+00 -0.45593999997E+02  0.45594000000E+02  0.51100000000E-03 0. -1.
    9900012    2    1    2    0    0 -0.93615671927E+01 -0.34215025096E+02  0.19871048791E+02  0.50528862494E+02  0.30000008038E+02 0.  0.
         12    1    1    2    0    0  0.93615671927E+01  0.34215025096E+02 -0.19871048791E+02  0.40659137506E+02  0.00000000000E+00 0. -1.
         11    1    3    3    0    0 -0.17521532695E+02 -0.16618500498E+02  0.13101822285E+02  0.27474286419E+02  0.51100000000E-03 0. -1.
        -11    1    3    3    0    0  0.43640414959E+01 -0.45966150726E+01  0.70872879464E+01  0.95080691521E+01  0.51100000000E-03 0.  1.
         12    1    3    3    0    0  0.37959240061E+01 -0.12999909526E+02 -0.31806144087E+00  0.13546506924E+02  0.00000000000E+00 0. -1.
</event>
<event>
 7    1  0.2891523E-011  0.5052882E+02  0.7816164E-02  0.1300439E+00
        -11   -1    0    0    0    0  0.00000000000E+00  0.00000000000E+00  0.45593999997E+02  0.45594000000E+02  0.51100000000E-03 0.  1.
         11   -1    0    0    0    0 -0.00000000000E+00 -0.00000000000E+00 -0.45593999997E+02  0.45594000000E+02  0.51100000000E-03 0. -1.
    9900012    2    1    2    0    0 -0.31673452434E+02 -0.19455230200E+02  0.16475893821E+02  0.50528823318E+02  0.29999888958E+02 0.  0.
         12    1    1    2    0    0  0.31673452434E+02  0.19455230200E+02 -0.16475893821E+02  0.40659176682E+02  0.00000000000E+00 0. -1.
         11    1    3    3    0    0 -0.69475713794E+01  0.30539077944E+01  0.51830763397E+01  0.91901785343E+01  0.51100000000E-03 0. -1.
        -11    1    3    3    0    0 -0.26170438419E+02 -0.23444895126E+02  0.14250905649E+02  0.37916266518E+02  0.51100000000E-03 0.  1.
         12    1    3    3    0    0  0.14445573643E+01  0.93575713250E+00 -0.29580881679E+01  0.34223782665E+01  0.00000000000E+00 0. -1.
</event>
<event>
 7    1  0.2891523E-011  0.5052886E+02  0.7816164E-02  0.1300439E+00
        -11   -1    0    0    0    0  0.00000000000E+00  0.00000000000E+00  0.45593999997E+02  0.45594000000E+02  0.51100000000E-03 0. -1.
         11   -1    0    0    0    0 -0.00000000000E+00 -0.00000000000E+00 -0.45593999997E+02  0.45594000000E+02  0.51100000000E-03 0.  1.
    9900012    2    1    2    0    0  0.14841371656E+02 -0.20846508766E+02 -0.31596240649E+02  0.50528860025E+02  0.30000000532E+02 0.  0.
         12    1    1    2    0    0 -0.14841371656E+02  0.20846508766E+02  0.31596240649E+02  0.40659139975E+02  0.00000000000E+00 0. -1.
         11    1    3    3    0    0 -0.47848213563E+01 -0.26107649513E+01 -0.90233085833E+01  0.10541855012E+02  0.51100000000E-03 0. -1.
        -11    1    3    3    0    0  0.11585689271E+02 -0.46737339036E+01 -0.48633255598E-01  0.12492972022E+02  0.51100000000E-03 0.  1.
        -12    1    3    3    0    0  0.80405037411E+01 -0.13562009912E+02 -0.22524298810E+02  0.27494032991E+02  0.00000000000E+00 0.  1.
</event>
<event>
 7    1  0.2891523E-011  0.5052887E+02  0.7816164E-02  0.1300439E+00
        -11   -1    0    0    0    0  0.00000000000E+00  0.00000000000E+00  0.45593999997E+02  0.45594000000E+02  0.51100000000E-03 0.  1.
         11   -1    0    0    0    0 -0.00000000000E+00 -0.00000000000E+00 -0.45593999997E+02  0.45594000000E+02  0.51100000000E-03 0. -1.
    9900012    2    1    2    0    0 -0.18637901125E+01  0.37130297091E+02  0.16463057791E+02  0.50528868830E+02  0.30000027296E+02 0.  0.
         12    1    1    2    0    0  0.18637901125E+01 -0.37130297091E+02 -0.16463057791E+02  0.40659131170E+02  0.00000000000E+00 0. -1.
         11    1    3    3    0    0 -0.58694205022E+01  0.22243104104E+02  0.13130344676E+02  0.26487954409E+02  0.51100000000E-03 0. -1.
        -11    1    3    3    0    0  0.83029118461E+01  0.13894681450E+01  0.49785600912E+01  0.97803388332E+01  0.51100000000E-03 0.  1.
         12    1    3    3    0    0 -0.42972814565E+01  0.13497724842E+02 -0.16458469762E+01  0.14260575588E+02  0.00000000000E+00 0. -1.
</event>
<event>
 7    1  0.2891523E-011  0.5052886E+02  0.7816164E-02  0.1300439E+00
        -11   -1    0    0    0    0  0.00000000000E+00  0.00000000000E+00  0.45593999997E+02  0.45594000000E+02  0.51100000000E-03 0.  1.
         11   -1    0    0    0    0 -0.00000000000E+00 -0.00000000000E+00 -0.45593999997E+02  0.45594000000E+02  0.51100000000E-03 0. -1.
    9900012    2    1    2    0    0  0.25247155631E+02  0.29712867809E+02  0.11527892561E+02  0.50528859726E+02  0.29999999624E+02 0.  0.
         12    1    1    2    0    0 -0.25247155631E+02 -0.29712867809E+02 -0.11527892561E+02  0.40659140274E+02  0.00000000000E+00 0. -1.
         11    1    3    3    0    0 -0.48669494710E+01 -0.16163809091E+01  0.11036458494E+01  0.52457524550E+01  0.51100000000E-03 0. -1.
        -11    1    3    3    0    0  0.19356021850E+02  0.17808950227E+02  0.95513964695E+01  0.27982913801E+02  0.51100000000E-03 0.  1.
         12    1    3    3    0    0  0.10758083253E+02  0.13520298491E+02  0.87285024229E+00  0.17300193470E+02  0.00000000000E+00 0. -1.
</event>
<event>
 7    1  0.2891523E-011  0.5052886E+02  0.7816164E-02  0.1300439E+00
        -11   -1    0    0    0    0  0.00000000000E+00  0.00000000000E+00  0.45593999997E+02  0.45594000000E+02  0.51100000000E-03 0. -1.
         11   -1    0    0    0    0 -0.00000000000E+00 -0.00000000000E+00 -0.45593999997E+02  0.45594000000E+02  0.51100000000E-03 0.  1.
    9900012    2    1    2    0    0  0.30944338886E+02  0.24923113246E+02 -0.86285484924E+01  0.50528861641E+02  0.30000005445E+02 0.  0.
         12    1    1    2    0    0 -0.30944338886E+02 -0.24923113246E+02  0.86285484924E+01  0.40659138359E+02  0.00000000000E+00 0. -1.
         11    1    3    3    0    0  0.66328606354E+01  0.18746857403E+02  0.29298028085E+01  0.20100329536E+02  0.51100000000E-03 0. -1.
        -11    1    3    3    0    0  0.24899855039E+02  0.34493846248E+01 -0.91759174670E+01  0.26760016757E+02  0.51100000000E-03 0.  1.
        -12    1    3    3    0    0 -0.58837678777E+00  0.27268712184E+01 -0.23824338339E+01  0.36685153481E+01  0.00000000000E+00 0.  1.
</event>
<event>
 7    1  0.2891523E-011  0.5052886E+02  0.7816164E-02  0.1300439E+00
        -11   -1    0    0    0    0  0.00000000000E+00  0.00000000000E+00  0.45593999997E+02  0.45594000000E+02  0.51100000000E-03 0.  1.
         11   -1    0    0    0    0 -0.00000000000E+00 -0.00000000000E+00 -0.45593999997E+02  0.45594000000E+02  0.51100000000E-03 0. -1.
    9900012    2    1    2    0    0  0.82514812247E+00  0.39026684658E+02  0.11375536248E+02  0.50528858226E+02  0.29999995064E+02 0.  0.
         12    1    1    2    0    0 -0.82514812247E+00 -0.39026684658E+02 -0.11375536248E+02  0.40659141774E+02  0.00000000000E+00 0. -1.
         11    1    3    3    0    0  0.59923464843E+01  0.11302938417E+02  0.15809286621E+02  0.20337113290E+02  0.51100000000E-03 0. -1.
        -11    1    3    3    0    0 -0.69621762907E+01  0.17095089202E+02  0.19822485907E+00  0.18459503430E+02  0.51100000000E-03 0.  1.
         12    1    3    3    0    0  0.17949779289E+01  0.10628657039E+02 -0.46319752314E+01  0.11732241507E+02  0.00000000000E+00 0. -1.
</event>
<event>
 7    1  0.2891523E-011  0.5052887E+02  0.7816164E-02  0.1300439E+00
        -11   -1    0    0    0    0  0.00000000000E+00  0.00000000000E+00  0.45593999997E+02  0.45594000000E+02  0.51100000000E-03 0.  1.
         11   -1    0    0    0    0 -0.00000000000E+00 -0.00000000000E+00 -0.45593999997E+02  0.45594000000E+02  0.51100000000E-03 0. -1.
    9900012    2    1    2    0    0  0.13274531288E+02  0.24839046121E+02  0.29325307219E+02  0.50528867734E+02  0.30000023965E+02 0.  0.
         12    1    1    2    0    0 -0.13274531288E+02 -0.24839046121E+02 -0.29325307219E+02  0.40659132266E+02  0.00000000000E+00 0. -1.
         11    1    3    3    0    0 -0.23147702575E+01  0.20201313416E+01 -0.17249552201E+01  0.35234305378E+01  0.51100000000E-03 0. -1.
        -11    1    3    3    0    0  0.82018698297E+01  0.12390160872E+02  0.30829380232E+02  0.34223346430E+02  0.51100000000E-03 0.  1.
        -12    1    3    3    0    0  0.73874317156E+01  0.10428753907E+02  0.22088220708E+00  0.12782090766E+02  0.00000000000E+00 0.  1.
</event>
<event>
 7    1  0.2891523E-011  0.5052886E+02  0.7816164E-02  0.1300439E+00
        -11   -1    0    0    0    0  0.00000000000E+00  0.00000000000E+00  0.45593999997E+02  0.45594000000E+02  0.51100000000E-03 0. -1.
         11   -1    0    0    0    0 -0.00000000000E+00 -0.00000000000E+00 -0.45593999997E+02  0.45594000000E+02  0.51100000000E-03 0.  1.
    9900012    2    1    2    0    0 -0.23113777128E+02  0.32679072319E+02  0.71412233279E+01  0.50528861650E+02  0.30000005470E+02 0.  0.
         12    1    1    2    0    0  0.23113777128E+02 -0.32679072319E+02 -0.71412233279E+01  0.40659138350E+02  0.00000000000E+00 0. -1.
         11    1    3    3    0    0 -0.17349180056E+02  0.19947922272E+02  0.14145856475E+02  0.29983643995E+02  0.51100000000E-03 0. -1.
        -11    1    3    3    0    0 -0.95710649103E+00  0.13956187736E+02 -0.68637161469E+01  0.15582099620E+02  0.51100000000E-03 0.  1.
        -12    1    3    3    0    0 -0.48074905808E+01 -0.12250376884E+01 -0.14091699976E+00  0.49631180344E+01  0.00000000000E+00 0.  1.
</event>
<event>
 7    1  0.2891523E-011  0.5052885E+02  0.7816164E-02  0.1300439E+00
        -11   -1    0    0    0    0  0.00000000000E+00  0.00000000000E+00  0.45593999997E+02  0.45594000000E+02  0.51100000000E-03 0.  1.
         11   -1    0    0    0    0 -0.00000000000E+00 -0.00000000000E+00 -0.45593999997E+02  0.45594000000E+02  0.51100000000E-03 0. -1.
    9900012    2    1    2    0    0  0.18040139952E+02  0.23272358970E+02  0.28037773462E+02  0.50528854876E+02  0.29999984881E+02 0.  0.
         12    1    1    2    0    0 -0.18040139952E+02 -0.23272358970E+02 -0.28037773462E+02  0.40659145124E+02  0.00000000000E+00 0. -1.
         11    1    3    3    0    0 -0.34330642921E+01  0.11084092900E+02  0.29021514195E+01  0.11961000333E+02  0.51100000000E-03 0. -1.
        -11    1    3    3    0    0  0.19315377402E+02  0.15734329713E+02  0.22968652606E+02  0.33885276131E+02  0.51100000000E-03 0.  1.
         12    1    3    3    0    0  0.21578268417E+01 -0.35460636429E+01  0.21669694363E+01  0.46825784111E+01  0.00000000000E+00 0. -1.
</event>
<event>
 7    1  0.2891523E-011  0.5052886E+02  0.7816164E-02  0.1300439E+00
        -11   -1    0    0    0    0  0.00000000000E+00  0.00000000000E+00  0.45593999997E+02  0.45594000000E+02  0.51100000000E-03 0. -1.
         11   -1    0    0    0    0 -0.00000000000E+00 -0.00000000000E+00 -0.45593999997E+02  0.45594000000E+02  0.51100000000E-03 0.  1.
    9900012    2    1    2    0    0  0.38434902829E+02 -0.90728357010E+01 -0.96751062278E+01  0.50528858547E+02  0.29999996041E+02 0.  0.
         12    1    1    2    0    0 -0.38434902829E+02  0.90728357010E+01  0.96751062278E+01  0.40659141453E+02  0.00000000000E+00 0. -1.
         11    1    3    3    0    0  0.23957655668E+02 -0.19070473070E+02 -0.57797307624E+01  0.31161795458E+02  0.51100000000E-03 0. -1.
        -11    1    3    3    0    0  0.87633970031E+01  0.95498485365E+01 -0.11505314904E+01  0.13012319435E+02  0.51100000000E-03 0.  1.
        -12    1    3    3    0    0  0.57138501584E+01  0.44778883258E+00 -0.27448439750E+01  0.63547436548E+01  0.00000000000E+00 0.  1.
</event>
<event>
 7    1  0.2891523E-011  0.5052885E+02  0.7816164E-02  0.1300439E+00
        -11   -1    0    0    0    0  0.00000000000E+00  0.00000000000E+00  0.45593999997E+02  0.45594000000E+02  0.51100000000E-03 0. -1.
         11   -1    0    0    0    0 -0.00000000000E+00 -0.00000000000E+00 -0.45593999997E+02  0.45594000000E+02  0.51100000000E-03 0.  1.
    9900012    2    1    2    0    0 -0.26034247418E+02 -0.30409917949E+02 -0.71148939916E+01  0.50528845252E+02  0.29999955628E+02 0.  0.
         12    1    1    2    0    0  0.26034247418E+02  0.30409917949E+02  0.71148939916E+01  0.40659154748E+02  0.00000000000E+00 0. -1.
         11    1    3    3    0    0 -0.49387676707E+01 -0.13385257254E+01  0.62998298516E+01  0.81160910322E+01  0.51100000000E-03 0. -1.
        -11    1    3    3    0    0 -0.33773301458E+01 -0.15644653223E+02 -0.12243562856E+02  0.20151088434E+02  0.51100000000E-03 0.  1.
         12    1    3    3    0    0 -0.17718149602E+02 -0.13426739000E+02 -0.11711609869E+01  0.22261665786E+02  0.00000000000E+00 0. -1.
</event>
<event>
 7    1  0.2891523E-011  0.5052880E+02  0.7816164E-02  0.1300439E+00
        -11   -1    0    0    0    0  0.00000000000E+00  0.00000000000E+00  0.45593999997E+02  0.45594000000E+02  0.51100000000E-03 0.  1.
         11   -1    0    0    0    0 -0.00000000000E+00 -0.00000000000E+00 -0.45593999997E+02  0.45594000000E+02  0.51100000000E-03 0. -1.
    9900012    2    1    2    0    0 -0.31482047440E+02  0.55419807987E+01  0.25126441394E+02  0.50528795392E+02  0.29999804074E+02 0.  0.
         12    1    1    2    0    0  0.31482047440E+02 -0.55419807987E+01 -0.25126441394E+02  0.40659204608E+02  0.00000000000E+00 0. -1.
         11    1    3    3    0    0 -0.11237062308E+02  0.93310438284E+01  0.62147888484E+00  0.14619377022E+02  0.51100000000E-03 0.  1.
        -11    1    3    3    0    0 -0.77964274246E+01 -0.95902205402E+01  0.13562278856E+02  0.18349169426E+02  0.51100000000E-03 0. -1.
         12    1    3    3    0    0 -0.12448557708E+02  0.58011575105E+01  0.10942683654E+02  0.17560248945E+02  0.00000000000E+00 0. -1.
</event>
<event>
 7    1  0.2891523E-011  0.5052886E+02  0.7816164E-02  0.1300439E+00
        -11   -1    0    0    0    0  0.00000000000E+00  0.00000000000E+00  0.45593999997E+02  0.45594000000E+02  0.51100000000E-03 0. -1.
         11   -1    0    0    0    0 -0.00000000000E+00 -0.00000000000E+00 -0.45593999997E+02  0.45594000000E+02  0.51100000000E-03 0.  1.
    9900012    2    1    2    0    0  0.64423018696E+01  0.37788799206E+02 -0.13552449462E+02  0.50528862217E+02  0.30000007196E+02 0.  0.
         12    1    1    2    0    0 -0.64423018696E+01 -0.37788799206E+02  0.13552449462E+02  0.40659137783E+02  0.00000000000E+00 0. -1.
         11    1    3    3    0    0 -0.32787797058E+01  0.12606437888E+02  0.58313026796E+01  0.14271536840E+02  0.51100000000E-03 0. -1.
        -11    1    3    3    0    0  0.26955490557E+01  0.83560279843E+01 -0.15193406737E+02  0.17547900072E+02  0.51100000000E-03 0.  1.
        -12    1    3    3    0    0  0.70255325196E+01  0.16826333334E+02 -0.41903454044E+01  0.18709425305E+02  0.00000000000E+00 0.  1.
</event>
<event>
 7    1  0.2891523E-011  0.5052885E+02  0.7816164E-02  0.1300439E+00
        -11   -1    0    0    0    0  0.00000000000E+00  0.00000000000E+00  0.45593999997E+02  0.45594000000E+02  0.51100000000E-03 0.  1.
         11   -1    0    0    0    0 -0.00000000000E+00 -0.00000000000E+00 -0.45593999997E+02  0.45594000000E+02  0.51100000000E-03 0. -1.
    9900012    2    1    2    0    0  0.42711994654E+01 -0.31868670705E+02  0.24885955972E+02  0.50528854386E+02  0.29999983393E+02 0.  0.
         12    1    1    2    0    0 -0.42711994654E+01  0.31868670705E+02 -0.24885955972E+02  0.40659145614E+02  0.00000000000E+00 0. -1.
         11    1    3    3    0    0 -0.78234477930E+01 -0.16624989941E+02  0.62963970527E+01  0.19422699144E+02  0.51100000000E-03 0. -1.
        -11    1    3    3    0    0  0.87992787297E+01 -0.52545088181E+01  0.17822972565E+02  0.20559560316E+02  0.51100000000E-03 0.  1.
        -12    1    3    3    0    0  0.32953685287E+01 -0.99891719455E+01  0.76658635436E+00  0.10546594926E+02  0.00000000000E+00 0.  1.
</event>
<event>
 7    1  0.2891523E-011  0.5052886E+02  0.7816164E-02  0.1300439E+00
        -11   -1    0    0    0    0  0.00000000000E+00  0.00000000000E+00  0.45593999997E+02  0.45594000000E+02  0.51100000000E-03 0.  1.
         11   -1    0    0    0    0 -0.00000000000E+00 -0.00000000000E+00 -0.45593999997E+02  0.45594000000E+02  0.51100000000E-03 0. -1.
    9900012    2    1    2    0    0  0.25495629259E+02 -0.22316382272E+01  0.31593647289E+02  0.50528857491E+02  0.29999992831E+02 0.  0.
         12    1    1    2    0    0 -0.25495629259E+02  0.22316382272E+01 -0.31593647289E+02  0.40659142509E+02  0.00000000000E+00 0. -1.
         11    1    3    3    0    0 -0.12677450274E+01  0.46357137990E+01  0.24286077517E+01  0.53847150113E+01  0.51100000000E-03 0. -1.
        -11    1    3    3    0    0  0.29406256501E+02 -0.76715149894E+01  0.22153293675E+02  0.37607824778E+02  0.51100000000E-03 0.  1.
         12    1    3    3    0    0 -0.26428822140E+01  0.80416296326E+00  0.70117458621E+01  0.75363177019E+01  0.00000000000E+00 0. -1.
</event>
<event>
 7    1  0.2891523E-011  0.5052885E+02  0.7816164E-02  0.1300439E+00
        -11   -1    0    0    0    0  0.00000000000E+00  0.00000000000E+00  0.45593999997E+02  0.45594000000E+02  0.51100000000E-03 0.  1.
         11   -1    0    0    0    0 -0.00000000000E+00 -0.00000000000E+00 -0.45593999997E+02  0.45594000000E+02  0.51100000000E-03 0. -1.
    9900012    2    1    2    0    0 -0.39860480986E+02  0.54452135541E+01  0.58871448133E+01  0.50528846428E+02  0.29999959203E+02 0.  0.
         12    1    1    2    0    0  0.39860480986E+02 -0.54452135541E+01 -0.58871448133E+01  0.40659153572E+02  0.00000000000E+00 0. -1.
         11    1    3    3    0    0  0.29288585848E+01  0.40669793057E+01 -0.12006246091E+00  0.50132772254E+01  0.51100000000E-03 0. -1.
        -11    1    3    3    0    0 -0.41918791921E+02 -0.12401130890E+01  0.40491814973E+01  0.42132159542E+02  0.51100000000E-03 0.  1.
        -12    1    3    3    0    0 -0.87054765021E+00  0.26183473374E+01  0.19580257770E+01  0.33834096610E+01  0.00000000000E+00 0.  1.
</event>
<event>
 7    1  0.2891523E-011  0.5052886E+02  0.7816164E-02  0.1300439E+00
        -11   -1    0    0    0    0  0.00000000000E+00  0.00000000000E+00  0.45593999997E+02  0.45594000000E+02  0.51100000000E-03 0. -1.
         11   -1    0    0    0    0 -0.00000000000E+00 -0.00000000000E+00 -0.45593999997E+02  0.45594000000E+02  0.51100000000E-03 0.  1.
    9900012    2    1    2    0    0  0.35749899951E+02  0.53773996315E+00 -0.19360296096E+02  0.50528861105E+02  0.30000003813E+02 0.  0.
         12    1    1    2    0    0 -0.35749899951E+02 -0.53773996315E+00  0.19360296096E+02  0.40659138895E+02  0.00000000000E+00 0. -1.
         11    1    3    3    0    0  0.14640577471E+02  0.63908889517E+01  0.32002843799E+01  0.16292077542E+02  0.51100000000E-03 0. -1.
        -11    1    3    3    0    0  0.21067530983E+02 -0.31786655024E+01 -0.14572678738E+02  0.25812937492E+02  0.51100000000E-03 0.  1.
         12    1    3    3    0    0  0.41791497681E-01 -0.26744834861E+01 -0.79879017376E+01  0.84238460703E+01  0.00000000000E+00 0. -1.
</event>
<event>
 7    1  0.2891523E-011  0.5052886E+02  0.7816164E-02  0.1300439E+00
        -11   -1    0    0    0    0  0.00000000000E+00  0.00000000000E+00  0.45593999997E+02  0.45594000000E+02  0.51100000000E-03 0.  1.
         11   -1    0    0    0    0 -0.00000000000E+00 -0.00000000000E+00 -0.45593999997E+02  0.45594000000E+02  0.51100000000E-03 0. -1.
    9900012    2    1    2    0    0  0.40393232450E+02 -0.11343705295E+01  0.45017557650E+01  0.50528857987E+02  0.29999994337E+02 0.  0.
         12    1    1    2    0    0 -0.40393232450E+02  0.11343705295E+01 -0.45017557650E+01  0.40659142013E+02  0.00000000000E+00 0. -1.
         11    1    3    3    0    0  0.15334977930E+01 -0.36305190049E+01 -0.46454963818E+01  0.60920374769E+01  0.51100000000E-03 0. -1.
        -11    1    3    3    0    0  0.14852887875E+02  0.10412976248E+02  0.26059663060E+01  0.18325649053E+02  0.51100000000E-03 0.  1.
        -12    1    3    3    0    0  0.24006846783E+02 -0.79168277724E+01  0.65412858407E+01  0.26111171457E+02  0.00000000000E+00 0.  1.
</event>
<event>
 7    1  0.2891523E-011  0.5052886E+02  0.7816164E-02  0.1300439E+00
        -11   -1    0    0    0    0  0.00000000000E+00  0.00000000000E+00  0.45593999997E+02  0.45594000000E+02  0.51100000000E-03 0.  1.
         11   -1    0    0    0    0 -0.00000000000E+00 -0.00000000000E+00 -0.45593999997E+02  0.45594000000E+02  0.51100000000E-03 0. -1.
    9900012    2    1    2    0    0  0.50281707610E+01 -0.38805699141E+02  0.11045388903E+02  0.50528863227E+02  0.30000010266E+02 0.  0.
         12    1    1    2    0    0 -0.50281707610E+01  0.38805699141E+02 -0.11045388903E+02  0.40659136773E+02  0.00000000000E+00 0. -1.
         11    1    3    3    0    0 -0.19412254238E+01  0.30753929021E+01 -0.19787253553E+01  0.41402598881E+01  0.51100000000E-03 0. -1.
        -11    1    3    3    0    0 -0.24751277140E+01 -0.16994177824E+02  0.92423896346E+01  0.19502566588E+02  0.51100000000E-03 0.  1.
         12    1    3    3    0    0  0.94445238988E+01 -0.24886914220E+02  0.37817246239E+01  0.26886036751E+02  0.00000000000E+00 0. -1.
</event>
<event>
 7    1  0.2891523E-011  0.5052886E+02  0.7816164E-02  0.1300439E+00
        -11   -1    0    0    0    0  0.00000000000E+00  0.00000000000E+00  0.45593999997E+02  0.45594000000E+02  0.51100000000E-03 0.  1.
         11   -1    0    0    0    0 -0.00000000000E+00 -0.00000000000E+00 -0.45593999997E+02  0.45594000000E+02  0.51100000000E-03 0. -1.
    9900012    2    1    2    0    0 -0.31725651245E+02  0.19953334026E+02  0.15764288985E+02  0.50528864583E+02  0.30000014386E+02 0.  0.
         12    1    1    2    0    0  0.31725651245E+02 -0.19953334026E+02 -0.15764288985E+02  0.40659135417E+02  0.00000000000E+00 0. -1.
         11    1    3    3    0    0 -0.32388661016E+01  0.79079002542E+01 -0.75954918972E+01  0.11433137692E+02  0.51100000000E-03 0. -1.
        -11    1    3    3    0    0 -0.20188566825E+02  0.59952167342E+01  0.16353074555E+02  0.26663531308E+02  0.51100000000E-03 0.  1.
         12    1    3    3    0    0 -0.82982183182E+01  0.60502170379E+01  0.70067063276E+01  0.12432195583E+02  0.00000000000E+00 0. -1.
</event>
<event>
 7    1  0.2891523E-011  0.5052885E+02  0.7816164E-02  0.1300439E+00
        -11   -1    0    0    0    0  0.00000000000E+00  0.00000000000E+00  0.45593999997E+02  0.45594000000E+02  0.51100000000E-03 0. -1.
         11   -1    0    0    0    0 -0.00000000000E+00 -0.00000000000E+00 -0.45593999997E+02  0.45594000000E+02  0.51100000000E-03 0.  1.
    9900012    2    1    2    0    0  0.27084147685E+02 -0.40035902121E+01 -0.30059714365E+02  0.50528853205E+02  0.29999979802E+02 0.  0.
         12    1    1    2    0    0 -0.27084147685E+02  0.40035902121E+01  0.30059714365E+02  0.40659146795E+02  0.00000000000E+00 0. -1.
         11    1    3    3    0    0  0.16534533239E+02 -0.80261497146E+01 -0.15686753213E+02  0.24163693742E+02  0.51100000000E-03 0. -1.
        -11    1    3    3    0    0 -0.49947869377E+01  0.19792764339E+01 -0.44001988159E+00  0.53906446286E+01  0.51100000000E-03 0.  1.
         12    1    3    3    0    0  0.15544401384E+02  0.20432830686E+01 -0.13932941270E+02  0.20974514834E+02  0.00000000000E+00 0. -1.
</event>
<event>
 7    1  0.2891523E-011  0.5052886E+02  0.7816164E-02  0.1300439E+00
        -11   -1    0    0    0    0  0.00000000000E+00  0.00000000000E+00  0.45593999997E+02  0.45594000000E+02  0.51100000000E-03 0.  1.
         11   -1    0    0    0    0 -0.00000000000E+00 -0.00000000000E+00 -0.45593999997E+02  0.45594000000E+02  0.51100000000E-03 0. -1.
    9900012    2    1    2    0    0 -0.37559189126E+02  0.12274855381E+02  0.95812921912E+01  0.50528856841E+02  0.29999990853E+02 0.  0.
         12    1    1    2    0    0  0.37559189126E+02 -0.12274855381E+02 -0.95812921912E+01  0.40659143159E+02  0.00000000000E+00 0. -1.
         11    1    3    3    0    0 -0.20406876702E+02 -0.45969183892E+01  0.17806380240E+01  0.20993878809E+02  0.51100000000E-03 0.  1.
        -11    1    3    3    0    0 -0.21752421166E+01  0.11666307597E+02  0.73963607872E-02  0.11867369809E+02  0.51100000000E-03 0. -1.
        -12    1    3    3    0    0 -0.14977070307E+02  0.52054661728E+01  0.77932578064E+01  0.17667608222E+02  0.00000000000E+00 0.  1.
</event>
<event>
 7    1  0.2891523E-011  0.5052887E+02  0.7816164E-02  0.1300439E+00
        -11   -1    0    0    0    0  0.00000000000E+00  0.00000000000E+00  0.45593999997E+02  0.45594000000E+02  0.51100000000E-03 0.  1.
         11   -1    0    0    0    0 -0.00000000000E+00 -0.00000000000E+00 -0.45593999997E+02  0.45594000000E+02  0.51100000000E-03 0. -1.
    9900012    2    1    2    0    0 -0.39138929503E+02  0.15392593522E+00  0.11012953269E+02  0.50528872666E+02  0.30000038955E+02 0.  0.
         12    1    1    2    0    0  0.39138929503E+02 -0.15392593522E+00 -0.11012953269E+02  0.40659127334E+02  0.00000000000E+00 0. -1.
         11    1    3    3    0    0 -0.37859936678E+02 -0.69350230024E+01  0.55506644234E+01  0.38888034472E+02  0.51100000000E-03 0. -1.
        -11    1    3    3    0    0  0.21508820566E+00  0.17900841735E+00  0.44969093698E+01  0.45056077382E+01  0.51100000000E-03 0.  1.
         12    1    3    3    0    0 -0.14940810309E+01  0.69099405202E+01  0.96537947545E+00  0.71352304554E+01  0.00000000000E+00 0. -1.
</event>
<event>
 7    1  0.2891523E-011  0.5052886E+02  0.7816164E-02  0.1300439E+00
        -11   -1    0    0    0    0  0.00000000000E+00  0.00000000000E+00  0.45593999997E+02  0.45594000000E+02  0.51100000000E-03 0.  1.
         11   -1    0    0    0    0 -0.00000000000E+00 -0.00000000000E+00 -0.45593999997E+02  0.45594000000E+02  0.51100000000E-03 0. -1.
    9900012    2    1    2    0    0  0.25067079064E+01 -0.27592048240E+02  0.29758378966E+02  0.50528857986E+02  0.29999994336E+02 0.  0.
         12    1    1    2    0    0 -0.25067079064E+01  0.27592048240E+02 -0.29758378966E+02  0.40659142014E+02  0.00000000000E+00 0. -1.
         11    1    3    3    0    0 -0.69303823160E+01 -0.23467225074E+02  0.24160668474E+02  0.34387188793E+02  0.51100000000E-03 0. -1.
        -11    1    3    3    0    0  0.59667812545E+01  0.32739467001E+01  0.37210283219E+01  0.77567556084E+01  0.51100000000E-03 0.  1.
        -12    1    3    3    0    0  0.34703089679E+01 -0.73987698662E+01  0.18766821704E+01  0.83849135854E+01  0.00000000000E+00 0.  1.
</event>
<event>
 7    1  0.2891523E-011  0.5052885E+02  0.7816164E-02  0.1300439E+00
        -11   -1    0    0    0    0  0.00000000000E+00  0.00000000000E+00  0.45593999997E+02  0.45594000000E+02  0.51100000000E-03 0. -1.
         11   -1    0    0    0    0 -0.00000000000E+00 -0.00000000000E+00 -0.45593999997E+02  0.45594000000E+02  0.51100000000E-03 0.  1.
    9900012    2    1    2    0    0 -0.74167535423E+01 -0.39798482476E+02 -0.37734333396E+01  0.50528852940E+02  0.29999978996E+02 0.  0.
         12    1    1    2    0    0  0.74167535423E+01  0.39798482476E+02  0.37734333396E+01  0.40659147060E+02  0.00000000000E+00 0. -1.
         11    1    3    3    0    0  0.68366935349E+01 -0.12194708713E+02 -0.16002902508E+01  0.14071681784E+02  0.51100000000E-03 0.  1.
        -11    1    3    3    0    0 -0.14485043402E+02 -0.10589383259E+02 -0.61770268335E+01  0.18976490216E+02  0.51100000000E-03 0. -1.
         12    1    3    3    0    0  0.23159632462E+00 -0.17014390504E+02  0.40038837447E+01  0.17480680940E+02  0.00000000000E+00 0. -1.
</event>
<event>
 7    1  0.2891523E-011  0.5052886E+02  0.7816164E-02  0.1300439E+00
        -11   -1    0    0    0    0  0.00000000000E+00  0.00000000000E+00  0.45593999997E+02  0.45594000000E+02  0.51100000000E-03 0.  1.
         11   -1    0    0    0    0 -0.00000000000E+00 -0.00000000000E+00 -0.45593999997E+02  0.45594000000E+02  0.51100000000E-03 0. -1.
    9900012    2    1    2    0    0  0.18641581074E+02 -0.23789986335E+02  0.27197314549E+02  0.50528856951E+02  0.29999991190E+02 0.  0.
         12    1    1    2    0    0 -0.18641581074E+02  0.23789986335E+02 -0.27197314549E+02  0.40659143049E+02  0.00000000000E+00 0. -1.
         11    1    3    3    0    0  0.34381814888E+01 -0.15317108101E+02 -0.20567410457E+01  0.15832405898E+02  0.51100000000E-03 0. -1.
        -11    1    3    3    0    0  0.70872180189E+01 -0.32743410766E+00  0.12563730103E+02  0.14428554561E+02  0.51100000000E-03 0.  1.
        -12    1    3    3    0    0  0.81161815664E+01 -0.81454441268E+01  0.16690325491E+02  0.20267896493E+02  0.00000000000E+00 0.  1.
</event>
<event>
 7    1  0.2891523E-011  0.5052886E+02  0.7816164E-02  0.1300439E+00
        -11   -1    0    0    0    0  0.00000000000E+00  0.00000000000E+00  0.45593999997E+02  0.45594000000E+02  0.51100000000E-03 0.  1.
         11   -1    0    0    0    0 -0.00000000000E+00 -0.00000000000E+00 -0.45593999997E+02  0.45594000000E+02  0.51100000000E-03 0. -1.
    9900012    2    1    2    0    0 -0.83955873208E+01  0.36056958968E+02  0.16809985558E+02  0.50528858458E+02  0.29999995769E+02 0.  0.
         12    1    1    2    0    0  0.83955873208E+01 -0.36056958968E+02 -0.16809985558E+02  0.40659141542E+02  0.00000000000E+00 0. -1.
         11    1    3    3    0    0 -0.14054355791E+02  0.16586930832E+02  0.89863301705E+01  0.23524568462E+02  0.51100000000E-03 0. -1.
        -11    1    3    3    0    0  0.58373440848E+01  0.20284373717E+02  0.20905281602E+01  0.21210863050E+02  0.51100000000E-03 0.  1.
         12    1    3    3    0    0 -0.17857561509E+00 -0.81434558160E+00  0.57331272277E+01  0.57934269466E+01  0.00000000000E+00 0. -1.
</event>
<event>
 7    1  0.2891523E-011  0.5052887E+02  0.7816164E-02  0.1300439E+00
        -11   -1    0    0    0    0  0.00000000000E+00  0.00000000000E+00  0.45593999997E+02  0.45594000000E+02  0.51100000000E-03 0.  1.
         11   -1    0    0    0    0 -0.00000000000E+00 -0.00000000000E+00 -0.45593999997E+02  0.45594000000E+02  0.51100000000E-03 0. -1.
    9900012    2    1    2    0    0 -0.11336832867E+02  0.14802229828E+02  0.36132190522E+02  0.50528868439E+02  0.30000026107E+02 0.  0.
         12    1    1    2    0    0  0.11336832867E+02 -0.14802229828E+02 -0.36132190522E+02  0.40659131561E+02  0.00000000000E+00 0. -1.
         11    1    3    3    0    0 -0.17909429233E+01  0.77020366141E+01  0.18322009243E+02  0.19955572343E+02  0.51100000000E-03 0. -1.
        -11    1    3    3    0    0 -0.69157384955E+01  0.52593159024E+01 -0.32451411064E+01  0.92746311927E+01  0.51100000000E-03 0.  1.
        -12    1    3    3    0    0 -0.26301514485E+01  0.18408773117E+01  0.21055322385E+02  0.21298664904E+02  0.00000000000E+00 0.  1.
</event>
<event>
 7    1  0.2891523E-011  0.5052886E+02  0.7816164E-02  0.1300439E+00
        -11   -1    0    0    0    0  0.00000000000E+00  0.00000000000E+00  0.45593999997E+02  0.45594000000E+02  0.51100000000E-03 0. -1.
         11   -1    0    0    0    0 -0.00000000000E+00 -0.00000000000E+00 -0.45593999997E+02  0.45594000000E+02  0.51100000000E-03 0.  1.
    9900012    2    1    2    0    0 -0.39142574329E+02  0.77580144944E+01 -0.77998780116E+01  0.50528855752E+02  0.29999987543E+02 0.  0.
         12    1    1    2    0    0  0.39142574329E+02 -0.77580144944E+01  0.77998780116E+01  0.40659144248E+02  0.00000000000E+00 0. -1.
         11    1    3    3    0    0 -0.29942863486E+01 -0.67212464118E+01 -0.52985107484E+00  0.73771028520E+01  0.51100000000E-03 0. -1.
        -11    1    3    3    0    0 -0.32386236480E+02  0.16921613660E+02 -0.10021383100E+02  0.37889806567E+02  0.51100000000E-03 0.  1.
        -12    1    3    3    0    0 -0.37620515011E+01 -0.24423527539E+01  0.27513561634E+01  0.52619463328E+01  0.00000000000E+00 0.  1.
</event>
<event>
 7    1  0.2891523E-011  0.5052887E+02  0.7816164E-02  0.1300439E+00
        -11   -1    0    0    0    0  0.00000000000E+00  0.00000000000E+00  0.45593999997E+02  0.45594000000E+02  0.51100000000E-03 0.  1.
         11   -1    0    0    0    0 -0.00000000000E+00 -0.00000000000E+00 -0.45593999997E+02  0.45594000000E+02  0.51100000000E-03 0. -1.
    9900012    2    1    2    0    0  0.35154474446E+02  0.55693406861E+01 -0.19654779276E+02  0.50528868459E+02  0.30000026169E+02 0.  0.
         12    1    1    2    0    0 -0.35154474446E+02 -0.55693406861E+01  0.19654779276E+02  0.40659131541E+02  0.00000000000E+00 0. -1.
         11    1    3    3    0    0  0.93353479872E+01  0.14791391457E+01 -0.10178082849E+02  0.13889922440E+02  0.51100000000E-03 0. -1.
        -11    1    3    3    0    0  0.79653309825E+01 -0.77004634620E+01  0.34961347268E+01  0.11617512362E+02  0.51100000000E-03 0.  1.
        -12    1    3    3    0    0  0.17853795476E+02  0.11790665002E+02 -0.12972831154E+02  0.25021433657E+02  0.00000000000E+00 0.  1.
</event>
<event>
 7    1  0.2891523E-011  0.5052887E+02  0.7816164E-02  0.1300439E+00
        -11   -1    0    0    0    0  0.00000000000E+00  0.00000000000E+00  0.45593999997E+02  0.45594000000E+02  0.51100000000E-03 0.  1.
         11   -1    0    0    0    0 -0.00000000000E+00 -0.00000000000E+00 -0.45593999997E+02  0.45594000000E+02  0.51100000000E-03 0. -1.
    9900012    2    1    2    0    0  0.83800736706E+00 -0.39804935156E+02  0.82479952860E+01  0.50528873775E+02  0.30000042327E+02 0.  0.
         12    1    1    2    0    0 -0.83800736706E+00  0.39804935156E+02 -0.82479952860E+01  0.40659126225E+02  0.00000000000E+00 0. -1.
         11    1    3    3    0    0 -0.61562808894E+01 -0.82811849220E+00  0.81916071526E+01  0.10280467043E+02  0.51100000000E-03 0. -1.
        -11    1    3    3    0    0  0.32483872331E+01 -0.30294305790E+02  0.22173124259E+01  0.30548542643E+02  0.51100000000E-03 0.  1.
        -12    1    3    3    0    0  0.37459010234E+01 -0.86825108736E+01 -0.21609242925E+01  0.96998640890E+01  0.00000000000E+00 0.  1.
</event>
<event>
 7    1  0.2891523E-011  0.5052886E+02  0.7816164E-02  0.1300439E+00
        -11   -1    0    0    0    0  0.00000000000E+00  0.00000000000E+00  0.45593999997E+02  0.45594000000E+02  0.51100000000E-03 0.  1.
         11   -1    0    0    0    0 -0.00000000000E+00 -0.00000000000E+00 -0.45593999997E+02  0.45594000000E+02  0.51100000000E-03 0. -1.
    9900012    2    1    2    0    0 -0.18019716303E+02 -0.33578155893E+02 -0.14176142013E+02  0.50528859193E+02  0.29999998002E+02 0.  0.
         12    1    1    2    0    0  0.18019716303E+02  0.33578155893E+02  0.14176142013E+02  0.40659140807E+02  0.00000000000E+00 0. -1.
         11    1    3    3    0    0 -0.16530425161E+02 -0.10683739173E+02 -0.15990721677E+02  0.25359424653E+02  0.51100000000E-03 0. -1.
        -11    1    3    3    0    0 -0.63910104763E+00 -0.18043314546E+02  0.56599411903E+01  0.18921009077E+02  0.51100000000E-03 0.  1.
        -12    1    3    3    0    0 -0.85019009498E+00 -0.48511021742E+01 -0.38453615262E+01  0.62484254632E+01  0.00000000000E+00 0.  1.
</event>
<event>
 7    1  0.2891523E-011  0.5052886E+02  0.7816164E-02  0.1300439E+00
        -11   -1    0    0    0    0  0.00000000000E+00  0.00000000000E+00  0.45593999997E+02  0.45594000000E+02  0.51100000000E-03 0.  1.
         11   -1    0    0    0    0 -0.00000000000E+00 -0.00000000000E+00 -0.45593999997E+02  0.45594000000E+02  0.51100000000E-03 0. -1.
    9900012    2    1    2    0    0 -0.28304020341E+02 -0.12500792261E+02  0.26377609482E+02  0.50528860110E+02  0.30000000789E+02 0.  0.
         12    1    1    2    0    0  0.28304020341E+02  0.12500792261E+02 -0.26377609482E+02  0.40659139890E+02  0.00000000000E+00 0. -1.
         11    1    3    3    0    0 -0.63733720666E+01 -0.14244055213E+02  0.69024073591E+01  0.17063300033E+02  0.51100000000E-03 0. -1.
        -11    1    3    3    0    0 -0.58924000723E+01  0.59449012481E+01  0.13417089030E+02  0.15813933975E+02  0.51100000000E-03 0.  1.
         12    1    3    3    0    0 -0.16038248203E+02 -0.42016382960E+01  0.60581130929E+01  0.17651626101E+02  0.00000000000E+00 0. -1.
</event>
<event>
 7    1  0.2891523E-011  0.5052886E+02  0.7816164E-02  0.1300439E+00
        -11   -1    0    0    0    0  0.00000000000E+00  0.00000000000E+00  0.45593999997E+02  0.45594000000E+02  0.51100000000E-03 0.  1.
         11   -1    0    0    0    0 -0.00000000000E+00 -0.00000000000E+00 -0.45593999997E+02  0.45594000000E+02  0.51100000000E-03 0. -1.
    9900012    2    1    2    0    0 -0.26666505745E+02 -0.17704472084E+02  0.25072198123E+02  0.50528856144E+02  0.29999988735E+02 0.  0.
         12    1    1    2    0    0  0.26666505745E+02  0.17704472084E+02 -0.25072198123E+02  0.40659143856E+02  0.00000000000E+00 0. -1.
         11    1    3    3    0    0 -0.12106777797E+02 -0.23777593040E+02  0.15102024743E+02  0.30659731751E+02  0.51100000000E-03 0. -1.
        -11    1    3    3    0    0 -0.87907310081E+01  0.58192537435E+01  0.33003323477E+01  0.11046848404E+02  0.51100000000E-03 0.  1.
         12    1    3    3    0    0 -0.57689969394E+01  0.25386721232E+00  0.66698410316E+01  0.88222759895E+01  0.00000000000E+00 0. -1.
</event>
<event>
 7    1  0.2891523E-011  0.5052882E+02  0.7816164E-02  0.1300439E+00
        -11   -1    0    0    0    0  0.00000000000E+00  0.00000000000E+00  0.45593999997E+02  0.45594000000E+02  0.51100000000E-03 0.  1.
         11   -1    0    0    0    0 -0.00000000000E+00 -0.00000000000E+00 -0.45593999997E+02  0.45594000000E+02  0.51100000000E-03 0. -1.
    9900012    2    1    2    0    0  0.38094705972E+02  0.52669719671E+01 -0.13199277384E+02  0.50528824649E+02  0.29999893002E+02 0.  0.
         12    1    1    2    0    0 -0.38094705972E+02 -0.52669719671E+01  0.13199277384E+02  0.40659175351E+02  0.00000000000E+00 0. -1.
         11    1    3    3    0    0 -0.42722593177E+01 -0.72733674803E-01  0.14444229411E+01  0.45104154752E+01  0.51100000000E-03 0. -1.
        -11    1    3    3    0    0  0.38809917521E+02  0.60834156928E+01 -0.15588418865E+02  0.42263653977E+02  0.51100000000E-03 0.  1.
        -12    1    3    3    0    0  0.35570477683E+01 -0.74371005097E+00  0.94471854005E+00  0.37547551966E+01  0.00000000000E+00 0.  1.
</event>
<event>
 7    1  0.2891523E-011  0.5052887E+02  0.7816164E-02  0.1300439E+00
        -11   -1    0    0    0    0  0.00000000000E+00  0.00000000000E+00  0.45593999997E+02  0.45594000000E+02  0.51100000000E-03 0.  1.
         11   -1    0    0    0    0 -0.00000000000E+00 -0.00000000000E+00 -0.45593999997E+02  0.45594000000E+02  0.51100000000E-03 0. -1.
    9900012    2    1    2    0    0 -0.19357980824E+02  0.13272851787E+02  0.33200377462E+02  0.50528867203E+02  0.30000022351E+02 0.  0.
         12    1    1    2    0    0  0.19357980824E+02 -0.13272851787E+02 -0.33200377462E+02  0.40659132797E+02  0.00000000000E+00 0. -1.
         11    1    3    3    0    0 -0.10760675288E+02 -0.25938242053E+01  0.65764441589E+01  0.12875157268E+02  0.51100000000E-03 0. -1.
        -11    1    3    3    0    0 -0.59250448839E+01  0.17309971284E+02  0.10191504082E+02  0.20942970621E+02  0.51100000000E-03 0.  1.
        -12    1    3    3    0    0 -0.26722606529E+01 -0.14432952912E+01  0.16432429221E+02  0.16710739314E+02  0.00000000000E+00 0.  1.
</event>
<event>
 7    1  0.2891523E-011  0.5052886E+02  0.7816164E-02  0.1300439E+00
        -11   -1    0    0    0    0  0.00000000000E+00  0.00000000000E+00  0.45593999997E+02  0.45594000000E+02  0.51100000000E-03 0. -1.
         11   -1    0    0    0    0 -0.00000000000E+00 -0.00000000000E+00 -0.45593999997E+02  0.45594000000E+02  0.51100000000E-03 0.  1.
    9900012    2    1    2    0    0 -0.27881544416E+02  0.23390060382E+02 -0.18129808556E+02  0.50528863241E+02  0.30000010308E+02 0.  0.
         12    1    1    2    0    0  0.27881544416E+02 -0.23390060382E+02  0.18129808556E+02  0.40659136759E+02  0.00000000000E+00 0. -1.
         11    1    3    3    0    0 -0.15065894355E+01  0.13642526990E+02  0.25674687036E+00  0.13727864860E+02  0.51100000000E-03 0. -1.
        -11    1    3    3    0    0 -0.25961945794E+02  0.44298490994E+01 -0.16788696027E+02  0.31233099542E+02  0.51100000000E-03 0.  1.
        -12    1    3    3    0    0 -0.41300918656E+00  0.53176842926E+01 -0.15978593987E+01  0.55678988391E+01  0.00000000000E+00 0.  1.
</event>
<event>
 7    1  0.2891523E-011  0.5052886E+02  0.7816164E-02  0.1300439E+00
        -11   -1    0    0    0    0  0.00000000000E+00  0.00000000000E+00  0.45593999997E+02  0.45594000000E+02  0.51100000000E-03 0.  1.
         11   -1    0    0    0    0 -0.00000000000E+00 -0.00000000000E+00 -0.45593999997E+02  0.45594000000E+02  0.51100000000E-03 0. -1.
    9900012    2    1    2    0    0 -0.34671425674E+02 -0.35981322827E+00  0.21235083088E+02  0.50528856162E+02  0.29999988791E+02 0.  0.
         12    1    1    2    0    0  0.34671425674E+02  0.35981322827E+00 -0.21235083088E+02  0.40659143838E+02  0.00000000000E+00 0. -1.
         11    1    3    3    0    0 -0.19526868644E+02 -0.31294087290E+01  0.97817025076E+01  0.22062944097E+02  0.51100000000E-03 0.  1.
        -11    1    3    3    0    0 -0.23865390391E+01  0.10600248118E+02  0.29896534932E+01  0.11269376958E+02  0.51100000000E-03 0. -1.
         12    1    3    3    0    0 -0.12758017992E+02 -0.78306526173E+01  0.84637270876E+01  0.17196535107E+02  0.00000000000E+00 0. -1.
</event>
<event>
 7    1  0.2891523E-011  0.5052886E+02  0.7816164E-02  0.1300439E+00
        -11   -1    0    0    0    0  0.00000000000E+00  0.00000000000E+00  0.45593999997E+02  0.45594000000E+02  0.51100000000E-03 0.  1.
         11   -1    0    0    0    0 -0.00000000000E+00 -0.00000000000E+00 -0.45593999997E+02  0.45594000000E+02  0.51100000000E-03 0. -1.
    9900012    2    1    2    0    0  0.39908284450E+02 -0.23941891855E+01  0.74001754863E+01  0.50528857033E+02  0.29999991437E+02 0.  0.
         12    1    1    2    0    0 -0.39908284450E+02  0.23941891855E+01 -0.74001754863E+01  0.40659142967E+02  0.00000000000E+00 0. -1.
         11    1    3    3    0    0  0.35201544604E+01  0.52225918273E+01 -0.42686739107E+01  0.76084512246E+01  0.51100000000E-03 0. -1.
        -11    1    3    3    0    0  0.81258900767E+01 -0.56104454725E+01  0.10714770956E+02  0.14570981602E+02  0.51100000000E-03 0.  1.
        -12    1    3    3    0    0  0.28262239913E+02 -0.20063355403E+01  0.95407844129E+00  0.28349424207E+02  0.00000000000E+00 0.  1.
</event>
<event>
 7    1  0.2891523E-011  0.5052886E+02  0.7816164E-02  0.1300439E+00
        -11   -1    0    0    0    0  0.00000000000E+00  0.00000000000E+00  0.45593999997E+02  0.45594000000E+02  0.51100000000E-03 0.  1.
         11   -1    0    0    0    0 -0.00000000000E+00 -0.00000000000E+00 -0.45593999997E+02  0.45594000000E+02  0.51100000000E-03 0. -1.
    9900012    2    1    2    0    0 -0.33931802141E+02  0.10163277054E+02  0.19962619558E+02  0.50528861093E+02  0.30000003779E+02 0.  0.
         12    1    1    2    0    0  0.33931802141E+02 -0.10163277054E+02 -0.19962619558E+02  0.40659138907E+02  0.00000000000E+00 0. -1.
         11    1    3    3    0    0 -0.49906862745E+01  0.13548923684E+02  0.11032439960E+02  0.18171268921E+02  0.51100000000E-03 0.  1.
        -11    1    3    3    0    0 -0.23572933512E+02 -0.69898578161E+01  0.63357109329E+01  0.25390599441E+02  0.51100000000E-03 0. -1.
         12    1    3    3    0    0 -0.53681823544E+01  0.36042111864E+01  0.25944686649E+01  0.69669927314E+01  0.00000000000E+00 0. -1.
</event>
<event>
 7    1  0.2891523E-011  0.5052886E+02  0.7816164E-02  0.1300439E+00
        -11   -1    0    0    0    0  0.00000000000E+00  0.00000000000E+00  0.45593999997E+02  0.45594000000E+02  0.51100000000E-03 0. -1.
         11   -1    0    0    0    0 -0.00000000000E+00 -0.00000000000E+00 -0.45593999997E+02  0.45594000000E+02  0.51100000000E-03 0.  1.
    9900012    2    1    2    0    0 -0.22224520842E+02 -0.30353470927E+02 -0.15424108138E+02  0.50528860365E+02  0.30000001566E+02 0.  0.
         12    1    1    2    0    0  0.22224520842E+02  0.30353470927E+02  0.15424108138E+02  0.40659139635E+02  0.00000000000E+00 0. -1.
         11    1    3    3    0    0  0.15691640139E+01 -0.41705536211E+01  0.41201948054E+01  0.60689207199E+01  0.51100000000E-03 0. -1.
        -11    1    3    3    0    0 -0.68153284735E+01 -0.77190014330E+01 -0.16142112046E+02  0.19146787378E+02  0.51100000000E-03 0.  1.
        -12    1    3    3    0    0 -0.16978356382E+02 -0.18463915873E+02 -0.34021908974E+01  0.25313152268E+02  0.00000000000E+00 0.  1.
</event>
<event>
 7    1  0.2891523E-011  0.5052887E+02  0.7816164E-02  0.1300439E+00
        -11   -1    0    0    0    0  0.00000000000E+00  0.00000000000E+00  0.45593999997E+02  0.45594000000E+02  0.51100000000E-03 0.  1.
         11   -1    0    0    0    0 -0.00000000000E+00 -0.00000000000E+00 -0.45593999997E+02  0.45594000000E+02  0.51100000000E-03 0. -1.
    9900012    2    1    2    0    0 -0.21076423740E+02 -0.45124116715E+01  0.34475892387E+02  0.50528872456E+02  0.30000038317E+02 0.  0.
         12    1    1    2    0    0  0.21076423740E+02  0.45124116715E+01 -0.34475892387E+02  0.40659127544E+02  0.00000000000E+00 0. -1.
         11    1    3    3    0    0  0.17006758537E+01 -0.11879045196E+00 -0.34886213719E+01  0.38828969686E+01  0.51100000000E-03 0. -1.
        -11    1    3    3    0    0 -0.10013604715E+02  0.24102986625E+01  0.25683407227E+02  0.27671632154E+02  0.51100000000E-03 0.  1.
        -12    1    3    3    0    0 -0.12763494879E+02 -0.68039198821E+01  0.12281106532E+02  0.18974343333E+02  0.00000000000E+00 0.  1.
</event>
<event>
 7    1  0.2891523E-011  0.5052878E+02  0.7816164E-02  0.1300439E+00
        -11   -1    0    0    0    0  0.00000000000E+00  0.00000000000E+00  0.45593999997E+02  0.45594000000E+02  0.51100000000E-03 0.  1.
         11   -1    0    0    0    0 -0.00000000000E+00 -0.00000000000E+00 -0.45593999997E+02  0.45594000000E+02  0.51100000000E-03 0. -1.
    9900012    2    1    2    0    0 -0.20236126839E+02  0.27827058724E+02  0.21663928591E+02  0.50528784210E+02  0.29999770085E+02 0.  0.
         12    1    1    2    0    0  0.20236126839E+02 -0.27827058724E+02 -0.21663928591E+02  0.40659215790E+02  0.00000000000E+00 0. -1.
         11    1    3    3    0    0 -0.50028482406E+01 -0.42772641008E+01  0.90505812582E+01  0.11190911495E+02  0.51100000000E-03 0. -1.
        -11    1    3    3    0    0 -0.14402661578E+02  0.19129320352E+02  0.57068140693E+01  0.24615752776E+02  0.51100000000E-03 0.  1.
         12    1    3    3    0    0 -0.83061701982E+00  0.12975002472E+02  0.69065332632E+01  0.14722119939E+02  0.00000000000E+00 0. -1.
</event>
<event>
 7    1  0.2891523E-011  0.5052886E+02  0.7816164E-02  0.1300439E+00
        -11   -1    0    0    0    0  0.00000000000E+00  0.00000000000E+00  0.45593999997E+02  0.45594000000E+02  0.51100000000E-03 0. -1.
         11   -1    0    0    0    0 -0.00000000000E+00 -0.00000000000E+00 -0.45593999997E+02  0.45594000000E+02  0.51100000000E-03 0.  1.
    9900012    2    1    2    0    0 -0.70988032014E+01  0.38320114749E+02 -0.11590593774E+02  0.50528855083E+02  0.29999985512E+02 0.  0.
         12    1    1    2    0    0  0.70988032014E+01 -0.38320114749E+02  0.11590593774E+02  0.40659144917E+02  0.00000000000E+00 0. -1.
         11    1    3    3    0    0 -0.42340791891E+01  0.28442889111E+02 -0.63033977606E+00  0.28763217763E+02  0.51100000000E-03 0. -1.
        -11    1    3    3    0    0 -0.32493817944E+01  0.11977441356E+02 -0.13573010746E+02  0.18391416597E+02  0.51100000000E-03 0.  1.
         12    1    3    3    0    0  0.38465778214E+00 -0.21002157178E+01  0.26127567475E+01  0.33742207237E+01  0.00000000000E+00 0. -1.
</event>
<event>
 7    1  0.2891523E-011  0.5052888E+02  0.7816164E-02  0.1300439E+00
        -11   -1    0    0    0    0  0.00000000000E+00  0.00000000000E+00  0.45593999997E+02  0.45594000000E+02  0.51100000000E-03 0. -1.
         11   -1    0    0    0    0 -0.00000000000E+00 -0.00000000000E+00 -0.45593999997E+02  0.45594000000E+02  0.51100000000E-03 0.  1.
    9900012    2    1    2    0    0 -0.16094362464E+02  0.33356292087E+02  0.16777768285E+02  0.50528877610E+02  0.30000053982E+02 0.  0.
         12    1    1    2    0    0  0.16094362464E+02 -0.33356292087E+02 -0.16777768285E+02  0.40659122390E+02  0.00000000000E+00 0. -1.
         11    1    3    3    0    0 -0.27223503789E+01  0.15659078444E+02  0.18626235255E+02  0.24485803425E+02  0.51100000000E-03 0. -1.
        -11    1    3    3    0    0 -0.81597247197E+01  0.15640897418E+02 -0.64591825135E+01  0.18786692592E+02  0.51100000000E-03 0.  1.
        -12    1    3    3    0    0 -0.52122873658E+01  0.20563162243E+01  0.46107155434E+01  0.72563815928E+01  0.00000000000E+00 0.  1.
</event>
<event>
 7    1  0.2891523E-011  0.5052885E+02  0.7816164E-02  0.1300439E+00
        -11   -1    0    0    0    0  0.00000000000E+00  0.00000000000E+00  0.45593999997E+02  0.45594000000E+02  0.51100000000E-03 0.  1.
         11   -1    0    0    0    0 -0.00000000000E+00 -0.00000000000E+00 -0.45593999997E+02  0.45594000000E+02  0.51100000000E-03 0. -1.
    9900012    2    1    2    0    0  0.26076863007E+02  0.29472043498E+02 -0.10225587649E+02  0.50528846357E+02  0.29999958987E+02 0.  0.
         12    1    1    2    0    0 -0.26076863007E+02 -0.29472043498E+02  0.10225587649E+02  0.40659153643E+02  0.00000000000E+00 0. -1.
         11    1    3    3    0    0  0.72078336995E+01  0.25849563736E+02 -0.13364846949E+02  0.29979525450E+02  0.51100000000E-03 0. -1.
        -11    1    3    3    0    0  0.13103616057E+02  0.46435454879E+01 -0.77210910666E-02  0.13902062018E+02  0.51100000000E-03 0.  1.
         12    1    3    3    0    0  0.57654132502E+01 -0.10210657260E+01  0.31469803912E+01  0.66472588896E+01  0.00000000000E+00 0. -1.
</event>
<event>
 7    1  0.2891523E-011  0.5052888E+02  0.7816164E-02  0.1300439E+00
        -11   -1    0    0    0    0  0.00000000000E+00  0.00000000000E+00  0.45593999997E+02  0.45594000000E+02  0.51100000000E-03 0.  1.
         11   -1    0    0    0    0 -0.00000000000E+00 -0.00000000000E+00 -0.45593999997E+02  0.45594000000E+02  0.51100000000E-03 0. -1.
    9900012    2    1    2    0    0 -0.54826584703E+01  0.26997115331E+02  0.29904188512E+02  0.50528877153E+02  0.30000052595E+02 0.  0.
         12    1    1    2    0    0  0.54826584703E+01 -0.26997115331E+02 -0.29904188512E+02  0.40659122847E+02  0.00000000000E+00 0. -1.
         11    1    3    3    0    0 -0.13414065922E+02  0.40007001781E+01  0.34039319232E+01  0.14405884884E+02  0.51100000000E-03 0. -1.
        -11    1    3    3    0    0  0.14212936467E+01  0.89811820576E+01  0.96130509724E+01  0.13232250604E+02  0.51100000000E-03 0.  1.
         12    1    3    3    0    0  0.65101138052E+01  0.14015233095E+02  0.16887205617E+02  0.22890741666E+02  0.00000000000E+00 0. -1.
</event>
<event>
 7    1  0.2891523E-011  0.5052887E+02  0.7816164E-02  0.1300439E+00
        -11   -1    0    0    0    0  0.00000000000E+00  0.00000000000E+00  0.45593999997E+02  0.45594000000E+02  0.51100000000E-03 0.  1.
         11   -1    0    0    0    0 -0.00000000000E+00 -0.00000000000E+00 -0.45593999997E+02  0.45594000000E+02  0.51100000000E-03 0. -1.
    9900012    2    1    2    0    0  0.14647097810E+02 -0.26685613950E+02  0.26953769736E+02  0.50528866104E+02  0.30000019010E+02 0.  0.
         12    1    1    2    0    0 -0.14647097810E+02  0.26685613950E+02 -0.26953769736E+02  0.40659133896E+02  0.00000000000E+00 0. -1.
         11    1    3    3    0    0  0.64241165297E+01 -0.55492160840E+01 -0.57287135088E+01  0.10241153795E+02  0.51100000000E-03 0. -1.
        -11    1    3    3    0    0  0.18538652014E+01 -0.74276651126E+01  0.16232856214E+02  0.17947496938E+02  0.51100000000E-03 0.  1.
         12    1    3    3    0    0  0.63691160793E+01 -0.13708732754E+02  0.16449627031E+02  0.22340215371E+02  0.00000000000E+00 0. -1.
</event>
<event>
 7    1  0.2891523E-011  0.5052886E+02  0.7816164E-02  0.1300439E+00
        -11   -1    0    0    0    0  0.00000000000E+00  0.00000000000E+00  0.45593999997E+02  0.45594000000E+02  0.51100000000E-03 0.  1.
         11   -1    0    0    0    0 -0.00000000000E+00 -0.00000000000E+00 -0.45593999997E+02  0.45594000000E+02  0.51100000000E-03 0. -1.
    9900012    2    1    2    0    0  0.33528301514E+02 -0.12161571229E+02  0.19522171758E+02  0.50528855797E+02  0.29999987680E+02 0.  0.
         12    1    1    2    0    0 -0.33528301514E+02  0.12161571229E+02 -0.19522171758E+02  0.40659144203E+02  0.00000000000E+00 0. -1.
         11    1    3    3    0    0  0.24492435103E+02  0.14120035689E+01  0.13511792560E+02  0.28007885850E+02  0.51100000000E-03 0.  1.
        -11    1    3    3    0    0  0.92206161946E+01 -0.12641996853E+02 -0.77779734459E+00  0.15666678538E+02  0.51100000000E-03 0. -1.
         12    1    3    3    0    0 -0.18474978279E+00 -0.93157794422E+00  0.67881765421E+01  0.68542914087E+01  0.00000000000E+00 0. -1.
</event>
<event>
 7    1  0.2891523E-011  0.5052886E+02  0.7816164E-02  0.1300439E+00
        -11   -1    0    0    0    0  0.00000000000E+00  0.00000000000E+00  0.45593999997E+02  0.45594000000E+02  0.51100000000E-03 0. -1.
         11   -1    0    0    0    0 -0.00000000000E+00 -0.00000000000E+00 -0.45593999997E+02  0.45594000000E+02  0.51100000000E-03 0.  1.
    9900012    2    1    2    0    0  0.11691958788E+02  0.63491255517E+00 -0.38936620509E+02  0.50528862885E+02  0.30000009226E+02 0.  0.
         12    1    1    2    0    0 -0.11691958788E+02 -0.63491255517E+00  0.38936620509E+02  0.40659137115E+02  0.00000000000E+00 0. -1.
         11    1    3    3    0    0  0.58521672727E+00 -0.10247161121E+02 -0.13664465577E+02  0.17089892025E+02  0.51100000000E-03 0. -1.
        -11    1    3    3    0    0  0.10094308622E+02  0.94979196297E+01 -0.78424884401E+01  0.15925142669E+02  0.51100000000E-03 0.  1.
        -12    1    3    3    0    0  0.10124334391E+01  0.13841540462E+01 -0.17429666492E+02  0.17513828191E+02  0.00000000000E+00 0.  1.
</event>
<event>
 7    1  0.2891523E-011  0.5052887E+02  0.7816164E-02  0.1300439E+00
        -11   -1    0    0    0    0  0.00000000000E+00  0.00000000000E+00  0.45593999997E+02  0.45594000000E+02  0.51100000000E-03 0.  1.
         11   -1    0    0    0    0 -0.00000000000E+00 -0.00000000000E+00 -0.45593999997E+02  0.45594000000E+02  0.51100000000E-03 0. -1.
    9900012    2    1    2    0    0  0.37677906722E+00  0.40425538524E+02 -0.43357648291E+01  0.50528868381E+02  0.30000025929E+02 0.  0.
         12    1    1    2    0    0 -0.37677906722E+00 -0.40425538524E+02  0.43357648291E+01  0.40659131619E+02  0.00000000000E+00 0. -1.
         11    1    3    3    0    0 -0.33491419607E+01  0.10527026283E+02 -0.10872819302E+02  0.15500104325E+02  0.51100000000E-03 0. -1.
        -11    1    3    3    0    0  0.63966438932E+01  0.18603635020E+02 -0.31347189926E+01  0.19920812043E+02  0.51100000000E-03 0.  1.
         12    1    3    3    0    0 -0.26707228653E+01  0.11294877221E+02  0.96717734653E+01  0.15107952013E+02  0.00000000000E+00 0. -1.
</event>
<event>
 7    1  0.2891523E-011  0.5052885E+02  0.7816164E-02  0.1300439E+00
        -11   -1    0    0    0    0  0.00000000000E+00  0.00000000000E+00  0.45593999997E+02  0.45594000000E+02  0.51100000000E-03 0. -1.
         11   -1    0    0    0    0 -0.00000000000E+00 -0.00000000000E+00 -0.45593999997E+02  0.45594000000E+02  0.51100000000E-03 0.  1.
    9900012    2    1    2    0    0  0.53612445859E+01 -0.39558750822E+02 -0.77154815298E+01  0.50528851394E+02  0.29999974297E+02 0.  0.
         12    1    1    2    0    0 -0.53612445859E+01  0.39558750822E+02  0.77154815298E+01  0.40659148606E+02  0.00000000000E+00 0. -1.
         11    1    3    3    0    0 -0.44553452840E+01 -0.64747123871E-01 -0.48110646673E+01  0.65574871165E+01  0.51100000000E-03 0. -1.
        -11    1    3    3    0    0  0.13661264641E+02 -0.29330715069E+02 -0.54475856689E+01  0.32811540468E+02  0.51100000000E-03 0.  1.
        -12    1    3    3    0    0 -0.38446747712E+01 -0.10163288630E+02  0.25431688063E+01  0.11159823809E+02  0.00000000000E+00 0.  1.
</event>
<event>
 7    1  0.2891523E-011  0.5052887E+02  0.7816164E-02  0.1300439E+00
        -11   -1    0    0    0    0  0.00000000000E+00  0.00000000000E+00  0.45593999997E+02  0.45594000000E+02  0.51100000000E-03 0.  1.
         11   -1    0    0    0    0 -0.00000000000E+00 -0.00000000000E+00 -0.45593999997E+02  0.45594000000E+02  0.51100000000E-03 0. -1.
    9900012    2    1    2    0    0  0.33120598321E+02 -0.84107057059E+01  0.22032945252E+02  0.50528872119E+02  0.30000037292E+02 0.  0.
         12    1    1    2    0    0 -0.33120598321E+02  0.84107057059E+01 -0.22032945252E+02  0.40659127881E+02  0.00000000000E+00 0. -1.
         11    1    3    3    0    0  0.28376790982E+02 -0.16236106619E+02  0.11855283320E+02  0.34776445584E+02  0.51100000000E-03 0. -1.
        -11    1    3    3    0    0  0.50081680839E+01  0.13508962214E+01  0.64492952993E+01  0.82764774075E+01  0.51100000000E-03 0.  1.
         12    1    3    3    0    0 -0.26436074511E+00  0.64745046918E+01  0.37283666333E+01  0.74759491277E+01  0.00000000000E+00 0. -1.
</event>
<event>
 7    1  0.2891523E-011  0.5052886E+02  0.7816164E-02  0.1300439E+00
        -11   -1    0    0    0    0  0.00000000000E+00  0.00000000000E+00  0.45593999997E+02  0.45594000000E+02  0.51100000000E-03 0.  1.
         11   -1    0    0    0    0 -0.00000000000E+00 -0.00000000000E+00 -0.45593999997E+02  0.45594000000E+02  0.51100000000E-03 0. -1.
    9900012    2    1    2    0    0  0.40050404725E+02 -0.22192273459E+01  0.66487478063E+01  0.50528859133E+02  0.29999997821E+02 0.  0.
         12    1    1    2    0    0 -0.40050404725E+02  0.22192273459E+01 -0.66487478063E+01  0.40659140867E+02  0.00000000000E+00 0. -1.
         11    1    3    3    0    0 -0.28885172150E+01 -0.13172621578E+01 -0.16520781733E+01  0.35788369403E+01  0.51100000000E-03 0. -1.
        -11    1    3    3    0    0  0.41659578576E+02 -0.47755599885E+01  0.87826094572E+01  0.42842276894E+02  0.51100000000E-03 0.  1.
         12    1    3    3    0    0  0.12793433641E+01  0.38735948005E+01 -0.48178347762E+00  0.41077452990E+01  0.00000000000E+00 0. -1.
</event>
<event>
 7    1  0.2891523E-011  0.5052879E+02  0.7816164E-02  0.1300439E+00
        -11   -1    0    0    0    0  0.00000000000E+00  0.00000000000E+00  0.45593999997E+02  0.45594000000E+02  0.51100000000E-03 0. -1.
         11   -1    0    0    0    0 -0.00000000000E+00 -0.00000000000E+00 -0.45593999997E+02  0.45594000000E+02  0.51100000000E-03 0.  1.
    9900012    2    1    2    0    0 -0.33376398940E+02  0.16120863528E+02 -0.16712433420E+02  0.50528786063E+02  0.29999775718E+02 0.  0.
         12    1    1    2    0    0  0.33376398940E+02 -0.16120863528E+02  0.16712433420E+02  0.40659213937E+02  0.00000000000E+00 0. -1.
         11    1    3    3    0    0 -0.20949011888E+02  0.20805562943E+01  0.12263106259E+01  0.21087760706E+02  0.51100000000E-03 0. -1.
        -11    1    3    3    0    0 -0.26675946366E+01  0.11285835443E+02 -0.14846700957E+02  0.18839073023E+02  0.51100000000E-03 0.  1.
        -12    1    3    3    0    0 -0.97597924153E+01  0.27544717906E+01 -0.30920430890E+01  0.10601952334E+02  0.00000000000E+00 0.  1.
</event>
<event>
 7    1  0.2891523E-011  0.5052886E+02  0.7816164E-02  0.1300439E+00
        -11   -1    0    0    0    0  0.00000000000E+00  0.00000000000E+00  0.45593999997E+02  0.45594000000E+02  0.51100000000E-03 0. -1.
         11   -1    0    0    0    0 -0.00000000000E+00 -0.00000000000E+00 -0.45593999997E+02  0.45594000000E+02  0.51100000000E-03 0.  1.
    9900012    2    1    2    0    0  0.15991133815E+02  0.15431385228E+02 -0.34048814363E+02  0.50528858712E+02  0.29999996541E+02 0.  0.
         12    1    1    2    0    0 -0.15991133815E+02 -0.15431385228E+02  0.34048814363E+02  0.40659141288E+02  0.00000000000E+00 0. -1.
         11    1    3    3    0    0  0.75669925674E+00  0.81880981968E+01 -0.11703805622E+02  0.14303727211E+02  0.51100000000E-03 0. -1.
        -11    1    3    3    0    0  0.17605701988E+02 -0.26413958522E+01 -0.17502497184E+02  0.24965478615E+02  0.51100000000E-03 0.  1.
        -12    1    3    3    0    0 -0.23712674294E+01  0.98846828835E+01 -0.48425115568E+01  0.11259652886E+02  0.00000000000E+00 0.  1.
</event>
<event>
 7    1  0.2891523E-011  0.5052886E+02  0.7816164E-02  0.1300439E+00
        -11   -1    0    0    0    0  0.00000000000E+00  0.00000000000E+00  0.45593999997E+02  0.45594000000E+02  0.51100000000E-03 0. -1.
         11   -1    0    0    0    0 -0.00000000000E+00 -0.00000000000E+00 -0.45593999997E+02  0.45594000000E+02  0.51100000000E-03 0.  1.
    9900012    2    1    2    0    0 -0.10842134162E+02 -0.38974663364E+02  0.40730442627E+01  0.50528856537E+02  0.29999989931E+02 0.  0.
         12    1    1    2    0    0  0.10842134162E+02  0.38974663364E+02 -0.40730442627E+01  0.40659143463E+02  0.00000000000E+00 0. -1.
         11    1    3    3    0    0  0.23853059740E+01 -0.57727870333E+01 -0.38377843853E+01  0.73309851978E+01  0.51100000000E-03 0. -1.
        -11    1    3    3    0    0 -0.10574151102E+02 -0.35921184694E+02  0.38591857041E+01  0.37643558491E+02  0.51100000000E-03 0.  1.
        -12    1    3    3    0    0 -0.26532890345E+01  0.27193083628E+01  0.40516429439E+01  0.55543128484E+01  0.00000000000E+00 0.  1.
</event>
<event>
 7    1  0.2891523E-011  0.5052886E+02  0.7816164E-02  0.1300439E+00
        -11   -1    0    0    0    0  0.00000000000E+00  0.00000000000E+00  0.45593999997E+02  0.45594000000E+02  0.51100000000E-03 0. -1.
         11   -1    0    0    0    0 -0.00000000000E+00 -0.00000000000E+00 -0.45593999997E+02  0.45594000000E+02  0.51100000000E-03 0.  1.
    9900012    2    1    2    0    0  0.23282065206E+02 -0.24887313504E+02 -0.22175043026E+02  0.50528862443E+02  0.30000007883E+02 0.  0.
         12    1    1    2    0    0 -0.23282065206E+02  0.24887313504E+02  0.22175043026E+02  0.40659137557E+02  0.00000000000E+00 0. -1.
         11    1    3    3    0    0  0.21288510501E+01 -0.37606494157E+01 -0.13560018630E+02  0.14231956869E+02  0.51100000000E-03 0. -1.
        -11    1    3    3    0    0  0.23401901963E+02 -0.21470042165E+02 -0.51820086130E+01  0.32178641046E+02  0.51100000000E-03 0.  1.
         12    1    3    3    0    0 -0.22486878074E+01  0.34337807735E+00 -0.34330157826E+01  0.41182645280E+01  0.00000000000E+00 0. -1.
</event>
<event>
 7    1  0.2891523E-011  0.5052887E+02  0.7816164E-02  0.1300439E+00
        -11   -1    0    0    0    0  0.00000000000E+00  0.00000000000E+00  0.45593999997E+02  0.45594000000E+02  0.51100000000E-03 0.  1.
         11   -1    0    0    0    0 -0.00000000000E+00 -0.00000000000E+00 -0.45593999997E+02  0.45594000000E+02  0.51100000000E-03 0. -1.
    9900012    2    1    2    0    0 -0.18766022823E+02  0.28316958215E+02  0.22341695117E+02  0.50528867252E+02  0.30000022500E+02 0.  0.
         12    1    1    2    0    0  0.18766022823E+02 -0.28316958215E+02 -0.22341695117E+02  0.40659132748E+02  0.00000000000E+00 0. -1.
         11    1    3    3    0    0  0.61372429160E+00  0.27208269677E+01 -0.28259349574E+01  0.39705749633E+01  0.51100000000E-03 0. -1.
        -11    1    3    3    0    0 -0.49005317798E+01  0.13917972671E+02  0.23674885682E+02  0.27896691332E+02  0.51100000000E-03 0.  1.
        -12    1    3    3    0    0 -0.14479215335E+02  0.11678158576E+02  0.14927443922E+01  0.18661600957E+02  0.00000000000E+00 0.  1.
</event>
<event>
 7    1  0.2891523E-011  0.5052886E+02  0.7816164E-02  0.1300439E+00
        -11   -1    0    0    0    0  0.00000000000E+00  0.00000000000E+00  0.45593999997E+02  0.45594000000E+02  0.51100000000E-03 0.  1.
         11   -1    0    0    0    0 -0.00000000000E+00 -0.00000000000E+00 -0.45593999997E+02  0.45594000000E+02  0.51100000000E-03 0. -1.
    9900012    2    1    2    0    0 -0.15061463273E+02  0.12774947580E+02  0.35540384687E+02  0.50528857051E+02  0.29999991494E+02 0.  0.
         12    1    1    2    0    0  0.15061463273E+02 -0.12774947580E+02 -0.35540384687E+02  0.40659142949E+02  0.00000000000E+00 0. -1.
         11    1    3    3    0    0 -0.43732332448E+01  0.13302813677E+02  0.15523930418E+02  0.20906516607E+02  0.51100000000E-03 0. -1.
        -11    1    3    3    0    0 -0.77368623188E+01 -0.75027401479E+01  0.19182854915E+02  0.22003001414E+02  0.51100000000E-03 0.  1.
         12    1    3    3    0    0 -0.29513677096E+01  0.69748740507E+01  0.83359935383E+00  0.76193390306E+01  0.00000000000E+00 0. -1.
</event>
<event>
 7    1  0.2891523E-011  0.5052887E+02  0.7816164E-02  0.1300439E+00
        -11   -1    0    0    0    0  0.00000000000E+00  0.00000000000E+00  0.45593999997E+02  0.45594000000E+02  0.51100000000E-03 0.  1.
         11   -1    0    0    0    0 -0.00000000000E+00 -0.00000000000E+00 -0.45593999997E+02  0.45594000000E+02  0.51100000000E-03 0. -1.
    9900012    2    1    2    0    0  0.10234927838E+02  0.67398946092E+01  0.38768349188E+02  0.50528870324E+02  0.30000031838E+02 0.  0.
         12    1    1    2    0    0 -0.10234927838E+02 -0.67398946092E+01 -0.38768349188E+02  0.40659129676E+02  0.00000000000E+00 0. -1.
         11    1    3    3    0    0  0.16301405365E+02 -0.46056148901E+01  0.12408160152E+02  0.20997855700E+02  0.51100000000E-03 0. -1.
        -11    1    3    3    0    0 -0.85494906352E+00  0.47806560893E+01  0.82100810162E+01  0.95389224286E+01  0.51100000000E-03 0.  1.
         12    1    3    3    0    0 -0.52115284632E+01  0.65648534100E+01  0.18150108020E+02  0.19992092196E+02  0.00000000000E+00 0. -1.
</event>
<event>
 7    1  0.2891523E-011  0.5052888E+02  0.7816164E-02  0.1300439E+00
        -11   -1    0    0    0    0  0.00000000000E+00  0.00000000000E+00  0.45593999997E+02  0.45594000000E+02  0.51100000000E-03 0. -1.
         11   -1    0    0    0    0 -0.00000000000E+00 -0.00000000000E+00 -0.45593999997E+02  0.45594000000E+02  0.51100000000E-03 0.  1.
    9900012    2    1    2    0    0 -0.11407785130E+02 -0.11901742904E+02 -0.37166857526E+02  0.50528876251E+02  0.30000049851E+02 0.  0.
         12    1    1    2    0    0  0.11407785130E+02  0.11901742904E+02  0.37166857526E+02  0.40659123749E+02  0.00000000000E+00 0. -1.
         11    1    3    3    0    0 -0.18281542990E+02 -0.12973740944E+02 -0.15951957268E+02  0.27513591352E+02  0.51100000000E-03 0. -1.
        -11    1    3    3    0    0  0.41455501795E+01 -0.17550927680E+01 -0.74864639741E+01  0.87357358025E+01  0.51100000000E-03 0.  1.
         12    1    3    3    0    0  0.27282076801E+01  0.28270908078E+01 -0.13728436284E+02  0.14279549096E+02  0.00000000000E+00 0. -1.
</event>
<event>
 7    1  0.2891523E-011  0.5052886E+02  0.7816164E-02  0.1300439E+00
        -11   -1    0    0    0    0  0.00000000000E+00  0.00000000000E+00  0.45593999997E+02  0.45594000000E+02  0.51100000000E-03 0. -1.
         11   -1    0    0    0    0 -0.00000000000E+00 -0.00000000000E+00 -0.45593999997E+02  0.45594000000E+02  0.51100000000E-03 0.  1.
    9900012    2    1    2    0    0 -0.17581098000E+02  0.34954929410E+02 -0.11055478308E+02  0.50528859606E+02  0.29999999259E+02 0.  0.
         12    1    1    2    0    0  0.17581098000E+02 -0.34954929410E+02  0.11055478308E+02  0.40659140394E+02  0.00000000000E+00 0. -1.
         11    1    3    3    0    0 -0.42264192717E+00  0.31735047770E+01  0.71490533015E+01  0.78331808441E+01  0.51100000000E-03 0. -1.
        -11    1    3    3    0    0 -0.73049855165E+01  0.22197804815E+02 -0.16998782089E+02  0.28897472983E+02  0.51100000000E-03 0.  1.
        -12    1    3    3    0    0 -0.98534705563E+01  0.95836198184E+01 -0.12057495199E+01  0.13798205779E+02  0.00000000000E+00 0.  1.
</event>
<event>
 7    1  0.2891523E-011  0.5052886E+02  0.7816164E-02  0.1300439E+00
        -11   -1    0    0    0    0  0.00000000000E+00  0.00000000000E+00  0.45593999997E+02  0.45594000000E+02  0.51100000000E-03 0.  1.
         11   -1    0    0    0    0 -0.00000000000E+00 -0.00000000000E+00 -0.45593999997E+02  0.45594000000E+02  0.51100000000E-03 0. -1.
    9900012    2    1    2    0    0 -0.18593060160E+01 -0.36540258874E+02  0.17734648128E+02  0.50528864721E+02  0.30000014806E+02 0.  0.
         12    1    1    2    0    0  0.18593060160E+01  0.36540258874E+02 -0.17734648128E+02  0.40659135279E+02  0.00000000000E+00 0. -1.
         11    1    3    3    0    0 -0.26109365355E+01 -0.20535264347E+02  0.30629792879E+01  0.20925962672E+02  0.51100000000E-03 0. -1.
        -11    1    3    3    0    0  0.39899002638E+01  0.26957089653E+01 -0.10846302461E+01  0.49358458214E+01  0.51100000000E-03 0.  1.
         12    1    3    3    0    0 -0.32382697443E+01 -0.18700703492E+02  0.15756299086E+02  0.24667056227E+02  0.00000000000E+00 0. -1.
</event>
<event>
 7    1  0.2891523E-011  0.5052887E+02  0.7816164E-02  0.1300439E+00
        -11   -1    0    0    0    0  0.00000000000E+00  0.00000000000E+00  0.45593999997E+02  0.45594000000E+02  0.51100000000E-03 0. -1.
         11   -1    0    0    0    0 -0.00000000000E+00 -0.00000000000E+00 -0.45593999997E+02  0.45594000000E+02  0.51100000000E-03 0.  1.
    9900012    2    1    2    0    0  0.17066174338E+01 -0.39558606042E+02  0.92395525097E+01  0.50528865902E+02  0.30000018395E+02 0.  0.
         12    1    1    2    0    0 -0.17066174338E+01  0.39558606042E+02 -0.92395525097E+01  0.40659134098E+02  0.00000000000E+00 0. -1.
         11    1    3    3    0    0  0.30247980449E+01 -0.29488538356E+02  0.19378548078E+02  0.35415412230E+02  0.51100000000E-03 0. -1.
        -11    1    3    3    0    0 -0.29646486941E+01 -0.53046267724E+01 -0.45865054701E+01  0.76134249692E+01  0.51100000000E-03 0.  1.
         12    1    3    3    0    0  0.16464680830E+01 -0.47654409133E+01 -0.55524900979E+01  0.75000287022E+01  0.00000000000E+00 0. -1.
</event>
<event>
 7    1  0.2891523E-011  0.5052887E+02  0.7816164E-02  0.1300439E+00
        -11   -1    0    0    0    0  0.00000000000E+00  0.00000000000E+00  0.45593999997E+02  0.45594000000E+02  0.51100000000E-03 0.  1.
         11   -1    0    0    0    0 -0.00000000000E+00 -0.00000000000E+00 -0.45593999997E+02  0.45594000000E+02  0.51100000000E-03 0. -1.
    9900012    2    1    2    0    0 -0.21374907695E+02  0.11457313491E+01  0.34568274997E+02  0.50528867993E+02  0.30000024752E+02 0.  0.
         12    1    1    2    0    0  0.21374907695E+02 -0.11457313491E+01 -0.34568274997E+02  0.40659132007E+02  0.00000000000E+00 0. -1.
         11    1    3    3    0    0 -0.43956087712E+01  0.20953145631E+01  0.78383519768E+00  0.49321514035E+01  0.51100000000E-03 0. -1.
        -11    1    3    3    0    0  0.37473464032E+01 -0.62191407013E+01  0.16748674878E+02  0.18254819270E+02  0.51100000000E-03 0.  1.
        -12    1    3    3    0    0 -0.20726645327E+02  0.52695574872E+01  0.17035764921E+02  0.27341897320E+02  0.00000000000E+00 0.  1.
</event>
<event>
 7    1  0.2891523E-011  0.5052885E+02  0.7816164E-02  0.1300439E+00
        -11   -1    0    0    0    0  0.00000000000E+00  0.00000000000E+00  0.45593999997E+02  0.45594000000E+02  0.51100000000E-03 0.  1.
         11   -1    0    0    0    0 -0.00000000000E+00 -0.00000000000E+00 -0.45593999997E+02  0.45594000000E+02  0.51100000000E-03 0. -1.
    9900012    2    1    2    0    0 -0.33067289008E+02  0.16993004070E+02  0.16460825992E+02  0.50528848730E+02  0.29999966200E+02 0.  0.
         12    1    1    2    0    0  0.33067289008E+02 -0.16993004070E+02 -0.16460825992E+02  0.40659151270E+02  0.00000000000E+00 0. -1.
         11    1    3    3    0    0  0.78481107093E+00  0.16062355027E+00 -0.61149044419E+01  0.61671537143E+01  0.51100000000E-03 0. -1.
        -11    1    3    3    0    0 -0.48155433951E+01  0.14662386061E+01  0.50376633156E+01  0.71216125831E+01  0.51100000000E-03 0.  1.
         12    1    3    3    0    0 -0.29036556683E+02  0.15366141914E+02  0.17538067118E+02  0.37240082433E+02  0.00000000000E+00 0. -1.
</event>
<event>
 7    1  0.2891523E-011  0.5052887E+02  0.7816164E-02  0.1300439E+00
        -11   -1    0    0    0    0  0.00000000000E+00  0.00000000000E+00  0.45593999997E+02  0.45594000000E+02  0.51100000000E-03 0.  1.
         11   -1    0    0    0    0 -0.00000000000E+00 -0.00000000000E+00 -0.45593999997E+02  0.45594000000E+02  0.51100000000E-03 0. -1.
    9900012    2    1    2    0    0 -0.22855616650E+02  0.32324862108E+02 -0.92676205954E+01  0.50528871699E+02  0.30000036016E+02 0.  0.
         12    1    1    2    0    0  0.22855616650E+02 -0.32324862108E+02  0.92676205954E+01  0.40659128301E+02  0.00000000000E+00 0. -1.
         11    1    3    3    0    0 -0.27850511707E+01  0.59947434085E+01 -0.14540383942E+02  0.15972358123E+02  0.51100000000E-03 0. -1.
        -11    1    3    3    0    0 -0.13424714959E+02  0.21640820926E+02  0.12879273155E+01  0.25499154086E+02  0.51100000000E-03 0.  1.
         12    1    3    3    0    0 -0.66458505200E+01  0.46892977727E+01  0.39848360310E+01  0.90573594899E+01  0.00000000000E+00 0. -1.
</event>
<event>
 7    1  0.2891523E-011  0.5052886E+02  0.7816164E-02  0.1300439E+00
        -11   -1    0    0    0    0  0.00000000000E+00  0.00000000000E+00  0.45593999997E+02  0.45594000000E+02  0.51100000000E-03 0.  1.
         11   -1    0    0    0    0 -0.00000000000E+00 -0.00000000000E+00 -0.45593999997E+02  0.45594000000E+02  0.51100000000E-03 0. -1.
    9900012    2    1    2    0    0  0.38897443346E+02  0.40534969248E+01 -0.11123100422E+02  0.50528864505E+02  0.30000014150E+02 0.  0.
         12    1    1    2    0    0 -0.38897443346E+02 -0.40534969248E+01  0.11123100422E+02  0.40659135495E+02  0.00000000000E+00 0. -1.
         11    1    3    3    0    0  0.37764768493E+02  0.86879781040E+01 -0.14103114024E+02  0.41237804601E+02  0.51100000000E-03 0. -1.
        -11    1    3    3    0    0  0.42524772524E+01 -0.21517218691E+01  0.11426063793E+01  0.49009202589E+01  0.51100000000E-03 0.  1.
         12    1    3    3    0    0 -0.31198023997E+01 -0.24827593101E+01  0.18374072220E+01  0.43901396452E+01  0.00000000000E+00 0. -1.
</event>
<event>
 7    1  0.2891523E-011  0.5052883E+02  0.7816164E-02  0.1300439E+00
        -11   -1    0    0    0    0  0.00000000000E+00  0.00000000000E+00  0.45593999997E+02  0.45594000000E+02  0.51100000000E-03 0.  1.
         11   -1    0    0    0    0 -0.00000000000E+00 -0.00000000000E+00 -0.45593999997E+02  0.45594000000E+02  0.51100000000E-03 0. -1.
    9900012    2    1    2    0    0 -0.31121600753E+01 -0.11414871052E+01  0.40523814591E+02  0.50528830282E+02  0.29999910126E+02 0.  0.
         12    1    1    2    0    0  0.31121600753E+01  0.11414871052E+01 -0.40523814591E+02  0.40659169718E+02  0.00000000000E+00 0. -1.
         11    1    3    3    0    0  0.37898512021E+01  0.60082093268E+01  0.23316896768E+02  0.24374971315E+02  0.51100000000E-03 0.  1.
        -11    1    3    3    0    0 -0.11354542792E+02 -0.65522908264E+00  0.73658730801E+01  0.13550315629E+02  0.51100000000E-03 0. -1.
        -12    1    3    3    0    0  0.44525315145E+01 -0.64944673493E+01  0.98410447426E+01  0.12603543338E+02  0.00000000000E+00 0.  1.
</event>
<event>
 7    1  0.2891523E-011  0.5052886E+02  0.7816164E-02  0.1300439E+00
        -11   -1    0    0    0    0  0.00000000000E+00  0.00000000000E+00  0.45593999997E+02  0.45594000000E+02  0.51100000000E-03 0.  1.
         11   -1    0    0    0    0 -0.00000000000E+00 -0.00000000000E+00 -0.45593999997E+02  0.45594000000E+02  0.51100000000E-03 0. -1.
    9900012    2    1    2    0    0  0.52477066425E+01 -0.26617893084E+02  0.30283907905E+02  0.50528859142E+02  0.29999997849E+02 0.  0.
         12    1    1    2    0    0 -0.52477066425E+01  0.26617893084E+02 -0.30283907905E+02  0.40659140858E+02  0.00000000000E+00 0. -1.
         11    1    3    3    0    0 -0.77899702410E+01 -0.14620690969E+02  0.86040478394E+01  0.18667562247E+02  0.51100000000E-03 0. -1.
        -11    1    3    3    0    0  0.79507434875E+01 -0.31325234868E+01  0.19668476677E+02  0.21444719641E+02  0.51100000000E-03 0.  1.
         12    1    3    3    0    0  0.50869333961E+01 -0.88646786287E+01  0.20113833886E+01  0.10416577255E+02  0.00000000000E+00 0. -1.
</event>
<event>
 7    1  0.2891523E-011  0.5052886E+02  0.7816164E-02  0.1300439E+00
        -11   -1    0    0    0    0  0.00000000000E+00  0.00000000000E+00  0.45593999997E+02  0.45594000000E+02  0.51100000000E-03 0.  1.
         11   -1    0    0    0    0 -0.00000000000E+00 -0.00000000000E+00 -0.45593999997E+02  0.45594000000E+02  0.51100000000E-03 0. -1.
    9900012    2    1    2    0    0  0.11172023652E+02 -0.14583624092E+02  0.36272155246E+02  0.50528862647E+02  0.30000008502E+02 0.  0.
         12    1    1    2    0    0 -0.11172023652E+02  0.14583624092E+02 -0.36272155246E+02  0.40659137353E+02  0.00000000000E+00 0. -1.
         11    1    3    3    0    0 -0.21539890584E+00 -0.45679831270E+01 -0.21949985649E+01  0.50725620251E+01  0.51100000000E-03 0. -1.
        -11    1    3    3    0    0  0.16252618618E+02 -0.78336406557E+01  0.23909933788E+02  0.29953271472E+02  0.51100000000E-03 0.  1.
        -12    1    3    3    0    0 -0.48651960600E+01 -0.21820003090E+01  0.14557220022E+02  0.15503029150E+02  0.00000000000E+00 0.  1.
</event>
<event>
 7    1  0.2891523E-011  0.5052886E+02  0.7816164E-02  0.1300439E+00
        -11   -1    0    0    0    0  0.00000000000E+00  0.00000000000E+00  0.45593999997E+02  0.45594000000E+02  0.51100000000E-03 0.  1.
         11   -1    0    0    0    0 -0.00000000000E+00 -0.00000000000E+00 -0.45593999997E+02  0.45594000000E+02  0.51100000000E-03 0. -1.
    9900012    2    1    2    0    0 -0.14309897159E+02  0.22954513137E+02  0.30355933158E+02  0.50528861938E+02  0.30000006347E+02 0.  0.
         12    1    1    2    0    0  0.14309897159E+02 -0.22954513137E+02 -0.30355933158E+02  0.40659138062E+02  0.00000000000E+00 0. -1.
         11    1    3    3    0    0  0.51819429460E+01 -0.10871512790E+01  0.22863864262E+01  0.57673211936E+01  0.51100000000E-03 0. -1.
        -11    1    3    3    0    0 -0.16151590238E+02  0.25235623299E+02  0.28290341589E+02  0.41207450516E+02  0.51100000000E-03 0.  1.
         12    1    3    3    0    0 -0.33402498667E+01 -0.11939588834E+01 -0.22079485714E+00  0.35540902290E+01  0.00000000000E+00 0. -1.
</event>
<event>
 7    1  0.2891523E-011  0.5052886E+02  0.7816164E-02  0.1300439E+00
        -11   -1    0    0    0    0  0.00000000000E+00  0.00000000000E+00  0.45593999997E+02  0.45594000000E+02  0.51100000000E-03 0.  1.
         11   -1    0    0    0    0 -0.00000000000E+00 -0.00000000000E+00 -0.45593999997E+02  0.45594000000E+02  0.51100000000E-03 0. -1.
    9900012    2    1    2    0    0  0.13538385325E+01 -0.34377504740E+02  0.21668410971E+02  0.50528859023E+02  0.29999997488E+02 0.  0.
         12    1    1    2    0    0 -0.13538385325E+01  0.34377504740E+02 -0.21668410971E+02  0.40659140977E+02  0.00000000000E+00 0. -1.
         11    1    3    3    0    0 -0.51588850214E+01 -0.61541867567E+00 -0.12835252069E+01  0.53516606795E+01  0.51100000000E-03 0. -1.
        -11    1    3    3    0    0  0.11635609085E+02 -0.29073062402E+02  0.15330709781E+02  0.34866330735E+02  0.51100000000E-03 0.  1.
        -12    1    3    3    0    0 -0.51228855310E+01 -0.46890236620E+01  0.76212263969E+01  0.10310867609E+02  0.00000000000E+00 0.  1.
</event>
<event>
 7    1  0.2891523E-011  0.5052886E+02  0.7816164E-02  0.1300439E+00
        -11   -1    0    0    0    0  0.00000000000E+00  0.00000000000E+00  0.45593999997E+02  0.45594000000E+02  0.51100000000E-03 0.  1.
         11   -1    0    0    0    0 -0.00000000000E+00 -0.00000000000E+00 -0.45593999997E+02  0.45594000000E+02  0.51100000000E-03 0. -1.
    9900012    2    1    2    0    0 -0.36047501085E+02  0.18485609984E+02 -0.34677539104E+01  0.50528862920E+02  0.30000009331E+02 0.  0.
         12    1    1    2    0    0  0.36047501085E+02 -0.18485609984E+02  0.34677539104E+01  0.40659137080E+02  0.00000000000E+00 0. -1.
         11    1    3    3    0    0 -0.25239321752E+02  0.42990059020E+01 -0.11846185081E+02  0.28210581622E+02  0.51100000000E-03 0. -1.
        -11    1    3    3    0    0 -0.19405063286E+01  0.86984890495E+01 -0.45458429944E-01  0.89124263411E+01  0.51100000000E-03 0.  1.
         12    1    3    3    0    0 -0.88676730041E+01  0.54881150321E+01  0.84238896000E+01  0.13405854956E+02  0.00000000000E+00 0. -1.
</event>
<event>
 7    1  0.2891523E-011  0.5052884E+02  0.7816164E-02  0.1300439E+00
        -11   -1    0    0    0    0  0.00000000000E+00  0.00000000000E+00  0.45593999997E+02  0.45594000000E+02  0.51100000000E-03 0. -1.
         11   -1    0    0    0    0 -0.00000000000E+00 -0.00000000000E+00 -0.45593999997E+02  0.45594000000E+02  0.51100000000E-03 0.  1.
    9900012    2    1    2    0    0  0.14354076032E+02 -0.36997713358E+02  0.88485449012E+01  0.50528843106E+02  0.29999949105E+02 0.  0.
         12    1    1    2    0    0 -0.14354076032E+02  0.36997713358E+02 -0.88485449012E+01  0.40659156894E+02  0.00000000000E+00 0. -1.
         11    1    3    3    0    0 -0.47377472128E+01 -0.74008500229E+01  0.15811414523E+01  0.89285406572E+01  0.51100000000E-03 0. -1.
        -11    1    3    3    0    0  0.10001304314E+02 -0.53516075455E+00 -0.95040967298E+00  0.10060604545E+02  0.51100000000E-03 0.  1.
        -12    1    3    3    0    0  0.90905189304E+01 -0.29061702581E+02  0.82178131219E+01  0.31539697903E+02  0.00000000000E+00 0.  1.
</event>
<event>
 7    1  0.2891523E-011  0.5052886E+02  0.7816164E-02  0.1300439E+00
        -11   -1    0    0    0    0  0.00000000000E+00  0.00000000000E+00  0.45593999997E+02  0.45594000000E+02  0.51100000000E-03 0.  1.
         11   -1    0    0    0    0 -0.00000000000E+00 -0.00000000000E+00 -0.45593999997E+02  0.45594000000E+02  0.51100000000E-03 0. -1.
    9900012    2    1    2    0    0  0.84827255024E+01  0.23937925591E+02  0.31751925803E+02  0.50528859505E+02  0.29999998952E+02 0.  0.
         12    1    1    2    0    0 -0.84827255024E+01 -0.23937925591E+02 -0.31751925803E+02  0.40659140495E+02  0.00000000000E+00 0. -1.
         11    1    3    3    0    0  0.34122291786E+01 -0.33893583225E+01  0.11949107130E+02  0.12880691724E+02  0.51100000000E-03 0. -1.
        -11    1    3    3    0    0  0.34110579525E+01  0.27423051914E+02  0.21692458878E+02  0.35131493920E+02  0.51100000000E-03 0.  1.
        -12    1    3    3    0    0  0.16594383714E+01 -0.95767999821E-01 -0.18896402057E+01  0.25166738615E+01  0.00000000000E+00 0.  1.
</event>
<event>
 7    1  0.2891523E-011  0.5052885E+02  0.7816164E-02  0.1300439E+00
        -11   -1    0    0    0    0  0.00000000000E+00  0.00000000000E+00  0.45593999997E+02  0.45594000000E+02  0.51100000000E-03 0.  1.
         11   -1    0    0    0    0 -0.00000000000E+00 -0.00000000000E+00 -0.45593999997E+02  0.45594000000E+02  0.51100000000E-03 0. -1.
    9900012    2    1    2    0    0 -0.28843186702E+02  0.32910710668E+01  0.28467629043E+02  0.50528850093E+02  0.29999970342E+02 0.  0.
         12    1    1    2    0    0  0.28843186702E+02 -0.32910710668E+01 -0.28467629043E+02  0.40659149907E+02  0.00000000000E+00 0. -1.
         11    1    3    3    0    0 -0.73976845377E+01  0.63569292699E+01  0.26218634169E+02  0.27974149928E+02  0.51100000000E-03 0. -1.
        -11    1    3    3    0    0 -0.89452329458E+01  0.15728422496E+01  0.14510814446E+01  0.91976444168E+01  0.51100000000E-03 0.  1.
         12    1    3    3    0    0 -0.12500269218E+02 -0.46387004527E+01  0.79791342943E+00  0.13357055748E+02  0.00000000000E+00 0. -1.
</event>
<event>
 7    1  0.2891523E-011  0.5052886E+02  0.7816164E-02  0.1300439E+00
        -11   -1    0    0    0    0  0.00000000000E+00  0.00000000000E+00  0.45593999997E+02  0.45594000000E+02  0.51100000000E-03 0.  1.
         11   -1    0    0    0    0 -0.00000000000E+00 -0.00000000000E+00 -0.45593999997E+02  0.45594000000E+02  0.51100000000E-03 0. -1.
    9900012    2    1    2    0    0  0.28644186257E+02  0.27246779270E+02 -0.95020801027E+01  0.50528856955E+02  0.29999991200E+02 0.  0.
         12    1    1    2    0    0 -0.28644186257E+02 -0.27246779270E+02  0.95020801027E+01  0.40659143045E+02  0.00000000000E+00 0. -1.
         11    1    3    3    0    0  0.59757038468E+01  0.12809777693E+02 -0.12471259561E+02  0.18850245524E+02  0.51100000000E-03 0. -1.
        -11    1    3    3    0    0  0.23107868365E+02  0.11540392204E+02 -0.20036414223E+01  0.25906925943E+02  0.51100000000E-03 0.  1.
         12    1    3    3    0    0 -0.43938595469E+00  0.28966093726E+01  0.49728208801E+01  0.57716854887E+01  0.00000000000E+00 0. -1.
</event>
<event>
 7    1  0.2891523E-011  0.5052886E+02  0.7816164E-02  0.1300439E+00
        -11   -1    0    0    0    0  0.00000000000E+00  0.00000000000E+00  0.45593999997E+02  0.45594000000E+02  0.51100000000E-03 0.  1.
         11   -1    0    0    0    0 -0.00000000000E+00 -0.00000000000E+00 -0.45593999997E+02  0.45594000000E+02  0.51100000000E-03 0. -1.
    9900012    2    1    2    0    0  0.32705942790E+02 -0.10351434305E+02  0.21825089287E+02  0.50528863163E+02  0.30000010069E+02 0.  0.
         12    1    1    2    0    0 -0.32705942790E+02  0.10351434305E+02 -0.21825089287E+02  0.40659136837E+02  0.00000000000E+00 0. -1.
         11    1    3    3    0    0  0.13232549697E+02  0.88798813915E+00 -0.28319154789E+01  0.13561291973E+02  0.51100000000E-03 0.  1.
        -11    1    3    3    0    0  0.41182655737E+01 -0.61038552732E+01  0.18024705794E+02  0.19470674867E+02  0.51100000000E-03 0. -1.
        -12    1    3    3    0    0  0.15355127519E+02 -0.51355671708E+01  0.66322989715E+01  0.17496896323E+02  0.00000000000E+00 0.  1.
</event>
<event>
 7    1  0.2891523E-011  0.5052886E+02  0.7816164E-02  0.1300439E+00
        -11   -1    0    0    0    0  0.00000000000E+00  0.00000000000E+00  0.45593999997E+02  0.45594000000E+02  0.51100000000E-03 0.  1.
         11   -1    0    0    0    0 -0.00000000000E+00 -0.00000000000E+00 -0.45593999997E+02  0.45594000000E+02  0.51100000000E-03 0. -1.
    9900012    2    1    2    0    0  0.28063674207E+02 -0.20383184492E+02  0.21216070980E+02  0.50528859725E+02  0.29999999621E+02 0.  0.
         12    1    1    2    0    0 -0.28063674207E+02  0.20383184492E+02 -0.21216070980E+02  0.40659140275E+02  0.00000000000E+00 0. -1.
         11    1    3    3    0    0  0.11932293479E+02 -0.73313987331E+01 -0.57335360135E+01  0.15132827579E+02  0.51100000000E-03 0. -1.
        -11    1    3    3    0    0  0.71006022205E+01 -0.41713315838E+00  0.59240466073E+01  0.92567208250E+01  0.51100000000E-03 0.  1.
         12    1    3    3    0    0  0.90307785076E+01 -0.12634652600E+02  0.21025560387E+02  0.26139311321E+02  0.00000000000E+00 0. -1.
</event>
<event>
 7    1  0.2891523E-011  0.5052886E+02  0.7816164E-02  0.1300439E+00
        -11   -1    0    0    0    0  0.00000000000E+00  0.00000000000E+00  0.45593999997E+02  0.45594000000E+02  0.51100000000E-03 0.  1.
         11   -1    0    0    0    0 -0.00000000000E+00 -0.00000000000E+00 -0.45593999997E+02  0.45594000000E+02  0.51100000000E-03 0. -1.
    9900012    2    1    2    0    0 -0.39196109174E+02 -0.21169607666E+01 -0.10599477697E+02  0.50528862961E+02  0.30000009457E+02 0.  0.
         12    1    1    2    0    0  0.39196109174E+02  0.21169607666E+01  0.10599477697E+02  0.40659137039E+02  0.00000000000E+00 0. -1.
         11    1    3    3    0    0 -0.11188438965E+02  0.10934899613E+02 -0.51803514006E+01  0.16479964712E+02  0.51100000000E-03 0. -1.
        -11    1    3    3    0    0 -0.17879349056E+02 -0.78337730298E+01 -0.98000782895E+01  0.21842176112E+02  0.51100000000E-03 0.  1.
         12    1    3    3    0    0 -0.10128321153E+02 -0.52180873498E+01  0.43809519929E+01  0.12206722137E+02  0.00000000000E+00 0. -1.
</event>
<event>
 7    1  0.2891523E-011  0.5052886E+02  0.7816164E-02  0.1300439E+00
        -11   -1    0    0    0    0  0.00000000000E+00  0.00000000000E+00  0.45593999997E+02  0.45594000000E+02  0.51100000000E-03 0. -1.
         11   -1    0    0    0    0 -0.00000000000E+00 -0.00000000000E+00 -0.45593999997E+02  0.45594000000E+02  0.51100000000E-03 0.  1.
    9900012    2    1    2    0    0 -0.22167451543E+02 -0.10349971007E+02  0.32475345014E+02  0.50528857836E+02  0.29999993878E+02 0.  0.
         12    1    1    2    0    0  0.22167451543E+02  0.10349971007E+02 -0.32475345014E+02  0.40659142164E+02  0.00000000000E+00 0. -1.
         11    1    3    3    0    0  0.23092637808E+01  0.39592430545E+01  0.15785919441E+02  0.16437869620E+02  0.51100000000E-03 0. -1.
        -11    1    3    3    0    0 -0.23052969165E+02 -0.15534473187E+02  0.15127611583E+02  0.31648125963E+02  0.51100000000E-03 0.  1.
        -12    1    3    3    0    0 -0.14237461586E+01  0.12252591253E+01  0.15618139896E+01  0.24428622528E+01  0.00000000000E+00 0.  1.
</event>
<event>
 7    1  0.2891523E-011  0.5052885E+02  0.7816164E-02  0.1300439E+00
        -11   -1    0    0    0    0  0.00000000000E+00  0.00000000000E+00  0.45593999997E+02  0.45594000000E+02  0.51100000000E-03 0.  1.
         11   -1    0    0    0    0 -0.00000000000E+00 -0.00000000000E+00 -0.45593999997E+02  0.45594000000E+02  0.51100000000E-03 0. -1.
    9900012    2    1    2    0    0 -0.31513116938E+02 -0.19481113249E+02  0.16750401558E+02  0.50528852629E+02  0.29999978052E+02 0.  0.
         12    1    1    2    0    0  0.31513116938E+02  0.19481113249E+02 -0.16750401558E+02  0.40659147371E+02  0.00000000000E+00 0. -1.
         11    1    3    3    0    0  0.17633749446E+01 -0.43957750667E+01 -0.52452307085E+01  0.70671617414E+01  0.51100000000E-03 0. -1.
        -11    1    3    3    0    0 -0.27851902356E+02 -0.12622762070E+02  0.14375778173E+02  0.33789430085E+02  0.51100000000E-03 0.  1.
        -12    1    3    3    0    0 -0.54245895259E+01 -0.24625761124E+01  0.76198540931E+01  0.96722608026E+01  0.00000000000E+00 0.  1.
</event>
<event>
 7    1  0.2891523E-011  0.5052886E+02  0.7816164E-02  0.1300439E+00
        -11   -1    0    0    0    0  0.00000000000E+00  0.00000000000E+00  0.45593999997E+02  0.45594000000E+02  0.51100000000E-03 0.  1.
         11   -1    0    0    0    0 -0.00000000000E+00 -0.00000000000E+00 -0.45593999997E+02  0.45594000000E+02  0.51100000000E-03 0. -1.
    9900012    2    1    2    0    0  0.21536202162E+02  0.14726964887E+02  0.31184524580E+02  0.50528855006E+02  0.29999985276E+02 0.  0.
         12    1    1    2    0    0 -0.21536202162E+02 -0.14726964887E+02 -0.31184524580E+02  0.40659144994E+02  0.00000000000E+00 0. -1.
         11    1    3    3    0    0 -0.50411079794E+01 -0.38017333664E+01  0.33454761340E+01  0.71454990780E+01  0.51100000000E-03 0. -1.
        -11    1    3    3    0    0  0.17933192763E+02  0.14345582529E+02  0.15323248493E+02  0.27607917079E+02  0.51100000000E-03 0.  1.
         12    1    3    3    0    0  0.86441173784E+01  0.41831157251E+01  0.12515799953E+02  0.15775438849E+02  0.00000000000E+00 0. -1.
</event>
<event>
 7    1  0.2891523E-011  0.5052887E+02  0.7816164E-02  0.1300439E+00
        -11   -1    0    0    0    0  0.00000000000E+00  0.00000000000E+00  0.45593999997E+02  0.45594000000E+02  0.51100000000E-03 0. -1.
         11   -1    0    0    0    0 -0.00000000000E+00 -0.00000000000E+00 -0.45593999997E+02  0.45594000000E+02  0.51100000000E-03 0.  1.
    9900012    2    1    2    0    0  0.21805925111E+02  0.31310417822E+02  0.14047214349E+02  0.50528869844E+02  0.30000030377E+02 0.  0.
         12    1    1    2    0    0 -0.21805925111E+02 -0.31310417822E+02 -0.14047214349E+02  0.40659130156E+02  0.00000000000E+00 0. -1.
         11    1    3    3    0    0  0.92478820523E+01 -0.17645812409E+01  0.20304904188E+01  0.96311972781E+01  0.51100000000E-03 0. -1.
        -11    1    3    3    0    0  0.15958143129E+02  0.25672956199E+02  0.61202505785E+01  0.30841862452E+02  0.51100000000E-03 0.  1.
         12    1    3    3    0    0 -0.34001000704E+01  0.74020428635E+01  0.58964733517E+01  0.10055810113E+02  0.00000000000E+00 0. -1.
</event>
<event>
 7    1  0.2891523E-011  0.5052886E+02  0.7816164E-02  0.1300439E+00
        -11   -1    0    0    0    0  0.00000000000E+00  0.00000000000E+00  0.45593999997E+02  0.45594000000E+02  0.51100000000E-03 0. -1.
         11   -1    0    0    0    0 -0.00000000000E+00 -0.00000000000E+00 -0.45593999997E+02  0.45594000000E+02  0.51100000000E-03 0.  1.
    9900012    2    1    2    0    0 -0.26339991306E+01  0.32180406339E+02 -0.24711310586E+02  0.50528863580E+02  0.30000011338E+02 0.  0.
         12    1    1    2    0    0  0.26339991306E+01 -0.32180406339E+02  0.24711310586E+02  0.40659136420E+02  0.00000000000E+00 0. -1.
         11    1    3    3    0    0 -0.11542004342E+02  0.45925218626E+01 -0.44894506399E+01  0.13208493048E+02  0.51100000000E-03 0. -1.
        -11    1    3    3    0    0  0.33026695353E+01  0.82414694234E+01 -0.14287439446E+00  0.88797442344E+01  0.51100000000E-03 0.  1.
         12    1    3    3    0    0  0.56053356758E+01  0.19346415053E+02 -0.20078985552E+02  0.28440626298E+02  0.00000000000E+00 0. -1.
</event>
<event>
 7    1  0.2891523E-011  0.5052882E+02  0.7816164E-02  0.1300439E+00
        -11   -1    0    0    0    0  0.00000000000E+00  0.00000000000E+00  0.45593999997E+02  0.45594000000E+02  0.51100000000E-03 0.  1.
         11   -1    0    0    0    0 -0.00000000000E+00 -0.00000000000E+00 -0.45593999997E+02  0.45594000000E+02  0.51100000000E-03 0. -1.
    9900012    2    1    2    0    0 -0.26757005452E+02  0.15690006143E+02  0.26287935967E+02  0.50528816401E+02  0.29999867933E+02 0.  0.
         12    1    1    2    0    0  0.26757005452E+02 -0.15690006143E+02 -0.26287935967E+02  0.40659183599E+02  0.00000000000E+00 0. -1.
         11    1    3    3    0    0  0.47242376876E+01  0.29924408345E+01  0.24705070195E+01  0.61136346858E+01  0.51100000000E-03 0. -1.
        -11    1    3    3    0    0 -0.27243055283E+02  0.60664891689E+01  0.23586713486E+02  0.36542022458E+02  0.51100000000E-03 0.  1.
        -12    1    3    3    0    0 -0.42381878564E+01  0.66310761394E+01  0.23071546193E+00  0.78731592577E+01  0.00000000000E+00 0.  1.
</event>
<event>
 7    1  0.2891523E-011  0.5052885E+02  0.7816164E-02  0.1300439E+00
        -11   -1    0    0    0    0  0.00000000000E+00  0.00000000000E+00  0.45593999997E+02  0.45594000000E+02  0.51100000000E-03 0.  1.
         11   -1    0    0    0    0 -0.00000000000E+00 -0.00000000000E+00 -0.45593999997E+02  0.45594000000E+02  0.51100000000E-03 0. -1.
    9900012    2    1    2    0    0 -0.24261862571E+02 -0.24534699710E+02  0.21507611895E+02  0.50528845622E+02  0.29999956753E+02 0.  0.
         12    1    1    2    0    0  0.24261862571E+02  0.24534699710E+02 -0.21507611895E+02  0.40659154378E+02  0.00000000000E+00 0. -1.
         11    1    3    3    0    0 -0.10561185497E+02  0.28495955693E+00  0.12744971406E+02  0.16554580558E+02  0.51100000000E-03 0. -1.
        -11    1    3    3    0    0 -0.97001169515E+01 -0.25246967673E+02  0.11196313168E+02  0.29272155274E+02  0.51100000000E-03 0.  1.
         12    1    3    3    0    0 -0.40005601233E+01  0.42730840655E+00 -0.24336726787E+01  0.47021097904E+01  0.00000000000E+00 0. -1.
</event>
<event>
 7    1  0.2891523E-011  0.5052886E+02  0.7816164E-02  0.1300439E+00
        -11   -1    0    0    0    0  0.00000000000E+00  0.00000000000E+00  0.45593999997E+02  0.45594000000E+02  0.51100000000E-03 0.  1.
         11   -1    0    0    0    0 -0.00000000000E+00 -0.00000000000E+00 -0.45593999997E+02  0.45594000000E+02  0.51100000000E-03 0. -1.
    9900012    2    1    2    0    0  0.15456905644E+00 -0.39479046617E+02  0.97235088885E+01  0.50528860333E+02  0.30000001468E+02 0.  0.
         12    1    1    2    0    0 -0.15456905644E+00  0.39479046617E+02 -0.97235088885E+01  0.40659139667E+02  0.00000000000E+00 0. -1.
         11    1    3    3    0    0  0.17968723179E+01 -0.85680332429E+00 -0.86591685464E+00  0.21708694857E+01  0.51100000000E-03 0. -1.
        -11    1    3    3    0    0 -0.17210304808E+01 -0.36514675104E+02 -0.10092363386E+01  0.36569140024E+02  0.51100000000E-03 0.  1.
        -12    1    3    3    0    0  0.78727219287E-01 -0.21075681885E+01  0.11598662082E+02  0.11788850823E+02  0.00000000000E+00 0.  1.
</event>
<event>
 7    1  0.2891523E-011  0.5052886E+02  0.7816164E-02  0.1300439E+00
        -11   -1    0    0    0    0  0.00000000000E+00  0.00000000000E+00  0.45593999997E+02  0.45594000000E+02  0.51100000000E-03 0. -1.
         11   -1    0    0    0    0 -0.00000000000E+00 -0.00000000000E+00 -0.45593999997E+02  0.45594000000E+02  0.51100000000E-03 0.  1.
    9900012    2    1    2    0    0 -0.26759777032E+02  0.33611112440E+01 -0.30426680154E+02  0.50528860796E+02  0.30000002876E+02 0.  0.
         12    1    1    2    0    0  0.26759777032E+02 -0.33611112440E+01  0.30426680154E+02  0.40659139204E+02  0.00000000000E+00 0. -1.
         11    1    3    3    0    0 -0.13486202768E+02  0.25150316348E+01  0.93921683499E-01  0.13719033157E+02  0.51100000000E-03 0. -1.
        -11    1    3    3    0    0 -0.70837626041E+01  0.51216738487E+01 -0.27230056818E+02  0.28598727773E+02  0.51100000000E-03 0.  1.
        -12    1    3    3    0    0 -0.61898116602E+01 -0.42755942395E+01 -0.32905450195E+01  0.82110998663E+01  0.00000000000E+00 0.  1.
</event>
<event>
 7    1  0.2891523E-011  0.5052887E+02  0.7816164E-02  0.1300439E+00
        -11   -1    0    0    0    0  0.00000000000E+00  0.00000000000E+00  0.45593999997E+02  0.45594000000E+02  0.51100000000E-03 0.  1.
         11   -1    0    0    0    0 -0.00000000000E+00 -0.00000000000E+00 -0.45593999997E+02  0.45594000000E+02  0.51100000000E-03 0. -1.
    9900012    2    1    2    0    0 -0.15374802262E+02  0.21781089945E+02  0.30697950034E+02  0.50528873595E+02  0.30000041778E+02 0.  0.
         12    1    1    2    0    0  0.15374802262E+02 -0.21781089945E+02 -0.30697950034E+02  0.40659126405E+02  0.00000000000E+00 0. -1.
         11    1    3    3    0    0  0.44393465484E+00  0.65307728718E+01  0.25124529185E+02  0.25963244006E+02  0.51100000000E-03 0. -1.
        -11    1    3    3    0    0 -0.11133771317E+02  0.41600483382E+01  0.27147572557E+01  0.12191668185E+02  0.51100000000E-03 0.  1.
         12    1    3    3    0    0 -0.46849655999E+01  0.11090268735E+02  0.28586635929E+01  0.12373961404E+02  0.00000000000E+00 0. -1.
</event>
<event>
 7    1  0.2891523E-011  0.5052886E+02  0.7816164E-02  0.1300439E+00
        -11   -1    0    0    0    0  0.00000000000E+00  0.00000000000E+00  0.45593999997E+02  0.45594000000E+02  0.51100000000E-03 0.  1.
         11   -1    0    0    0    0 -0.00000000000E+00 -0.00000000000E+00 -0.45593999997E+02  0.45594000000E+02  0.51100000000E-03 0. -1.
    9900012    2    1    2    0    0  0.67773262564E+01 -0.67407966190E+01  0.39519550422E+02  0.50528863809E+02  0.30000012033E+02 0.  0.
         12    1    1    2    0    0 -0.67773262564E+01  0.67407966190E+01 -0.39519550422E+02  0.40659136191E+02  0.00000000000E+00 0. -1.
         11    1    3    3    0    0  0.28618718186E+01  0.16046113906E+01 -0.13077081213E+01  0.35320233312E+01  0.51100000000E-03 0. -1.
        -11    1    3    3    0    0 -0.15247639792E+01 -0.13784573067E+02  0.33967760097E+02  0.36689890789E+02  0.51100000000E-03 0.  1.
        -12    1    3    3    0    0  0.54402184170E+01  0.54391650572E+01  0.68594984470E+01  0.10306949689E+02  0.00000000000E+00 0.  1.
</event>
<event>
 7    1  0.2891523E-011  0.5052887E+02  0.7816164E-02  0.1300439E+00
        -11   -1    0    0    0    0  0.00000000000E+00  0.00000000000E+00  0.45593999997E+02  0.45594000000E+02  0.51100000000E-03 0. -1.
         11   -1    0    0    0    0 -0.00000000000E+00 -0.00000000000E+00 -0.45593999997E+02  0.45594000000E+02  0.51100000000E-03 0.  1.
    9900012    2    1    2    0    0  0.34864435081E+02 -0.10573849721E+01 -0.20893020893E+02  0.50528865497E+02  0.30000017165E+02 0.  0.
         12    1    1    2    0    0 -0.34864435081E+02  0.10573849721E+01  0.20893020893E+02  0.40659134503E+02  0.00000000000E+00 0. -1.
         11    1    3    3    0    0  0.66769859108E+01  0.29388141911E+01  0.51241425248E+01  0.89149092300E+01  0.51100000000E-03 0. -1.
        -11    1    3    3    0    0  0.20334525413E+02 -0.16202599599E+01 -0.26444860600E+02  0.33398335565E+02  0.51100000000E-03 0.  1.
        -12    1    3    3    0    0  0.78529237575E+01 -0.23759392032E+01  0.42769718252E+00  0.82156207020E+01  0.00000000000E+00 0.  1.
</event>
<event>
 7    1  0.2891523E-011  0.5052889E+02  0.7816164E-02  0.1300439E+00
        -11   -1    0    0    0    0  0.00000000000E+00  0.00000000000E+00  0.45593999997E+02  0.45594000000E+02  0.51100000000E-03 0.  1.
         11   -1    0    0    0    0 -0.00000000000E+00 -0.00000000000E+00 -0.45593999997E+02  0.45594000000E+02  0.51100000000E-03 0. -1.
    9900012    2    1    2    0    0  0.20558823302E+02  0.30889337467E+02 -0.16623676026E+02  0.50528892910E+02  0.30000100489E+02 0.  0.
         12    1    1    2    0    0 -0.20558823302E+02 -0.30889337467E+02  0.16623676026E+02  0.40659107090E+02  0.00000000000E+00 0. -1.
         11    1    3    3    0    0 -0.25801886303E+01  0.44500325119E+01 -0.60061546003E+01  0.79078477520E+01  0.51100000000E-03 0. -1.
        -11    1    3    3    0    0  0.26374794022E+02  0.24266342858E+02 -0.56111564515E+01  0.36276304007E+02  0.51100000000E-03 0.  1.
        -12    1    3    3    0    0 -0.32357820904E+01  0.21729620972E+01 -0.50063649745E+01  0.63447411508E+01  0.00000000000E+00 0.  1.
</event>
<event>
 7    1  0.2891523E-011  0.5052886E+02  0.7816164E-02  0.1300439E+00
        -11   -1    0    0    0    0  0.00000000000E+00  0.00000000000E+00  0.45593999997E+02  0.45594000000E+02  0.51100000000E-03 0.  1.
         11   -1    0    0    0    0 -0.00000000000E+00 -0.00000000000E+00 -0.45593999997E+02  0.45594000000E+02  0.51100000000E-03 0. -1.
    9900012    2    1    2    0    0  0.36613603035E+02 -0.98690940322E+01  0.14670051155E+02  0.50528863940E+02  0.30000012433E+02 0.  0.
         12    1    1    2    0    0 -0.36613603035E+02  0.98690940322E+01 -0.14670051155E+02  0.40659136060E+02  0.00000000000E+00 0. -1.
         11    1    3    3    0    0  0.19647298118E+02  0.99526637670E+01  0.69435411525E+01  0.23092955709E+02  0.51100000000E-03 0. -1.
        -11    1    3    3    0    0  0.11424315612E+02 -0.10954313818E+02  0.39003358293E+01  0.16301061262E+02  0.51100000000E-03 0.  1.
         12    1    3    3    0    0  0.55419893061E+01 -0.88674439812E+01  0.38261741729E+01  0.11134846969E+02  0.00000000000E+00 0. -1.
</event>
<event>
 7    1  0.2891523E-011  0.5052883E+02  0.7816164E-02  0.1300439E+00
        -11   -1    0    0    0    0  0.00000000000E+00  0.00000000000E+00  0.45593999997E+02  0.45594000000E+02  0.51100000000E-03 0.  1.
         11   -1    0    0    0    0 -0.00000000000E+00 -0.00000000000E+00 -0.45593999997E+02  0.45594000000E+02  0.51100000000E-03 0. -1.
    9900012    2    1    2    0    0 -0.59483532835E+01 -0.15960223491E+02  0.36919596187E+02  0.50528828547E+02  0.29999904851E+02 0.  0.
         12    1    1    2    0    0  0.59483532835E+01  0.15960223491E+02 -0.36919596187E+02  0.40659171453E+02  0.00000000000E+00 0. -1.
         11    1    3    3    0    0  0.51723579695E+01  0.48313278851E+01  0.36726855112E+01  0.79739347391E+01  0.51100000000E-03 0. -1.
        -11    1    3    3    0    0 -0.43617196627E+01 -0.13116971276E+02  0.27611492792E+02  0.30878375416E+02  0.51100000000E-03 0.  1.
        -12    1    3    3    0    0 -0.67589915904E+01 -0.76745800997E+01  0.56354178838E+01  0.11676518392E+02  0.00000000000E+00 0.  1.
</event>
<event>
 7    1  0.2891523E-011  0.5052887E+02  0.7816164E-02  0.1300439E+00
        -11   -1    0    0    0    0  0.00000000000E+00  0.00000000000E+00  0.45593999997E+02  0.45594000000E+02  0.51100000000E-03 0.  1.
         11   -1    0    0    0    0 -0.00000000000E+00 -0.00000000000E+00 -0.45593999997E+02  0.45594000000E+02  0.51100000000E-03 0. -1.
    9900012    2    1    2    0    0 -0.10524620683E+02  0.15064575955E+02  0.36269210531E+02  0.50528871606E+02  0.30000035732E+02 0.  0.
         12    1    1    2    0    0  0.10524620683E+02 -0.15064575955E+02 -0.36269210531E+02  0.40659128394E+02  0.00000000000E+00 0. -1.
         11    1    3    3    0    0 -0.85591637610E+01  0.13384290587E+02  0.19851205085E+02  0.25425751954E+02  0.51100000000E-03 0. -1.
        -11    1    3    3    0    0  0.28136662760E+01  0.29057941197E+01 -0.30205729137E+01  0.50481896128E+01  0.51100000000E-03 0.  1.
        -12    1    3    3    0    0 -0.47791231982E+01 -0.12255087510E+01  0.19438578359E+02  0.20054930039E+02  0.00000000000E+00 0.  1.
</event>
<event>
 7    1  0.2891523E-011  0.5052886E+02  0.7816164E-02  0.1300439E+00
        -11   -1    0    0    0    0  0.00000000000E+00  0.00000000000E+00  0.45593999997E+02  0.45594000000E+02  0.51100000000E-03 0.  1.
         11   -1    0    0    0    0 -0.00000000000E+00 -0.00000000000E+00 -0.45593999997E+02  0.45594000000E+02  0.51100000000E-03 0. -1.
    9900012    2    1    2    0    0 -0.16188125984E+02 -0.49597450460E+01  0.36966355755E+02  0.50528856482E+02  0.29999989764E+02 0.  0.
         12    1    1    2    0    0  0.16188125984E+02  0.49597450460E+01 -0.36966355755E+02  0.40659143518E+02  0.00000000000E+00 0. -1.
         11    1    3    3    0    0 -0.15626914339E+01  0.23243150147E+01  0.12754810568E+02  0.13058699693E+02  0.51100000000E-03 0. -1.
        -11    1    3    3    0    0  0.17653904890E+01 -0.11440792804E+02  0.11481038335E+02  0.16304066520E+02  0.51100000000E-03 0.  1.
        -12    1    3    3    0    0 -0.16390825039E+02  0.41567327436E+01  0.12730506852E+02  0.21166090269E+02  0.00000000000E+00 0.  1.
</event>
<event>
 7    1  0.2891523E-011  0.5052887E+02  0.7816164E-02  0.1300439E+00
        -11   -1    0    0    0    0  0.00000000000E+00  0.00000000000E+00  0.45593999997E+02  0.45594000000E+02  0.51100000000E-03 0.  1.
         11   -1    0    0    0    0 -0.00000000000E+00 -0.00000000000E+00 -0.45593999997E+02  0.45594000000E+02  0.51100000000E-03 0. -1.
    9900012    2    1    2    0    0  0.12234174776E+02  0.21396579597E+01  0.38715780157E+02  0.50528870622E+02  0.30000032744E+02 0.  0.
         12    1    1    2    0    0 -0.12234174776E+02 -0.21396579597E+01 -0.38715780157E+02  0.40659129378E+02  0.00000000000E+00 0. -1.
         11    1    3    3    0    0  0.35712242072E+01 -0.44814961522E+01 -0.30651541970E+01  0.64986629866E+01  0.51100000000E-03 0. -1.
        -11    1    3    3    0    0 -0.17431488059E+01  0.11369875122E+01  0.77078710474E+01  0.79838953341E+01  0.51100000000E-03 0.  1.
         12    1    3    3    0    0  0.10406099374E+02  0.54841665998E+01  0.34073063306E+02  0.36046312302E+02  0.00000000000E+00 0. -1.
</event>
<event>
 7    1  0.2891523E-011  0.5052888E+02  0.7816164E-02  0.1300439E+00
        -11   -1    0    0    0    0  0.00000000000E+00  0.00000000000E+00  0.45593999997E+02  0.45594000000E+02  0.51100000000E-03 0. -1.
         11   -1    0    0    0    0 -0.00000000000E+00 -0.00000000000E+00 -0.45593999997E+02  0.45594000000E+02  0.51100000000E-03 0.  1.
    9900012    2    1    2    0    0 -0.38960550641E+01  0.39624431368E+02  0.82395102378E+01  0.50528876359E+02  0.30000050179E+02 0.  0.
         12    1    1    2    0    0  0.38960550641E+01 -0.39624431368E+02 -0.82395102378E+01  0.40659123641E+02  0.00000000000E+00 0. -1.
         11    1    3    3    0    0  0.76692144440E+01  0.57780890896E+01  0.83274054379E+00  0.96382893083E+01  0.51100000000E-03 0. -1.
        -11    1    3    3    0    0 -0.36140104002E+01  0.31798083511E+02  0.59794846146E+01  0.32556618723E+02  0.51100000000E-03 0.  1.
        -12    1    3    3    0    0 -0.79512591079E+01  0.20482587674E+01  0.14272850794E+01  0.83339683271E+01  0.00000000000E+00 0.  1.
</event>
<event>
 7    1  0.2891523E-011  0.5052886E+02  0.7816164E-02  0.1300439E+00
        -11   -1    0    0    0    0  0.00000000000E+00  0.00000000000E+00  0.45593999997E+02  0.45594000000E+02  0.51100000000E-03 0.  1.
         11   -1    0    0    0    0 -0.00000000000E+00 -0.00000000000E+00 -0.45593999997E+02  0.45594000000E+02  0.51100000000E-03 0. -1.
    9900012    2    1    2    0    0 -0.20308385732E+02 -0.13584056059E+01  0.35197866869E+02  0.50528860450E+02  0.30000001823E+02 0.  0.
         12    1    1    2    0    0  0.20308385732E+02  0.13584056059E+01 -0.35197866869E+02  0.40659139550E+02  0.00000000000E+00 0. -1.
         11    1    3    3    0    0 -0.21787330930E+01 -0.47589849204E+01 -0.28275768688E+01  0.59489500395E+01  0.51100000000E-03 0. -1.
        -11    1    3    3    0    0 -0.17253584479E+02 -0.61429275019E+00  0.21619067078E+02  0.27666723596E+02  0.51100000000E-03 0.  1.
         12    1    3    3    0    0 -0.87606816050E+00  0.40148720646E+01  0.16406376660E+02  0.16913186815E+02  0.00000000000E+00 0. -1.
</event>
<event>
 7    1  0.2891523E-011  0.5052887E+02  0.7816164E-02  0.1300439E+00
        -11   -1    0    0    0    0  0.00000000000E+00  0.00000000000E+00  0.45593999997E+02  0.45594000000E+02  0.51100000000E-03 0. -1.
         11   -1    0    0    0    0 -0.00000000000E+00 -0.00000000000E+00 -0.45593999997E+02  0.45594000000E+02  0.51100000000E-03 0.  1.
    9900012    2    1    2    0    0 -0.33514984966E+01  0.27228716495E+02 -0.30008825964E+02  0.50528865973E+02  0.30000018611E+02 0.  0.
         12    1    1    2    0    0  0.33514984966E+01 -0.27228716495E+02  0.30008825964E+02  0.40659134027E+02  0.00000000000E+00 0. -1.
         11    1    3    3    0    0 -0.86380800587E+00 -0.26843419717E+01  0.31546109701E+01  0.42312441109E+01  0.51100000000E-03 0. -1.
        -11    1    3    3    0    0 -0.20847115630E+01  0.10041968136E+02 -0.19947232853E+02  0.22429428104E+02  0.51100000000E-03 0.  1.
         12    1    3    3    0    0 -0.40297892773E+00  0.19871090331E+02 -0.13216204081E+02  0.23868193758E+02  0.00000000000E+00 0. -1.
</event>
<event>
 7    1  0.2891523E-011  0.5052885E+02  0.7816164E-02  0.1300439E+00
        -11   -1    0    0    0    0  0.00000000000E+00  0.00000000000E+00  0.45593999997E+02  0.45594000000E+02  0.51100000000E-03 0.  1.
         11   -1    0    0    0    0 -0.00000000000E+00 -0.00000000000E+00 -0.45593999997E+02  0.45594000000E+02  0.51100000000E-03 0. -1.
    9900012    2    1    2    0    0  0.15967518802E+02  0.29435038339E+02  0.23060421240E+02  0.50528853840E+02  0.29999981733E+02 0.  0.
         12    1    1    2    0    0 -0.15967518802E+02 -0.29435038339E+02 -0.23060421240E+02  0.40659146160E+02  0.00000000000E+00 0. -1.
         11    1    3    3    0    0  0.18581112062E+02  0.10865884146E+02  0.10087785944E+02  0.23771592063E+02  0.51100000000E-03 0. -1.
        -11    1    3    3    0    0 -0.50520130255E+01  0.50320122201E+01  0.10636278087E+02  0.12805248705E+02  0.51100000000E-03 0.  1.
        -12    1    3    3    0    0  0.24384197662E+01  0.13537141973E+02  0.23363572086E+01  0.13952013072E+02  0.00000000000E+00 0.  1.
</event>
<event>
 7    1  0.2891523E-011  0.5052885E+02  0.7816164E-02  0.1300439E+00
        -11   -1    0    0    0    0  0.00000000000E+00  0.00000000000E+00  0.45593999997E+02  0.45594000000E+02  0.51100000000E-03 0.  1.
         11   -1    0    0    0    0 -0.00000000000E+00 -0.00000000000E+00 -0.45593999997E+02  0.45594000000E+02  0.51100000000E-03 0. -1.
    9900012    2    1    2    0    0 -0.17849563379E+02 -0.52968857894E+01  0.36145576127E+02  0.50528848687E+02  0.29999966070E+02 0.  0.
         12    1    1    2    0    0  0.17849563379E+02  0.52968857894E+01 -0.36145576127E+02  0.40659151313E+02  0.00000000000E+00 0. -1.
         11    1    3    3    0    0 -0.21831050832E+01  0.87600807466E+01  0.50658744732E+01  0.10352200101E+02  0.51100000000E-03 0. -1.
        -11    1    3    3    0    0 -0.41023580659E+01 -0.72682701399E+01  0.23125529114E+02  0.24585507714E+02  0.51100000000E-03 0.  1.
         12    1    3    3    0    0 -0.11564100230E+02 -0.67886963961E+01  0.79541725403E+01  0.15591140872E+02  0.00000000000E+00 0. -1.
</event>
<event>
 7    1  0.2891523E-011  0.5052887E+02  0.7816164E-02  0.1300439E+00
        -11   -1    0    0    0    0  0.00000000000E+00  0.00000000000E+00  0.45593999997E+02  0.45594000000E+02  0.51100000000E-03 0.  1.
         11   -1    0    0    0    0 -0.00000000000E+00 -0.00000000000E+00 -0.45593999997E+02  0.45594000000E+02  0.51100000000E-03 0. -1.
    9900012    2    1    2    0    0 -0.83924477656E+01 -0.30128047467E+02  0.25981386064E+02  0.50528870084E+02  0.30000031109E+02 0.  0.
         12    1    1    2    0    0  0.83924477656E+01  0.30128047467E+02 -0.25981386064E+02  0.40659129916E+02  0.00000000000E+00 0. -1.
         11    1    3    3    0    0 -0.50389162240E+01 -0.76260342319E+01 -0.30257181259E+01  0.96281901340E+01  0.51100000000E-03 0. -1.
        -11    1    3    3    0    0 -0.80654010273E+01 -0.22671232593E+02  0.23264370141E+02  0.33470380926E+02  0.51100000000E-03 0.  1.
        -12    1    3    3    0    0  0.47118694857E+01  0.16921935699E+00  0.57427340490E+01  0.74302990249E+01  0.00000000000E+00 0.  1.
</event>
<event>
 7    1  0.2891523E-011  0.5052886E+02  0.7816164E-02  0.1300439E+00
        -11   -1    0    0    0    0  0.00000000000E+00  0.00000000000E+00  0.45593999997E+02  0.45594000000E+02  0.51100000000E-03 0.  1.
         11   -1    0    0    0    0 -0.00000000000E+00 -0.00000000000E+00 -0.45593999997E+02  0.45594000000E+02  0.51100000000E-03 0. -1.
    9900012    2    1    2    0    0 -0.29379977261E+02  0.60772555860E+01  0.27441749337E+02  0.50528859502E+02  0.29999998943E+02 0.  0.
         12    1    1    2    0    0  0.29379977261E+02 -0.60772555860E+01 -0.27441749337E+02  0.40659140498E+02  0.00000000000E+00 0. -1.
         11    1    3    3    0    0 -0.19215443621E+02 -0.96993706629E+01  0.69140154612E+01  0.22607845427E+02  0.51100000000E-03 0. -1.
        -11    1    3    3    0    0 -0.41287949861E+01  0.56683368766E+01  0.60594804623E+01  0.92679174963E+01  0.51100000000E-03 0.  1.
         12    1    3    3    0    0 -0.60357386541E+01  0.10108289372E+02  0.14468253414E+02  0.18653096579E+02  0.00000000000E+00 0. -1.
</event>
<event>
 7    1  0.2891523E-011  0.5052887E+02  0.7816164E-02  0.1300439E+00
        -11   -1    0    0    0    0  0.00000000000E+00  0.00000000000E+00  0.45593999997E+02  0.45594000000E+02  0.51100000000E-03 0. -1.
         11   -1    0    0    0    0 -0.00000000000E+00 -0.00000000000E+00 -0.45593999997E+02  0.45594000000E+02  0.51100000000E-03 0.  1.
    9900012    2    1    2    0    0  0.37603530858E+01  0.18161809000E+02 -0.36182499990E+02  0.50528869820E+02  0.30000030305E+02 0.  0.
         12    1    1    2    0    0 -0.37603530858E+01 -0.18161809000E+02  0.36182499990E+02  0.40659130180E+02  0.00000000000E+00 0. -1.
         11    1    3    3    0    0 -0.16877752316E+01  0.18866353327E+01  0.39655347745E+01  0.47046194766E+01  0.51100000000E-03 0. -1.
        -11    1    3    3    0    0  0.61283389692E+01  0.81650664444E+01 -0.34340912262E+02  0.35826290679E+02  0.51100000000E-03 0.  1.
         12    1    3    3    0    0 -0.68021065190E+00  0.81101072228E+01 -0.58071225018E+01  0.99979596642E+01  0.00000000000E+00 0. -1.
</event>
<event>
 7    1  0.2891523E-011  0.5052886E+02  0.7816164E-02  0.1300439E+00
        -11   -1    0    0    0    0  0.00000000000E+00  0.00000000000E+00  0.45593999997E+02  0.45594000000E+02  0.51100000000E-03 0.  1.
         11   -1    0    0    0    0 -0.00000000000E+00 -0.00000000000E+00 -0.45593999997E+02  0.45594000000E+02  0.51100000000E-03 0. -1.
    9900012    2    1    2    0    0  0.10057030367E+01 -0.41227043418E+01  0.40437085298E+02  0.50528855922E+02  0.29999988062E+02 0.  0.
         12    1    1    2    0    0 -0.10057030367E+01  0.41227043418E+01 -0.40437085298E+02  0.40659144078E+02  0.00000000000E+00 0. -1.
         11    1    3    3    0    0  0.12505536665E+02 -0.44709738423E+01  0.14113627454E+02  0.19379693871E+02  0.51100000000E-03 0. -1.
        -11    1    3    3    0    0 -0.13554387785E+02 -0.13916934417E+01  0.19281291034E+02  0.23609879777E+02  0.51100000000E-03 0.  1.
         12    1    3    3    0    0  0.20545541571E+01  0.17399629422E+01  0.70421668107E+01  0.75392822745E+01  0.00000000000E+00 0. -1.
</event>
<event>
 7    1  0.2891523E-011  0.5052890E+02  0.7816164E-02  0.1300439E+00
        -11   -1    0    0    0    0  0.00000000000E+00  0.00000000000E+00  0.45593999997E+02  0.45594000000E+02  0.51100000000E-03 0.  1.
         11   -1    0    0    0    0 -0.00000000000E+00 -0.00000000000E+00 -0.45593999997E+02  0.45594000000E+02  0.51100000000E-03 0. -1.
    9900012    2    1    2    0    0 -0.30672222825E+02  0.16988290325E+02  0.20585804614E+02  0.50528897541E+02  0.30000114565E+02 0.  0.
         12    1    1    2    0    0  0.30672222825E+02 -0.16988290325E+02 -0.20585804614E+02  0.40659102459E+02  0.00000000000E+00 0. -1.
         11    1    3    3    0    0  0.30538746073E+01 -0.44035633247E+01  0.43361292567E+01  0.68934416124E+01  0.51100000000E-03 0. -1.
        -11    1    3    3    0    0 -0.25421235622E+02  0.14413591612E+02  0.89588691473E+01  0.30565539099E+02  0.51100000000E-03 0.  1.
        -12    1    3    3    0    0 -0.83048618099E+01  0.69782620375E+01  0.72908062099E+01  0.13069916830E+02  0.00000000000E+00 0.  1.
</event>
<event>
 7    1  0.2891523E-011  0.5052887E+02  0.7816164E-02  0.1300439E+00
        -11   -1    0    0    0    0  0.00000000000E+00  0.00000000000E+00  0.45593999997E+02  0.45594000000E+02  0.51100000000E-03 0. -1.
         11   -1    0    0    0    0 -0.00000000000E+00 -0.00000000000E+00 -0.45593999997E+02  0.45594000000E+02  0.51100000000E-03 0.  1.
    9900012    2    1    2    0    0 -0.38933622643E+02  0.11586404833E+02 -0.17588167545E+01  0.50528865904E+02  0.30000018401E+02 0.  0.
         12    1    1    2    0    0  0.38933622643E+02 -0.11586404833E+02  0.17588167545E+01  0.40659134096E+02  0.00000000000E+00 0. -1.
         11    1    3    3    0    0 -0.12317326691E+02 -0.69869518547E+01  0.58434864366E+01  0.15319280891E+02  0.51100000000E-03 0.  1.
        -11    1    3    3    0    0 -0.29835498802E+01  0.71336792102E+01  0.45316225999E+00  0.77457281941E+01  0.51100000000E-03 0. -1.
         12    1    3    3    0    0 -0.23632746072E+02  0.11439677478E+02 -0.80554654511E+01  0.27463856819E+02  0.00000000000E+00 0. -1.
</event>
<event>
 7    1  0.2891523E-011  0.5052886E+02  0.7816164E-02  0.1300439E+00
        -11   -1    0    0    0    0  0.00000000000E+00  0.00000000000E+00  0.45593999997E+02  0.45594000000E+02  0.51100000000E-03 0. -1.
         11   -1    0    0    0    0 -0.00000000000E+00 -0.00000000000E+00 -0.45593999997E+02  0.45594000000E+02  0.51100000000E-03 0.  1.
    9900012    2    1    2    0    0  0.39287143442E+02  0.53893000279E+01 -0.89800510205E+01  0.50528861901E+02  0.30000006233E+02 0.  0.
         12    1    1    2    0    0 -0.39287143442E+02 -0.53893000279E+01  0.89800510205E+01  0.40659138099E+02  0.00000000000E+00 0. -1.
         11    1    3    3    0    0  0.59582314598E+01 -0.54652560792E+01 -0.10294525077E+02  0.13089950075E+02  0.51100000000E-03 0. -1.
        -11    1    3    3    0    0  0.59783532038E+01  0.76732681386E+01 -0.11445552013E+01  0.97943737843E+01  0.51100000000E-03 0.  1.
         12    1    3    3    0    0  0.27350558779E+02  0.31812879685E+01  0.24590292577E+01  0.27644538042E+02  0.00000000000E+00 0. -1.
</event>
<event>
 7    1  0.2891523E-011  0.5052886E+02  0.7816164E-02  0.1300439E+00
        -11   -1    0    0    0    0  0.00000000000E+00  0.00000000000E+00  0.45593999997E+02  0.45594000000E+02  0.51100000000E-03 0. -1.
         11   -1    0    0    0    0 -0.00000000000E+00 -0.00000000000E+00 -0.45593999997E+02  0.45594000000E+02  0.51100000000E-03 0.  1.
    9900012    2    1    2    0    0 -0.13591182420E+02 -0.32823007707E+02 -0.19776138042E+02  0.50528859449E+02  0.29999998781E+02 0.  0.
         12    1    1    2    0    0  0.13591182420E+02  0.32823007707E+02  0.19776138042E+02  0.40659140551E+02  0.00000000000E+00 0. -1.
         11    1    3    3    0    0 -0.21138172439E+02 -0.18576811140E+02 -0.49802324408E+01  0.28578365272E+02  0.51100000000E-03 0. -1.
        -11    1    3    3    0    0  0.64889771151E+01 -0.13242620797E+02 -0.13247094456E+02  0.19823202097E+02  0.51100000000E-03 0.  1.
         12    1    3    3    0    0  0.10580129038E+01 -0.10035757691E+01 -0.15488111449E+01  0.21272920795E+01  0.00000000000E+00 0. -1.
</event>
<event>
 7    1  0.2891523E-011  0.5052886E+02  0.7816164E-02  0.1300439E+00
        -11   -1    0    0    0    0  0.00000000000E+00  0.00000000000E+00  0.45593999997E+02  0.45594000000E+02  0.51100000000E-03 0. -1.
         11   -1    0    0    0    0 -0.00000000000E+00 -0.00000000000E+00 -0.45593999997E+02  0.45594000000E+02  0.51100000000E-03 0.  1.
    9900012    2    1    2    0    0 -0.37690661433E+02 -0.84920086507E+01  0.12667484395E+02  0.50528864113E+02  0.30000012958E+02 0.  0.
         12    1    1    2    0    0  0.37690661433E+02  0.84920086507E+01 -0.12667484395E+02  0.40659135887E+02  0.00000000000E+00 0. -1.
         11    1    3    3    0    0 -0.16555806409E+02 -0.85679744947E+01  0.17798023206E+02  0.25773524072E+02  0.51100000000E-03 0. -1.
        -11    1    3    3    0    0 -0.20420122304E+02 -0.19655384488E+01 -0.15510185105E+01  0.20573050211E+02  0.51100000000E-03 0.  1.
         12    1    3    3    0    0 -0.71473272067E+00  0.20415042928E+01 -0.35795203011E+01  0.41822898304E+01  0.00000000000E+00 0. -1.
</event>
<event>
 7    1  0.2891523E-011  0.5052886E+02  0.7816164E-02  0.1300439E+00
        -11   -1    0    0    0    0  0.00000000000E+00  0.00000000000E+00  0.45593999997E+02  0.45594000000E+02  0.51100000000E-03 0. -1.
         11   -1    0    0    0    0 -0.00000000000E+00 -0.00000000000E+00 -0.45593999997E+02  0.45594000000E+02  0.51100000000E-03 0.  1.
    9900012    2    1    2    0    0  0.37227135223E+02 -0.70054147273E+01  0.14772616360E+02  0.50528860480E+02  0.30000001915E+02 0.  0.
         12    1    1    2    0    0 -0.37227135223E+02  0.70054147273E+01 -0.14772616360E+02  0.40659139520E+02  0.00000000000E+00 0. -1.
         11    1    3    3    0    0  0.14322967226E+02  0.31448852165E+01  0.14187026391E+02  0.20403661713E+02  0.51100000000E-03 0. -1.
        -11    1    3    3    0    0  0.15425051556E+02 -0.12426001914E+02  0.59054945779E+01  0.20669122031E+02  0.51100000000E-03 0.  1.
        -12    1    3    3    0    0  0.74791164404E+01  0.22757019704E+01 -0.53199046093E+01  0.94560767361E+01  0.00000000000E+00 0.  1.
</event>
<event>
 7    1  0.2891523E-011  0.5052886E+02  0.7816164E-02  0.1300439E+00
        -11   -1    0    0    0    0  0.00000000000E+00  0.00000000000E+00  0.45593999997E+02  0.45594000000E+02  0.51100000000E-03 0. -1.
         11   -1    0    0    0    0 -0.00000000000E+00 -0.00000000000E+00 -0.45593999997E+02  0.45594000000E+02  0.51100000000E-03 0.  1.
    9900012    2    1    2    0    0  0.24845875563E+02  0.28230234607E+02 -0.15456460822E+02  0.50528857614E+02  0.29999993203E+02 0.  0.
         12    1    1    2    0    0 -0.24845875563E+02 -0.28230234607E+02  0.15456460822E+02  0.40659142386E+02  0.00000000000E+00 0. -1.
         11    1    3    3    0    0 -0.32535024495E+01  0.36099085103E+01 -0.91878736639E+01  0.10393928053E+02  0.51100000000E-03 0. -1.
        -11    1    3    3    0    0  0.76794671593E+01  0.15154507733E+02 -0.99598666641E+00  0.17018381539E+02  0.51100000000E-03 0.  1.
         12    1    3    3    0    0  0.20419910853E+02  0.94658183633E+01 -0.52726004913E+01  0.23116548022E+02  0.00000000000E+00 0. -1.
</event>
<event>
 7    1  0.2891523E-011  0.5052885E+02  0.7816164E-02  0.1300439E+00
        -11   -1    0    0    0    0  0.00000000000E+00  0.00000000000E+00  0.45593999997E+02  0.45594000000E+02  0.51100000000E-03 0.  1.
         11   -1    0    0    0    0 -0.00000000000E+00 -0.00000000000E+00 -0.45593999997E+02  0.45594000000E+02  0.51100000000E-03 0. -1.
    9900012    2    1    2    0    0  0.18174103396E+02 -0.27366617005E+02  0.23956971815E+02  0.50528852701E+02  0.29999978269E+02 0.  0.
         12    1    1    2    0    0 -0.18174103396E+02  0.27366617005E+02 -0.23956971815E+02  0.40659147299E+02  0.00000000000E+00 0. -1.
         11    1    3    3    0    0  0.17840665069E+01 -0.17959183145E+01 -0.12181401211E+01  0.28092848750E+01  0.51100000000E-03 0. -1.
        -11    1    3    3    0    0  0.16995615084E+02 -0.30703660889E+02  0.19940277106E+02  0.40363106612E+02  0.51100000000E-03 0.  1.
        -12    1    3    3    0    0 -0.60557819465E+00  0.51329621987E+01  0.52348348308E+01  0.73564612137E+01  0.00000000000E+00 0.  1.
</event>
<event>
 7    1  0.2891523E-011  0.5052879E+02  0.7816164E-02  0.1300439E+00
        -11   -1    0    0    0    0  0.00000000000E+00  0.00000000000E+00  0.45593999997E+02  0.45594000000E+02  0.51100000000E-03 0.  1.
         11   -1    0    0    0    0 -0.00000000000E+00 -0.00000000000E+00 -0.45593999997E+02  0.45594000000E+02  0.51100000000E-03 0. -1.
    9900012    2    1    2    0    0 -0.25424940488E+02  0.30503631141E+02  0.87334000132E+01  0.50528789636E+02  0.29999786578E+02 0.  0.
         12    1    1    2    0    0  0.25424940488E+02 -0.30503631141E+02 -0.87334000132E+01  0.40659210364E+02  0.00000000000E+00 0. -1.
         11    1    3    3    0    0 -0.18817643805E+02  0.92492382850E+01  0.11295914492E+01  0.20998288129E+02  0.51100000000E-03 0. -1.
        -11    1    3    3    0    0 -0.30369953054E+01  0.59268156469E+01  0.11525636461E+02  0.13311302727E+02  0.51100000000E-03 0.  1.
         12    1    3    3    0    0 -0.35703013772E+01  0.15327577209E+02 -0.39218278972E+01  0.16219198780E+02  0.00000000000E+00 0. -1.
</event>
<event>
 7    1  0.2891523E-011  0.5052886E+02  0.7816164E-02  0.1300439E+00
        -11   -1    0    0    0    0  0.00000000000E+00  0.00000000000E+00  0.45593999997E+02  0.45594000000E+02  0.51100000000E-03 0.  1.
         11   -1    0    0    0    0 -0.00000000000E+00 -0.00000000000E+00 -0.45593999997E+02  0.45594000000E+02  0.51100000000E-03 0. -1.
    9900012    2    1    2    0    0 -0.16926051405E+02 -0.31081383797E+02  0.20015551728E+02  0.50528856553E+02  0.29999989978E+02 0.  0.
         12    1    1    2    0    0  0.16926051405E+02  0.31081383797E+02 -0.20015551728E+02  0.40659143447E+02  0.00000000000E+00 0. -1.
         11    1    3    3    0    0  0.43952656193E+01 -0.83087744213E+01  0.38532482528E+01  0.10158819548E+02  0.51100000000E-03 0. -1.
        -11    1    3    3    0    0 -0.19231586431E+02 -0.61029210983E+01  0.94212303455E+01  0.22267894918E+02  0.51100000000E-03 0.  1.
        -12    1    3    3    0    0 -0.20897305933E+01 -0.16669688277E+02  0.67410731296E+01  0.18102142087E+02  0.00000000000E+00 0.  1.
</event>
<event>
 7    1  0.2891523E-011  0.5052886E+02  0.7816164E-02  0.1300439E+00
        -11   -1    0    0    0    0  0.00000000000E+00  0.00000000000E+00  0.45593999997E+02  0.45594000000E+02  0.51100000000E-03 0. -1.
         11   -1    0    0    0    0 -0.00000000000E+00 -0.00000000000E+00 -0.45593999997E+02  0.45594000000E+02  0.51100000000E-03 0.  1.
    9900012    2    1    2    0    0 -0.36134013785E+02  0.16406185325E+01 -0.18568975113E+02  0.50528863042E+02  0.30000009703E+02 0.  0.
         12    1    1    2    0    0  0.36134013785E+02 -0.16406185325E+01  0.18568975113E+02  0.40659136958E+02  0.00000000000E+00 0. -1.
         11    1    3    3    0    0 -0.28796021258E+02  0.10279913307E+02 -0.10318519432E+02  0.32270099185E+02  0.51100000000E-03 0. -1.
        -11    1    3    3    0    0 -0.23979568988E+01 -0.70212690595E+01  0.11584640144E+01  0.75093578706E+01  0.51100000000E-03 0.  1.
         12    1    3    3    0    0 -0.49400356288E+01 -0.16180257151E+01 -0.94089196954E+01  0.10749405987E+02  0.00000000000E+00 0. -1.
</event>
<event>
 7    1  0.2891523E-011  0.5052883E+02  0.7816164E-02  0.1300439E+00
        -11   -1    0    0    0    0  0.00000000000E+00  0.00000000000E+00  0.45593999997E+02  0.45594000000E+02  0.51100000000E-03 0.  1.
         11   -1    0    0    0    0 -0.00000000000E+00 -0.00000000000E+00 -0.45593999997E+02  0.45594000000E+02  0.51100000000E-03 0. -1.
    9900012    2    1    2    0    0  0.13609785494E+01  0.92581345054E+01  0.39567696956E+02  0.50528831790E+02  0.29999914709E+02 0.  0.
         12    1    1    2    0    0 -0.13609785494E+01 -0.92581345054E+01 -0.39567696956E+02  0.40659168210E+02  0.00000000000E+00 0. -1.
         11    1    3    3    0    0  0.10711930696E+01  0.33940823098E+01 -0.11508362824E+01  0.37405445764E+01  0.51100000000E-03 0. -1.
        -11    1    3    3    0    0  0.69034558988E+01 -0.42012285143E+01  0.28532955154E+02  0.29655312416E+02  0.51100000000E-03 0.  1.
        -12    1    3    3    0    0 -0.66136704190E+01  0.10065280710E+02  0.12185578084E+02  0.17132974798E+02  0.00000000000E+00 0.  1.
</event>
<event>
 7    1  0.2891523E-011  0.5052886E+02  0.7816164E-02  0.1300439E+00
        -11   -1    0    0    0    0  0.00000000000E+00  0.00000000000E+00  0.45593999997E+02  0.45594000000E+02  0.51100000000E-03 0.  1.
         11   -1    0    0    0    0 -0.00000000000E+00 -0.00000000000E+00 -0.45593999997E+02  0.45594000000E+02  0.51100000000E-03 0. -1.
    9900012    2    1    2    0    0 -0.38801558828E+02  0.58919254693E+01 -0.10624979844E+02  0.50528856503E+02  0.29999989827E+02 0.  0.
         12    1    1    2    0    0  0.38801558828E+02 -0.58919254693E+01  0.10624979844E+02  0.40659143497E+02  0.00000000000E+00 0. -1.
         11    1    3    3    0    0 -0.21791338700E+02  0.72870439023E+01 -0.47041724630E+01  0.23454054873E+02  0.51100000000E-03 0. -1.
        -11    1    3    3    0    0 -0.38360166091E+01 -0.99484726435E+01 -0.15810152914E+01  0.10778995360E+02  0.51100000000E-03 0.  1.
        -12    1    3    3    0    0 -0.13174203519E+02  0.85533542106E+01 -0.43397920900E+01  0.16295806270E+02  0.00000000000E+00 0.  1.
</event>
<event>
 7    1  0.2891523E-011  0.5052886E+02  0.7816164E-02  0.1300439E+00
        -11   -1    0    0    0    0  0.00000000000E+00  0.00000000000E+00  0.45593999997E+02  0.45594000000E+02  0.51100000000E-03 0.  1.
         11   -1    0    0    0    0 -0.00000000000E+00 -0.00000000000E+00 -0.45593999997E+02  0.45594000000E+02  0.51100000000E-03 0. -1.
    9900012    2    1    2    0    0  0.23152374178E+02 -0.16419245338E+02  0.29112563050E+02  0.50528863574E+02  0.30000011321E+02 0.  0.
         12    1    1    2    0    0 -0.23152374178E+02  0.16419245338E+02 -0.29112563050E+02  0.40659136426E+02  0.00000000000E+00 0. -1.
         11    1    3    3    0    0  0.24774004024E+00  0.54670283053E+01 -0.14313426874E+01  0.56567230592E+01  0.51100000000E-03 0. -1.
        -11    1    3    3    0    0  0.67885142589E+01 -0.10387644553E+02  0.16285072450E+02  0.20474146384E+02  0.51100000000E-03 0.  1.
         12    1    3    3    0    0  0.16116119878E+02 -0.11498629090E+02  0.14258833288E+02  0.24397994131E+02  0.00000000000E+00 0. -1.
</event>
<event>
 7    1  0.2891523E-011  0.5052885E+02  0.7816164E-02  0.1300439E+00
        -11   -1    0    0    0    0  0.00000000000E+00  0.00000000000E+00  0.45593999997E+02  0.45594000000E+02  0.51100000000E-03 0.  1.
         11   -1    0    0    0    0 -0.00000000000E+00 -0.00000000000E+00 -0.45593999997E+02  0.45594000000E+02  0.51100000000E-03 0. -1.
    9900012    2    1    2    0    0 -0.27351850164E+00 -0.23650952879E+02  0.33071503569E+02  0.50528846875E+02  0.29999960563E+02 0.  0.
         12    1    1    2    0    0  0.27351850164E+00  0.23650952879E+02 -0.33071503569E+02  0.40659153125E+02  0.00000000000E+00 0. -1.
         11    1    3    3    0    0  0.19429289872E+01 -0.20507041058E+01 -0.33024489647E+01  0.43458635281E+01  0.51100000000E-03 0. -1.
        -11    1    3    3    0    0  0.60972154393E+01 -0.16383106087E+02  0.29173678080E+02  0.34010082243E+02  0.51100000000E-03 0.  1.
         12    1    3    3    0    0 -0.83136629281E+01 -0.52171426866E+01  0.72002744541E+01  0.12172901105E+02  0.00000000000E+00 0. -1.
</event>
<event>
 7    1  0.2891523E-011  0.5052885E+02  0.7816164E-02  0.1300439E+00
        -11   -1    0    0    0    0  0.00000000000E+00  0.00000000000E+00  0.45593999997E+02  0.45594000000E+02  0.51100000000E-03 0.  1.
         11   -1    0    0    0    0 -0.00000000000E+00 -0.00000000000E+00 -0.45593999997E+02  0.45594000000E+02  0.51100000000E-03 0. -1.
    9900012    2    1    2    0    0 -0.27419502716E+02 -0.29965221278E+02  0.18501313135E+01  0.50528848493E+02  0.29999965479E+02 0.  0.
         12    1    1    2    0    0  0.27419502716E+02  0.29965221278E+02 -0.18501313135E+01  0.40659151507E+02  0.00000000000E+00 0. -1.
         11    1    3    3    0    0 -0.13480951956E+02 -0.16584258749E+02 -0.28200227336E+01  0.21557509884E+02  0.51100000000E-03 0. -1.
        -11    1    3    3    0    0 -0.38404429746E+01  0.57752074318E+01  0.12828839883E+01  0.70532130771E+01  0.51100000000E-03 0.  1.
        -12    1    3    3    0    0 -0.10098107785E+02 -0.19156169961E+02  0.33872700588E+01  0.21918125532E+02  0.00000000000E+00 0.  1.
</event>
<event>
 7    1  0.2891523E-011  0.5052888E+02  0.7816164E-02  0.1300439E+00
        -11   -1    0    0    0    0  0.00000000000E+00  0.00000000000E+00  0.45593999997E+02  0.45594000000E+02  0.51100000000E-03 0.  1.
         11   -1    0    0    0    0 -0.00000000000E+00 -0.00000000000E+00 -0.45593999997E+02  0.45594000000E+02  0.51100000000E-03 0. -1.
    9900012    2    1    2    0    0  0.17591676109E+02  0.35380904925E+02  0.95858676910E+01  0.50528876042E+02  0.30000049219E+02 0.  0.
         12    1    1    2    0    0 -0.17591676109E+02 -0.35380904925E+02 -0.95858676910E+01  0.40659123958E+02  0.00000000000E+00 0. -1.
         11    1    3    3    0    0 -0.76717107669E+01  0.57244938482E+01  0.28262955725E+00  0.95762652238E+01  0.51100000000E-03 0. -1.
        -11    1    3    3    0    0  0.20629610175E+02  0.18749497195E+02  0.81625774705E+01  0.29047411799E+02  0.51100000000E-03 0.  1.
        -12    1    3    3    0    0  0.46337767012E+01  0.10906913882E+02  0.11406606632E+01  0.11905199019E+02  0.00000000000E+00 0.  1.
</event>
<event>
 7    1  0.2891523E-011  0.5052885E+02  0.7816164E-02  0.1300439E+00
        -11   -1    0    0    0    0  0.00000000000E+00  0.00000000000E+00  0.45593999997E+02  0.45594000000E+02  0.51100000000E-03 0.  1.
         11   -1    0    0    0    0 -0.00000000000E+00 -0.00000000000E+00 -0.45593999997E+02  0.45594000000E+02  0.51100000000E-03 0. -1.
    9900012    2    1    2    0    0 -0.14159036966E+02 -0.27291092531E+02  0.26606101493E+02  0.50528847328E+02  0.29999961938E+02 0.  0.
         12    1    1    2    0    0  0.14159036966E+02  0.27291092531E+02 -0.26606101493E+02  0.40659152672E+02  0.00000000000E+00 0. -1.
         11    1    3    3    0    0 -0.25386390285E+01  0.12058275653E+01  0.89001346825E+00  0.29480217891E+01  0.51100000000E-03 0. -1.
        -11    1    3    3    0    0 -0.12653527409E+01 -0.20462183131E+02  0.27555847402E+02  0.34345695253E+02  0.51100000000E-03 0.  1.
        -12    1    3    3    0    0 -0.10355045197E+02 -0.80347369649E+01 -0.18397593775E+01  0.13235130286E+02  0.00000000000E+00 0.  1.
</event>
<event>
 7    1  0.2891523E-011  0.5052886E+02  0.7816164E-02  0.1300439E+00
        -11   -1    0    0    0    0  0.00000000000E+00  0.00000000000E+00  0.45593999997E+02  0.45594000000E+02  0.51100000000E-03 0. -1.
         11   -1    0    0    0    0 -0.00000000000E+00 -0.00000000000E+00 -0.45593999997E+02  0.45594000000E+02  0.51100000000E-03 0.  1.
    9900012    2    1    2    0    0 -0.87494655697E+01  0.16700358316E+01 -0.39671446649E+02  0.50528857772E+02  0.29999993685E+02 0.  0.
         12    1    1    2    0    0  0.87494655697E+01 -0.16700358316E+01  0.39671446649E+02  0.40659142228E+02  0.00000000000E+00 0. -1.
         11    1    3    3    0    0 -0.73251150556E+01  0.49684441019E+01 -0.11544256352E+01  0.89261103611E+01  0.51100000000E-03 0. -1.
        -11    1    3    3    0    0  0.68733069860E+01 -0.61046628418E+00 -0.14703970777E+02  0.16242591384E+02  0.51100000000E-03 0.  1.
         12    1    3    3    0    0 -0.82976575001E+01 -0.26879419861E+01 -0.23813050238E+02  0.25360156027E+02  0.00000000000E+00 0. -1.
</event>
<event>
 7    1  0.2891523E-011  0.5052886E+02  0.7816164E-02  0.1300439E+00
        -11   -1    0    0    0    0  0.00000000000E+00  0.00000000000E+00  0.45593999997E+02  0.45594000000E+02  0.51100000000E-03 0.  1.
         11   -1    0    0    0    0 -0.00000000000E+00 -0.00000000000E+00 -0.45593999997E+02  0.45594000000E+02  0.51100000000E-03 0. -1.
    9900012    2    1    2    0    0 -0.33353980775E+02  0.15475780579E+02 -0.17354471921E+02  0.50528861867E+02  0.30000006131E+02 0.  0.
         12    1    1    2    0    0  0.33353980775E+02 -0.15475780579E+02  0.17354471921E+02  0.40659138133E+02  0.00000000000E+00 0. -1.
         11    1    3    3    0    0 -0.88496704806E-01  0.11239661732E+02 -0.13907001017E+01  0.11325717397E+02  0.51100000000E-03 0. -1.
        -11    1    3    3    0    0 -0.24749502043E+02  0.24742941429E+01 -0.52793660260E+01  0.25426987411E+02  0.51100000000E-03 0.  1.
         12    1    3    3    0    0 -0.85159820268E+01  0.17618247045E+01 -0.10684405793E+02  0.13776157060E+02  0.00000000000E+00 0. -1.
</event>
<event>
 7    1  0.2891523E-011  0.5052887E+02  0.7816164E-02  0.1300439E+00
        -11   -1    0    0    0    0  0.00000000000E+00  0.00000000000E+00  0.45593999997E+02  0.45594000000E+02  0.51100000000E-03 0. -1.
         11   -1    0    0    0    0 -0.00000000000E+00 -0.00000000000E+00 -0.45593999997E+02  0.45594000000E+02  0.51100000000E-03 0.  1.
    9900012    2    1    2    0    0  0.79519112639E+01  0.34284587755E+02 -0.20359256898E+02  0.50528865826E+02  0.30000018166E+02 0.  0.
         12    1    1    2    0    0 -0.79519112639E+01 -0.34284587755E+02  0.20359256898E+02  0.40659134174E+02  0.00000000000E+00 0. -1.
         11    1    3    3    0    0  0.11928571229E+02  0.17928075889E+02 -0.23211637594E+02  0.31662072527E+02  0.51100000000E-03 0. -1.
        -11    1    3    3    0    0 -0.29919907288E+01  0.99510162108E+00  0.12455180272E+01  0.33902140308E+01  0.51100000000E-03 0.  1.
         12    1    3    3    0    0 -0.98466923639E+00  0.15361410245E+02  0.16068626684E+01  0.15476579269E+02  0.00000000000E+00 0. -1.
</event>
<event>
 7    1  0.2891523E-011  0.5052886E+02  0.7816164E-02  0.1300439E+00
        -11   -1    0    0    0    0  0.00000000000E+00  0.00000000000E+00  0.45593999997E+02  0.45594000000E+02  0.51100000000E-03 0. -1.
         11   -1    0    0    0    0 -0.00000000000E+00 -0.00000000000E+00 -0.45593999997E+02  0.45594000000E+02  0.51100000000E-03 0.  1.
    9900012    2    1    2    0    0 -0.37548564340E+02 -0.64446915001E+00 -0.15583830338E+02  0.50528858439E+02  0.29999995712E+02 0.  0.
         12    1    1    2    0    0  0.37548564340E+02  0.64446915001E+00  0.15583830338E+02  0.40659141561E+02  0.00000000000E+00 0. -1.
         11    1    3    3    0    0 -0.51452721252E+01 -0.87589975936E+01 -0.55009955602E+01  0.11552264562E+02  0.51100000000E-03 0. -1.
        -11    1    3    3    0    0 -0.26933775510E+02  0.90456352019E+01 -0.14487433574E+02  0.31892593360E+02  0.51100000000E-03 0.  1.
        -12    1    3    3    0    0 -0.54695167042E+01 -0.93110675826E+00  0.44045987959E+01  0.70840005170E+01  0.00000000000E+00 0.  1.
</event>
<event>
 7    1  0.2891523E-011  0.5052886E+02  0.7816164E-02  0.1300439E+00
        -11   -1    0    0    0    0  0.00000000000E+00  0.00000000000E+00  0.45593999997E+02  0.45594000000E+02  0.51100000000E-03 0.  1.
         11   -1    0    0    0    0 -0.00000000000E+00 -0.00000000000E+00 -0.45593999997E+02  0.45594000000E+02  0.51100000000E-03 0. -1.
    9900012    2    1    2    0    0 -0.43750418415E+01  0.97240293887E+01  0.39236049717E+02  0.50528864052E+02  0.30000012772E+02 0.  0.
         12    1    1    2    0    0  0.43750418415E+01 -0.97240293887E+01 -0.39236049717E+02  0.40659135948E+02  0.00000000000E+00 0. -1.
         11    1    3    3    0    0 -0.42290613354E+01 -0.50281654781E+01  0.65218648907E+01  0.92575444783E+01  0.51100000000E-03 0. -1.
        -11    1    3    3    0    0 -0.49587610657E+00  0.19743679639E+02  0.22789357344E+02  0.30156484995E+02  0.51100000000E-03 0.  1.
        -12    1    3    3    0    0  0.34989560047E+00 -0.49914847726E+01  0.99248274819E+01  0.11114834579E+02  0.00000000000E+00 0.  1.
</event>
<event>
 7    1  0.3500102E-011  0.5052885E+02  0.7816164E-02  0.1300439E+00
        -11   -1    0    0    0    0  0.00000000000E+00  0.00000000000E+00  0.45593999997E+02  0.45594000000E+02  0.51100000000E-03 0. -1.
         11   -1    0    0    0    0 -0.00000000000E+00 -0.00000000000E+00 -0.45593999997E+02  0.45594000000E+02  0.51100000000E-03 0.  1.
    9900012    2    1    2    0    0 -0.23580365366E+02 -0.26293345144E+02 -0.20144297780E+02  0.50528851427E+02  0.29999974399E+02 0.  0.
         12    1    1    2    0    0  0.23580365366E+02  0.26293345144E+02  0.20144297780E+02  0.40659148573E+02  0.00000000000E+00 0. -1.
         11    1    3    3    0    0 -0.34428075640E+01  0.12004844821E+01  0.28924734004E+01  0.46540831049E+01  0.51100000000E-03 0. -1.
        -11    1    3    3    0    0 -0.90404165296E+00 -0.11783890899E+02 -0.16317232114E+02  0.20147690690E+02  0.51100000000E-03 0.  1.
        -12    1    3    3    0    0 -0.19233516149E+02 -0.15709938726E+02 -0.67195390664E+01  0.25727077632E+02  0.00000000000E+00 0.  1.
</event>
<event>
 7    1  0.2891523E-011  0.5052886E+02  0.7816164E-02  0.1300439E+00
        -11   -1    0    0    0    0  0.00000000000E+00  0.00000000000E+00  0.45593999997E+02  0.45594000000E+02  0.51100000000E-03 0.  1.
         11   -1    0    0    0    0 -0.00000000000E+00 -0.00000000000E+00 -0.45593999997E+02  0.45594000000E+02  0.51100000000E-03 0. -1.
    9900012    2    1    2    0    0  0.22083148723E+02 -0.14334309153E+02  0.30984313340E+02  0.50528861426E+02  0.30000004790E+02 0.  0.
         12    1    1    2    0    0 -0.22083148723E+02  0.14334309153E+02 -0.30984313340E+02  0.40659138574E+02  0.00000000000E+00 0. -1.
         11    1    3    3    0    0  0.20954079645E+01 -0.11207427520E+02  0.32393837749E+01  0.11852880395E+02  0.51100000000E-03 0. -1.
        -11    1    3    3    0    0  0.10811226080E+02 -0.23360313045E+01  0.27299040166E+02  0.29454664246E+02  0.51100000000E-03 0.  1.
        -12    1    3    3    0    0  0.91765146785E+01 -0.79085032831E+00  0.44588939948E+00  0.92213167847E+01  0.00000000000E+00 0.  1.
</event>
<event>
 7    1  0.2891523E-011  0.5052886E+02  0.7816164E-02  0.1300439E+00
        -11   -1    0    0    0    0  0.00000000000E+00  0.00000000000E+00  0.45593999997E+02  0.45594000000E+02  0.51100000000E-03 0.  1.
         11   -1    0    0    0    0 -0.00000000000E+00 -0.00000000000E+00 -0.45593999997E+02  0.45594000000E+02  0.51100000000E-03 0. -1.
    9900012    2    1    2    0    0  0.19899225427E+02 -0.15671647165E+02 -0.31805444829E+02  0.50528855663E+02  0.29999987274E+02 0.  0.
         12    1    1    2    0    0 -0.19899225427E+02  0.15671647165E+02  0.31805444829E+02  0.40659144337E+02  0.00000000000E+00 0. -1.
         11    1    3    3    0    0  0.24629081499E+01 -0.11306967737E+02 -0.29142650290E+01  0.11933414301E+02  0.51100000000E-03 0. -1.
        -11    1    3    3    0    0  0.13272306880E+02 -0.77794521624E+01 -0.29404580461E+02  0.33185890951E+02  0.51100000000E-03 0.  1.
        -12    1    3    3    0    0  0.41640103966E+01  0.34147727341E+01  0.51340066145E+00  0.54095504108E+01  0.00000000000E+00 0.  1.
</event>
<event>
 7    1  0.2891523E-011  0.5052886E+02  0.7816164E-02  0.1300439E+00
        -11   -1    0    0    0    0  0.00000000000E+00  0.00000000000E+00  0.45593999997E+02  0.45594000000E+02  0.51100000000E-03 0.  1.
         11   -1    0    0    0    0 -0.00000000000E+00 -0.00000000000E+00 -0.45593999997E+02  0.45594000000E+02  0.51100000000E-03 0. -1.
    9900012    2    1    2    0    0 -0.63240224688E+01 -0.15759645637E+02  0.36943285473E+02  0.50528855489E+02  0.29999986745E+02 0.  0.
         12    1    1    2    0    0  0.63240224688E+01  0.15759645637E+02 -0.36943285473E+02  0.40659144511E+02  0.00000000000E+00 0. -1.
         11    1    3    3    0    0  0.80374071273E+01  0.17154122615E+01  0.14119171521E+02  0.16336877219E+02  0.51100000000E-03 0. -1.
        -11    1    3    3    0    0 -0.93015807422E+01 -0.24944668686E+01  0.80452277185E+01  0.12548603849E+02  0.51100000000E-03 0.  1.
         12    1    3    3    0    0 -0.50598488540E+01 -0.14980591030E+02  0.14778886233E+02  0.21643374421E+02  0.00000000000E+00 0. -1.
</event>
<event>
 7    1  0.2891523E-011  0.5052884E+02  0.7816164E-02  0.1300439E+00
        -11   -1    0    0    0    0  0.00000000000E+00  0.00000000000E+00  0.45593999997E+02  0.45594000000E+02  0.51100000000E-03 0.  1.
         11   -1    0    0    0    0 -0.00000000000E+00 -0.00000000000E+00 -0.45593999997E+02  0.45594000000E+02  0.51100000000E-03 0. -1.
    9900012    2    1    2    0    0 -0.39027207299E+02  0.70187565783E+01  0.89878288607E+01  0.50528844560E+02  0.29999953525E+02 0.  0.
         12    1    1    2    0    0  0.39027207299E+02 -0.70187565783E+01 -0.89878288607E+01  0.40659155440E+02  0.00000000000E+00 0. -1.
         11    1    3    3    0    0 -0.22801295222E+02  0.12023211575E+02 -0.16468986889E+01  0.25829613933E+02  0.51100000000E-03 0. -1.
        -11    1    3    3    0    0 -0.13834962215E+02 -0.57864766163E+01  0.13239940187E+01  0.15054648835E+02  0.51100000000E-03 0.  1.
         12    1    3    3    0    0 -0.23909498617E+01  0.78202161952E+00  0.93107335310E+01  0.96445817919E+01  0.00000000000E+00 0. -1.
</event>
<event>
 7    1  0.2891523E-011  0.5052886E+02  0.7816164E-02  0.1300439E+00
        -11   -1    0    0    0    0  0.00000000000E+00  0.00000000000E+00  0.45593999997E+02  0.45594000000E+02  0.51100000000E-03 0. -1.
         11   -1    0    0    0    0 -0.00000000000E+00 -0.00000000000E+00 -0.45593999997E+02  0.45594000000E+02  0.51100000000E-03 0.  1.
    9900012    2    1    2    0    0 -0.13818587139E+02  0.37553396714E+02  0.72079511990E+01  0.50528861842E+02  0.30000006054E+02 0.  0.
         12    1    1    2    0    0  0.13818587139E+02 -0.37553396714E+02 -0.72079511990E+01  0.40659138158E+02  0.00000000000E+00 0. -1.
         11    1    3    3    0    0  0.52098742918E+01  0.10397310007E+01  0.36016174973E+01  0.64183704746E+01  0.51100000000E-03 0. -1.
        -11    1    3    3    0    0 -0.21430588086E+02  0.32872495751E+02  0.49354653318E+01  0.39550346407E+02  0.51100000000E-03 0.  1.
        -12    1    3    3    0    0  0.24021266556E+01  0.36411699625E+01 -0.13291316302E+01  0.45601449600E+01  0.00000000000E+00 0.  1.
</event>
<event>
 7    1  0.2891523E-011  0.5052886E+02  0.7816164E-02  0.1300439E+00
        -11   -1    0    0    0    0  0.00000000000E+00  0.00000000000E+00  0.45593999997E+02  0.45594000000E+02  0.51100000000E-03 0.  1.
         11   -1    0    0    0    0 -0.00000000000E+00 -0.00000000000E+00 -0.45593999997E+02  0.45594000000E+02  0.51100000000E-03 0. -1.
    9900012    2    1    2    0    0  0.12857402827E+02 -0.27666613657E+02  0.26877715356E+02  0.50528857099E+02  0.29999991637E+02 0.  0.
         12    1    1    2    0    0 -0.12857402827E+02  0.27666613657E+02 -0.26877715356E+02  0.40659142901E+02  0.00000000000E+00 0. -1.
         11    1    3    3    0    0  0.14631237539E+02 -0.86723286195E+01  0.20125008143E+02  0.26349541716E+02  0.51100000000E-03 0. -1.
        -11    1    3    3    0    0 -0.34765339341E+01 -0.81931447404E+01  0.93831953208E+01  0.12932836643E+02  0.51100000000E-03 0.  1.
         12    1    3    3    0    0  0.17026992222E+01 -0.10801140297E+02 -0.26304881081E+01  0.11246478740E+02  0.00000000000E+00 0. -1.
</event>
<event>
 7    1  0.2891523E-011  0.5052882E+02  0.7816164E-02  0.1300439E+00
        -11   -1    0    0    0    0  0.00000000000E+00  0.00000000000E+00  0.45593999997E+02  0.45594000000E+02  0.51100000000E-03 0.  1.
         11   -1    0    0    0    0 -0.00000000000E+00 -0.00000000000E+00 -0.45593999997E+02  0.45594000000E+02  0.51100000000E-03 0. -1.
    9900012    2    1    2    0    0  0.74950038736E+01  0.10561150203E+02  0.38541614488E+02  0.50528818700E+02  0.29999874919E+02 0.  0.
         12    1    1    2    0    0 -0.74950038736E+01 -0.10561150203E+02 -0.38541614488E+02  0.40659181300E+02  0.00000000000E+00 0. -1.
         11    1    3    3    0    0  0.91407453292E+01  0.57496071786E+01  0.14344931815E+02  0.17955174099E+02  0.51100000000E-03 0. -1.
        -11    1    3    3    0    0 -0.10349034646E+02  0.72672127289E+01  0.15758855666E+02  0.20205356496E+02  0.51100000000E-03 0.  1.
        -12    1    3    3    0    0  0.87032931905E+01 -0.24556697040E+01  0.84378270066E+01  0.12368288105E+02  0.00000000000E+00 0.  1.
</event>
<event>
 7    1  0.2891523E-011  0.5052886E+02  0.7816164E-02  0.1300439E+00
        -11   -1    0    0    0    0  0.00000000000E+00  0.00000000000E+00  0.45593999997E+02  0.45594000000E+02  0.51100000000E-03 0.  1.
         11   -1    0    0    0    0 -0.00000000000E+00 -0.00000000000E+00 -0.45593999997E+02  0.45594000000E+02  0.51100000000E-03 0. -1.
    9900012    2    1    2    0    0  0.20686051725E+02 -0.31477082113E+02 -0.15311628523E+02  0.50528863237E+02  0.30000010295E+02 0.  0.
         12    1    1    2    0    0 -0.20686051725E+02  0.31477082113E+02  0.15311628523E+02  0.40659136763E+02  0.00000000000E+00 0. -1.
         11    1    3    3    0    0  0.37469488953E+01 -0.12559745106E+02 -0.16552361969E+02  0.21113207008E+02  0.51100000000E-03 0. -1.
        -11    1    3    3    0    0  0.83615965666E+01 -0.18118699125E+02  0.40355974797E+01  0.20359017717E+02  0.51100000000E-03 0.  1.
         12    1    3    3    0    0  0.85775062634E+01 -0.79863788168E+00 -0.27948640337E+01  0.90566385117E+01  0.00000000000E+00 0. -1.
</event>
<event>
 7    1  0.2891523E-011  0.5052893E+02  0.7816164E-02  0.1300439E+00
        -11   -1    0    0    0    0  0.00000000000E+00  0.00000000000E+00  0.45593999997E+02  0.45594000000E+02  0.51100000000E-03 0. -1.
         11   -1    0    0    0    0 -0.00000000000E+00 -0.00000000000E+00 -0.45593999997E+02  0.45594000000E+02  0.51100000000E-03 0.  1.
    9900012    2    1    2    0    0  0.31730020766E+02  0.22670775749E+01 -0.25322437187E+02  0.50528933561E+02  0.30000224052E+02 0.  0.
         12    1    1    2    0    0 -0.31730020766E+02 -0.22670775749E+01  0.25322437187E+02  0.40659066439E+02  0.00000000000E+00 0. -1.
         11    1    3    3    0    0  0.16166119210E+00 -0.33144511334E+01 -0.14985477239E+02  0.15348493379E+02  0.51100000000E-03 0. -1.
        -11    1    3    3    0    0  0.16312597785E+02 -0.21003654378E+01 -0.37189252587E+01  0.16862466806E+02  0.51100000000E-03 0.  1.
         12    1    3    3    0    0  0.15255761790E+02  0.76818941462E+01 -0.66180346894E+01  0.18317973376E+02  0.00000000000E+00 0. -1.
</event>
<event>
 7    1  0.2891523E-011  0.5052885E+02  0.7816164E-02  0.1300439E+00
        -11   -1    0    0    0    0  0.00000000000E+00  0.00000000000E+00  0.45593999997E+02  0.45594000000E+02  0.51100000000E-03 0. -1.
         11   -1    0    0    0    0 -0.00000000000E+00 -0.00000000000E+00 -0.45593999997E+02  0.45594000000E+02  0.51100000000E-03 0.  1.
    9900012    2    1    2    0    0 -0.64527244539E+01  0.47567245270E+00 -0.40141038140E+02  0.50528845310E+02  0.29999955804E+02 0.  0.
         12    1    1    2    0    0  0.64527244539E+01 -0.47567245270E+00  0.40141038140E+02  0.40659154690E+02  0.00000000000E+00 0. -1.
         11    1    3    3    0    0 -0.45218067898E+01 -0.94346839931E+01 -0.61788384111E+01  0.12150639616E+02  0.51100000000E-03 0. -1.
        -11    1    3    3    0    0  0.11173906225E+01  0.13266290046E+02 -0.26217427008E+02  0.29404021707E+02  0.51100000000E-03 0.  1.
        -12    1    3    3    0    0 -0.30483082866E+01 -0.33559336001E+01 -0.77447727208E+01  0.89741839871E+01  0.00000000000E+00 0.  1.
</event>
<event>
 7    1  0.2891523E-011  0.5052886E+02  0.7816164E-02  0.1300439E+00
        -11   -1    0    0    0    0  0.00000000000E+00  0.00000000000E+00  0.45593999997E+02  0.45594000000E+02  0.51100000000E-03 0.  1.
         11   -1    0    0    0    0 -0.00000000000E+00 -0.00000000000E+00 -0.45593999997E+02  0.45594000000E+02  0.51100000000E-03 0. -1.
    9900012    2    1    2    0    0  0.28066815647E+02  0.88918588985E+01  0.28042011680E+02  0.50528859401E+02  0.29999998635E+02 0.  0.
         12    1    1    2    0    0 -0.28066815647E+02 -0.88918588985E+01 -0.28042011680E+02  0.40659140599E+02  0.00000000000E+00 0. -1.
         11    1    3    3    0    0  0.20533249190E+01  0.91562214998E+01  0.19157964074E+02  0.21332607039E+02  0.51100000000E-03 0. -1.
        -11    1    3    3    0    0  0.18059145720E+02  0.20991509553E+01  0.10118605222E+02  0.20806858263E+02  0.51100000000E-03 0.  1.
         12    1    3    3    0    0  0.79543450077E+01 -0.23635135566E+01 -0.12345576163E+01  0.83893940986E+01  0.00000000000E+00 0. -1.
</event>
<event>
 7    1  0.2891523E-011  0.5052886E+02  0.7816164E-02  0.1300439E+00
        -11   -1    0    0    0    0  0.00000000000E+00  0.00000000000E+00  0.45593999997E+02  0.45594000000E+02  0.51100000000E-03 0. -1.
         11   -1    0    0    0    0 -0.00000000000E+00 -0.00000000000E+00 -0.45593999997E+02  0.45594000000E+02  0.51100000000E-03 0.  1.
    9900012    2    1    2    0    0 -0.47539333316E+01 -0.40083773133E+02  0.48843702375E+01  0.50528858060E+02  0.29999994558E+02 0.  0.
         12    1    1    2    0    0  0.47539333316E+01  0.40083773133E+02 -0.48843702375E+01  0.40659141940E+02  0.00000000000E+00 0. -1.
         11    1    3    3    0    0 -0.60574362486E+01 -0.22930799839E+02 -0.88548013346E+01  0.25316429884E+02  0.51100000000E-03 0. -1.
        -11    1    3    3    0    0  0.31106894853E+01 -0.12596059635E+02  0.28688569898E+01  0.13287868456E+02  0.51100000000E-03 0.  1.
         12    1    3    3    0    0 -0.18071865683E+01 -0.45569136591E+01  0.10870314582E+02  0.11924559720E+02  0.00000000000E+00 0. -1.
</event>
<event>
 7    1  0.2891523E-011  0.5052885E+02  0.7816164E-02  0.1300439E+00
        -11   -1    0    0    0    0  0.00000000000E+00  0.00000000000E+00  0.45593999997E+02  0.45594000000E+02  0.51100000000E-03 0.  1.
         11   -1    0    0    0    0 -0.00000000000E+00 -0.00000000000E+00 -0.45593999997E+02  0.45594000000E+02  0.51100000000E-03 0. -1.
    9900012    2    1    2    0    0 -0.45491283924E+01  0.46701612732E+01  0.40133045575E+02  0.50528851920E+02  0.29999975896E+02 0.  0.
         12    1    1    2    0    0  0.45491283924E+01 -0.46701612732E+01 -0.40133045575E+02  0.40659148080E+02  0.00000000000E+00 0. -1.
         11    1    3    3    0    0  0.53883468973E+01 -0.88057560500E+01  0.18565722030E+02  0.21242920154E+02  0.51100000000E-03 0. -1.
        -11    1    3    3    0    0 -0.10985460612E+02  0.12476979369E+02  0.22176180365E+02  0.27715308674E+02  0.51100000000E-03 0.  1.
         12    1    3    3    0    0  0.10479853219E+01  0.99893795410E+00 -0.60885682001E+00  0.15706230924E+01  0.00000000000E+00 0. -1.
</event>
<event>
 7    1  0.2891523E-011  0.5052884E+02  0.7816164E-02  0.1300439E+00
        -11   -1    0    0    0    0  0.00000000000E+00  0.00000000000E+00  0.45593999997E+02  0.45594000000E+02  0.51100000000E-03 0.  1.
         11   -1    0    0    0    0 -0.00000000000E+00 -0.00000000000E+00 -0.45593999997E+02  0.45594000000E+02  0.51100000000E-03 0. -1.
    9900012    2    1    2    0    0  0.39311335651E+02 -0.63195779255E+01 -0.82370610408E+01  0.50528839280E+02  0.29999937476E+02 0.  0.
         12    1    1    2    0    0 -0.39311335651E+02  0.63195779255E+01  0.82370610408E+01  0.40659160720E+02  0.00000000000E+00 0. -1.
         11    1    3    3    0    0  0.33431845252E+01 -0.66715231977E+01 -0.43720096304E+01  0.86487324514E+01  0.51100000000E-03 0. -1.
        -11    1    3    3    0    0  0.16218381591E+02  0.10462216950E+02 -0.39134856298E+01  0.19692873203E+02  0.51100000000E-03 0.  1.
         12    1    3    3    0    0  0.19749769535E+02 -0.10110271678E+02  0.48434219394E-01  0.22187233626E+02  0.00000000000E+00 0. -1.
</event>
<event>
 7    1  0.2891523E-011  0.5052887E+02  0.7816164E-02  0.1300439E+00
        -11   -1    0    0    0    0  0.00000000000E+00  0.00000000000E+00  0.45593999997E+02  0.45594000000E+02  0.51100000000E-03 0.  1.
         11   -1    0    0    0    0 -0.00000000000E+00 -0.00000000000E+00 -0.45593999997E+02  0.45594000000E+02  0.51100000000E-03 0. -1.
    9900012    2    1    2    0    0 -0.23012936046E-01  0.11717082048E+01  0.40642241847E+02  0.50528865084E+02  0.30000015910E+02 0.  0.
         12    1    1    2    0    0  0.23012936046E-01 -0.11717082048E+01 -0.40642241847E+02  0.40659134916E+02  0.00000000000E+00 0. -1.
         11    1    3    3    0    0  0.82247748877E+01  0.40221193990E+01  0.20062681450E+01  0.93728052654E+01  0.51100000000E-03 0. -1.
        -11    1    3    3    0    0  0.11930323267E+01 -0.30350214093E+01  0.20002606651E+02  0.20266695690E+02  0.51100000000E-03 0.  1.
         12    1    3    3    0    0 -0.94408201504E+01  0.18461021506E+00  0.18633367051E+02  0.20889364129E+02  0.00000000000E+00 0. -1.
</event>
<event>
 7    1  0.3392392E-011  0.5052880E+02  0.7816164E-02  0.1300439E+00
        -11   -1    0    0    0    0  0.00000000000E+00  0.00000000000E+00  0.45593999997E+02  0.45594000000E+02  0.51100000000E-03 0.  1.
         11   -1    0    0    0    0 -0.00000000000E+00 -0.00000000000E+00 -0.45593999997E+02  0.45594000000E+02  0.51100000000E-03 0. -1.
    9900012    2    1    2    0    0 -0.33379347819E+02  0.48291155048E+01  0.22708348040E+02  0.50528803155E+02  0.29999827670E+02 0.  0.
         12    1    1    2    0    0  0.33379347819E+02 -0.48291155048E+01 -0.22708348040E+02  0.40659196845E+02  0.00000000000E+00 0. -1.
         11    1    3    3    0    0 -0.58001799210E+00  0.77019844786E+01  0.35738959031E+00  0.77320575114E+01  0.51100000000E-03 0. -1.
        -11    1    3    3    0    0 -0.16187734790E+02 -0.69127120179E+01  0.46884221368E+01  0.18215642933E+02  0.51100000000E-03 0.  1.
        -12    1    3    3    0    0 -0.16611595037E+02  0.40398430441E+01  0.17662536313E+02  0.24581102711E+02  0.00000000000E+00 0.  1.
</event>
<event>
 7    1  0.2891523E-011  0.5052884E+02  0.7816164E-02  0.1300439E+00
        -11   -1    0    0    0    0  0.00000000000E+00  0.00000000000E+00  0.45593999997E+02  0.45594000000E+02  0.51100000000E-03 0. -1.
         11   -1    0    0    0    0 -0.00000000000E+00 -0.00000000000E+00 -0.45593999997E+02  0.45594000000E+02  0.51100000000E-03 0.  1.
    9900012    2    1    2    0    0 -0.37294080897E+02  0.56527928465E+01 -0.15177774052E+02  0.50528839137E+02  0.29999937040E+02 0.  0.
         12    1    1    2    0    0  0.37294080897E+02 -0.56527928465E+01  0.15177774052E+02  0.40659160863E+02  0.00000000000E+00 0. -1.
         11    1    3    3    0    0 -0.27694930443E+02  0.11329794482E+01 -0.28123168481E+01  0.27860400948E+02  0.51100000000E-03 0. -1.
        -11    1    3    3    0    0 -0.13155552621E+02  0.57996636968E+01 -0.12247911286E+02  0.18886926560E+02  0.51100000000E-03 0.  1.
         12    1    3    3    0    0  0.35564021666E+01 -0.12798502984E+01 -0.11754591804E+00  0.37815116289E+01  0.00000000000E+00 0. -1.
</event>
<event>
 7    1  0.2891523E-011  0.5052887E+02  0.7816164E-02  0.1300439E+00
        -11   -1    0    0    0    0  0.00000000000E+00  0.00000000000E+00  0.45593999997E+02  0.45594000000E+02  0.51100000000E-03 0. -1.
         11   -1    0    0    0    0 -0.00000000000E+00 -0.00000000000E+00 -0.45593999997E+02  0.45594000000E+02  0.51100000000E-03 0.  1.
    9900012    2    1    2    0    0 -0.39746397710E+02  0.47177405360E+01 -0.71506172374E+01  0.50528873920E+02  0.30000042768E+02 0.  0.
         12    1    1    2    0    0  0.39746397710E+02 -0.47177405360E+01  0.71506172374E+01  0.40659126080E+02  0.00000000000E+00 0. -1.
         11    1    3    3    0    0  0.17056689505E+01  0.12055787575E+01 -0.22167600005E+01  0.30457760702E+01  0.51100000000E-03 0. -1.
        -11    1    3    3    0    0 -0.40259501929E+02  0.71075530216E+01  0.46881372067E+00  0.40884772130E+02  0.51100000000E-03 0.  1.
        -12    1    3    3    0    0 -0.11925647312E+01 -0.35953912432E+01 -0.54026709576E+01  0.65983257199E+01  0.00000000000E+00 0.  1.
</event>
<event>
 7    1  0.2891523E-011  0.5052887E+02  0.7816164E-02  0.1300439E+00
        -11   -1    0    0    0    0  0.00000000000E+00  0.00000000000E+00  0.45593999997E+02  0.45594000000E+02  0.51100000000E-03 0.  1.
         11   -1    0    0    0    0 -0.00000000000E+00 -0.00000000000E+00 -0.45593999997E+02  0.45594000000E+02  0.51100000000E-03 0. -1.
    9900012    2    1    2    0    0 -0.40071996271E+02 -0.13274264387E+01 -0.67555958720E+01  0.50528867918E+02  0.30000024524E+02 0.  0.
         12    1    1    2    0    0  0.40071996271E+02  0.13274264387E+01  0.67555958720E+01  0.40659132082E+02  0.00000000000E+00 0. -1.
         11    1    3    3    0    0 -0.34755152136E+02 -0.12344873992E+01  0.10479209717E+01  0.34792854119E+02  0.51100000000E-03 0.  1.
        -11    1    3    3    0    0  0.15970687098E+01 -0.49208416052E+01 -0.36818547325E+01  0.63499106372E+01  0.51100000000E-03 0. -1.
         12    1    3    3    0    0 -0.69139128448E+01  0.48279025657E+01 -0.41216621112E+01  0.93861031621E+01  0.00000000000E+00 0. -1.
</event>
<event>
 7    1  0.2891523E-011  0.5052885E+02  0.7816164E-02  0.1300439E+00
        -11   -1    0    0    0    0  0.00000000000E+00  0.00000000000E+00  0.45593999997E+02  0.45594000000E+02  0.51100000000E-03 0. -1.
         11   -1    0    0    0    0 -0.00000000000E+00 -0.00000000000E+00 -0.45593999997E+02  0.45594000000E+02  0.51100000000E-03 0.  1.
    9900012    2    1    2    0    0 -0.36970502873E+02 -0.33493545359E+01  0.16587048433E+02  0.50528850547E+02  0.29999971723E+02 0.  0.
         12    1    1    2    0    0  0.36970502873E+02  0.33493545359E+01 -0.16587048433E+02  0.40659149453E+02  0.00000000000E+00 0. -1.
         11    1    3    3    0    0 -0.10241549395E+02  0.30740110977E+01 -0.90517922055E-01  0.10693319035E+02  0.51100000000E-03 0. -1.
        -11    1    3    3    0    0 -0.11591902298E+02  0.36669053112E+01  0.17859744855E+02  0.21605297498E+02  0.51100000000E-03 0.  1.
        -12    1    3    3    0    0 -0.15137051181E+02 -0.10090270945E+02 -0.11821784993E+01  0.18230234014E+02  0.00000000000E+00 0.  1.
</event>
<event>
 7    1  0.2891523E-011  0.5052886E+02  0.7816164E-02  0.1300439E+00
        -11   -1    0    0    0    0  0.00000000000E+00  0.00000000000E+00  0.45593999997E+02  0.45594000000E+02  0.51100000000E-03 0. -1.
         11   -1    0    0    0    0 -0.00000000000E+00 -0.00000000000E+00 -0.45593999997E+02  0.45594000000E+02  0.51100000000E-03 0.  1.
    9900012    2    1    2    0    0  0.32674244689E+02  0.33560168844E+01 -0.23964481795E+02  0.50528861999E+02  0.30000006531E+02 0.  0.
         12    1    1    2    0    0 -0.32674244689E+02 -0.33560168844E+01  0.23964481795E+02  0.40659138001E+02  0.00000000000E+00 0. -1.
         11    1    3    3    0    0  0.14725771903E+02  0.83664073466E+01 -0.70168773481E+01  0.18332531140E+02  0.51100000000E-03 0. -1.
        -11    1    3    3    0    0  0.90620664368E+01 -0.71930138617E+01 -0.19519911104E+02  0.22691131005E+02  0.51100000000E-03 0.  1.
        -12    1    3    3    0    0  0.88864063491E+01  0.21826233996E+01  0.25723066576E+01  0.95051998531E+01  0.00000000000E+00 0.  1.
</event>
<event>
 7    1  0.2891523E-011  0.5052886E+02  0.7816164E-02  0.1300439E+00
        -11   -1    0    0    0    0  0.00000000000E+00  0.00000000000E+00  0.45593999997E+02  0.45594000000E+02  0.51100000000E-03 0.  1.
         11   -1    0    0    0    0 -0.00000000000E+00 -0.00000000000E+00 -0.45593999997E+02  0.45594000000E+02  0.51100000000E-03 0. -1.
    9900012    2    1    2    0    0 -0.20809400309E+02  0.27433492902E+02  0.21622620223E+02  0.50528863519E+02  0.30000011153E+02 0.  0.
         12    1    1    2    0    0  0.20809400309E+02 -0.27433492902E+02 -0.21622620223E+02  0.40659136481E+02  0.00000000000E+00 0. -1.
         11    1    3    3    0    0  0.47186718014E+01 -0.22056276893E+01  0.45105613122E+01  0.68902700009E+01  0.51100000000E-03 0. -1.
        -11    1    3    3    0    0 -0.11019877035E+02  0.15809368285E+02  0.39847806210E+01  0.19678726898E+02  0.51100000000E-03 0.  1.
        -12    1    3    3    0    0 -0.14508195075E+02  0.13829752306E+02  0.13127278290E+02  0.23959866621E+02  0.00000000000E+00 0.  1.
</event>
<event>
 7    1  0.2891523E-011  0.5052886E+02  0.7816164E-02  0.1300439E+00
        -11   -1    0    0    0    0  0.00000000000E+00  0.00000000000E+00  0.45593999997E+02  0.45594000000E+02  0.51100000000E-03 0. -1.
         11   -1    0    0    0    0 -0.00000000000E+00 -0.00000000000E+00 -0.45593999997E+02  0.45594000000E+02  0.51100000000E-03 0.  1.
    9900012    2    1    2    0    0 -0.54799736693E+01  0.48864267260E+01 -0.39990727488E+02  0.50528861266E+02  0.30000004304E+02 0.  0.
         12    1    1    2    0    0  0.54799736693E+01 -0.48864267260E+01  0.39990727488E+02  0.40659138734E+02  0.00000000000E+00 0. -1.
         11    1    3    3    0    0 -0.10525396503E+02  0.27988605027E+01 -0.62152913446E+01  0.12539834067E+02  0.51100000000E-03 0. -1.
        -11    1    3    3    0    0  0.28029446776E+01  0.74442962331E+01 -0.30060783296E+02  0.31095413454E+02  0.51100000000E-03 0.  1.
         12    1    3    3    0    0  0.22424781565E+01 -0.53567300099E+01 -0.37146528476E+01  0.68936137445E+01  0.00000000000E+00 0. -1.
</event>
<event>
 7    1  0.2891523E-011  0.5052886E+02  0.7816164E-02  0.1300439E+00
        -11   -1    0    0    0    0  0.00000000000E+00  0.00000000000E+00  0.45593999997E+02  0.45594000000E+02  0.51100000000E-03 0. -1.
         11   -1    0    0    0    0 -0.00000000000E+00 -0.00000000000E+00 -0.45593999997E+02  0.45594000000E+02  0.51100000000E-03 0.  1.
    9900012    2    1    2    0    0 -0.16778283552E+02 -0.10765953394E+02 -0.35436548289E+02  0.50528861961E+02  0.30000006416E+02 0.  0.
         12    1    1    2    0    0  0.16778283552E+02  0.10765953394E+02  0.35436548289E+02  0.40659138039E+02  0.00000000000E+00 0. -1.
         11    1    3    3    0    0  0.38633807093E+01 -0.96638921451E+01 -0.52264247396E+01  0.11646116851E+02  0.51100000000E-03 0. -1.
        -11    1    3    3    0    0 -0.44347906634E+01 -0.18991181857E+01 -0.17834657508E+02  0.18475633326E+02  0.51100000000E-03 0.  1.
         12    1    3    3    0    0 -0.16206873598E+02  0.79705693716E+00 -0.12375466042E+02  0.20407111784E+02  0.00000000000E+00 0. -1.
</event>
<event>
 7    1  0.2891523E-011  0.5052886E+02  0.7816164E-02  0.1300439E+00
        -11   -1    0    0    0    0  0.00000000000E+00  0.00000000000E+00  0.45593999997E+02  0.45594000000E+02  0.51100000000E-03 0. -1.
         11   -1    0    0    0    0 -0.00000000000E+00 -0.00000000000E+00 -0.45593999997E+02  0.45594000000E+02  0.51100000000E-03 0.  1.
    9900012    2    1    2    0    0  0.44494391533E+01 -0.65856281911E+00 -0.40409580672E+02  0.50528862972E+02  0.30000009490E+02 0.  0.
         12    1    1    2    0    0 -0.44494391533E+01  0.65856281911E+00  0.40409580672E+02  0.40659137028E+02  0.00000000000E+00 0. -1.
         11    1    3    3    0    0  0.62331064747E+01 -0.29037960687E+01 -0.31362977141E+01  0.75577782150E+01  0.51100000000E-03 0. -1.
        -11    1    3    3    0    0 -0.24634726238E+01  0.87960640151E+01 -0.58095502901E+01  0.10825447536E+02  0.51100000000E-03 0.  1.
        -12    1    3    3    0    0  0.67980530233E+00 -0.65508307655E+01 -0.31463732668E+02  0.32145637221E+02  0.00000000000E+00 0.  1.
</event>
<event>
 7    1  0.2891523E-011  0.5052890E+02  0.7816164E-02  0.1300439E+00
        -11   -1    0    0    0    0  0.00000000000E+00  0.00000000000E+00  0.45593999997E+02  0.45594000000E+02  0.51100000000E-03 0.  1.
         11   -1    0    0    0    0 -0.00000000000E+00 -0.00000000000E+00 -0.45593999997E+02  0.45594000000E+02  0.51100000000E-03 0. -1.
    9900012    2    1    2    0    0 -0.10537359001E+02  0.17473467650E+02  0.35168233782E+02  0.50528896791E+02  0.30000112286E+02 0.  0.
         12    1    1    2    0    0  0.10537359001E+02 -0.17473467650E+02 -0.35168233782E+02  0.40659103209E+02  0.00000000000E+00 0. -1.
         11    1    3    3    0    0  0.42891305592E+01  0.13841122592E+02  0.10934663237E+02  0.18153241471E+02  0.51100000000E-03 0. -1.
        -11    1    3    3    0    0 -0.13447459320E+02  0.50176313204E+01  0.26027379804E+02  0.29722639283E+02  0.51100000000E-03 0.  1.
         12    1    3    3    0    0 -0.13790302401E+01 -0.13852862618E+01 -0.17938092593E+01  0.26530160363E+01  0.00000000000E+00 0. -1.
</event>
<event>
 7    1  0.2891523E-011  0.5052886E+02  0.7816164E-02  0.1300439E+00
        -11   -1    0    0    0    0  0.00000000000E+00  0.00000000000E+00  0.45593999997E+02  0.45594000000E+02  0.51100000000E-03 0.  1.
         11   -1    0    0    0    0 -0.00000000000E+00 -0.00000000000E+00 -0.45593999997E+02  0.45594000000E+02  0.51100000000E-03 0. -1.
    9900012    2    1    2    0    0  0.14169244856E+02  0.19338482567E+02  0.32839327884E+02  0.50528857564E+02  0.29999993051E+02 0.  0.
         12    1    1    2    0    0 -0.14169244856E+02 -0.19338482567E+02 -0.32839327884E+02  0.40659142436E+02  0.00000000000E+00 0. -1.
         11    1    3    3    0    0  0.37271554188E+00  0.15174071856E+02  0.57479305831E+01  0.16230529252E+02  0.51100000000E-03 0.  1.
        -11    1    3    3    0    0  0.41396556908E+01 -0.34143008401E+01  0.99308627215E+00  0.54571439480E+01  0.51100000000E-03 0. -1.
         12    1    3    3    0    0  0.96568736238E+01  0.75787115510E+01  0.26098311029E+02  0.28841184364E+02  0.00000000000E+00 0. -1.
</event>
<event>
 7    1  0.2891523E-011  0.5052882E+02  0.7816164E-02  0.1300439E+00
        -11   -1    0    0    0    0  0.00000000000E+00  0.00000000000E+00  0.45593999997E+02  0.45594000000E+02  0.51100000000E-03 0.  1.
         11   -1    0    0    0    0 -0.00000000000E+00 -0.00000000000E+00 -0.45593999997E+02  0.45594000000E+02  0.51100000000E-03 0. -1.
    9900012    2    1    2    0    0  0.12036308497E+02  0.35482091263E+02  0.15789788416E+02  0.50528819722E+02  0.29999878027E+02 0.  0.
         12    1    1    2    0    0 -0.12036308497E+02 -0.35482091263E+02 -0.15789788416E+02  0.40659180278E+02  0.00000000000E+00 0. -1.
         11    1    3    3    0    0  0.17525073313E+01  0.37423508530E+00 -0.66748334722E+01  0.69112036569E+01  0.51100000000E-03 0. -1.
        -11    1    3    3    0    0  0.67447994520E+01  0.18784906181E+02  0.79299697850E+01  0.21476718579E+02  0.51100000000E-03 0.  1.
         12    1    3    3    0    0  0.35390017134E+01  0.16322949997E+02  0.14534652103E+02  0.22140897486E+02  0.00000000000E+00 0. -1.
</event>
<event>
 7    1  0.2891523E-011  0.5052886E+02  0.7816164E-02  0.1300439E+00
        -11   -1    0    0    0    0  0.00000000000E+00  0.00000000000E+00  0.45593999997E+02  0.45594000000E+02  0.51100000000E-03 0.  1.
         11   -1    0    0    0    0 -0.00000000000E+00 -0.00000000000E+00 -0.45593999997E+02  0.45594000000E+02  0.51100000000E-03 0. -1.
    9900012    2    1    2    0    0  0.24403971516E+02  0.39298300888E+01  0.32282628235E+02  0.50528862330E+02  0.30000007539E+02 0.  0.
         12    1    1    2    0    0 -0.24403971516E+02 -0.39298300888E+01 -0.32282628235E+02  0.40659137670E+02  0.00000000000E+00 0. -1.
         11    1    3    3    0    0  0.66921931048E+01 -0.48167322067E+01  0.23358367390E+02  0.24770944372E+02  0.51100000000E-03 0. -1.
        -11    1    3    3    0    0  0.81516322910E+01  0.10429331003E+02  0.10864816424E+01  0.13281584875E+02  0.51100000000E-03 0.  1.
         12    1    3    3    0    0  0.95601461205E+01 -0.16827687076E+01  0.78377792025E+01  0.12476333083E+02  0.00000000000E+00 0. -1.
</event>
<event>
 7    1  0.2891523E-011  0.5052886E+02  0.7816164E-02  0.1300439E+00
        -11   -1    0    0    0    0  0.00000000000E+00  0.00000000000E+00  0.45593999997E+02  0.45594000000E+02  0.51100000000E-03 0.  1.
         11   -1    0    0    0    0 -0.00000000000E+00 -0.00000000000E+00 -0.45593999997E+02  0.45594000000E+02  0.51100000000E-03 0. -1.
    9900012    2    1    2    0    0  0.30126478093E+02  0.17016212170E+02  0.21354381026E+02  0.50528858988E+02  0.29999997379E+02 0.  0.
         12    1    1    2    0    0 -0.30126478093E+02 -0.17016212170E+02 -0.21354381026E+02  0.40659141012E+02  0.00000000000E+00 0. -1.
         11    1    3    3    0    0  0.78613452237E+00  0.93581811494E+01 -0.45569795861E+01  0.10438372724E+02  0.51100000000E-03 0. -1.
        -11    1    3    3    0    0  0.93373838472E+01  0.61188995027E+00  0.71719102181E+01  0.11789717675E+02  0.51100000000E-03 0.  1.
         12    1    3    3    0    0  0.20002959723E+02  0.70461410699E+01  0.18739450394E+02  0.28300768589E+02  0.00000000000E+00 0. -1.
</event>
<event>
 7    1  0.2891523E-011  0.5052886E+02  0.7816164E-02  0.1300439E+00
        -11   -1    0    0    0    0  0.00000000000E+00  0.00000000000E+00  0.45593999997E+02  0.45594000000E+02  0.51100000000E-03 0.  1.
         11   -1    0    0    0    0 -0.00000000000E+00 -0.00000000000E+00 -0.45593999997E+02  0.45594000000E+02  0.51100000000E-03 0. -1.
    9900012    2    1    2    0    0 -0.26177396802E+02 -0.12870265806E+02  0.28324298963E+02  0.50528858875E+02  0.29999997036E+02 0.  0.
         12    1    1    2    0    0  0.26177396802E+02  0.12870265806E+02 -0.28324298963E+02  0.40659141125E+02  0.00000000000E+00 0. -1.
         11    1    3    3    0    0 -0.18440055235E+02 -0.17231701834E+00  0.13113737560E+02  0.22628200178E+02  0.51100000000E-03 0. -1.
        -11    1    3    3    0    0 -0.35697941106E+01 -0.16475944682E+02  0.77426402150E+01  0.18551244188E+02  0.51100000000E-03 0.  1.
        -12    1    3    3    0    0 -0.41675474567E+01  0.37779958947E+01  0.74679211887E+01  0.93494145092E+01  0.00000000000E+00 0.  1.
</event>
<event>
 7    1  0.2891523E-011  0.5052886E+02  0.7816164E-02  0.1300439E+00
        -11   -1    0    0    0    0  0.00000000000E+00  0.00000000000E+00  0.45593999997E+02  0.45594000000E+02  0.51100000000E-03 0.  1.
         11   -1    0    0    0    0 -0.00000000000E+00 -0.00000000000E+00 -0.45593999997E+02  0.45594000000E+02  0.51100000000E-03 0. -1.
    9900012    2    1    2    0    0 -0.31479831404E+02  0.69395529877E+01  0.24779596741E+02  0.50528860861E+02  0.30000003073E+02 0.  0.
         12    1    1    2    0    0  0.31479831404E+02 -0.69395529877E+01 -0.24779596741E+02  0.40659139139E+02  0.00000000000E+00 0. -1.
         11    1    3    3    0    0 -0.25310556683E+02  0.73250137958E+01  0.11986165255E+02  0.28947336052E+02  0.51100000000E-03 0. -1.
        -11    1    3    3    0    0 -0.30727583923E+01 -0.10714154663E+01  0.16434063603E+02  0.16753155584E+02  0.51100000000E-03 0.  1.
         12    1    3    3    0    0 -0.30965163281E+01  0.68595465823E+00 -0.36406321168E+01  0.48283692251E+01  0.00000000000E+00 0. -1.
</event>
<event>
 7    1  0.2891523E-011  0.5052889E+02  0.7816164E-02  0.1300439E+00
        -11   -1    0    0    0    0  0.00000000000E+00  0.00000000000E+00  0.45593999997E+02  0.45594000000E+02  0.51100000000E-03 0.  1.
         11   -1    0    0    0    0 -0.00000000000E+00 -0.00000000000E+00 -0.45593999997E+02  0.45594000000E+02  0.51100000000E-03 0. -1.
    9900012    2    1    2    0    0  0.13997915529E+02  0.22964143025E+02  0.30493765824E+02  0.50528889605E+02  0.30000090442E+02 0.  0.
         12    1    1    2    0    0 -0.13997915529E+02 -0.22964143025E+02 -0.30493765824E+02  0.40659110395E+02  0.00000000000E+00 0. -1.
         11    1    3    3    0    0 -0.49578842778E+01 -0.39473882730E+01  0.51874987890E+01  0.81897884367E+01  0.51100000000E-03 0. -1.
        -11    1    3    3    0    0  0.15321365340E+02  0.18767647485E+02  0.14151751121E+02  0.28057813315E+02  0.51100000000E-03 0.  1.
        -12    1    3    3    0    0  0.36344344675E+01  0.81438838129E+01  0.11154515914E+02  0.14281287852E+02  0.00000000000E+00 0.  1.
</event>
<event>
 7    1  0.2891523E-011  0.5052887E+02  0.7816164E-02  0.1300439E+00
        -11   -1    0    0    0    0  0.00000000000E+00  0.00000000000E+00  0.45593999997E+02  0.45594000000E+02  0.51100000000E-03 0. -1.
         11   -1    0    0    0    0 -0.00000000000E+00 -0.00000000000E+00 -0.45593999997E+02  0.45594000000E+02  0.51100000000E-03 0.  1.
    9900012    2    1    2    0    0 -0.28454104966E+02 -0.15831186895E+02 -0.24349587618E+02  0.50528868368E+02  0.30000025891E+02 0.  0.
         12    1    1    2    0    0  0.28454104966E+02  0.15831186895E+02  0.24349587618E+02  0.40659131632E+02  0.00000000000E+00 0. -1.
         11    1    3    3    0    0  0.19374436653E+01 -0.27035937218E+01 -0.98767700339E+01  0.10421789363E+02  0.51100000000E-03 0. -1.
        -11    1    3    3    0    0 -0.24748066941E+02 -0.15347446120E+02 -0.16791024948E+02  0.33614720567E+02  0.51100000000E-03 0.  1.
        -12    1    3    3    0    0 -0.56434816906E+01  0.22198529476E+01  0.23182073640E+01  0.64923584377E+01  0.00000000000E+00 0.  1.
</event>
<event>
 7    1  0.2891523E-011  0.5052885E+02  0.7816164E-02  0.1300439E+00
        -11   -1    0    0    0    0  0.00000000000E+00  0.00000000000E+00  0.45593999997E+02  0.45594000000E+02  0.51100000000E-03 0. -1.
         11   -1    0    0    0    0 -0.00000000000E+00 -0.00000000000E+00 -0.45593999997E+02  0.45594000000E+02  0.51100000000E-03 0.  1.
    9900012    2    1    2    0    0  0.34637193014E+02  0.16975492081E+02 -0.12855499521E+02  0.50528851715E+02  0.29999975273E+02 0.  0.
         12    1    1    2    0    0 -0.34637193014E+02 -0.16975492081E+02  0.12855499521E+02  0.40659148285E+02  0.00000000000E+00 0. -1.
         11    1    3    3    0    0 -0.50074257180E+01 -0.32515988187E+00 -0.17975065064E+01  0.53302036707E+01  0.51100000000E-03 0. -1.
        -11    1    3    3    0    0  0.10510074671E+02  0.16388418336E+01 -0.13267116213E+01  0.10719497942E+02  0.51100000000E-03 0.  1.
         12    1    3    3    0    0  0.29134544062E+02  0.15661810130E+02 -0.97312813936E+01  0.34479150102E+02  0.00000000000E+00 0. -1.
</event>
<event>
 7    1  0.2891523E-011  0.5052888E+02  0.7816164E-02  0.1300439E+00
        -11   -1    0    0    0    0  0.00000000000E+00  0.00000000000E+00  0.45593999997E+02  0.45594000000E+02  0.51100000000E-03 0.  1.
         11   -1    0    0    0    0 -0.00000000000E+00 -0.00000000000E+00 -0.45593999997E+02  0.45594000000E+02  0.51100000000E-03 0. -1.
    9900012    2    1    2    0    0 -0.83048571845E+01 -0.38422094329E+02  0.10389227274E+02  0.50528880127E+02  0.30000061633E+02 0.  0.
         12    1    1    2    0    0  0.83048571845E+01  0.38422094329E+02 -0.10389227274E+02  0.40659119873E+02  0.00000000000E+00 0. -1.
         11    1    3    3    0    0  0.60026802107E+01 -0.27416478270E+01 -0.17073179148E+01  0.68164314155E+01  0.51100000000E-03 0. -1.
        -11    1    3    3    0    0 -0.12958412387E+02 -0.37496095270E+02  0.10847113747E+02  0.41128305204E+02  0.51100000000E-03 0.  1.
        -12    1    3    3    0    0 -0.13491250086E+01  0.18156487677E+01  0.12494314418E+01  0.25841435069E+01  0.00000000000E+00 0.  1.
</event>
<event>
 7    1  0.2891523E-011  0.5052885E+02  0.7816164E-02  0.1300439E+00
        -11   -1    0    0    0    0  0.00000000000E+00  0.00000000000E+00  0.45593999997E+02  0.45594000000E+02  0.51100000000E-03 0. -1.
         11   -1    0    0    0    0 -0.00000000000E+00 -0.00000000000E+00 -0.45593999997E+02  0.45594000000E+02  0.51100000000E-03 0.  1.
    9900012    2    1    2    0    0  0.18217014154E+02  0.15969741778E+01 -0.36314685587E+02  0.50528851946E+02  0.29999975974E+02 0.  0.
         12    1    1    2    0    0 -0.18217014154E+02 -0.15969741778E+01  0.36314685587E+02  0.40659148054E+02  0.00000000000E+00 0. -1.
         11    1    3    3    0    0  0.13057133182E+02  0.36220877125E+00 -0.29256333286E+01  0.13385785474E+02  0.51100000000E-03 0. -1.
        -11    1    3    3    0    0  0.10814951094E+01  0.32060014993E+01 -0.32309803895E+02  0.32486481885E+02  0.51100000000E-03 0.  1.
        -12    1    3    3    0    0  0.40783858633E+01 -0.19712360927E+01 -0.10792483633E+01  0.46565845866E+01  0.00000000000E+00 0.  1.
</event>
<event>
 7    1  0.2891523E-011  0.5052886E+02  0.7816164E-02  0.1300439E+00
        -11   -1    0    0    0    0  0.00000000000E+00  0.00000000000E+00  0.45593999997E+02  0.45594000000E+02  0.51100000000E-03 0.  1.
         11   -1    0    0    0    0 -0.00000000000E+00 -0.00000000000E+00 -0.45593999997E+02  0.45594000000E+02  0.51100000000E-03 0. -1.
    9900012    2    1    2    0    0 -0.17115834780E+02  0.10665281388E+02  0.35305316755E+02  0.50528863038E+02  0.30000009690E+02 0.  0.
         12    1    1    2    0    0  0.17115834780E+02 -0.10665281388E+02 -0.35305316755E+02  0.40659136962E+02  0.00000000000E+00 0. -1.
         11    1    3    3    0    0 -0.40124235944E+01  0.10813245643E+02  0.39454090320E+01  0.12189834991E+02  0.51100000000E-03 0. -1.
        -11    1    3    3    0    0 -0.49407962155E+01 -0.29424610091E+01  0.28758267599E+02  0.29327589393E+02  0.51100000000E-03 0.  1.
        -12    1    3    3    0    0 -0.81626149704E+01  0.27944967546E+01  0.26016401238E+01  0.90114386532E+01  0.00000000000E+00 0.  1.
</event>
<event>
 7    1  0.2891523E-011  0.5052886E+02  0.7816164E-02  0.1300439E+00
        -11   -1    0    0    0    0  0.00000000000E+00  0.00000000000E+00  0.45593999997E+02  0.45594000000E+02  0.51100000000E-03 0.  1.
         11   -1    0    0    0    0 -0.00000000000E+00 -0.00000000000E+00 -0.45593999997E+02  0.45594000000E+02  0.51100000000E-03 0. -1.
    9900012    2    1    2    0    0 -0.86183687597E+01  0.37378486814E+02 -0.13481029673E+02  0.50528859359E+02  0.29999998509E+02 0.  0.
         12    1    1    2    0    0  0.86183687597E+01 -0.37378486814E+02  0.13481029673E+02  0.40659140641E+02  0.00000000000E+00 0. -1.
         11    1    3    3    0    0  0.72457126915E+01  0.12608727054E+02 -0.52266173171E+00  0.14551753361E+02  0.51100000000E-03 0. -1.
        -11    1    3    3    0    0 -0.15851701986E+02  0.27011020712E+02 -0.11989210547E+02  0.33535248107E+02  0.51100000000E-03 0.  1.
        -12    1    3    3    0    0 -0.12379464696E-01 -0.22412609524E+01 -0.96915739497E+00  0.24418578918E+01  0.00000000000E+00 0.  1.
</event>
<event>
 7    1  0.2891523E-011  0.5052885E+02  0.7816164E-02  0.1300439E+00
        -11   -1    0    0    0    0  0.00000000000E+00  0.00000000000E+00  0.45593999997E+02  0.45594000000E+02  0.51100000000E-03 0.  1.
         11   -1    0    0    0    0 -0.00000000000E+00 -0.00000000000E+00 -0.45593999997E+02  0.45594000000E+02  0.51100000000E-03 0. -1.
    9900012    2    1    2    0    0  0.36297039901E+02 -0.75091777392E+01  0.16712373480E+02  0.50528852404E+02  0.29999977367E+02 0.  0.
         12    1    1    2    0    0 -0.36297039901E+02  0.75091777392E+01 -0.16712373480E+02  0.40659147596E+02  0.00000000000E+00 0. -1.
         11    1    3    3    0    0 -0.42898032280E+01 -0.51709131753E+01  0.24126912993E+01  0.71387557998E+01  0.51100000000E-03 0. -1.
        -11    1    3    3    0    0  0.30881476432E+02 -0.36676511053E+01  0.11956280642E+02  0.33317711480E+02  0.51100000000E-03 0.  1.
         12    1    3    3    0    0  0.97053666975E+01  0.13293865414E+01  0.23434015388E+01  0.10072385124E+02  0.00000000000E+00 0. -1.
</event>
<event>
 7    1  0.2891523E-011  0.5052884E+02  0.7816164E-02  0.1300439E+00
        -11   -1    0    0    0    0  0.00000000000E+00  0.00000000000E+00  0.45593999997E+02  0.45594000000E+02  0.51100000000E-03 0.  1.
         11   -1    0    0    0    0 -0.00000000000E+00 -0.00000000000E+00 -0.45593999997E+02  0.45594000000E+02  0.51100000000E-03 0. -1.
    9900012    2    1    2    0    0 -0.71117050810E+01  0.31919586070E+02  0.24160523149E+02  0.50528841095E+02  0.29999942991E+02 0.  0.
         12    1    1    2    0    0  0.71117050810E+01 -0.31919586070E+02 -0.24160523149E+02  0.40659158905E+02  0.00000000000E+00 0. -1.
         11    1    3    3    0    0 -0.12767712876E+01  0.95311920276E+01 -0.14214521359E+00  0.96173786402E+01  0.51100000000E-03 0. -1.
        -11    1    3    3    0    0  0.43648788605E+01 -0.31685918468E+01  0.39719526418E+01  0.66983990481E+01  0.51100000000E-03 0.  1.
        -12    1    3    3    0    0 -0.10199812654E+02  0.25556985889E+02  0.20330715721E+02  0.34213063406E+02  0.00000000000E+00 0.  1.
</event>
<event>
 7    1  0.2891523E-011  0.5052885E+02  0.7816164E-02  0.1300439E+00
        -11   -1    0    0    0    0  0.00000000000E+00  0.00000000000E+00  0.45593999997E+02  0.45594000000E+02  0.51100000000E-03 0. -1.
         11   -1    0    0    0    0 -0.00000000000E+00 -0.00000000000E+00 -0.45593999997E+02  0.45594000000E+02  0.51100000000E-03 0.  1.
    9900012    2    1    2    0    0 -0.29267467064E+02  0.89794176155E+01 -0.26757278734E+02  0.50528849316E+02  0.29999967981E+02 0.  0.
         12    1    1    2    0    0  0.29267467064E+02 -0.89794176155E+01  0.26757278734E+02  0.40659150684E+02  0.00000000000E+00 0. -1.
         11    1    3    3    0    0  0.13091085705E+01  0.10861764237E+01  0.17367699026E+01  0.24310315565E+01  0.51100000000E-03 0. -1.
        -11    1    3    3    0    0 -0.24736951213E+02 -0.10051812531E+01 -0.28095243574E+02  0.37446893815E+02  0.51100000000E-03 0.  1.
        -12    1    3    3    0    0 -0.58396244218E+01  0.88984224449E+01 -0.39880506306E+00  0.10650923945E+02  0.00000000000E+00 0.  1.
</event>
<event>
 7    1  0.2891523E-011  0.5052885E+02  0.7816164E-02  0.1300439E+00
        -11   -1    0    0    0    0  0.00000000000E+00  0.00000000000E+00  0.45593999997E+02  0.45594000000E+02  0.51100000000E-03 0.  1.
         11   -1    0    0    0    0 -0.00000000000E+00 -0.00000000000E+00 -0.45593999997E+02  0.45594000000E+02  0.51100000000E-03 0. -1.
    9900012    2    1    2    0    0  0.92779558079E+01  0.38726138586E+02  0.82080697582E+01  0.50528847489E+02  0.29999962428E+02 0.  0.
         12    1    1    2    0    0 -0.92779558079E+01 -0.38726138586E+02 -0.82080697582E+01  0.40659152511E+02  0.00000000000E+00 0. -1.
         11    1    3    3    0    0  0.28578525123E+01  0.10072702680E+02 -0.21150604611E+01  0.10681766768E+02  0.51100000000E-03 0. -1.
        -11    1    3    3    0    0  0.54185043238E+01  0.13239564158E+02  0.17676295450E+02  0.22739781645E+02  0.51100000000E-03 0.  1.
        -12    1    3    3    0    0  0.10015989717E+01  0.15413871748E+02 -0.73531652304E+01  0.17107299076E+02  0.00000000000E+00 0.  1.
</event>
<event>
 7    1  0.2891523E-011  0.5052887E+02  0.7816164E-02  0.1300439E+00
        -11   -1    0    0    0    0  0.00000000000E+00  0.00000000000E+00  0.45593999997E+02  0.45594000000E+02  0.51100000000E-03 0.  1.
         11   -1    0    0    0    0 -0.00000000000E+00 -0.00000000000E+00 -0.45593999997E+02  0.45594000000E+02  0.51100000000E-03 0. -1.
    9900012    2    1    2    0    0 -0.19516024800E+02 -0.27741906152E+02  0.22420439716E+02  0.50528871898E+02  0.30000036621E+02 0.  0.
         12    1    1    2    0    0  0.19516024800E+02  0.27741906152E+02 -0.22420439716E+02  0.40659128102E+02  0.00000000000E+00 0. -1.
         11    1    3    3    0    0 -0.12877917568E+02 -0.21432295062E+02  0.19896345684E+01  0.25082716729E+02  0.51100000000E-03 0. -1.
        -11    1    3    3    0    0 -0.60758128027E+01  0.13300484437E+01  0.14436334931E+02  0.15719169717E+02  0.51100000000E-03 0.  1.
        -12    1    3    3    0    0 -0.56229442928E+00 -0.76396595336E+01  0.59944702166E+01  0.97269854524E+01  0.00000000000E+00 0.  1.
</event>
<event>
 7    1  0.2891523E-011  0.5052886E+02  0.7816164E-02  0.1300439E+00
        -11   -1    0    0    0    0  0.00000000000E+00  0.00000000000E+00  0.45593999997E+02  0.45594000000E+02  0.51100000000E-03 0.  1.
         11   -1    0    0    0    0 -0.00000000000E+00 -0.00000000000E+00 -0.45593999997E+02  0.45594000000E+02  0.51100000000E-03 0. -1.
    9900012    2    1    2    0    0 -0.28102717403E+02  0.77732599180E+01  0.28336887371E+02  0.50528862269E+02  0.30000007351E+02 0.  0.
         12    1    1    2    0    0  0.28102717403E+02 -0.77732599180E+01 -0.28336887371E+02  0.40659137731E+02  0.00000000000E+00 0. -1.
         11    1    3    3    0    0 -0.84441748678E+01  0.21472870074E+01  0.15919906385E+02  0.18148232703E+02  0.51100000000E-03 0. -1.
        -11    1    3    3    0    0  0.45218764072E+00  0.13529150606E+01 -0.51463894093E+01  0.53404285443E+01  0.51100000000E-03 0.  1.
        -12    1    3    3    0    0 -0.20110730176E+02  0.42730578500E+01  0.17563370395E+02  0.27040201021E+02  0.00000000000E+00 0.  1.
</event>
<event>
 7    1  0.2891523E-011  0.5052885E+02  0.7816164E-02  0.1300439E+00
        -11   -1    0    0    0    0  0.00000000000E+00  0.00000000000E+00  0.45593999997E+02  0.45594000000E+02  0.51100000000E-03 0. -1.
         11   -1    0    0    0    0 -0.00000000000E+00 -0.00000000000E+00 -0.45593999997E+02  0.45594000000E+02  0.51100000000E-03 0.  1.
    9900012    2    1    2    0    0  0.35251678028E+02  0.18487666067E+02  0.82880805829E+01  0.50528845063E+02  0.29999955055E+02 0.  0.
         12    1    1    2    0    0 -0.35251678028E+02 -0.18487666067E+02 -0.82880805829E+01  0.40659154937E+02  0.00000000000E+00 0. -1.
         11    1    3    3    0    0  0.16687629952E+02  0.87323837977E+01  0.15967684877E+02  0.24692073238E+02  0.51100000000E-03 0. -1.
        -11    1    3    3    0    0  0.39231017488E+01  0.88347529295E+01 -0.10013678286E+01  0.97183498829E+01  0.51100000000E-03 0.  1.
         12    1    3    3    0    0  0.14640946328E+02  0.92052933991E+00 -0.66782364654E+01  0.16118421943E+02  0.00000000000E+00 0. -1.
</event>
<event>
 7    1  0.2891523E-011  0.5052887E+02  0.7816164E-02  0.1300439E+00
        -11   -1    0    0    0    0  0.00000000000E+00  0.00000000000E+00  0.45593999997E+02  0.45594000000E+02  0.51100000000E-03 0.  1.
         11   -1    0    0    0    0 -0.00000000000E+00 -0.00000000000E+00 -0.45593999997E+02  0.45594000000E+02  0.51100000000E-03 0. -1.
    9900012    2    1    2    0    0 -0.10149992514E+02  0.14488082917E+02  0.36609260087E+02  0.50528870413E+02  0.30000032108E+02 0.  0.
         12    1    1    2    0    0  0.10149992514E+02 -0.14488082917E+02 -0.36609260087E+02  0.40659129587E+02  0.00000000000E+00 0. -1.
         11    1    3    3    0    0 -0.54515880379E+01 -0.19967938673E+01  0.19968704107E+02  0.20795579863E+02  0.51100000000E-03 0. -1.
        -11    1    3    3    0    0 -0.43124236916E+01  0.19059198462E+02  0.18195882146E+02  0.26700939524E+02  0.51100000000E-03 0.  1.
         12    1    3    3    0    0 -0.38598078493E+00 -0.25743216781E+01 -0.15553261651E+01  0.30323510266E+01  0.00000000000E+00 0. -1.
</event>
<event>
 7    1  0.2891523E-011  0.5052889E+02  0.7816164E-02  0.1300439E+00
        -11   -1    0    0    0    0  0.00000000000E+00  0.00000000000E+00  0.45593999997E+02  0.45594000000E+02  0.51100000000E-03 0. -1.
         11   -1    0    0    0    0 -0.00000000000E+00 -0.00000000000E+00 -0.45593999997E+02  0.45594000000E+02  0.51100000000E-03 0.  1.
    9900012    2    1    2    0    0 -0.26945759203E+02  0.13141622189E+02 -0.27466104161E+02  0.50528892157E+02  0.30000098201E+02 0.  0.
         12    1    1    2    0    0  0.26945759203E+02 -0.13141622189E+02  0.27466104161E+02  0.40659107843E+02  0.00000000000E+00 0. -1.
         11    1    3    3    0    0 -0.37047362424E+01  0.14414917796E+02 -0.15941203967E+02  0.21809101537E+02  0.51100000000E-03 0. -1.
        -11    1    3    3    0    0 -0.82194020875E+01 -0.37815544374E+01 -0.98877217383E+01  0.13402453733E+02  0.51100000000E-03 0.  1.
        -12    1    3    3    0    0 -0.15021620873E+02  0.25082588310E+01 -0.16371784562E+01  0.15317336887E+02  0.00000000000E+00 0.  1.
</event>
<event>
 7    1  0.2891523E-011  0.5052888E+02  0.7816164E-02  0.1300439E+00
        -11   -1    0    0    0    0  0.00000000000E+00  0.00000000000E+00  0.45593999997E+02  0.45594000000E+02  0.51100000000E-03 0. -1.
         11   -1    0    0    0    0 -0.00000000000E+00 -0.00000000000E+00 -0.45593999997E+02  0.45594000000E+02  0.51100000000E-03 0.  1.
    9900012    2    1    2    0    0  0.30803327707E+02  0.15554789786E+02 -0.21502739747E+02  0.50528876795E+02  0.30000051507E+02 0.  0.
         12    1    1    2    0    0 -0.30803327707E+02 -0.15554789786E+02  0.21502739747E+02  0.40659123205E+02  0.00000000000E+00 0. -1.
         11    1    3    3    0    0  0.51999617104E+01  0.90668982201E+01 -0.38442912112E+01  0.11136732928E+02  0.51100000000E-03 0. -1.
        -11    1    3    3    0    0  0.24836911196E+02 -0.30940257055E+01 -0.94557351018E+01  0.26755486903E+02  0.51100000000E-03 0.  1.
        -12    1    3    3    0    0  0.76645480083E+00  0.95819172714E+01 -0.82027134344E+01  0.12636656965E+02  0.00000000000E+00 0.  1.
</event>
<event>
 7    1  0.2891523E-011  0.5052886E+02  0.7816164E-02  0.1300439E+00
        -11   -1    0    0    0    0  0.00000000000E+00  0.00000000000E+00  0.45593999997E+02  0.45594000000E+02  0.51100000000E-03 0. -1.
         11   -1    0    0    0    0 -0.00000000000E+00 -0.00000000000E+00 -0.45593999997E+02  0.45594000000E+02  0.51100000000E-03 0.  1.
    9900012    2    1    2    0    0  0.28075178690E+01 -0.35345554962E+02 -0.19899127069E+02  0.50528859942E+02  0.30000000280E+02 0.  0.
         12    1    1    2    0    0 -0.28075178690E+01  0.35345554962E+02  0.19899127069E+02  0.40659140058E+02  0.00000000000E+00 0. -1.
         11    1    3    3    0    0  0.30921165493E+01  0.35109798441E+01 -0.33830095594E+01  0.57734667367E+01  0.51100000000E-03 0. -1.
        -11    1    3    3    0    0 -0.72503316757E+01 -0.23718910525E+02 -0.81303160559E+01  0.26100882462E+02  0.51100000000E-03 0.  1.
         12    1    3    3    0    0  0.69657329955E+01 -0.15137624281E+02 -0.83858014536E+01  0.18654510743E+02  0.00000000000E+00 0. -1.
</event>
<event>
 7    1  0.2891523E-011  0.5052890E+02  0.7816164E-02  0.1300439E+00
        -11   -1    0    0    0    0  0.00000000000E+00  0.00000000000E+00  0.45593999997E+02  0.45594000000E+02  0.51100000000E-03 0.  1.
         11   -1    0    0    0    0 -0.00000000000E+00 -0.00000000000E+00 -0.45593999997E+02  0.45594000000E+02  0.51100000000E-03 0. -1.
    9900012    2    1    2    0    0 -0.38704464147E+01  0.38247282958E+02  0.13241116638E+02  0.50528902876E+02  0.30000130781E+02 0.  0.
         12    1    1    2    0    0  0.38704464147E+01 -0.38247282958E+02 -0.13241116638E+02  0.40659097124E+02  0.00000000000E+00 0. -1.
         11    1    3    3    0    0 -0.11453792412E+00 -0.91340321244E+00  0.26555262243E+01  0.28105594023E+01  0.51100000000E-03 0. -1.
        -11    1    3    3    0    0 -0.72101317475E+01  0.40233752113E+02  0.13528486802E+02  0.43055322137E+02  0.51100000000E-03 0.  1.
        -12    1    3    3    0    0  0.34542232569E+01 -0.10730659424E+01 -0.29428963892E+01  0.46630213363E+01  0.00000000000E+00 0.  1.
</event>
<event>
 7    1  0.2891523E-011  0.5052886E+02  0.7816164E-02  0.1300439E+00
        -11   -1    0    0    0    0  0.00000000000E+00  0.00000000000E+00  0.45593999997E+02  0.45594000000E+02  0.51100000000E-03 0.  1.
         11   -1    0    0    0    0 -0.00000000000E+00 -0.00000000000E+00 -0.45593999997E+02  0.45594000000E+02  0.51100000000E-03 0. -1.
    9900012    2    1    2    0    0  0.12664249010E+02 -0.27022009650E+02  0.27615099846E+02  0.50528856526E+02  0.29999989897E+02 0.  0.
         12    1    1    2    0    0 -0.12664249010E+02  0.27022009650E+02 -0.27615099846E+02  0.40659143474E+02  0.00000000000E+00 0. -1.
         11    1    3    3    0    0  0.12714011083E+02 -0.16050913512E+01  0.15524560118E+02  0.20130433755E+02  0.51100000000E-03 0.  1.
        -11    1    3    3    0    0 -0.57183924388E+01 -0.11525230560E+02  0.61691583641E+01  0.14268478081E+02  0.51100000000E-03 0. -1.
        -12    1    3    3    0    0  0.56686303657E+01 -0.13891687739E+02  0.59213813641E+01  0.16129944690E+02  0.00000000000E+00 0.  1.
</event>
<event>
 7    1  0.2891523E-011  0.5052886E+02  0.7816164E-02  0.1300439E+00
        -11   -1    0    0    0    0  0.00000000000E+00  0.00000000000E+00  0.45593999997E+02  0.45594000000E+02  0.51100000000E-03 0.  1.
         11   -1    0    0    0    0 -0.00000000000E+00 -0.00000000000E+00 -0.45593999997E+02  0.45594000000E+02  0.51100000000E-03 0. -1.
    9900012    2    1    2    0    0 -0.20280223643E+00  0.17810390219E+01  0.40619610431E+02  0.50528856129E+02  0.29999988689E+02 0.  0.
         12    1    1    2    0    0  0.20280223643E+00 -0.17810390219E+01 -0.40619610431E+02  0.40659143871E+02  0.00000000000E+00 0. -1.
         11    1    3    3    0    0  0.22994848762E+01  0.55560331460E-01 -0.42809011125E+01  0.48597152430E+01  0.51100000000E-03 0. -1.
        -11    1    3    3    0    0 -0.50297388816E+01  0.10994808911E+01  0.36852374562E+02  0.37210276035E+02  0.51100000000E-03 0.  1.
        -12    1    3    3    0    0  0.25274517690E+01  0.62599779931E+00  0.80481369820E+01  0.84588648511E+01  0.00000000000E+00 0.  1.
</event>
<event>
 7    1  0.2891523E-011  0.5052888E+02  0.7816164E-02  0.1300439E+00
        -11   -1    0    0    0    0  0.00000000000E+00  0.00000000000E+00  0.45593999997E+02  0.45594000000E+02  0.51100000000E-03 0.  1.
         11   -1    0    0    0    0 -0.00000000000E+00 -0.00000000000E+00 -0.45593999997E+02  0.45594000000E+02  0.51100000000E-03 0. -1.
    9900012    2    1    2    0    0 -0.29415095744E+02  0.26144823682E+02  0.10215890185E+02  0.50528879556E+02  0.30000059898E+02 0.  0.
         12    1    1    2    0    0  0.29415095744E+02 -0.26144823682E+02 -0.10215890185E+02  0.40659120444E+02  0.00000000000E+00 0. -1.
         11    1    3    3    0    0 -0.13718385557E+02 -0.11315041515E+01  0.68895505860E+01  0.15392865603E+02  0.51100000000E-03 0. -1.
        -11    1    3    3    0    0 -0.13763267085E+02  0.15208801801E+02 -0.39838833842E+01  0.20895131016E+02  0.51100000000E-03 0.  1.
         12    1    3    3    0    0 -0.19334431026E+01  0.12067526032E+02  0.73102229832E+01  0.14240882937E+02  0.00000000000E+00 0. -1.
</event>
<event>
 7    1  0.2891523E-011  0.5052879E+02  0.7816164E-02  0.1300439E+00
        -11   -1    0    0    0    0  0.00000000000E+00  0.00000000000E+00  0.45593999997E+02  0.45594000000E+02  0.51100000000E-03 0. -1.
         11   -1    0    0    0    0 -0.00000000000E+00 -0.00000000000E+00 -0.45593999997E+02  0.45594000000E+02  0.51100000000E-03 0.  1.
    9900012    2    1    2    0    0  0.14057920300E+02  0.36377495780E+02 -0.11498879795E+02  0.50528787527E+02  0.29999780167E+02 0.  0.
         12    1    1    2    0    0 -0.14057920300E+02 -0.36377495780E+02  0.11498879795E+02  0.40659212473E+02  0.00000000000E+00 0. -1.
         11    1    3    3    0    0 -0.27280480645E+01  0.14082321170E+02 -0.57549562514E+01  0.15455534203E+02  0.51100000000E-03 0. -1.
        -11    1    3    3    0    0  0.90699205044E+01 -0.16877941463E+01  0.33336167131E-01  0.92256825545E+01  0.51100000000E-03 0.  1.
        -12    1    3    3    0    0  0.77160478601E+01  0.23982968756E+02 -0.57772597108E+01  0.25847570770E+02  0.00000000000E+00 0.  1.
</event>
<event>
 7    1  0.2891523E-011  0.5052887E+02  0.7816164E-02  0.1300439E+00
        -11   -1    0    0    0    0  0.00000000000E+00  0.00000000000E+00  0.45593999997E+02  0.45594000000E+02  0.51100000000E-03 0. -1.
         11   -1    0    0    0    0 -0.00000000000E+00 -0.00000000000E+00 -0.45593999997E+02  0.45594000000E+02  0.51100000000E-03 0.  1.
    9900012    2    1    2    0    0  0.12047405661E+01  0.36612599151E+02 -0.17641746656E+02  0.50528867675E+02  0.30000023784E+02 0.  0.
         12    1    1    2    0    0 -0.12047405661E+01 -0.36612599151E+02  0.17641746656E+02  0.40659132325E+02  0.00000000000E+00 0. -1.
         11    1    3    3    0    0 -0.45507392646E+01  0.83098319703E+01  0.57150823338E+01  0.11064569651E+02  0.51100000000E-03 0. -1.
        -11    1    3    3    0    0 -0.42836460464E+01  0.95675382247E+01 -0.64833553623E+01  0.12325636217E+02  0.51100000000E-03 0.  1.
         12    1    3    3    0    0  0.10039125877E+02  0.18735228956E+02 -0.16873473627E+02  0.27138661806E+02  0.00000000000E+00 0. -1.
</event>
<event>
 7    1  0.2891523E-011  0.5052890E+02  0.7816164E-02  0.1300439E+00
        -11   -1    0    0    0    0  0.00000000000E+00  0.00000000000E+00  0.45593999997E+02  0.45594000000E+02  0.51100000000E-03 0.  1.
         11   -1    0    0    0    0 -0.00000000000E+00 -0.00000000000E+00 -0.45593999997E+02  0.45594000000E+02  0.51100000000E-03 0. -1.
    9900012    2    1    2    0    0  0.70346037808E+01 -0.79999937315E+01  0.39238718889E+02  0.50528897574E+02  0.30000114664E+02 0.  0.
         12    1    1    2    0    0 -0.70346037808E+01  0.79999937315E+01 -0.39238718889E+02  0.40659102426E+02  0.00000000000E+00 0. -1.
         11    1    3    3    0    0  0.63613357636E+01  0.46866620230E+01  0.76233075718E+01  0.10979353907E+02  0.51100000000E-03 0. -1.
        -11    1    3    3    0    0 -0.51945294531E+01 -0.15878313860E+02  0.19196074191E+02  0.25447853581E+02  0.51100000000E-03 0.  1.
        -12    1    3    3    0    0  0.58677974704E+01  0.31916581055E+01  0.12419337126E+02  0.14101690085E+02  0.00000000000E+00 0.  1.
</event>
<event>
 7    1  0.2891523E-011  0.5052886E+02  0.7816164E-02  0.1300439E+00
        -11   -1    0    0    0    0  0.00000000000E+00  0.00000000000E+00  0.45593999997E+02  0.45594000000E+02  0.51100000000E-03 0.  1.
         11   -1    0    0    0    0 -0.00000000000E+00 -0.00000000000E+00 -0.45593999997E+02  0.45594000000E+02  0.51100000000E-03 0. -1.
    9900012    2    1    2    0    0 -0.25048626187E+02  0.20266867548E+01  0.31962862828E+02  0.50528859168E+02  0.29999997926E+02 0.  0.
         12    1    1    2    0    0  0.25048626187E+02 -0.20266867548E+01 -0.31962862828E+02  0.40659140832E+02  0.00000000000E+00 0. -1.
         11    1    3    3    0    0 -0.11640858212E+02 -0.48650126888E+01 -0.19185766949E+01  0.12761616871E+02  0.51100000000E-03 0. -1.
        -11    1    3    3    0    0 -0.25574298676E+01  0.12786886922E+01  0.16564796644E+01  0.33044541817E+01  0.51100000000E-03 0.  1.
         12    1    3    3    0    0 -0.10850338107E+02  0.56130107515E+01  0.32224959859E+02  0.34462788115E+02  0.00000000000E+00 0. -1.
</event>
<event>
 7    1  0.2891523E-011  0.5052887E+02  0.7816164E-02  0.1300439E+00
        -11   -1    0    0    0    0  0.00000000000E+00  0.00000000000E+00  0.45593999997E+02  0.45594000000E+02  0.51100000000E-03 0.  1.
         11   -1    0    0    0    0 -0.00000000000E+00 -0.00000000000E+00 -0.45593999997E+02  0.45594000000E+02  0.51100000000E-03 0. -1.
    9900012    2    1    2    0    0  0.26304961010E+02 -0.11645827500E+01  0.30981565782E+02  0.50528872550E+02  0.30000038604E+02 0.  0.
         12    1    1    2    0    0 -0.26304961010E+02  0.11645827500E+01 -0.30981565782E+02  0.40659127450E+02  0.00000000000E+00 0. -1.
         11    1    3    3    0    0  0.15741270845E+02  0.68172605759E+01  0.92505553140E+01  0.19489366933E+02  0.51100000000E-03 0.  1.
        -11    1    3    3    0    0  0.14513411792E+02 -0.92691453970E+01  0.20357142789E+02  0.26664010221E+02  0.51100000000E-03 0. -1.
         12    1    3    3    0    0 -0.39497216283E+01  0.12873020710E+01  0.13738676783E+01  0.43754953960E+01  0.00000000000E+00 0. -1.
</event>
<event>
 7    1  0.2891523E-011  0.5052887E+02  0.7816164E-02  0.1300439E+00
        -11   -1    0    0    0    0  0.00000000000E+00  0.00000000000E+00  0.45593999997E+02  0.45594000000E+02  0.51100000000E-03 0.  1.
         11   -1    0    0    0    0 -0.00000000000E+00 -0.00000000000E+00 -0.45593999997E+02  0.45594000000E+02  0.51100000000E-03 0. -1.
    9900012    2    1    2    0    0 -0.29565647928E+02  0.15600317335E+02  0.23144487880E+02  0.50528871166E+02  0.30000034395E+02 0.  0.
         12    1    1    2    0    0  0.29565647928E+02 -0.15600317335E+02 -0.23144487880E+02  0.40659128834E+02  0.00000000000E+00 0. -1.
         11    1    3    3    0    0 -0.53152390194E+01  0.12186319579E+02  0.17848079236E+01  0.13414309163E+02  0.51100000000E-03 0. -1.
        -11    1    3    3    0    0 -0.92795166523E+01 -0.49882536975E+01  0.15949138051E+02  0.19114578444E+02  0.51100000000E-03 0.  1.
         12    1    3    3    0    0 -0.14970892256E+02  0.84022514530E+01  0.54105419051E+01  0.17999983559E+02  0.00000000000E+00 0. -1.
</event>
<event>
 7    1  0.2891523E-011  0.5052884E+02  0.7816164E-02  0.1300439E+00
        -11   -1    0    0    0    0  0.00000000000E+00  0.00000000000E+00  0.45593999997E+02  0.45594000000E+02  0.51100000000E-03 0.  1.
         11   -1    0    0    0    0 -0.00000000000E+00 -0.00000000000E+00 -0.45593999997E+02  0.45594000000E+02  0.51100000000E-03 0. -1.
    9900012    2    1    2    0    0 -0.29037255185E+02 -0.28104905285E+02  0.44854318961E+01  0.50528843724E+02  0.29999950984E+02 0.  0.
         12    1    1    2    0    0  0.29037255185E+02  0.28104905285E+02 -0.44854318961E+01  0.40659156276E+02  0.00000000000E+00 0. -1.
         11    1    3    3    0    0  0.22791319930E-01 -0.80912804343E+01  0.68775240836E+01  0.10619306771E+02  0.51100000000E-03 0. -1.
        -11    1    3    3    0    0 -0.26397134931E+02 -0.22676428901E+02 -0.52345911070E+01  0.35191335647E+02  0.51100000000E-03 0.  1.
        -12    1    3    3    0    0 -0.26629115737E+01  0.26628040502E+01  0.28424989195E+01  0.47182013063E+01  0.00000000000E+00 0.  1.
</event>
<event>
 7    1  0.2891523E-011  0.5052885E+02  0.7816164E-02  0.1300439E+00
        -11   -1    0    0    0    0  0.00000000000E+00  0.00000000000E+00  0.45593999997E+02  0.45594000000E+02  0.51100000000E-03 0. -1.
         11   -1    0    0    0    0 -0.00000000000E+00 -0.00000000000E+00 -0.45593999997E+02  0.45594000000E+02  0.51100000000E-03 0.  1.
    9900012    2    1    2    0    0  0.34727621401E+02  0.21113297812E+02 -0.11778330764E+01  0.50528851910E+02  0.29999975866E+02 0.  0.
         12    1    1    2    0    0 -0.34727621401E+02 -0.21113297812E+02  0.11778330764E+01  0.40659148090E+02  0.00000000000E+00 0. -1.
         11    1    3    3    0    0  0.17707590459E+02  0.41379575180E+01 -0.56470788229E+01  0.19041295958E+02  0.51100000000E-03 0. -1.
        -11    1    3    3    0    0 -0.35472964969E+01 -0.79741192306E+00  0.21080528068E+01  0.42027449493E+01  0.51100000000E-03 0.  1.
        -12    1    3    3    0    0  0.20567327439E+02  0.17772752217E+02  0.23611929397E+01  0.27284811003E+02  0.00000000000E+00 0.  1.
</event>
<event>
 7    1  0.2891523E-011  0.5052886E+02  0.7816164E-02  0.1300439E+00
        -11   -1    0    0    0    0  0.00000000000E+00  0.00000000000E+00  0.45593999997E+02  0.45594000000E+02  0.51100000000E-03 0.  1.
         11   -1    0    0    0    0 -0.00000000000E+00 -0.00000000000E+00 -0.45593999997E+02  0.45594000000E+02  0.51100000000E-03 0. -1.
    9900012    2    1    2    0    0 -0.17662946843E+02  0.61592492584E+01 -0.36100551984E+02  0.50528857164E+02  0.29999991836E+02 0.  0.
         12    1    1    2    0    0  0.17662946843E+02 -0.61592492584E+01  0.36100551984E+02  0.40659142836E+02  0.00000000000E+00 0. -1.
         11    1    3    3    0    0 -0.59761648663E+01 -0.11112601625E+02 -0.17384613496E+02  0.21480904265E+02  0.51100000000E-03 0. -1.
        -11    1    3    3    0    0 -0.86170971210E+01  0.70978724084E+01 -0.12402622645E+02  0.16687096939E+02  0.51100000000E-03 0.  1.
         12    1    3    3    0    0 -0.30696848557E+01  0.10173978475E+02 -0.63133158426E+01  0.12360855959E+02  0.00000000000E+00 0. -1.
</event>
<event>
 7    1  0.2891523E-011  0.5052885E+02  0.7816164E-02  0.1300439E+00
        -11   -1    0    0    0    0  0.00000000000E+00  0.00000000000E+00  0.45593999997E+02  0.45594000000E+02  0.51100000000E-03 0. -1.
         11   -1    0    0    0    0 -0.00000000000E+00 -0.00000000000E+00 -0.45593999997E+02  0.45594000000E+02  0.51100000000E-03 0.  1.
    9900012    2    1    2    0    0 -0.17333614467E+02 -0.22247828675E+02 -0.29287304845E+02  0.50528852243E+02  0.29999976878E+02 0.  0.
         12    1    1    2    0    0  0.17333614467E+02  0.22247828675E+02  0.29287304845E+02  0.40659147757E+02  0.00000000000E+00 0. -1.
         11    1    3    3    0    0 -0.20802450987E+01  0.37451270648E+01 -0.78096911647E+01  0.89075626718E+01  0.51100000000E-03 0. -1.
        -11    1    3    3    0    0 -0.34728802947E+01 -0.10698331898E+02  0.17878145293E+01  0.11389094959E+02  0.51100000000E-03 0.  1.
        -12    1    3    3    0    0 -0.11780489074E+02 -0.15294623842E+02 -0.23265428210E+02  0.30232194612E+02  0.00000000000E+00 0.  1.
</event>
<event>
 7    1  0.2891523E-011  0.5052886E+02  0.7816164E-02  0.1300439E+00
        -11   -1    0    0    0    0  0.00000000000E+00  0.00000000000E+00  0.45593999997E+02  0.45594000000E+02  0.51100000000E-03 0.  1.
         11   -1    0    0    0    0 -0.00000000000E+00 -0.00000000000E+00 -0.45593999997E+02  0.45594000000E+02  0.51100000000E-03 0. -1.
    9900012    2    1    2    0    0 -0.34253163814E+02 -0.49614087522E+01  0.21337075386E+02  0.50528860878E+02  0.30000003126E+02 0.  0.
         12    1    1    2    0    0  0.34253163814E+02  0.49614087522E+01 -0.21337075386E+02  0.40659139122E+02  0.00000000000E+00 0. -1.
         11    1    3    3    0    0 -0.20333935201E+01 -0.72128824284E+01 -0.13783277988E+01  0.76197211180E+01  0.51100000000E-03 0. -1.
        -11    1    3    3    0    0 -0.25395586212E+02 -0.34716158145E+01  0.22330131721E+02  0.33994450994E+02  0.51100000000E-03 0.  1.
        -12    1    3    3    0    0 -0.68241840818E+01  0.57230894907E+01  0.38527146335E+00  0.89146887664E+01  0.00000000000E+00 0.  1.
</event>
<event>
 7    1  0.2891523E-011  0.5052886E+02  0.7816164E-02  0.1300439E+00
        -11   -1    0    0    0    0  0.00000000000E+00  0.00000000000E+00  0.45593999997E+02  0.45594000000E+02  0.51100000000E-03 0.  1.
         11   -1    0    0    0    0 -0.00000000000E+00 -0.00000000000E+00 -0.45593999997E+02  0.45594000000E+02  0.51100000000E-03 0. -1.
    9900012    2    1    2    0    0 -0.16891077368E+02  0.20623268069E+02  0.30700785046E+02  0.50528857327E+02  0.29999992330E+02 0.  0.
         12    1    1    2    0    0  0.16891077368E+02 -0.20623268069E+02 -0.30700785046E+02  0.40659142673E+02  0.00000000000E+00 0. -1.
         11    1    3    3    0    0 -0.52068853320E+01  0.12362978588E+02  0.12450582180E+01  0.13472381551E+02  0.51100000000E-03 0. -1.
        -11    1    3    3    0    0 -0.99996172392E+01  0.13595956085E+02  0.22631509441E+02  0.28231677008E+02  0.51100000000E-03 0.  1.
         12    1    3    3    0    0 -0.16845747964E+01 -0.53356666041E+01  0.68242173870E+01  0.88247987682E+01  0.00000000000E+00 0. -1.
</event>
<event>
 7    1  0.2891523E-011  0.5052886E+02  0.7816164E-02  0.1300439E+00
        -11   -1    0    0    0    0  0.00000000000E+00  0.00000000000E+00  0.45593999997E+02  0.45594000000E+02  0.51100000000E-03 0.  1.
         11   -1    0    0    0    0 -0.00000000000E+00 -0.00000000000E+00 -0.45593999997E+02  0.45594000000E+02  0.51100000000E-03 0. -1.
    9900012    2    1    2    0    0  0.37675650890E+02 -0.33420405898E+01  0.14917820740E+02  0.50528864730E+02  0.30000014833E+02 0.  0.
         12    1    1    2    0    0 -0.37675650890E+02  0.33420405898E+01 -0.14917820740E+02  0.40659135270E+02  0.00000000000E+00 0. -1.
         11    1    3    3    0    0  0.29929167936E+01  0.18203754074E+01  0.16487301731E+01  0.38716442246E+01  0.51100000000E-03 0.  1.
        -11    1    3    3    0    0  0.19481578601E+02  0.10972519147E+02  0.88868183497E+01  0.24060416078E+02  0.51100000000E-03 0. -1.
        -12    1    3    3    0    0  0.15201155495E+02 -0.16134935145E+02  0.43822722176E+01  0.22596804427E+02  0.00000000000E+00 0.  1.
</event>
<event>
 7    1  0.2891523E-011  0.5052893E+02  0.7816164E-02  0.1300439E+00
        -11   -1    0    0    0    0  0.00000000000E+00  0.00000000000E+00  0.45593999997E+02  0.45594000000E+02  0.51100000000E-03 0. -1.
         11   -1    0    0    0    0 -0.00000000000E+00 -0.00000000000E+00 -0.45593999997E+02  0.45594000000E+02  0.51100000000E-03 0.  1.
    9900012    2    1    2    0    0 -0.75673905792E+01 -0.18727779045E+02 -0.35286895378E+02  0.50528928521E+02  0.30000208731E+02 0.  0.
         12    1    1    2    0    0  0.75673905792E+01  0.18727779045E+02  0.35286895378E+02  0.40659071479E+02  0.00000000000E+00 0. -1.
         11    1    3    3    0    0 -0.80341005695E+01 -0.95287577721E+00  0.11632749773E+01  0.81736132244E+01  0.51100000000E-03 0. -1.
        -11    1    3    3    0    0 -0.26483229261E+01 -0.14174729337E+02 -0.34146647420E+02  0.37066563051E+02  0.51100000000E-03 0.  1.
        -12    1    3    3    0    0  0.31150329164E+01 -0.36001739305E+01 -0.23035229350E+01  0.52887522453E+01  0.00000000000E+00 0.  1.
</event>
<event>
 7    1  0.2891523E-011  0.5052886E+02  0.7816164E-02  0.1300439E+00
        -11   -1    0    0    0    0  0.00000000000E+00  0.00000000000E+00  0.45593999997E+02  0.45594000000E+02  0.51100000000E-03 0.  1.
         11   -1    0    0    0    0 -0.00000000000E+00 -0.00000000000E+00 -0.45593999997E+02  0.45594000000E+02  0.51100000000E-03 0. -1.
    9900012    2    1    2    0    0 -0.39638336573E+02  0.90396083057E+01 -0.50346767520E+00  0.50528859277E+02  0.29999998259E+02 0.  0.
         12    1    1    2    0    0  0.39638336573E+02 -0.90396083057E+01  0.50346767520E+00  0.40659140723E+02  0.00000000000E+00 0. -1.
         11    1    3    3    0    0  0.80004190004E-01  0.44772364733E+01 -0.78288986336E+01  0.90190742975E+01  0.51100000000E-03 0. -1.
        -11    1    3    3    0    0 -0.30754718079E+02  0.30633548293E+00  0.38511740130E+01  0.30996420230E+02  0.51100000000E-03 0.  1.
        -12    1    3    3    0    0 -0.89636226847E+01  0.42560363495E+01  0.34742569454E+01  0.10513364750E+02  0.00000000000E+00 0.  1.
</event>
<event>
 7    1  0.2891523E-011  0.5052884E+02  0.7816164E-02  0.1300439E+00
        -11   -1    0    0    0    0  0.00000000000E+00  0.00000000000E+00  0.45593999997E+02  0.45594000000E+02  0.51100000000E-03 0.  1.
         11   -1    0    0    0    0 -0.00000000000E+00 -0.00000000000E+00 -0.45593999997E+02  0.45594000000E+02  0.51100000000E-03 0. -1.
    9900012    2    1    2    0    0  0.30668169422E+02  0.11034390297E+02  0.24307871294E+02  0.50528843691E+02  0.29999950883E+02 0.  0.
         12    1    1    2    0    0 -0.30668169422E+02 -0.11034390297E+02 -0.24307871294E+02  0.40659156309E+02  0.00000000000E+00 0. -1.
         11    1    3    3    0    0  0.92176120695E+01  0.90530809185E+01  0.31712103842E+01  0.13303353786E+02  0.51100000000E-03 0. -1.
        -11    1    3    3    0    0 -0.23376750902E+01 -0.51272683436E+01  0.24171859488E+01  0.61315898156E+01  0.51100000000E-03 0.  1.
        -12    1    3    3    0    0  0.23788232443E+02  0.71085777221E+01  0.18719474961E+02  0.31093900090E+02  0.00000000000E+00 0.  1.
</event>
<event>
 7    1  0.2891523E-011  0.5052885E+02  0.7816164E-02  0.1300439E+00
        -11   -1    0    0    0    0  0.00000000000E+00  0.00000000000E+00  0.45593999997E+02  0.45594000000E+02  0.51100000000E-03 0.  1.
         11   -1    0    0    0    0 -0.00000000000E+00 -0.00000000000E+00 -0.45593999997E+02  0.45594000000E+02  0.51100000000E-03 0. -1.
    9900012    2    1    2    0    0 -0.59857304789E+01 -0.32217256113E+02  0.24070428428E+02  0.50528854835E+02  0.29999984756E+02 0.  0.
         12    1    1    2    0    0  0.59857304789E+01  0.32217256113E+02 -0.24070428428E+02  0.40659145165E+02  0.00000000000E+00 0. -1.
         11    1    3    3    0    0  0.38104072250E+01  0.12276857546E+00  0.51195049124E+01  0.63830718430E+01  0.51100000000E-03 0. -1.
        -11    1    3    3    0    0 -0.16501210276E+02 -0.22126337629E+02  0.12093209162E+02  0.30134871254E+02  0.51100000000E-03 0.  1.
        -12    1    3    3    0    0  0.67050725718E+01 -0.10213687060E+02  0.68577143539E+01  0.14010911738E+02  0.00000000000E+00 0.  1.
</event>
<event>
 7    1  0.2891523E-011  0.5052884E+02  0.7816164E-02  0.1300439E+00
        -11   -1    0    0    0    0  0.00000000000E+00  0.00000000000E+00  0.45593999997E+02  0.45594000000E+02  0.51100000000E-03 0.  1.
         11   -1    0    0    0    0 -0.00000000000E+00 -0.00000000000E+00 -0.45593999997E+02  0.45594000000E+02  0.51100000000E-03 0. -1.
    9900012    2    1    2    0    0  0.27086255701E+02 -0.16460552849E+02  0.25466683963E+02  0.50528843097E+02  0.29999949078E+02 0.  0.
         12    1    1    2    0    0 -0.27086255701E+02  0.16460552849E+02 -0.25466683963E+02  0.40659156903E+02  0.00000000000E+00 0. -1.
         11    1    3    3    0    0  0.11087768603E+02  0.79793803369E+01  0.10955435244E+02  0.17510873331E+02  0.51100000000E-03 0. -1.
        -11    1    3    3    0    0  0.75993896694E+01 -0.11959734404E+02  0.41971574861E+01  0.14778433665E+02  0.51100000000E-03 0.  1.
         12    1    3    3    0    0  0.83990974288E+01 -0.12480198782E+02  0.10314091232E+02  0.18239536101E+02  0.00000000000E+00 0. -1.
</event>
<event>
 7    1  0.2891523E-011  0.5052886E+02  0.7816164E-02  0.1300439E+00
        -11   -1    0    0    0    0  0.00000000000E+00  0.00000000000E+00  0.45593999997E+02  0.45594000000E+02  0.51100000000E-03 0. -1.
         11   -1    0    0    0    0 -0.00000000000E+00 -0.00000000000E+00 -0.45593999997E+02  0.45594000000E+02  0.51100000000E-03 0.  1.
    9900012    2    1    2    0    0  0.25817499827E+02 -0.16737853939E+02 -0.26579441519E+02  0.50528858799E+02  0.29999996804E+02 0.  0.
         12    1    1    2    0    0 -0.25817499827E+02  0.16737853939E+02  0.26579441519E+02  0.40659141201E+02  0.00000000000E+00 0. -1.
         11    1    3    3    0    0  0.13652232954E+02 -0.33202894975E+00 -0.24791023264E+02  0.28303507602E+02  0.51100000000E-03 0. -1.
        -11    1    3    3    0    0  0.42815296344E+01 -0.12775310726E+02 -0.11179975079E+01  0.13519984424E+02  0.51100000000E-03 0.  1.
         12    1    3    3    0    0  0.78837372386E+01 -0.36305142632E+01 -0.67042074737E+00  0.87053667724E+01  0.00000000000E+00 0. -1.
</event>
<event>
 7    1  0.2891523E-011  0.5052886E+02  0.7816164E-02  0.1300439E+00
        -11   -1    0    0    0    0  0.00000000000E+00  0.00000000000E+00  0.45593999997E+02  0.45594000000E+02  0.51100000000E-03 0. -1.
         11   -1    0    0    0    0 -0.00000000000E+00 -0.00000000000E+00 -0.45593999997E+02  0.45594000000E+02  0.51100000000E-03 0.  1.
    9900012    2    1    2    0    0 -0.31147838128E+02 -0.73976871169E+01 -0.25064963227E+02  0.50528856179E+02  0.29999988841E+02 0.  0.
         12    1    1    2    0    0  0.31147838128E+02  0.73976871169E+01  0.25064963227E+02  0.40659143821E+02  0.00000000000E+00 0. -1.
         11    1    3    3    0    0 -0.12452285320E+02  0.39345490820E+01  0.35098325308E+01  0.13522537144E+02  0.51100000000E-03 0. -1.
        -11    1    3    3    0    0 -0.85328489918E+01 -0.34774009466E+00 -0.10912663364E+02  0.13857007507E+02  0.51100000000E-03 0.  1.
         12    1    3    3    0    0 -0.10162703816E+02 -0.10984496104E+02 -0.17662132394E+02  0.23149311528E+02  0.00000000000E+00 0. -1.
</event>
<event>
 7    1  0.2891523E-011  0.5052885E+02  0.7816164E-02  0.1300439E+00
        -11   -1    0    0    0    0  0.00000000000E+00  0.00000000000E+00  0.45593999997E+02  0.45594000000E+02  0.51100000000E-03 0.  1.
         11   -1    0    0    0    0 -0.00000000000E+00 -0.00000000000E+00 -0.45593999997E+02  0.45594000000E+02  0.51100000000E-03 0. -1.
    9900012    2    1    2    0    0  0.76821031435E+01 -0.31349773944E+02  0.24725352186E+02  0.50528854956E+02  0.29999985124E+02 0.  0.
         12    1    1    2    0    0 -0.76821031435E+01  0.31349773944E+02 -0.24725352186E+02  0.40659145044E+02  0.00000000000E+00 0. -1.
         11    1    3    3    0    0  0.10628316992E+02 -0.12515402604E+02 -0.67300382713E+00  0.16433178598E+02  0.51100000000E-03 0. -1.
        -11    1    3    3    0    0  0.79267177252E+00 -0.56984695580E+01  0.17267972079E+02  0.18201201713E+02  0.51100000000E-03 0.  1.
         12    1    3    3    0    0 -0.37388856210E+01 -0.13135901781E+02  0.81303839340E+01  0.15894474644E+02  0.00000000000E+00 0. -1.
</event>
<event>
 7    1  0.2891523E-011  0.5052878E+02  0.7816164E-02  0.1300439E+00
        -11   -1    0    0    0    0  0.00000000000E+00  0.00000000000E+00  0.45593999997E+02  0.45594000000E+02  0.51100000000E-03 0. -1.
         11   -1    0    0    0    0 -0.00000000000E+00 -0.00000000000E+00 -0.45593999997E+02  0.45594000000E+02  0.51100000000E-03 0.  1.
    9900012    2    1    2    0    0  0.37220630557E+02  0.14376654432E+02 -0.78172182434E+01  0.50528776781E+02  0.29999747502E+02 0.  0.
         12    1    1    2    0    0 -0.37220630557E+02 -0.14376654432E+02  0.78172182434E+01  0.40659223219E+02  0.00000000000E+00 0. -1.
         11    1    3    3    0    0  0.36811930027E+01 -0.50515266713E+01  0.62079788327E+01  0.88095462473E+01  0.51100000000E-03 0. -1.
        -11    1    3    3    0    0  0.27741616258E+02  0.18149360328E+02 -0.13371246866E+02  0.35746143791E+02  0.51100000000E-03 0.  1.
         12    1    3    3    0    0  0.57978212964E+01  0.12788207758E+01 -0.65395020998E+00  0.59730867430E+01  0.00000000000E+00 0. -1.
</event>
<event>
 7    1  0.2891523E-011  0.5052887E+02  0.7816164E-02  0.1300439E+00
        -11   -1    0    0    0    0  0.00000000000E+00  0.00000000000E+00  0.45593999997E+02  0.45594000000E+02  0.51100000000E-03 0. -1.
         11   -1    0    0    0    0 -0.00000000000E+00 -0.00000000000E+00 -0.45593999997E+02  0.45594000000E+02  0.51100000000E-03 0.  1.
    9900012    2    1    2    0    0 -0.25906989292E+02  0.25624660595E+02 -0.18038007848E+02  0.50528867546E+02  0.30000023394E+02 0.  0.
         12    1    1    2    0    0  0.25906989292E+02 -0.25624660595E+02  0.18038007848E+02  0.40659132454E+02  0.00000000000E+00 0. -1.
         11    1    3    3    0    0  0.71112456996E-01 -0.10233445876E+01 -0.89455114832E-01  0.10297055915E+01  0.51100000000E-03 0. -1.
        -11    1    3    3    0    0 -0.93536037698E+01  0.25053554361E+02 -0.26902150757E+01  0.26877644001E+02  0.51100000000E-03 0.  1.
        -12    1    3    3    0    0 -0.16624497979E+02  0.15944508211E+01 -0.15258337657E+02  0.22621517954E+02  0.00000000000E+00 0.  1.
</event>
<event>
 7    1  0.2891523E-011  0.5052887E+02  0.7816164E-02  0.1300439E+00
        -11   -1    0    0    0    0  0.00000000000E+00  0.00000000000E+00  0.45593999997E+02  0.45594000000E+02  0.51100000000E-03 0.  1.
         11   -1    0    0    0    0 -0.00000000000E+00 -0.00000000000E+00 -0.45593999997E+02  0.45594000000E+02  0.51100000000E-03 0. -1.
    9900012    2    1    2    0    0  0.28520415314E+02  0.86431090223E+01  0.27659497669E+02  0.50528865300E+02  0.30000016564E+02 0.  0.
         12    1    1    2    0    0 -0.28520415314E+02 -0.86431090223E+01 -0.27659497669E+02  0.40659134700E+02  0.00000000000E+00 0. -1.
         11    1    3    3    0    0 -0.56426832686E+01 -0.55108470801E+00  0.61489050944E+01  0.83637672700E+01  0.51100000000E-03 0. -1.
        -11    1    3    3    0    0  0.32904579396E+02  0.75715610692E+01  0.21645885339E+02  0.40107159394E+02  0.51100000000E-03 0.  1.
         12    1    3    3    0    0  0.12585191870E+01  0.16226326611E+01 -0.13529276433E+00  0.20579386359E+01  0.00000000000E+00 0. -1.
</event>
<event>
 7    1  0.2891523E-011  0.5052886E+02  0.7816164E-02  0.1300439E+00
        -11   -1    0    0    0    0  0.00000000000E+00  0.00000000000E+00  0.45593999997E+02  0.45594000000E+02  0.51100000000E-03 0. -1.
         11   -1    0    0    0    0 -0.00000000000E+00 -0.00000000000E+00 -0.45593999997E+02  0.45594000000E+02  0.51100000000E-03 0.  1.
    9900012    2    1    2    0    0  0.35402493035E+02 -0.17981576559E+02 -0.87459856356E+01  0.50528857444E+02  0.29999992686E+02 0.  0.
         12    1    1    2    0    0 -0.35402493035E+02  0.17981576559E+02  0.87459856356E+01  0.40659142556E+02  0.00000000000E+00 0. -1.
         11    1    3    3    0    0 -0.10365196920E+01 -0.60164319332E+00  0.55952025025E+00  0.13226529309E+01  0.51100000000E-03 0. -1.
        -11    1    3    3    0    0  0.34407061486E+02 -0.18706024038E+02 -0.15832724868E+02  0.42242589793E+02  0.51100000000E-03 0.  1.
        -12    1    3    3    0    0  0.20319512415E+01  0.13260906725E+01  0.65272189825E+01  0.69636147198E+01  0.00000000000E+00 0.  1.
</event>
<event>
 7    1  0.2891523E-011  0.5052885E+02  0.7816164E-02  0.1300439E+00
        -11   -1    0    0    0    0  0.00000000000E+00  0.00000000000E+00  0.45593999997E+02  0.45594000000E+02  0.51100000000E-03 0.  1.
         11   -1    0    0    0    0 -0.00000000000E+00 -0.00000000000E+00 -0.45593999997E+02  0.45594000000E+02  0.51100000000E-03 0. -1.
    9900012    2    1    2    0    0  0.20811578733E+02  0.28595482290E+02  0.20058481202E+02  0.50528854843E+02  0.29999984780E+02 0.  0.
         12    1    1    2    0    0 -0.20811578733E+02 -0.28595482290E+02 -0.20058481202E+02  0.40659145157E+02  0.00000000000E+00 0. -1.
         11    1    3    3    0    0  0.74651818618E+01  0.20384080999E+02  0.13880726226E+02  0.25766533706E+02  0.51100000000E-03 0.  1.
        -11    1    3    3    0    0  0.15469717623E+02  0.18424763884E+01 -0.87720908126E-01  0.15579299657E+02  0.51100000000E-03 0. -1.
        -12    1    3    3    0    0 -0.21233207518E+01  0.63689249030E+01  0.62654758845E+01  0.91830214796E+01  0.00000000000E+00 0.  1.
</event>
<event>
 7    1  0.2891523E-011  0.5052886E+02  0.7816164E-02  0.1300439E+00
        -11   -1    0    0    0    0  0.00000000000E+00  0.00000000000E+00  0.45593999997E+02  0.45594000000E+02  0.51100000000E-03 0.  1.
         11   -1    0    0    0    0 -0.00000000000E+00 -0.00000000000E+00 -0.45593999997E+02  0.45594000000E+02  0.51100000000E-03 0. -1.
    9900012    2    1    2    0    0 -0.27952930775E+02 -0.25148281290E+02  0.15471375338E+02  0.50528857786E+02  0.29999993726E+02 0.  0.
         12    1    1    2    0    0  0.27952930775E+02  0.25148281290E+02 -0.15471375338E+02  0.40659142214E+02  0.00000000000E+00 0. -1.
         11    1    3    3    0    0 -0.20446811154E+02 -0.17448703091E+02 -0.39687953558E+01  0.27171320593E+02  0.51100000000E-03 0. -1.
        -11    1    3    3    0    0 -0.44957007691E+01 -0.19739516540E+01  0.14224256256E+02  0.15047832962E+02  0.51100000000E-03 0.  1.
         12    1    3    3    0    0 -0.30104188520E+01 -0.57256265450E+01  0.52159144370E+01  0.83097042313E+01  0.00000000000E+00 0. -1.
</event>
<event>
 7    1  0.2891523E-011  0.5052886E+02  0.7816164E-02  0.1300439E+00
        -11   -1    0    0    0    0  0.00000000000E+00  0.00000000000E+00  0.45593999997E+02  0.45594000000E+02  0.51100000000E-03 0.  1.
         11   -1    0    0    0    0 -0.00000000000E+00 -0.00000000000E+00 -0.45593999997E+02  0.45594000000E+02  0.51100000000E-03 0. -1.
    9900012    2    1    2    0    0 -0.21384244397E+02 -0.20392091040E+02  0.27929239217E+02  0.50528859716E+02  0.29999999591E+02 0.  0.
         12    1    1    2    0    0  0.21384244397E+02  0.20392091040E+02 -0.27929239217E+02  0.40659140284E+02  0.00000000000E+00 0. -1.
         11    1    3    3    0    0  0.33655273304E+01 -0.49960535407E+01  0.14924753313E+02  0.16094582532E+02  0.51100000000E-03 0. -1.
        -11    1    3    3    0    0 -0.19843557906E+02 -0.15688573888E+02  0.14673169533E+02  0.29243803538E+02  0.51100000000E-03 0.  1.
         12    1    3    3    0    0 -0.49062138220E+01  0.29253638830E+00 -0.16686836282E+01  0.51904736448E+01  0.00000000000E+00 0. -1.
</event>
<event>
 7    1  0.2891523E-011  0.5052886E+02  0.7816164E-02  0.1300439E+00
        -11   -1    0    0    0    0  0.00000000000E+00  0.00000000000E+00  0.45593999997E+02  0.45594000000E+02  0.51100000000E-03 0. -1.
         11   -1    0    0    0    0 -0.00000000000E+00 -0.00000000000E+00 -0.45593999997E+02  0.45594000000E+02  0.51100000000E-03 0.  1.
    9900012    2    1    2    0    0 -0.14037565339E+02 -0.55783072158E+01 -0.37749105973E+02  0.50528858915E+02  0.29999997157E+02 0.  0.
         12    1    1    2    0    0  0.14037565339E+02  0.55783072158E+01  0.37749105973E+02  0.40659141085E+02  0.00000000000E+00 0. -1.
         11    1    3    3    0    0 -0.19334342647E+01 -0.56459607810E+00 -0.13753198466E+01  0.24389427482E+01  0.51100000000E-03 0. -1.
        -11    1    3    3    0    0 -0.21166258683E+02 -0.41851147681E+00 -0.26546015698E+02  0.33954036699E+02  0.51100000000E-03 0.  1.
        -12    1    3    3    0    0  0.90621276084E+01 -0.45951996609E+01 -0.98277704283E+01  0.14135879467E+02  0.00000000000E+00 0.  1.
</event>
<event>
 7    1  0.2891523E-011  0.5052890E+02  0.7816164E-02  0.1300439E+00
        -11   -1    0    0    0    0  0.00000000000E+00  0.00000000000E+00  0.45593999997E+02  0.45594000000E+02  0.51100000000E-03 0. -1.
         11   -1    0    0    0    0 -0.00000000000E+00 -0.00000000000E+00 -0.45593999997E+02  0.45594000000E+02  0.51100000000E-03 0.  1.
    9900012    2    1    2    0    0  0.34911379135E+02 -0.26366253071E+01 -0.20673809074E+02  0.50528898095E+02  0.30000116248E+02 0.  0.
         12    1    1    2    0    0 -0.34911379135E+02  0.26366253071E+01  0.20673809074E+02  0.40659101905E+02  0.00000000000E+00 0. -1.
         11    1    3    3    0    0  0.13553300442E+02 -0.15425251127E+02 -0.10023500485E+02  0.22849527073E+02  0.51100000000E-03 0. -1.
        -11    1    3    3    0    0  0.13043386750E+02  0.54147992086E+01 -0.38024561445E+01  0.14625616615E+02  0.51100000000E-03 0.  1.
         12    1    3    3    0    0  0.83146919429E+01  0.73738266116E+01 -0.68478524442E+01  0.13053754406E+02  0.00000000000E+00 0. -1.
</event>
<event>
 7    1  0.2891523E-011  0.5052889E+02  0.7816164E-02  0.1300439E+00
        -11   -1    0    0    0    0  0.00000000000E+00  0.00000000000E+00  0.45593999997E+02  0.45594000000E+02  0.51100000000E-03 0. -1.
         11   -1    0    0    0    0 -0.00000000000E+00 -0.00000000000E+00 -0.45593999997E+02  0.45594000000E+02  0.51100000000E-03 0.  1.
    9900012    2    1    2    0    0  0.39210233463E+02  0.76430905845E+01  0.75699256795E+01  0.50528892573E+02  0.30000099466E+02 0.  0.
         12    1    1    2    0    0 -0.39210233463E+02 -0.76430905845E+01 -0.75699256795E+01  0.40659107427E+02  0.00000000000E+00 0. -1.
         11    1    3    3    0    0  0.27822908326E+01  0.71911623213E+01  0.78519987784E+00  0.77505159130E+01  0.51100000000E-03 0. -1.
        -11    1    3    3    0    0  0.24624722696E+02  0.67163165114E+00  0.14586019093E+02  0.28628307847E+02  0.51100000000E-03 0.  1.
        -12    1    3    3    0    0  0.11803219935E+02 -0.21970338789E+00 -0.78012932914E+01  0.14150068813E+02  0.00000000000E+00 0.  1.
</event>
<event>
 7    1  0.2891523E-011  0.5052885E+02  0.7816164E-02  0.1300439E+00
        -11   -1    0    0    0    0  0.00000000000E+00  0.00000000000E+00  0.45593999997E+02  0.45594000000E+02  0.51100000000E-03 0.  1.
         11   -1    0    0    0    0 -0.00000000000E+00 -0.00000000000E+00 -0.45593999997E+02  0.45594000000E+02  0.51100000000E-03 0. -1.
    9900012    2    1    2    0    0  0.38453354154E+02 -0.13280262428E+01  0.13143157171E+02  0.50528847527E+02  0.29999962543E+02 0.  0.
         12    1    1    2    0    0 -0.38453354154E+02  0.13280262428E+01 -0.13143157171E+02  0.40659152473E+02  0.00000000000E+00 0. -1.
         11    1    3    3    0    0  0.30421588336E+01  0.33610273086E+01 -0.68008327702E+01  0.81732834019E+01  0.51100000000E-03 0. -1.
        -11    1    3    3    0    0  0.13027004206E+02  0.12963000722E+01  0.24406399961E+01  0.13316904907E+02  0.51100000000E-03 0.  1.
         12    1    3    3    0    0  0.22384191115E+02 -0.59853536236E+01  0.17503349945E+02  0.29038659218E+02  0.00000000000E+00 0. -1.
</event>
<event>
 7    1  0.2891523E-011  0.5052886E+02  0.7816164E-02  0.1300439E+00
        -11   -1    0    0    0    0  0.00000000000E+00  0.00000000000E+00  0.45593999997E+02  0.45594000000E+02  0.51100000000E-03 0. -1.
         11   -1    0    0    0    0 -0.00000000000E+00 -0.00000000000E+00 -0.45593999997E+02  0.45594000000E+02  0.51100000000E-03 0.  1.
    9900012    2    1    2    0    0  0.88081973430E+01 -0.15482095485E+02 -0.36549770959E+02  0.50528863533E+02  0.30000011196E+02 0.  0.
         12    1    1    2    0    0 -0.88081973430E+01  0.15482095485E+02  0.36549770959E+02  0.40659136467E+02  0.00000000000E+00 0. -1.
         11    1    3    3    0    0 -0.15553894972E+01  0.76719347368E+00 -0.21148060844E+02  0.21219055117E+02  0.51100000000E-03 0. -1.
        -11    1    3    3    0    0  0.86275808709E+01 -0.15505212658E+02 -0.18529998272E+02  0.25655557049E+02  0.51100000000E-03 0.  1.
         12    1    3    3    0    0  0.17360059693E+01 -0.74407630051E+00  0.31282881569E+01  0.36542513678E+01  0.00000000000E+00 0. -1.
</event>
<event>
 7    1  0.2891523E-011  0.5052890E+02  0.7816164E-02  0.1300439E+00
        -11   -1    0    0    0    0  0.00000000000E+00  0.00000000000E+00  0.45593999997E+02  0.45594000000E+02  0.51100000000E-03 0.  1.
         11   -1    0    0    0    0 -0.00000000000E+00 -0.00000000000E+00 -0.45593999997E+02  0.45594000000E+02  0.51100000000E-03 0. -1.
    9900012    2    1    2    0    0 -0.24841920844E+01  0.23184775185E+02  0.33308522465E+02  0.50528896721E+02  0.30000112073E+02 0.  0.
         12    1    1    2    0    0  0.24841920844E+01 -0.23184775185E+02 -0.33308522465E+02  0.40659103279E+02  0.00000000000E+00 0. -1.
         11    1    3    3    0    0 -0.11324353444E+02  0.17687929387E+02  0.10188876228E+02  0.23343457884E+02  0.51100000000E-03 0. -1.
        -11    1    3    3    0    0  0.19344885154E+01  0.54171646337E+01  0.17039390949E+02  0.17984125295E+02  0.51100000000E-03 0.  1.
         12    1    3    3    0    0  0.69056728439E+01  0.79681163453E-01  0.60802552885E+01  0.92013135415E+01  0.00000000000E+00 0. -1.
</event>
<event>
 7    1  0.2891523E-011  0.5052886E+02  0.7816164E-02  0.1300439E+00
        -11   -1    0    0    0    0  0.00000000000E+00  0.00000000000E+00  0.45593999997E+02  0.45594000000E+02  0.51100000000E-03 0.  1.
         11   -1    0    0    0    0 -0.00000000000E+00 -0.00000000000E+00 -0.45593999997E+02  0.45594000000E+02  0.51100000000E-03 0. -1.
    9900012    2    1    2    0    0  0.84117295024E+01  0.16368530983E+02  0.36255755365E+02  0.50528858385E+02  0.29999995548E+02 0.  0.
         12    1    1    2    0    0 -0.84117295024E+01 -0.16368530983E+02 -0.36255755365E+02  0.40659141615E+02  0.00000000000E+00 0. -1.
         11    1    3    3    0    0  0.39831010160E+01  0.87491661939E+00 -0.31145917916E+00  0.40899364147E+01  0.51100000000E-03 0. -1.
        -11    1    3    3    0    0  0.11767832565E+02  0.16301917597E+02  0.31888988820E+02  0.37698037202E+02  0.51100000000E-03 0.  1.
        -12    1    3    3    0    0 -0.73392040784E+01 -0.80830323424E+00  0.46782257241E+01  0.87408847692E+01  0.00000000000E+00 0.  1.
</event>
<event>
 7    1  0.2891523E-011  0.5052886E+02  0.7816164E-02  0.1300439E+00
        -11   -1    0    0    0    0  0.00000000000E+00  0.00000000000E+00  0.45593999997E+02  0.45594000000E+02  0.51100000000E-03 0.  1.
         11   -1    0    0    0    0 -0.00000000000E+00 -0.00000000000E+00 -0.45593999997E+02  0.45594000000E+02  0.51100000000E-03 0. -1.
    9900012    2    1    2    0    0  0.24676829507E+02  0.22281750758E+02  0.23403915318E+02  0.50528861008E+02  0.30000003521E+02 0.  0.
         12    1    1    2    0    0 -0.24676829507E+02 -0.22281750758E+02 -0.23403915318E+02  0.40659138992E+02  0.00000000000E+00 0. -1.
         11    1    3    3    0    0  0.23899189100E+02  0.18583808017E+02  0.13377878634E+02  0.33098289942E+02  0.51100000000E-03 0. -1.
        -11    1    3    3    0    0 -0.60194038430E+01 -0.59920914577E+00  0.56409347639E+01  0.82711800547E+01  0.51100000000E-03 0.  1.
        -12    1    3    3    0    0  0.67970442495E+01  0.42971518868E+01  0.43851019198E+01  0.91593910122E+01  0.00000000000E+00 0.  1.
</event>
<event>
 7    1  0.2891523E-011  0.5052895E+02  0.7816164E-02  0.1300438E+00
        -11   -1    0    0    0    0  0.00000000000E+00  0.00000000000E+00  0.45593999997E+02  0.45594000000E+02  0.51100000000E-03 0. -1.
         11   -1    0    0    0    0 -0.00000000000E+00 -0.00000000000E+00 -0.45593999997E+02  0.45594000000E+02  0.51100000000E-03 0.  1.
    9900012    2    1    2    0    0 -0.23290105662E+02  0.32862313887E+01 -0.33165188725E+02  0.50528953262E+02  0.30000283934E+02 0.  0.
         12    1    1    2    0    0  0.23290105662E+02 -0.32862313887E+01  0.33165188725E+02  0.40659046738E+02  0.00000000000E+00 0. -1.
         11    1    3    3    0    0  0.32686003766E+01 -0.64790445126E+01 -0.49023543464E+01  0.87575592842E+01  0.51100000000E-03 0. -1.
        -11    1    3    3    0    0 -0.16849337959E+02  0.10680461851E+02 -0.13535336942E+02  0.24107629527E+02  0.51100000000E-03 0.  1.
        -12    1    3    3    0    0 -0.97093680792E+01 -0.91518595004E+00 -0.14727497436E+02  0.17663764450E+02  0.00000000000E+00 0.  1.
</event>
<event>
 7    1  0.2891523E-011  0.5052886E+02  0.7816164E-02  0.1300439E+00
        -11   -1    0    0    0    0  0.00000000000E+00  0.00000000000E+00  0.45593999997E+02  0.45594000000E+02  0.51100000000E-03 0. -1.
         11   -1    0    0    0    0 -0.00000000000E+00 -0.00000000000E+00 -0.45593999997E+02  0.45594000000E+02  0.51100000000E-03 0.  1.
    9900012    2    1    2    0    0 -0.19528287505E+02 -0.35317523205E+02  0.49481402457E+01  0.50528861420E+02  0.30000004771E+02 0.  0.
         12    1    1    2    0    0  0.19528287505E+02  0.35317523205E+02 -0.49481402457E+01  0.40659138580E+02  0.00000000000E+00 0. -1.
         11    1    3    3    0    0  0.27690838242E+01 -0.24906877657E+01 -0.67870749866E+00  0.37857621296E+01  0.51100000000E-03 0. -1.
        -11    1    3    3    0    0 -0.27498468264E+02 -0.26230235784E+02  0.46713965928E+01  0.38288548844E+02  0.51100000000E-03 0.  1.
        -12    1    3    3    0    0  0.52010969355E+01 -0.65965996557E+01  0.95545115155E+00  0.84545504465E+01  0.00000000000E+00 0.  1.
</event>
<event>
 7    1  0.2891523E-011  0.5052873E+02  0.7816164E-02  0.1300439E+00
        -11   -1    0    0    0    0  0.00000000000E+00  0.00000000000E+00  0.45593999997E+02  0.45594000000E+02  0.51100000000E-03 0. -1.
         11   -1    0    0    0    0 -0.00000000000E+00 -0.00000000000E+00 -0.45593999997E+02  0.45594000000E+02  0.51100000000E-03 0.  1.
    9900012    2    1    2    0    0 -0.99836100888E+01 -0.38751011905E+02  0.72016032241E+01  0.50528726973E+02  0.29999596105E+02 0.  0.
         12    1    1    2    0    0  0.99836100888E+01  0.38751011905E+02 -0.72016032241E+01  0.40659273027E+02  0.00000000000E+00 0. -1.
         11    1    3    3    0    0  0.31076967863E-01 -0.25150623214E+02  0.92815550615E+01  0.26808619481E+02  0.51100000000E-03 0. -1.
        -11    1    3    3    0    0 -0.10435129427E+02 -0.72417773429E+01  0.54792796400E+01  0.13833212601E+02  0.51100000000E-03 0.  1.
         12    1    3    3    0    0  0.42044237023E+00 -0.63586113478E+01 -0.75592314773E+01  0.98868948910E+01  0.00000000000E+00 0. -1.
</event>
<event>
 7    1  0.2891523E-011  0.5052886E+02  0.7816164E-02  0.1300439E+00
        -11   -1    0    0    0    0  0.00000000000E+00  0.00000000000E+00  0.45593999997E+02  0.45594000000E+02  0.51100000000E-03 0.  1.
         11   -1    0    0    0    0 -0.00000000000E+00 -0.00000000000E+00 -0.45593999997E+02  0.45594000000E+02  0.51100000000E-03 0. -1.
    9900012    2    1    2    0    0 -0.82830562760E+01  0.34060297343E+02  0.20602243031E+02  0.50528864566E+02  0.30000014335E+02 0.  0.
         12    1    1    2    0    0  0.82830562760E+01 -0.34060297343E+02 -0.20602243031E+02  0.40659135434E+02  0.00000000000E+00 0. -1.
         11    1    3    3    0    0  0.40101324608E+01 -0.30092686475E+01  0.23627117129E+01  0.55424964633E+01  0.51100000000E-03 0. -1.
        -11    1    3    3    0    0 -0.10661418107E+02  0.13203885191E+02  0.52420456911E+01  0.17761966769E+02  0.51100000000E-03 0.  1.
        -12    1    3    3    0    0 -0.16317706296E+01  0.23865680799E+02  0.12997485627E+02  0.27224401334E+02  0.00000000000E+00 0.  1.
</event>
<event>
 7    1  0.2891523E-011  0.5052886E+02  0.7816164E-02  0.1300439E+00
        -11   -1    0    0    0    0  0.00000000000E+00  0.00000000000E+00  0.45593999997E+02  0.45594000000E+02  0.51100000000E-03 0.  1.
         11   -1    0    0    0    0 -0.00000000000E+00 -0.00000000000E+00 -0.45593999997E+02  0.45594000000E+02  0.51100000000E-03 0. -1.
    9900012    2    1    2    0    0 -0.28053560144E+02 -0.22340508695E+02  0.19158951598E+02  0.50528855987E+02  0.29999988259E+02 0.  0.
         12    1    1    2    0    0  0.28053560144E+02  0.22340508695E+02 -0.19158951598E+02  0.40659144013E+02  0.00000000000E+00 0. -1.
         11    1    3    3    0    0 -0.28046477902E+01 -0.11329821580E+02 -0.20450190397E+01  0.11849599546E+02  0.51100000000E-03 0. -1.
        -11    1    3    3    0    0 -0.16955322150E+02 -0.13711329548E+02  0.20499780437E+02  0.29928656927E+02  0.51100000000E-03 0.  1.
        -12    1    3    3    0    0 -0.82935902039E+01  0.27006424343E+01  0.70419020089E+00  0.87505995147E+01  0.00000000000E+00 0.  1.
</event>
<event>
 7    1  0.2891523E-011  0.5052886E+02  0.7816164E-02  0.1300439E+00
        -11   -1    0    0    0    0  0.00000000000E+00  0.00000000000E+00  0.45593999997E+02  0.45594000000E+02  0.51100000000E-03 0. -1.
         11   -1    0    0    0    0 -0.00000000000E+00 -0.00000000000E+00 -0.45593999997E+02  0.45594000000E+02  0.51100000000E-03 0.  1.
    9900012    2    1    2    0    0  0.16096433900E+02 -0.83996971795E+01 -0.36380152946E+02  0.50528860494E+02  0.30000001957E+02 0.  0.
         12    1    1    2    0    0 -0.16096433900E+02  0.83996971795E+01  0.36380152946E+02  0.40659139506E+02  0.00000000000E+00 0. -1.
         11    1    3    3    0    0  0.29550460762E+00  0.55855268891E+01 -0.51873370655E+00  0.56173408764E+01  0.51100000000E-03 0. -1.
        -11    1    3    3    0    0  0.19393487655E+02 -0.10611478801E+02 -0.29116062468E+02  0.36557570210E+02  0.51100000000E-03 0.  1.
         12    1    3    3    0    0 -0.35925583632E+01 -0.33737452680E+01 -0.67453567715E+01  0.83539494074E+01  0.00000000000E+00 0. -1.
</event>
<event>
 7    1  0.2891523E-011  0.5052888E+02  0.7816164E-02  0.1300439E+00
        -11   -1    0    0    0    0  0.00000000000E+00  0.00000000000E+00  0.45593999997E+02  0.45594000000E+02  0.51100000000E-03 0.  1.
         11   -1    0    0    0    0 -0.00000000000E+00 -0.00000000000E+00 -0.45593999997E+02  0.45594000000E+02  0.51100000000E-03 0. -1.
    9900012    2    1    2    0    0 -0.29701630659E+02 -0.14425631445E+02  0.23725055966E+02  0.50528880642E+02  0.30000063199E+02 0.  0.
         12    1    1    2    0    0  0.29701630659E+02  0.14425631445E+02 -0.23725055966E+02  0.40659119358E+02  0.00000000000E+00 0. -1.
         11    1    3    3    0    0 -0.51460907890E+01  0.66961313783E+01  0.68267411397E+01  0.10859319532E+02  0.51100000000E-03 0. -1.
        -11    1    3    3    0    0 -0.95519147490E+01 -0.17777362730E+02  0.68812889165E+01  0.21321956721E+02  0.51100000000E-03 0.  1.
        -12    1    3    3    0    0 -0.15003625121E+02 -0.33444000941E+01  0.10017025910E+02  0.18347604389E+02  0.00000000000E+00 0.  1.
</event>
<event>
 7    1  0.2891523E-011  0.5052887E+02  0.7816164E-02  0.1300439E+00
        -11   -1    0    0    0    0  0.00000000000E+00  0.00000000000E+00  0.45593999997E+02  0.45594000000E+02  0.51100000000E-03 0. -1.
         11   -1    0    0    0    0 -0.00000000000E+00 -0.00000000000E+00 -0.45593999997E+02  0.45594000000E+02  0.51100000000E-03 0.  1.
    9900012    2    1    2    0    0  0.26987219686E+02  0.28798796793E+02 -0.97715956606E+01  0.50528870584E+02  0.30000032628E+02 0.  0.
         12    1    1    2    0    0 -0.26987219686E+02 -0.28798796793E+02  0.97715956606E+01  0.40659129416E+02  0.00000000000E+00 0. -1.
         11    1    3    3    0    0  0.24867705794E+02  0.21288820889E+02 -0.32258102410E+01  0.32894110997E+02  0.51100000000E-03 0.  1.
        -11    1    3    3    0    0 -0.71856360546E+00 -0.42328095989E+01 -0.17857174469E+01  0.46499244959E+01  0.51100000000E-03 0. -1.
         12    1    3    3    0    0  0.28380774970E+01  0.11742785503E+02 -0.47600679727E+01  0.12984835091E+02  0.00000000000E+00 0. -1.
</event>
<event>
 7    1  0.2891523E-011  0.5052886E+02  0.7816164E-02  0.1300439E+00
        -11   -1    0    0    0    0  0.00000000000E+00  0.00000000000E+00  0.45593999997E+02  0.45594000000E+02  0.51100000000E-03 0.  1.
         11   -1    0    0    0    0 -0.00000000000E+00 -0.00000000000E+00 -0.45593999997E+02  0.45594000000E+02  0.51100000000E-03 0. -1.
    9900012    2    1    2    0    0 -0.37422550633E+02  0.40038686007E+01 -0.15384639575E+02  0.50528863333E+02  0.30000010588E+02 0.  0.
         12    1    1    2    0    0  0.37422550633E+02 -0.40038686007E+01  0.15384639575E+02  0.40659136667E+02  0.00000000000E+00 0. -1.
         11    1    3    3    0    0 -0.31221314373E+02  0.60512021807E+01 -0.19578024799E+02  0.37345502732E+02  0.51100000000E-03 0. -1.
        -11    1    3    3    0    0  0.19197331433E+01 -0.31310204618E+01  0.33077820951E+01  0.49426801559E+01  0.51100000000E-03 0.  1.
        -12    1    3    3    0    0 -0.81209694029E+01  0.10836868819E+01  0.88560312912E+00  0.82406804454E+01  0.00000000000E+00 0.  1.
</event>
<event>
 7    1  0.2891523E-011  0.5052892E+02  0.7816164E-02  0.1300439E+00
        -11   -1    0    0    0    0  0.00000000000E+00  0.00000000000E+00  0.45593999997E+02  0.45594000000E+02  0.51100000000E-03 0. -1.
         11   -1    0    0    0    0 -0.00000000000E+00 -0.00000000000E+00 -0.45593999997E+02  0.45594000000E+02  0.51100000000E-03 0.  1.
    9900012    2    1    2    0    0  0.10248522143E+02 -0.21169189041E+02 -0.33166160884E+02  0.50528917392E+02  0.30000174903E+02 0.  0.
         12    1    1    2    0    0 -0.10248522143E+02  0.21169189041E+02  0.33166160884E+02  0.40659082608E+02  0.00000000000E+00 0. -1.
         11    1    3    3    0    0  0.26936338923E+01  0.39941804826E+01 -0.53661807880E+01  0.72114518500E+01  0.51100000000E-03 0. -1.
        -11    1    3    3    0    0  0.10290426436E+02 -0.27214134016E+02 -0.21596008982E+02  0.36233818053E+02  0.51100000000E-03 0.  1.
        -12    1    3    3    0    0 -0.27355381854E+01  0.20507644924E+01 -0.62039711141E+01  0.70836474892E+01  0.00000000000E+00 0.  1.
</event>
<event>
 7    1  0.2891523E-011  0.5052886E+02  0.7816164E-02  0.1300439E+00
        -11   -1    0    0    0    0  0.00000000000E+00  0.00000000000E+00  0.45593999997E+02  0.45594000000E+02  0.51100000000E-03 0. -1.
         11   -1    0    0    0    0 -0.00000000000E+00 -0.00000000000E+00 -0.45593999997E+02  0.45594000000E+02  0.51100000000E-03 0.  1.
    9900012    2    1    2    0    0 -0.37586807091E+02 -0.10221990994E+02  0.11657978767E+02  0.50528860362E+02  0.30000001555E+02 0.  0.
         12    1    1    2    0    0  0.37586807091E+02  0.10221990994E+02 -0.11657978767E+02  0.40659139638E+02  0.00000000000E+00 0. -1.
         11    1    3    3    0    0 -0.23570009933E+02  0.31931595895E+01  0.11875996112E+02  0.26585351611E+02  0.51100000000E-03 0. -1.
        -11    1    3    3    0    0 -0.35105792823E+01 -0.22937941892E+01 -0.62262954871E+01  0.75068245239E+01  0.51100000000E-03 0.  1.
         12    1    3    3    0    0 -0.10506217876E+02 -0.11121356394E+02  0.60082781427E+01  0.16436684226E+02  0.00000000000E+00 0. -1.
</event>
<event>
 7    1  0.2891523E-011  0.5052885E+02  0.7816164E-02  0.1300439E+00
        -11   -1    0    0    0    0  0.00000000000E+00  0.00000000000E+00  0.45593999997E+02  0.45594000000E+02  0.51100000000E-03 0. -1.
         11   -1    0    0    0    0 -0.00000000000E+00 -0.00000000000E+00 -0.45593999997E+02  0.45594000000E+02  0.51100000000E-03 0.  1.
    9900012    2    1    2    0    0  0.24671879913E+02 -0.32315167302E+02 -0.44137449274E+00  0.50528849644E+02  0.29999968979E+02 0.  0.
         12    1    1    2    0    0 -0.24671879913E+02  0.32315167302E+02  0.44137449274E+00  0.40659150356E+02  0.00000000000E+00 0. -1.
         11    1    3    3    0    0  0.30576668164E+02 -0.24593434422E+02 -0.36978721273E+01  0.39413752818E+02  0.51100000000E-03 0. -1.
        -11    1    3    3    0    0 -0.36318149601E+01 -0.62457750743E+01  0.48878610604E+00  0.72414569185E+01  0.51100000000E-03 0.  1.
         12    1    3    3    0    0 -0.22729732913E+01 -0.14759578059E+01  0.27677115285E+01  0.38736399075E+01  0.00000000000E+00 0. -1.
</event>
<event>
 7    1  0.2891523E-011  0.5052886E+02  0.7816164E-02  0.1300439E+00
        -11   -1    0    0    0    0  0.00000000000E+00  0.00000000000E+00  0.45593999997E+02  0.45594000000E+02  0.51100000000E-03 0.  1.
         11   -1    0    0    0    0 -0.00000000000E+00 -0.00000000000E+00 -0.45593999997E+02  0.45594000000E+02  0.51100000000E-03 0. -1.
    9900012    2    1    2    0    0 -0.28600159194E+02  0.94010285575E+01  0.27327959861E+02  0.50528857929E+02  0.29999994160E+02 0.  0.
         12    1    1    2    0    0  0.28600159194E+02 -0.94010285575E+01 -0.27327959861E+02  0.40659142071E+02  0.00000000000E+00 0. -1.
         11    1    3    3    0    0 -0.94006437456E+01  0.21963784127E+01  0.20094203601E+02  0.22292895720E+02  0.51100000000E-03 0.  1.
        -11    1    3    3    0    0 -0.20869593749E+02  0.44130813989E+01  0.11801744380E+01  0.21363708541E+02  0.51100000000E-03 0. -1.
         12    1    3    3    0    0  0.16700783008E+01  0.27915687459E+01  0.60535818216E+01  0.68722536671E+01  0.00000000000E+00 0. -1.
</event>
<event>
 7    1  0.2891523E-011  0.5052887E+02  0.7816164E-02  0.1300439E+00
        -11   -1    0    0    0    0  0.00000000000E+00  0.00000000000E+00  0.45593999997E+02  0.45594000000E+02  0.51100000000E-03 0.  1.
         11   -1    0    0    0    0 -0.00000000000E+00 -0.00000000000E+00 -0.45593999997E+02  0.45594000000E+02  0.51100000000E-03 0. -1.
    9900012    2    1    2    0    0 -0.29951362079E+02 -0.19672180769E+02  0.19211618475E+02  0.50528867311E+02  0.30000022678E+02 0.  0.
         12    1    1    2    0    0  0.29951362079E+02  0.19672180769E+02 -0.19211618475E+02  0.40659132689E+02  0.00000000000E+00 0. -1.
         11    1    3    3    0    0 -0.19309491191E+02 -0.17038777716E+02  0.16966673855E+02  0.30839008059E+02  0.51100000000E-03 0.  1.
        -11    1    3    3    0    0  0.42252189232E+01 -0.73912553482E+00  0.19188799161E+01  0.46990298891E+01  0.51100000000E-03 0. -1.
        -12    1    3    3    0    0 -0.14867089812E+02 -0.18942775184E+01  0.32606470398E+00  0.14990829363E+02  0.00000000000E+00 0.  1.
</event>
<event>
 7    1  0.2891523E-011  0.5052887E+02  0.7816164E-02  0.1300439E+00
        -11   -1    0    0    0    0  0.00000000000E+00  0.00000000000E+00  0.45593999997E+02  0.45594000000E+02  0.51100000000E-03 0.  1.
         11   -1    0    0    0    0 -0.00000000000E+00 -0.00000000000E+00 -0.45593999997E+02  0.45594000000E+02  0.51100000000E-03 0. -1.
    9900012    2    1    2    0    0 -0.31943922874E+01 -0.37888865583E+02 -0.14401203541E+02  0.50528868914E+02  0.30000027550E+02 0.  0.
         12    1    1    2    0    0  0.31943922874E+01  0.37888865583E+02  0.14401203541E+02  0.40659131086E+02  0.00000000000E+00 0. -1.
         11    1    3    3    0    0 -0.11836401733E+02 -0.22682946070E+02 -0.35742971647E+01  0.25833932122E+02  0.51100000000E-03 0. -1.
        -11    1    3    3    0    0  0.11706198477E+02 -0.13277008584E+02 -0.11363924424E+02  0.21034562470E+02  0.51100000000E-03 0.  1.
        -12    1    3    3    0    0 -0.30641890313E+01 -0.19289109295E+01  0.53701804752E+00  0.36603743220E+01  0.00000000000E+00 0.  1.
</event>
<event>
 7    1  0.2891523E-011  0.5052886E+02  0.7816164E-02  0.1300439E+00
        -11   -1    0    0    0    0  0.00000000000E+00  0.00000000000E+00  0.45593999997E+02  0.45594000000E+02  0.51100000000E-03 0.  1.
         11   -1    0    0    0    0 -0.00000000000E+00 -0.00000000000E+00 -0.45593999997E+02  0.45594000000E+02  0.51100000000E-03 0. -1.
    9900012    2    1    2    0    0 -0.30417577293E+02  0.21176125620E+02  0.16718513878E+02  0.50528855753E+02  0.29999987546E+02 0.  0.
         12    1    1    2    0    0  0.30417577293E+02 -0.21176125620E+02 -0.16718513878E+02  0.40659144247E+02  0.00000000000E+00 0. -1.
         11    1    3    3    0    0 -0.45979829592E+01  0.14843940334E+02 -0.26685677112E+01  0.15767221246E+02  0.51100000000E-03 0. -1.
        -11    1    3    3    0    0 -0.15799286070E+02 -0.11338068052E+01  0.75419500391E+01  0.17543772937E+02  0.51100000000E-03 0.  1.
         12    1    3    3    0    0 -0.10020308263E+02  0.74659920913E+01  0.11845131550E+02  0.17217861570E+02  0.00000000000E+00 0. -1.
</event>
<event>
 7    1  0.2891523E-011  0.5052886E+02  0.7816164E-02  0.1300439E+00
        -11   -1    0    0    0    0  0.00000000000E+00  0.00000000000E+00  0.45593999997E+02  0.45594000000E+02  0.51100000000E-03 0.  1.
         11   -1    0    0    0    0 -0.00000000000E+00 -0.00000000000E+00 -0.45593999997E+02  0.45594000000E+02  0.51100000000E-03 0. -1.
    9900012    2    1    2    0    0  0.69276385783E+01 -0.39851228822E+02  0.41295326254E+01  0.50528860134E+02  0.30000000864E+02 0.  0.
         12    1    1    2    0    0 -0.69276385783E+01  0.39851228822E+02 -0.41295326254E+01  0.40659139866E+02  0.00000000000E+00 0. -1.
         11    1    3    3    0    0  0.15615844764E+02 -0.21886061355E+02 -0.28100233512E+01  0.27032397615E+02  0.51100000000E-03 0. -1.
        -11    1    3    3    0    0 -0.41796642127E+01 -0.16298055340E+02  0.26090056823E+01  0.17026541390E+02  0.51100000000E-03 0.  1.
        -12    1    3    3    0    0 -0.45085419729E+01 -0.16671121280E+01  0.43305502944E+01  0.64699211294E+01  0.00000000000E+00 0.  1.
</event>
<event>
 7    1  0.2891523E-011  0.5052886E+02  0.7816164E-02  0.1300439E+00
        -11   -1    0    0    0    0  0.00000000000E+00  0.00000000000E+00  0.45593999997E+02  0.45594000000E+02  0.51100000000E-03 0.  1.
         11   -1    0    0    0    0 -0.00000000000E+00 -0.00000000000E+00 -0.45593999997E+02  0.45594000000E+02  0.51100000000E-03 0. -1.
    9900012    2    1    2    0    0  0.14559650287E+02  0.14942359574E+00  0.37962613731E+02  0.50528858528E+02  0.29999995983E+02 0.  0.
         12    1    1    2    0    0 -0.14559650287E+02 -0.14942359574E+00 -0.37962613731E+02  0.40659141472E+02  0.00000000000E+00 0. -1.
         11    1    3    3    0    0  0.44274885900E+01 -0.49410489463E+01 -0.30191377584E+01  0.72891572194E+01  0.51100000000E-03 0. -1.
        -11    1    3    3    0    0  0.57916398347E+01  0.10542828111E+01  0.31591486226E+02  0.32135286002E+02  0.51100000000E-03 0.  1.
        -12    1    3    3    0    0  0.43405218622E+01  0.40361897309E+01  0.93902652637E+01  0.11104415307E+02  0.00000000000E+00 0.  1.
</event>
<event>
 7    1  0.2891523E-011  0.5052886E+02  0.7816164E-02  0.1300439E+00
        -11   -1    0    0    0    0  0.00000000000E+00  0.00000000000E+00  0.45593999997E+02  0.45594000000E+02  0.51100000000E-03 0.  1.
         11   -1    0    0    0    0 -0.00000000000E+00 -0.00000000000E+00 -0.45593999997E+02  0.45594000000E+02  0.51100000000E-03 0. -1.
    9900012    2    1    2    0    0 -0.12796929966E+01  0.28497206892E+02  0.28973042999E+02  0.50528860370E+02  0.30000001581E+02 0.  0.
         12    1    1    2    0    0  0.12796929966E+01 -0.28497206892E+02 -0.28973042999E+02  0.40659139630E+02  0.00000000000E+00 0. -1.
         11    1    3    3    0    0  0.10821090600E+02  0.65657755352E+01  0.30309472974E+01  0.13015070186E+02  0.51100000000E-03 0. -1.
        -11    1    3    3    0    0 -0.56009200679E+01  0.18852683691E+02  0.21094708458E+02  0.28840608751E+02  0.51100000000E-03 0.  1.
         12    1    3    3    0    0 -0.64998635288E+01  0.30787476664E+01  0.48473872433E+01  0.86731814332E+01  0.00000000000E+00 0. -1.
</event>
<event>
 7    1  0.2891523E-011  0.5052887E+02  0.7816164E-02  0.1300439E+00
        -11   -1    0    0    0    0  0.00000000000E+00  0.00000000000E+00  0.45593999997E+02  0.45594000000E+02  0.51100000000E-03 0. -1.
         11   -1    0    0    0    0 -0.00000000000E+00 -0.00000000000E+00 -0.45593999997E+02  0.45594000000E+02  0.51100000000E-03 0.  1.
    9900012    2    1    2    0    0 -0.51993180540E+01 -0.83177166306E+01 -0.39458169389E+02  0.50528874951E+02  0.30000045902E+02 0.  0.
         12    1    1    2    0    0  0.51993180540E+01  0.83177166306E+01  0.39458169389E+02  0.40659125049E+02  0.00000000000E+00 0. -1.
         11    1    3    3    0    0  0.26483686313E+00 -0.55691790367E+01 -0.44524825333E+01  0.71351590506E+01  0.51100000000E-03 0. -1.
        -11    1    3    3    0    0 -0.30938138484E+01  0.72467261985E+01 -0.31605837456E+02  0.32573235736E+02  0.51100000000E-03 0.  1.
        -12    1    3    3    0    0 -0.23703410687E+01 -0.99952637925E+01 -0.33998494000E+01  0.10820480165E+02  0.00000000000E+00 0.  1.
</event>
<event>
 7    1  0.2891523E-011  0.5052886E+02  0.7816164E-02  0.1300439E+00
        -11   -1    0    0    0    0  0.00000000000E+00  0.00000000000E+00  0.45593999997E+02  0.45594000000E+02  0.51100000000E-03 0.  1.
         11   -1    0    0    0    0 -0.00000000000E+00 -0.00000000000E+00 -0.45593999997E+02  0.45594000000E+02  0.51100000000E-03 0. -1.
    9900012    2    1    2    0    0  0.20939918836E+02 -0.17790690562E+02  0.29969604165E+02  0.50528855330E+02  0.29999986260E+02 0.  0.
         12    1    1    2    0    0 -0.20939918836E+02  0.17790690562E+02 -0.29969604165E+02  0.40659144670E+02  0.00000000000E+00 0. -1.
         11    1    3    3    0    0  0.15849863998E+02 -0.13492862866E+02  0.74798495329E+01  0.22118401533E+02  0.51100000000E-03 0. -1.
        -11    1    3    3    0    0 -0.27867561459E+01  0.42255731852E+01  0.10853913773E+02  0.11976181487E+02  0.51100000000E-03 0.  1.
        -12    1    3    3    0    0  0.78768109840E+01 -0.85234008818E+01  0.11635840858E+02  0.16434272310E+02  0.00000000000E+00 0.  1.
</event>
<event>
 7    1  0.2891523E-011  0.5052887E+02  0.7816164E-02  0.1300439E+00
        -11   -1    0    0    0    0  0.00000000000E+00  0.00000000000E+00  0.45593999997E+02  0.45594000000E+02  0.51100000000E-03 0.  1.
         11   -1    0    0    0    0 -0.00000000000E+00 -0.00000000000E+00 -0.45593999997E+02  0.45594000000E+02  0.51100000000E-03 0. -1.
    9900012    2    1    2    0    0 -0.96037911647E+01  0.56635599699E+01  0.39100585401E+02  0.50528874395E+02  0.30000044212E+02 0.  0.
         12    1    1    2    0    0  0.96037911647E+01 -0.56635599699E+01 -0.39100585401E+02  0.40659125605E+02  0.00000000000E+00 0. -1.
         11    1    3    3    0    0 -0.16272367445E+02 -0.42843134374E+01  0.19462444365E+02  0.25728039662E+02  0.51100000000E-03 0. -1.
        -11    1    3    3    0    0  0.15700218024E+01 -0.17634108050E+01  0.27060164028E+01  0.35912548170E+01  0.51100000000E-03 0.  1.
         12    1    3    3    0    0  0.50985544781E+01  0.11711284212E+02  0.16932124633E+02  0.21209579917E+02  0.00000000000E+00 0. -1.
</event>
<event>
 7    1  0.2891523E-011  0.5052885E+02  0.7816164E-02  0.1300439E+00
        -11   -1    0    0    0    0  0.00000000000E+00  0.00000000000E+00  0.45593999997E+02  0.45594000000E+02  0.51100000000E-03 0. -1.
         11   -1    0    0    0    0 -0.00000000000E+00 -0.00000000000E+00 -0.45593999997E+02  0.45594000000E+02  0.51100000000E-03 0.  1.
    9900012    2    1    2    0    0  0.31982523180E+02  0.14448861323E+02 -0.20530825817E+02  0.50528853536E+02  0.29999980807E+02 0.  0.
         12    1    1    2    0    0 -0.31982523180E+02 -0.14448861323E+02  0.20530825817E+02  0.40659146464E+02  0.00000000000E+00 0. -1.
         11    1    3    3    0    0  0.52849011640E+01  0.80559708725E+01 -0.15665711548E+02  0.18391393791E+02  0.51100000000E-03 0.  1.
        -11    1    3    3    0    0  0.22568211229E+02 -0.11590825609E+01 -0.78358763479E+00  0.22611537769E+02  0.51100000000E-03 0. -1.
         12    1    3    3    0    0  0.41294107875E+01  0.75519730116E+01 -0.40815266341E+01  0.95259219756E+01  0.00000000000E+00 0. -1.
</event>
<event>
 7    1  0.2891523E-011  0.5052889E+02  0.7816164E-02  0.1300439E+00
        -11   -1    0    0    0    0  0.00000000000E+00  0.00000000000E+00  0.45593999997E+02  0.45594000000E+02  0.51100000000E-03 0. -1.
         11   -1    0    0    0    0 -0.00000000000E+00 -0.00000000000E+00 -0.45593999997E+02  0.45594000000E+02  0.51100000000E-03 0.  1.
    9900012    2    1    2    0    0 -0.37988355517E+02  0.14157089828E+02 -0.31024129303E+01  0.50528888927E+02  0.30000088382E+02 0.  0.
         12    1    1    2    0    0  0.37988355517E+02 -0.14157089828E+02  0.31024129303E+01  0.40659111073E+02  0.00000000000E+00 0. -1.
         11    1    3    3    0    0 -0.13980925292E+02  0.69611706657E+01  0.10056767091E+02  0.18575864277E+02  0.51100000000E-03 0. -1.
        -11    1    3    3    0    0 -0.94213301066E+01  0.76252397924E+01 -0.12401744196E+02  0.17340963129E+02  0.51100000000E-03 0.  1.
         12    1    3    3    0    0 -0.14586100118E+02 -0.42932063046E+00 -0.75743582544E+00  0.14612061521E+02  0.00000000000E+00 0. -1.
</event>
<event>
 7    1  0.2891523E-011  0.5052886E+02  0.7816164E-02  0.1300439E+00
        -11   -1    0    0    0    0  0.00000000000E+00  0.00000000000E+00  0.45593999997E+02  0.45594000000E+02  0.51100000000E-03 0. -1.
         11   -1    0    0    0    0 -0.00000000000E+00 -0.00000000000E+00 -0.45593999997E+02  0.45594000000E+02  0.51100000000E-03 0.  1.
    9900012    2    1    2    0    0  0.28689346015E+02  0.11640463295E+02 -0.26355012550E+02  0.50528860228E+02  0.30000001149E+02 0.  0.
         12    1    1    2    0    0 -0.28689346015E+02 -0.11640463295E+02  0.26355012550E+02  0.40659139772E+02  0.00000000000E+00 0. -1.
         11    1    3    3    0    0  0.11487977329E+02 -0.49091241464E+01 -0.62236475320E+01  0.13957324667E+02  0.51100000000E-03 0. -1.
        -11    1    3    3    0    0  0.14712174214E+02  0.13214804131E+02 -0.23855900352E+02  0.30986821396E+02  0.51100000000E-03 0.  1.
        -12    1    3    3    0    0  0.24891944722E+01  0.33347833106E+01  0.37245353349E+01  0.55847141655E+01  0.00000000000E+00 0.  1.
</event>
<event>
 7    1  0.2891523E-011  0.5052886E+02  0.7816164E-02  0.1300439E+00
        -11   -1    0    0    0    0  0.00000000000E+00  0.00000000000E+00  0.45593999997E+02  0.45594000000E+02  0.51100000000E-03 0.  1.
         11   -1    0    0    0    0 -0.00000000000E+00 -0.00000000000E+00 -0.45593999997E+02  0.45594000000E+02  0.51100000000E-03 0. -1.
    9900012    2    1    2    0    0  0.13412954328E+02  0.14687289253E+02  0.35461834549E+02  0.50528861802E+02  0.30000005933E+02 0.  0.
         12    1    1    2    0    0 -0.13412954328E+02 -0.14687289253E+02 -0.35461834549E+02  0.40659138198E+02  0.00000000000E+00 0. -1.
         11    1    3    3    0    0 -0.35536462358E+01  0.82745670914E+01  0.29834367373E+02  0.31163862709E+02  0.51100000000E-03 0. -1.
        -11    1    3    3    0    0  0.62609937743E+01  0.28546263927E+01  0.40210294008E+01  0.79697937606E+01  0.51100000000E-03 0.  1.
         12    1    3    3    0    0  0.10705606790E+02  0.35580957691E+01  0.16064377750E+01  0.11395205332E+02  0.00000000000E+00 0. -1.
</event>
<event>
 7    1  0.2891523E-011  0.5052887E+02  0.7816164E-02  0.1300439E+00
        -11   -1    0    0    0    0  0.00000000000E+00  0.00000000000E+00  0.45593999997E+02  0.45594000000E+02  0.51100000000E-03 0.  1.
         11   -1    0    0    0    0 -0.00000000000E+00 -0.00000000000E+00 -0.45593999997E+02  0.45594000000E+02  0.51100000000E-03 0. -1.
    9900012    2    1    2    0    0 -0.20141798523E+02 -0.33163881926E+02  0.12150310892E+02  0.50528866132E+02  0.30000019095E+02 0.  0.
         12    1    1    2    0    0  0.20141798523E+02  0.33163881926E+02 -0.12150310892E+02  0.40659133868E+02  0.00000000000E+00 0. -1.
         11    1    3    3    0    0  0.49374780330E+01 -0.73728780034E+01  0.81565225837E+01  0.12052671086E+02  0.51100000000E-03 0. -1.
        -11    1    3    3    0    0 -0.11381755353E+02 -0.15955664858E+02  0.79587450530E+01  0.21153468251E+02  0.51100000000E-03 0.  1.
         12    1    3    3    0    0 -0.13697521203E+02 -0.98353390641E+01 -0.39649567451E+01  0.17322726795E+02  0.00000000000E+00 0. -1.
</event>
<event>
 7    1  0.2891523E-011  0.5052886E+02  0.7816164E-02  0.1300439E+00
        -11   -1    0    0    0    0  0.00000000000E+00  0.00000000000E+00  0.45593999997E+02  0.45594000000E+02  0.51100000000E-03 0. -1.
         11   -1    0    0    0    0 -0.00000000000E+00 -0.00000000000E+00 -0.45593999997E+02  0.45594000000E+02  0.51100000000E-03 0.  1.
    9900012    2    1    2    0    0 -0.63234901950E+01  0.23519781982E+02 -0.32557622733E+02  0.50528862395E+02  0.30000007737E+02 0.  0.
         12    1    1    2    0    0  0.63234901950E+01 -0.23519781982E+02  0.32557622733E+02  0.40659137605E+02  0.00000000000E+00 0. -1.
         11    1    3    3    0    0 -0.14535133908E+01  0.10874975178E+02 -0.75255713984E+00  0.10997460107E+02  0.51100000000E-03 0. -1.
        -11    1    3    3    0    0 -0.10809975261E+02  0.77411413029E+01 -0.27876242827E+02  0.30884717065E+02  0.51100000000E-03 0.  1.
        -12    1    3    3    0    0  0.59399984565E+01  0.49036655012E+01 -0.39288227666E+01  0.86466852228E+01  0.00000000000E+00 0.  1.
</event>
<event>
 7    1  0.2891523E-011  0.5052886E+02  0.7816164E-02  0.1300439E+00
        -11   -1    0    0    0    0  0.00000000000E+00  0.00000000000E+00  0.45593999997E+02  0.45594000000E+02  0.51100000000E-03 0. -1.
         11   -1    0    0    0    0 -0.00000000000E+00 -0.00000000000E+00 -0.45593999997E+02  0.45594000000E+02  0.51100000000E-03 0.  1.
    9900012    2    1    2    0    0  0.22492653062E+02 -0.31962548930E+02  0.11208997390E+02  0.50528860826E+02  0.30000002967E+02 0.  0.
         12    1    1    2    0    0 -0.22492653062E+02  0.31962548930E+02 -0.11208997390E+02  0.40659139174E+02  0.00000000000E+00 0. -1.
         11    1    3    3    0    0 -0.54513587033E+01 -0.20544742723E+01  0.56756827739E+01  0.81333604038E+01  0.51100000000E-03 0. -1.
        -11    1    3    3    0    0  0.12072165531E+02 -0.14502893524E+02 -0.21237200464E+01  0.18988978073E+02  0.51100000000E-03 0.  1.
         12    1    3    3    0    0  0.15871846234E+02 -0.15405181134E+02  0.76570346623E+01  0.23406522349E+02  0.00000000000E+00 0. -1.
</event>
<event>
 7    1  0.2891523E-011  0.5052886E+02  0.7816164E-02  0.1300439E+00
        -11   -1    0    0    0    0  0.00000000000E+00  0.00000000000E+00  0.45593999997E+02  0.45594000000E+02  0.51100000000E-03 0. -1.
         11   -1    0    0    0    0 -0.00000000000E+00 -0.00000000000E+00 -0.45593999997E+02  0.45594000000E+02  0.51100000000E-03 0.  1.
    9900012    2    1    2    0    0 -0.29755969384E+02  0.26421559858E+02  0.83456113804E+01  0.50528858733E+02  0.29999996604E+02 0.  0.
         12    1    1    2    0    0  0.29755969384E+02 -0.26421559858E+02 -0.83456113804E+01  0.40659141267E+02  0.00000000000E+00 0. -1.
         11    1    3    3    0    0 -0.59811102458E+01 -0.53408963556E+00  0.11065974250E+02  0.12590262820E+02  0.51100000000E-03 0. -1.
        -11    1    3    3    0    0 -0.85762551015E+01  0.17912102274E+02 -0.38012430747E+01  0.20219916138E+02  0.51100000000E-03 0.  1.
        -12    1    3    3    0    0 -0.15198604036E+02  0.90435472193E+01  0.10808802053E+01  0.17718679775E+02  0.00000000000E+00 0.  1.
</event>
<event>
 7    1  0.2891523E-011  0.5052886E+02  0.7816164E-02  0.1300439E+00
        -11   -1    0    0    0    0  0.00000000000E+00  0.00000000000E+00  0.45593999997E+02  0.45594000000E+02  0.51100000000E-03 0. -1.
         11   -1    0    0    0    0 -0.00000000000E+00 -0.00000000000E+00 -0.45593999997E+02  0.45594000000E+02  0.51100000000E-03 0.  1.
    9900012    2    1    2    0    0 -0.21220447283E+02 -0.21019301372E+02 -0.27587079738E+02  0.50528863493E+02  0.30000011072E+02 0.  0.
         12    1    1    2    0    0  0.21220447283E+02  0.21019301372E+02  0.27587079738E+02  0.40659136507E+02  0.00000000000E+00 0. -1.
         11    1    3    3    0    0 -0.12586940225E+02  0.17561112475E+01  0.75444736204E+00  0.12731228614E+02  0.51100000000E-03 0. -1.
        -11    1    3    3    0    0 -0.21276918842E+01 -0.13148376669E+02 -0.13723975499E+02  0.19124706156E+02  0.51100000000E-03 0.  1.
         12    1    3    3    0    0 -0.65058151736E+01 -0.96270359505E+01 -0.14617551601E+02  0.18672928722E+02  0.00000000000E+00 0. -1.
</event>
<event>
 7    1  0.2891523E-011  0.5052887E+02  0.7816164E-02  0.1300439E+00
        -11   -1    0    0    0    0  0.00000000000E+00  0.00000000000E+00  0.45593999997E+02  0.45594000000E+02  0.51100000000E-03 0.  1.
         11   -1    0    0    0    0 -0.00000000000E+00 -0.00000000000E+00 -0.45593999997E+02  0.45594000000E+02  0.51100000000E-03 0. -1.
    9900012    2    1    2    0    0 -0.33220973466E+02  0.99812984935E+01  0.21210971256E+02  0.50528871883E+02  0.30000036575E+02 0.  0.
         12    1    1    2    0    0  0.33220973466E+02 -0.99812984935E+01 -0.21210971256E+02  0.40659128117E+02  0.00000000000E+00 0. -1.
         11    1    3    3    0    0 -0.85539364804E+01  0.26267457654E+01 -0.70712066593E+01  0.11404893095E+02  0.51100000000E-03 0. -1.
        -11    1    3    3    0    0 -0.66079797182E+01  0.12469128348E+01  0.13204634285E+02  0.14818318205E+02  0.51100000000E-03 0.  1.
         12    1    3    3    0    0 -0.18059057267E+02  0.61076398934E+01  0.15077543630E+02  0.24305660583E+02  0.00000000000E+00 0. -1.
</event>
<event>
 7    1  0.2891523E-011  0.5052888E+02  0.7816164E-02  0.1300439E+00
        -11   -1    0    0    0    0  0.00000000000E+00  0.00000000000E+00  0.45593999997E+02  0.45594000000E+02  0.51100000000E-03 0. -1.
         11   -1    0    0    0    0 -0.00000000000E+00 -0.00000000000E+00 -0.45593999997E+02  0.45594000000E+02  0.51100000000E-03 0.  1.
    9900012    2    1    2    0    0  0.15399748859E-03  0.49531201447E+01 -0.40356296433E+02  0.50528879732E+02  0.30000060433E+02 0.  0.
         12    1    1    2    0    0 -0.15399748858E-03 -0.49531201447E+01  0.40356296433E+02  0.40659120268E+02  0.00000000000E+00 0. -1.
         11    1    3    3    0    0 -0.11099569362E+02 -0.68025098064E+01 -0.17440210930E+02  0.21763169283E+02  0.51100000000E-03 0. -1.
        -11    1    3    3    0    0  0.77418494492E+01  0.84774801809E+01 -0.20479947842E+02  0.23478333991E+02  0.51100000000E-03 0.  1.
         12    1    3    3    0    0  0.33578739098E+01  0.32781497703E+01 -0.24361376608E+01  0.52873764584E+01  0.00000000000E+00 0. -1.
</event>
<event>
 7    1  0.2891523E-011  0.5052886E+02  0.7816164E-02  0.1300439E+00
        -11   -1    0    0    0    0  0.00000000000E+00  0.00000000000E+00  0.45593999997E+02  0.45594000000E+02  0.51100000000E-03 0.  1.
         11   -1    0    0    0    0 -0.00000000000E+00 -0.00000000000E+00 -0.45593999997E+02  0.45594000000E+02  0.51100000000E-03 0. -1.
    9900012    2    1    2    0    0 -0.27614607646E+02  0.82346017461E+01  0.28684320492E+02  0.50528862485E+02  0.30000008010E+02 0.  0.
         12    1    1    2    0    0  0.27614607646E+02 -0.82346017461E+01 -0.28684320492E+02  0.40659137515E+02  0.00000000000E+00 0. -1.
         11    1    3    3    0    0 -0.29887592211E+01 -0.23492652920E+01  0.15475796878E+02  0.15935872062E+02  0.51100000000E-03 0. -1.
        -11    1    3    3    0    0 -0.43111447885E+01  0.25012999626E+01 -0.43001484813E+01  0.65828373907E+01  0.51100000000E-03 0.  1.
        -12    1    3    3    0    0 -0.20314703637E+02  0.80825670755E+01  0.17508672095E+02  0.28010153033E+02  0.00000000000E+00 0.  1.
</event>
<event>
 7    1  0.2891523E-011  0.5052885E+02  0.7816164E-02  0.1300439E+00
        -11   -1    0    0    0    0  0.00000000000E+00  0.00000000000E+00  0.45593999997E+02  0.45594000000E+02  0.51100000000E-03 0.  1.
         11   -1    0    0    0    0 -0.00000000000E+00 -0.00000000000E+00 -0.45593999997E+02  0.45594000000E+02  0.51100000000E-03 0. -1.
    9900012    2    1    2    0    0  0.36153405286E+01  0.12695699736E+02  0.38456661133E+02  0.50528852635E+02  0.29999978070E+02 0.  0.
         12    1    1    2    0    0 -0.36153405286E+01 -0.12695699736E+02 -0.38456661133E+02  0.40659147365E+02  0.00000000000E+00 0. -1.
         11    1    3    3    0    0 -0.62616419628E+01  0.25445305645E+01  0.16661795483E+02  0.17980495679E+02  0.51100000000E-03 0. -1.
        -11    1    3    3    0    0  0.15431942765E+02  0.10310652918E+02  0.17688181900E+02  0.25638373590E+02  0.51100000000E-03 0.  1.
        -12    1    3    3    0    0 -0.55549602741E+01 -0.15948374712E+00  0.41066837497E+01  0.69099833670E+01  0.00000000000E+00 0.  1.
</event>
<event>
 7    1  0.2891523E-011  0.5052889E+02  0.7816164E-02  0.1300439E+00
        -11   -1    0    0    0    0  0.00000000000E+00  0.00000000000E+00  0.45593999997E+02  0.45594000000E+02  0.51100000000E-03 0. -1.
         11   -1    0    0    0    0 -0.00000000000E+00 -0.00000000000E+00 -0.45593999997E+02  0.45594000000E+02  0.51100000000E-03 0.  1.
    9900012    2    1    2    0    0  0.39520420408E+02  0.37120057962E+01 -0.88045967211E+01  0.50528886143E+02  0.30000079920E+02 0.  0.
         12    1    1    2    0    0 -0.39520420408E+02 -0.37120057962E+01  0.88045967211E+01  0.40659113857E+02  0.00000000000E+00 0. -1.
         11    1    3    3    0    0  0.24361734876E+02 -0.10451899134E+02 -0.25759212692E+01  0.26634032596E+02  0.51100000000E-03 0. -1.
        -11    1    3    3    0    0  0.56928545911E+01  0.28422744582E+01 -0.65529084856E+01  0.91338780030E+01  0.51100000000E-03 0.  1.
         12    1    3    3    0    0  0.94658309400E+01  0.11321630472E+02  0.32423303375E+00  0.14760975543E+02  0.00000000000E+00 0. -1.
</event>
<event>
 7    1  0.2891523E-011  0.5052886E+02  0.7816164E-02  0.1300439E+00
        -11   -1    0    0    0    0  0.00000000000E+00  0.00000000000E+00  0.45593999997E+02  0.45594000000E+02  0.51100000000E-03 0.  1.
         11   -1    0    0    0    0 -0.00000000000E+00 -0.00000000000E+00 -0.45593999997E+02  0.45594000000E+02  0.51100000000E-03 0. -1.
    9900012    2    1    2    0    0  0.19873427960E+02  0.32408312717E+02  0.14419228353E+02  0.50528855662E+02  0.29999987269E+02 0.  0.
         12    1    1    2    0    0 -0.19873427960E+02 -0.32408312717E+02 -0.14419228353E+02  0.40659144338E+02  0.00000000000E+00 0. -1.
         11    1    3    3    0    0  0.87861459565E+01  0.41392629322E+01  0.44472143312E+00  0.97225323761E+01  0.51100000000E-03 0. -1.
        -11    1    3    3    0    0  0.13547877077E+02  0.23405756515E+02  0.19270038862E+02  0.33207059631E+02  0.51100000000E-03 0.  1.
        -12    1    3    3    0    0 -0.24605950737E+01  0.48632932692E+01 -0.52955319420E+01  0.75992636543E+01  0.00000000000E+00 0.  1.
</event>
<event>
 7    1  0.2891523E-011  0.5052886E+02  0.7816164E-02  0.1300439E+00
        -11   -1    0    0    0    0  0.00000000000E+00  0.00000000000E+00  0.45593999997E+02  0.45594000000E+02  0.51100000000E-03 0.  1.
         11   -1    0    0    0    0 -0.00000000000E+00 -0.00000000000E+00 -0.45593999997E+02  0.45594000000E+02  0.51100000000E-03 0. -1.
    9900012    2    1    2    0    0  0.18409014512E+02  0.12744058414E+02  0.33939106378E+02  0.50528858569E+02  0.29999996106E+02 0.  0.
         12    1    1    2    0    0 -0.18409014512E+02 -0.12744058414E+02 -0.33939106378E+02  0.40659141431E+02  0.00000000000E+00 0. -1.
         11    1    3    3    0    0  0.19497467339E+02  0.47286758475E+01  0.19576778054E+02  0.28031443901E+02  0.51100000000E-03 0. -1.
        -11    1    3    3    0    0 -0.40288703824E+01 -0.28892205293E+01  0.11011129446E+01  0.50785669045E+01  0.51100000000E-03 0.  1.
        -12    1    3    3    0    0  0.29404175556E+01  0.10904603096E+02  0.13261215379E+02  0.17418847764E+02  0.00000000000E+00 0.  1.
</event>
<event>
 7    1  0.2891523E-011  0.5052887E+02  0.7816164E-02  0.1300439E+00
        -11   -1    0    0    0    0  0.00000000000E+00  0.00000000000E+00  0.45593999997E+02  0.45594000000E+02  0.51100000000E-03 0.  1.
         11   -1    0    0    0    0 -0.00000000000E+00 -0.00000000000E+00 -0.45593999997E+02  0.45594000000E+02  0.51100000000E-03 0. -1.
    9900012    2    1    2    0    0 -0.91077147863E+01  0.23108952733E+02  0.32189913577E+02  0.50528871860E+02  0.30000036505E+02 0.  0.
         12    1    1    2    0    0  0.91077147863E+01 -0.23108952733E+02 -0.32189913577E+02  0.40659128140E+02  0.00000000000E+00 0. -1.
         11    1    3    3    0    0  0.24921809567E+01 -0.63815303980E+01  0.63520272616E+01  0.93425449817E+01  0.51100000000E-03 0. -1.
        -11    1    3    3    0    0 -0.93204620446E+01  0.17832174816E+02  0.14884634348E+02  0.25028180344E+02  0.51100000000E-03 0.  1.
         12    1    3    3    0    0 -0.22794336984E+01  0.11658308315E+02  0.10953251967E+02  0.16158146534E+02  0.00000000000E+00 0. -1.
</event>
<event>
 7    1  0.2891523E-011  0.5052886E+02  0.7816164E-02  0.1300439E+00
        -11   -1    0    0    0    0  0.00000000000E+00  0.00000000000E+00  0.45593999997E+02  0.45594000000E+02  0.51100000000E-03 0. -1.
         11   -1    0    0    0    0 -0.00000000000E+00 -0.00000000000E+00 -0.45593999997E+02  0.45594000000E+02  0.51100000000E-03 0.  1.
    9900012    2    1    2    0    0  0.99789582565E+01 -0.38536912900E+02 -0.82760190892E+01  0.50528858891E+02  0.29999997084E+02 0.  0.
         12    1    1    2    0    0 -0.99789582565E+01  0.38536912900E+02  0.82760190892E+01  0.40659141109E+02  0.00000000000E+00 0. -1.
         11    1    3    3    0    0 -0.88709335149E+01 -0.16657873045E+02 -0.60341637000E+01  0.19813867053E+02  0.51100000000E-03 0. -1.
        -11    1    3    3    0    0  0.11253838525E+02 -0.16263855276E+02  0.28528398081E+01  0.19982506480E+02  0.51100000000E-03 0.  1.
        -12    1    3    3    0    0  0.75960532468E+01 -0.56151845797E+01 -0.50946951973E+01  0.10732485357E+02  0.00000000000E+00 0.  1.
</event>
<event>
 7    1  0.2891523E-011  0.5052887E+02  0.7816164E-02  0.1300439E+00
        -11   -1    0    0    0    0  0.00000000000E+00  0.00000000000E+00  0.45593999997E+02  0.45594000000E+02  0.51100000000E-03 0. -1.
         11   -1    0    0    0    0 -0.00000000000E+00 -0.00000000000E+00 -0.45593999997E+02  0.45594000000E+02  0.51100000000E-03 0.  1.
    9900012    2    1    2    0    0  0.30509997880E+02 -0.20708035925E+02  0.17131330233E+02  0.50528865749E+02  0.30000017930E+02 0.  0.
         12    1    1    2    0    0 -0.30509997880E+02  0.20708035925E+02 -0.17131330233E+02  0.40659134251E+02  0.00000000000E+00 0. -1.
         11    1    3    3    0    0 -0.29478013883E+01  0.12504980841E+01  0.28929487119E+01  0.43153714781E+01  0.51100000000E-03 0. -1.
        -11    1    3    3    0    0  0.25766237561E+02 -0.24503694668E+02  0.94076341553E+01  0.36780886763E+02  0.51100000000E-03 0.  1.
        -12    1    3    3    0    0  0.76915617073E+01  0.25451606588E+01  0.48307473662E+01  0.94326075076E+01  0.00000000000E+00 0.  1.
</event>
<event>
 7    1  0.2891523E-011  0.5052885E+02  0.7816164E-02  0.1300439E+00
        -11   -1    0    0    0    0  0.00000000000E+00  0.00000000000E+00  0.45593999997E+02  0.45594000000E+02  0.51100000000E-03 0. -1.
         11   -1    0    0    0    0 -0.00000000000E+00 -0.00000000000E+00 -0.45593999997E+02  0.45594000000E+02  0.51100000000E-03 0.  1.
    9900012    2    1    2    0    0  0.84029939358E+01 -0.36483649562E+02 -0.15858727567E+02  0.50528853028E+02  0.29999979263E+02 0.  0.
         12    1    1    2    0    0 -0.84029939358E+01  0.36483649562E+02  0.15858727567E+02  0.40659146972E+02  0.00000000000E+00 0. -1.
         11    1    3    3    0    0 -0.98840347206E+00 -0.13308010078E+02  0.58147485510E+01  0.14556489090E+02  0.51100000000E-03 0. -1.
        -11    1    3    3    0    0  0.21768960035E+01 -0.20938573486E+02 -0.17271407705E+02  0.27229841355E+02  0.51100000000E-03 0.  1.
        -12    1    3    3    0    0  0.72145014044E+01 -0.22370659982E+01 -0.44020684128E+01  0.87425225825E+01  0.00000000000E+00 0.  1.
</event>
<event>
 7    1  0.2891523E-011  0.5052886E+02  0.7816164E-02  0.1300439E+00
        -11   -1    0    0    0    0  0.00000000000E+00  0.00000000000E+00  0.45593999997E+02  0.45594000000E+02  0.51100000000E-03 0.  1.
         11   -1    0    0    0    0 -0.00000000000E+00 -0.00000000000E+00 -0.45593999997E+02  0.45594000000E+02  0.51100000000E-03 0. -1.
    9900012    2    1    2    0    0  0.11869472139E+02  0.12808608742E+02  0.36718122434E+02  0.50528863981E+02  0.30000012557E+02 0.  0.
         12    1    1    2    0    0 -0.11869472139E+02 -0.12808608742E+02 -0.36718122434E+02  0.40659136019E+02  0.00000000000E+00 0. -1.
         11    1    3    3    0    0  0.51471136537E+01  0.26998167330E+01 -0.21629966419E+01  0.62016404354E+01  0.51100000000E-03 0. -1.
        -11    1    3    3    0    0  0.47460086254E+01  0.14071748278E+02  0.36255165360E+02  0.39178766098E+02  0.51100000000E-03 0.  1.
        -12    1    3    3    0    0  0.19763498599E+01 -0.39629562700E+01  0.26259537161E+01  0.51484574472E+01  0.00000000000E+00 0.  1.
</event>
<event>
 7    1  0.2891523E-011  0.5052886E+02  0.7816164E-02  0.1300439E+00
        -11   -1    0    0    0    0  0.00000000000E+00  0.00000000000E+00  0.45593999997E+02  0.45594000000E+02  0.51100000000E-03 0.  1.
         11   -1    0    0    0    0 -0.00000000000E+00 -0.00000000000E+00 -0.45593999997E+02  0.45594000000E+02  0.51100000000E-03 0. -1.
    9900012    2    1    2    0    0  0.52627513678E+01 -0.21902527087E+02  0.33848909916E+02  0.50528856536E+02  0.29999989927E+02 0.  0.
         12    1    1    2    0    0 -0.52627513678E+01  0.21902527087E+02 -0.33848909916E+02  0.40659143464E+02  0.00000000000E+00 0. -1.
         11    1    3    3    0    0  0.13603038815E+02 -0.32363722046E+01  0.18479834804E+02  0.23173714952E+02  0.51100000000E-03 0. -1.
        -11    1    3    3    0    0 -0.99741338810E+00 -0.87644310856E+01  0.17634602997E+01  0.89955476882E+01  0.51100000000E-03 0.  1.
         12    1    3    3    0    0 -0.73428740590E+01 -0.99017237966E+01  0.13605614812E+02  0.18359593896E+02  0.00000000000E+00 0. -1.
</event>
<event>
 7    1  0.2891523E-011  0.5052886E+02  0.7816164E-02  0.1300439E+00
        -11   -1    0    0    0    0  0.00000000000E+00  0.00000000000E+00  0.45593999997E+02  0.45594000000E+02  0.51100000000E-03 0.  1.
         11   -1    0    0    0    0 -0.00000000000E+00 -0.00000000000E+00 -0.45593999997E+02  0.45594000000E+02  0.51100000000E-03 0. -1.
    9900012    2    1    2    0    0 -0.23262033073E+02 -0.20268164140E+02  0.26481035185E+02  0.50528857304E+02  0.29999992262E+02 0.  0.
         12    1    1    2    0    0  0.23262033073E+02  0.20268164140E+02 -0.26481035185E+02  0.40659142696E+02  0.00000000000E+00 0. -1.
         11    1    3    3    0    0  0.60228092609E+01  0.99718705650E+00  0.10476476103E+01  0.61940438484E+01  0.51100000000E-03 0. -1.
        -11    1    3    3    0    0 -0.11752302378E+02 -0.89997968945E+01  0.86838396490E+01  0.17161644054E+02  0.51100000000E-03 0.  1.
         12    1    3    3    0    0 -0.17532539955E+02 -0.12265554302E+02  0.16749547925E+02  0.27173169402E+02  0.00000000000E+00 0. -1.
</event>
<event>
 7    1  0.2891523E-011  0.5052886E+02  0.7816164E-02  0.1300439E+00
        -11   -1    0    0    0    0  0.00000000000E+00  0.00000000000E+00  0.45593999997E+02  0.45594000000E+02  0.51100000000E-03 0.  1.
         11   -1    0    0    0    0 -0.00000000000E+00 -0.00000000000E+00 -0.45593999997E+02  0.45594000000E+02  0.51100000000E-03 0. -1.
    9900012    2    1    2    0    0 -0.27963261032E+02 -0.28029327771E+02  0.92508594174E+01  0.50528861017E+02  0.30000003548E+02 0.  0.
         12    1    1    2    0    0  0.27963261032E+02  0.28029327771E+02 -0.92508594174E+01  0.40659138983E+02  0.00000000000E+00 0. -1.
         11    1    3    3    0    0 -0.19916974679E+01 -0.45983016734E+01 -0.75326029726E+01  0.90471733092E+01  0.51100000000E-03 0. -1.
        -11    1    3    3    0    0 -0.70948286333E+01 -0.16121486950E+02  0.64799874902E+01  0.18767769525E+02  0.51100000000E-03 0.  1.
         12    1    3    3    0    0 -0.18876734931E+02 -0.73095391478E+01  0.10303474900E+02  0.22713918183E+02  0.00000000000E+00 0. -1.
</event>
<event>
 7    1  0.2891523E-011  0.5052888E+02  0.7816164E-02  0.1300439E+00
        -11   -1    0    0    0    0  0.00000000000E+00  0.00000000000E+00  0.45593999997E+02  0.45594000000E+02  0.51100000000E-03 0.  1.
         11   -1    0    0    0    0 -0.00000000000E+00 -0.00000000000E+00 -0.45593999997E+02  0.45594000000E+02  0.51100000000E-03 0. -1.
    9900012    2    1    2    0    0 -0.28679440301E+02 -0.21596420625E+02  0.19085295152E+02  0.50528878381E+02  0.30000056327E+02 0.  0.
         12    1    1    2    0    0  0.28679440301E+02  0.21596420625E+02 -0.19085295152E+02  0.40659121619E+02  0.00000000000E+00 0. -1.
         11    1    3    3    0    0  0.45362015172E+00 -0.88532363001E+01  0.40076873472E+01  0.97286752624E+01  0.51100000000E-03 0. -1.
        -11    1    3    3    0    0 -0.24181700580E+02 -0.58180490056E+01  0.19124275665E+02  0.31374229188E+02  0.51100000000E-03 0.  1.
         12    1    3    3    0    0 -0.49513598726E+01 -0.69251353195E+01 -0.40466678599E+01  0.94259739311E+01  0.00000000000E+00 0. -1.
</event>
<event>
 7    1  0.2891523E-011  0.5052887E+02  0.7816164E-02  0.1300439E+00
        -11   -1    0    0    0    0  0.00000000000E+00  0.00000000000E+00  0.45593999997E+02  0.45594000000E+02  0.51100000000E-03 0.  1.
         11   -1    0    0    0    0 -0.00000000000E+00 -0.00000000000E+00 -0.45593999997E+02  0.45594000000E+02  0.51100000000E-03 0. -1.
    9900012    2    1    2    0    0  0.10991048839E+02 -0.37417639124E+02 -0.11501384695E+02  0.50528871602E+02  0.30000035722E+02 0.  0.
         12    1    1    2    0    0 -0.10991048839E+02  0.37417639124E+02  0.11501384695E+02  0.40659128398E+02  0.00000000000E+00 0. -1.
         11    1    3    3    0    0 -0.37246157574E+01 -0.14753498911E+02  0.32254062798E+01  0.15554476480E+02  0.51100000000E-03 0. -1.
        -11    1    3    3    0    0  0.12259705580E+02 -0.25284391997E+02 -0.13541760095E+02  0.31192629359E+02  0.51100000000E-03 0.  1.
        -12    1    3    3    0    0  0.24559590165E+01  0.26202517839E+01 -0.11850308794E+01  0.37817657631E+01  0.00000000000E+00 0.  1.
</event>
<event>
 7    1  0.2891523E-011  0.5052885E+02  0.7816164E-02  0.1300439E+00
        -11   -1    0    0    0    0  0.00000000000E+00  0.00000000000E+00  0.45593999997E+02  0.45594000000E+02  0.51100000000E-03 0.  1.
         11   -1    0    0    0    0 -0.00000000000E+00 -0.00000000000E+00 -0.45593999997E+02  0.45594000000E+02  0.51100000000E-03 0. -1.
    9900012    2    1    2    0    0 -0.38481100870E+02  0.12311957161E+02 -0.45592486964E+01  0.50528853895E+02  0.29999981900E+02 0.  0.
         12    1    1    2    0    0  0.38481100870E+02 -0.12311957161E+02  0.45592486964E+01  0.40659146105E+02  0.00000000000E+00 0. -1.
         11    1    3    3    0    0 -0.14898355903E+01 -0.42503829065E+01 -0.49172556388E+00  0.45306908115E+01  0.51100000000E-03 0. -1.
        -11    1    3    3    0    0 -0.35059602519E+02  0.20523798082E+02 -0.62111095067E+01  0.41097200611E+02  0.51100000000E-03 0.  1.
        -12    1    3    3    0    0 -0.19316627609E+01 -0.39614580142E+01  0.21435863742E+01  0.49009624732E+01  0.00000000000E+00 0.  1.
</event>
<event>
 7    1  0.2891523E-011  0.5052886E+02  0.7816164E-02  0.1300439E+00
        -11   -1    0    0    0    0  0.00000000000E+00  0.00000000000E+00  0.45593999997E+02  0.45594000000E+02  0.51100000000E-03 0. -1.
         11   -1    0    0    0    0 -0.00000000000E+00 -0.00000000000E+00 -0.45593999997E+02  0.45594000000E+02  0.51100000000E-03 0.  1.
    9900012    2    1    2    0    0  0.33687288425E+02 -0.19581247082E+02 -0.11614944462E+02  0.50528861131E+02  0.30000003895E+02 0.  0.
         12    1    1    2    0    0 -0.33687288425E+02  0.19581247082E+02  0.11614944462E+02  0.40659138869E+02  0.00000000000E+00 0. -1.
         11    1    3    3    0    0  0.12211060715E+02 -0.17553884491E+02 -0.28066424494E+00  0.21385220064E+02  0.51100000000E-03 0. -1.
        -11    1    3    3    0    0  0.17648226682E+02  0.54247103006E+01 -0.74571156874E+01  0.19912206345E+02  0.51100000000E-03 0.  1.
        -12    1    3    3    0    0  0.38280010274E+01 -0.74520728919E+01 -0.38771645292E+01  0.92314347226E+01  0.00000000000E+00 0.  1.
</event>
<event>
 7    1  0.2891523E-011  0.5052886E+02  0.7816164E-02  0.1300439E+00
        -11   -1    0    0    0    0  0.00000000000E+00  0.00000000000E+00  0.45593999997E+02  0.45594000000E+02  0.51100000000E-03 0.  1.
         11   -1    0    0    0    0 -0.00000000000E+00 -0.00000000000E+00 -0.45593999997E+02  0.45594000000E+02  0.51100000000E-03 0. -1.
    9900012    2    1    2    0    0  0.39830599744E+02 -0.36853102098E+01  0.72874749926E+01  0.50528862293E+02  0.30000007424E+02 0.  0.
         12    1    1    2    0    0 -0.39830599744E+02  0.36853102098E+01 -0.72874749926E+01  0.40659137707E+02  0.00000000000E+00 0. -1.
         11    1    3    3    0    0 -0.28252340392E+01 -0.23842162401E+01 -0.40223359449E+01  0.54631146034E+01  0.51100000000E-03 0. -1.
        -11    1    3    3    0    0  0.36433428181E+02  0.65918888455E-01  0.63292748440E+01  0.36979166494E+02  0.51100000000E-03 0.  1.
        -12    1    3    3    0    0  0.62224056030E+01 -0.13670128582E+01  0.49805360935E+01  0.80865811949E+01  0.00000000000E+00 0.  1.
</event>
<event>
 7    1  0.2891523E-011  0.5052886E+02  0.7816164E-02  0.1300439E+00
        -11   -1    0    0    0    0  0.00000000000E+00  0.00000000000E+00  0.45593999997E+02  0.45594000000E+02  0.51100000000E-03 0.  1.
         11   -1    0    0    0    0 -0.00000000000E+00 -0.00000000000E+00 -0.45593999997E+02  0.45594000000E+02  0.51100000000E-03 0. -1.
    9900012    2    1    2    0    0  0.18035053768E+01 -0.24183346764E+02  0.32635543130E+02  0.50528861203E+02  0.30000004111E+02 0.  0.
         12    1    1    2    0    0 -0.18035053768E+01  0.24183346764E+02 -0.32635543130E+02  0.40659138797E+02  0.00000000000E+00 0. -1.
         11    1    3    3    0    0  0.28539675960E+01 -0.68637716259E+01  0.32714559036E+01  0.81215094633E+01  0.51100000000E-03 0. -1.
        -11    1    3    3    0    0  0.73960806570E+01 -0.53459237575E+01  0.25744139351E+02  0.27313762485E+02  0.51100000000E-03 0.  1.
        -12    1    3    3    0    0 -0.84465428762E+01 -0.11973651381E+02  0.36199478753E+01  0.15093589254E+02  0.00000000000E+00 0.  1.
</event>
<event>
 7    1  0.2891523E-011  0.5052887E+02  0.7816164E-02  0.1300439E+00
        -11   -1    0    0    0    0  0.00000000000E+00  0.00000000000E+00  0.45593999997E+02  0.45594000000E+02  0.51100000000E-03 0. -1.
         11   -1    0    0    0    0 -0.00000000000E+00 -0.00000000000E+00 -0.45593999997E+02  0.45594000000E+02  0.51100000000E-03 0.  1.
    9900012    2    1    2    0    0 -0.27437742741E+02 -0.17452194948E+02 -0.24408121805E+02  0.50528865169E+02  0.30000016166E+02 0.  0.
         12    1    1    2    0    0  0.27437742741E+02  0.17452194948E+02  0.24408121805E+02  0.40659134831E+02  0.00000000000E+00 0. -1.
         11    1    3    3    0    0 -0.10444509564E+00 -0.31837910247E+01 -0.14399070223E+02  0.14747225421E+02  0.51100000000E-03 0. -1.
        -11    1    3    3    0    0 -0.18588917865E+02 -0.10095441051E+02  0.92342213026E+00  0.21173533151E+02  0.51100000000E-03 0.  1.
        -12    1    3    3    0    0 -0.87443797802E+01 -0.41729628717E+01 -0.10932473712E+02  0.14608106597E+02  0.00000000000E+00 0.  1.
</event>
<event>
 7    1  0.2891523E-011  0.5052884E+02  0.7816164E-02  0.1300439E+00
        -11   -1    0    0    0    0  0.00000000000E+00  0.00000000000E+00  0.45593999997E+02  0.45594000000E+02  0.51100000000E-03 0. -1.
         11   -1    0    0    0    0 -0.00000000000E+00 -0.00000000000E+00 -0.45593999997E+02  0.45594000000E+02  0.51100000000E-03 0.  1.
    9900012    2    1    2    0    0 -0.10801428064E+02  0.20515483266E+02 -0.33400767389E+02  0.50528841572E+02  0.29999944443E+02 0.  0.
         12    1    1    2    0    0  0.10801428064E+02 -0.20515483266E+02  0.33400767389E+02  0.40659158428E+02  0.00000000000E+00 0. -1.
         11    1    3    3    0    0 -0.19653004456E+01  0.32511386799E+01 -0.20486997504E+02  0.20836251475E+02  0.51100000000E-03 0. -1.
        -11    1    3    3    0    0  0.16245833493E+01  0.16110848647E+02 -0.72545223969E+01  0.17743359622E+02  0.51100000000E-03 0.  1.
        -12    1    3    3    0    0 -0.10460710967E+02  0.11534959387E+01 -0.56592474886E+01  0.11949230476E+02  0.00000000000E+00 0.  1.
</event>
<event>
 7    1  0.2891523E-011  0.5052887E+02  0.7816164E-02  0.1300439E+00
        -11   -1    0    0    0    0  0.00000000000E+00  0.00000000000E+00  0.45593999997E+02  0.45594000000E+02  0.51100000000E-03 0.  1.
         11   -1    0    0    0    0 -0.00000000000E+00 -0.00000000000E+00 -0.45593999997E+02  0.45594000000E+02  0.51100000000E-03 0. -1.
    9900012    2    1    2    0    0  0.12121900033E+02  0.12006865604E+02  0.36906095709E+02  0.50528865940E+02  0.30000018511E+02 0.  0.
         12    1    1    2    0    0 -0.12121900033E+02 -0.12006865604E+02 -0.36906095709E+02  0.40659134060E+02  0.00000000000E+00 0. -1.
         11    1    3    3    0    0  0.85554560577E+00  0.12994120545E+02  0.10088568600E+02  0.16472957952E+02  0.51100000000E-03 0. -1.
        -11    1    3    3    0    0  0.26086187281E+01 -0.52765146767E+01  0.22875576440E+02  0.23620721761E+02  0.51100000000E-03 0.  1.
         12    1    3    3    0    0  0.86577356988E+01  0.42892597361E+01  0.39419506684E+01  0.10435186227E+02  0.00000000000E+00 0. -1.
</event>
<event>
 7    1  0.2891523E-011  0.5052875E+02  0.7816164E-02  0.1300439E+00
        -11   -1    0    0    0    0  0.00000000000E+00  0.00000000000E+00  0.45593999997E+02  0.45594000000E+02  0.51100000000E-03 0.  1.
         11   -1    0    0    0    0 -0.00000000000E+00 -0.00000000000E+00 -0.45593999997E+02  0.45594000000E+02  0.51100000000E-03 0. -1.
    9900012    2    1    2    0    0 -0.38428613576E+02 -0.54332938723E+01  0.12120052866E+02  0.50528748836E+02  0.29999662561E+02 0.  0.
         12    1    1    2    0    0  0.38428613576E+02  0.54332938723E+01 -0.12120052866E+02  0.40659251164E+02  0.00000000000E+00 0. -1.
         11    1    3    3    0    0  0.31606746149E+01  0.17963262969E+01 -0.73229307704E+00  0.37084910136E+01  0.51100000000E-03 0. -1.
        -11    1    3    3    0    0 -0.19040211649E+02  0.17376179065E+01  0.11929977555E+02  0.22536045358E+02  0.51100000000E-03 0.  1.
        -12    1    3    3    0    0 -0.22549076542E+02 -0.89672380757E+01  0.92236838769E+00  0.24284212465E+02  0.00000000000E+00 0.  1.
</event>
<event>
 7    1  0.3135058E-011  0.5052887E+02  0.7816164E-02  0.1300439E+00
        -11   -1    0    0    0    0  0.00000000000E+00  0.00000000000E+00  0.45593999997E+02  0.45594000000E+02  0.51100000000E-03 0.  1.
         11   -1    0    0    0    0 -0.00000000000E+00 -0.00000000000E+00 -0.45593999997E+02  0.45594000000E+02  0.51100000000E-03 0. -1.
    9900012    2    1    2    0    0  0.40448234994E+02  0.31579158378E+01 -0.26707393476E+01  0.50528868243E+02  0.30000025512E+02 0.  0.
         12    1    1    2    0    0 -0.40448234994E+02 -0.31579158378E+01  0.26707393476E+01  0.40659131757E+02  0.00000000000E+00 0. -1.
         11    1    3    3    0    0 -0.11099005701E+01 -0.44868684202E+01 -0.24210085088E+01  0.52177725091E+01  0.51100000000E-03 0. -1.
        -11    1    3    3    0    0  0.27944087856E+02  0.51346238261E+01  0.75814675361E+01  0.29406037785E+02  0.51100000000E-03 0.  1.
        -12    1    3    3    0    0  0.13614047708E+02  0.25101604318E+01 -0.78311983749E+01  0.15905057949E+02  0.00000000000E+00 0.  1.
</event>
<event>
 7    1  0.2891523E-011  0.5052886E+02  0.7816164E-02  0.1300439E+00
        -11   -1    0    0    0    0  0.00000000000E+00  0.00000000000E+00  0.45593999997E+02  0.45594000000E+02  0.51100000000E-03 0. -1.
         11   -1    0    0    0    0 -0.00000000000E+00 -0.00000000000E+00 -0.45593999997E+02  0.45594000000E+02  0.51100000000E-03 0.  1.
    9900012    2    1    2    0    0 -0.30038866071E+02 -0.55446070997E+01 -0.26834488169E+02  0.50528857142E+02  0.29999991768E+02 0.  0.
         12    1    1    2    0    0  0.30038866071E+02  0.55446070997E+01  0.26834488169E+02  0.40659142858E+02  0.00000000000E+00 0. -1.
         11    1    3    3    0    0 -0.23912899418E+02  0.20576377131E+01 -0.30485338377E+02  0.38799697006E+02  0.51100000000E-03 0. -1.
        -11    1    3    3    0    0 -0.25203105775E+01 -0.55142621539E+01 -0.18501029312E+00  0.60657465805E+01  0.51100000000E-03 0.  1.
        -12    1    3    3    0    0 -0.36056560748E+01 -0.20879826588E+01  0.38358605011E+01  0.56634135552E+01  0.00000000000E+00 0.  1.
</event>
<event>
 7    1  0.2891523E-011  0.5052884E+02  0.7816164E-02  0.1300439E+00
        -11   -1    0    0    0    0  0.00000000000E+00  0.00000000000E+00  0.45593999997E+02  0.45594000000E+02  0.51100000000E-03 0.  1.
         11   -1    0    0    0    0 -0.00000000000E+00 -0.00000000000E+00 -0.45593999997E+02  0.45594000000E+02  0.51100000000E-03 0. -1.
    9900012    2    1    2    0    0  0.13960855118E+02 -0.21001744034E+01  0.38129399575E+02  0.50528839653E+02  0.29999938610E+02 0.  0.
         12    1    1    2    0    0 -0.13960855118E+02  0.21001744034E+01 -0.38129399575E+02  0.40659160347E+02  0.00000000000E+00 0. -1.
         11    1    3    3    0    0 -0.13144988884E+00 -0.46450147057E+01 -0.35011746150E+01  0.58182183386E+01  0.51100000000E-03 0. -1.
        -11    1    3    3    0    0  0.80529808787E+01  0.49516678239E+01  0.19954189425E+02  0.22080289652E+02  0.51100000000E-03 0.  1.
         12    1    3    3    0    0  0.60393241276E+01 -0.24068275216E+01  0.21676384766E+02  0.22630331662E+02  0.00000000000E+00 0. -1.
</event>
<event>
 7    1  0.2891523E-011  0.5052886E+02  0.7816164E-02  0.1300439E+00
        -11   -1    0    0    0    0  0.00000000000E+00  0.00000000000E+00  0.45593999997E+02  0.45594000000E+02  0.51100000000E-03 0.  1.
         11   -1    0    0    0    0 -0.00000000000E+00 -0.00000000000E+00 -0.45593999997E+02  0.45594000000E+02  0.51100000000E-03 0. -1.
    9900012    2    1    2    0    0 -0.22453697895E+02 -0.33870028673E+02  0.13484297614E+01  0.50528860139E+02  0.30000000877E+02 0.  0.
         12    1    1    2    0    0  0.22453697895E+02  0.33870028673E+02 -0.13484297614E+01  0.40659139861E+02  0.00000000000E+00 0. -1.
         11    1    3    3    0    0 -0.81155710543E+00  0.46827537423E+01 -0.99262563547E+00  0.48551120955E+01  0.51100000000E-03 0. -1.
        -11    1    3    3    0    0 -0.12632019267E+02 -0.17321136124E+02  0.61368622303E+01  0.22299119841E+02  0.51100000000E-03 0.  1.
         12    1    3    3    0    0 -0.90101215228E+01 -0.21231646291E+02 -0.37958068335E+01  0.23374628202E+02  0.00000000000E+00 0. -1.
</event>
<event>
 7    1  0.2891523E-011  0.5052886E+02  0.7816164E-02  0.1300439E+00
        -11   -1    0    0    0    0  0.00000000000E+00  0.00000000000E+00  0.45593999997E+02  0.45594000000E+02  0.51100000000E-03 0. -1.
         11   -1    0    0    0    0 -0.00000000000E+00 -0.00000000000E+00 -0.45593999997E+02  0.45594000000E+02  0.51100000000E-03 0.  1.
    9900012    2    1    2    0    0 -0.28825273702E+02 -0.17371325212E+02 -0.22814605417E+02  0.50528861249E+02  0.30000004254E+02 0.  0.
         12    1    1    2    0    0  0.28825273702E+02  0.17371325212E+02  0.22814605417E+02  0.40659138751E+02  0.00000000000E+00 0. -1.
         11    1    3    3    0    0  0.11856722247E+01 -0.68411119419E+01  0.47310704190E+01  0.84017652191E+01  0.51100000000E-03 0. -1.
        -11    1    3    3    0    0 -0.25889099296E+02 -0.83238509326E+01 -0.23264039043E+02  0.35787532320E+02  0.51100000000E-03 0.  1.
         12    1    3    3    0    0 -0.41218466308E+01 -0.22063623377E+01 -0.42816367924E+01  0.63395637102E+01  0.00000000000E+00 0. -1.
</event>
<event>
 7    1  0.2891523E-011  0.5052885E+02  0.7816164E-02  0.1300439E+00
        -11   -1    0    0    0    0  0.00000000000E+00  0.00000000000E+00  0.45593999997E+02  0.45594000000E+02  0.51100000000E-03 0. -1.
         11   -1    0    0    0    0 -0.00000000000E+00 -0.00000000000E+00 -0.45593999997E+02  0.45594000000E+02  0.51100000000E-03 0.  1.
    9900012    2    1    2    0    0 -0.44934945670E+00  0.32461219135E+02 -0.24479251207E+02  0.50528850940E+02  0.29999972916E+02 0.  0.
         12    1    1    2    0    0  0.44934945670E+00 -0.32461219135E+02  0.24479251207E+02  0.40659149060E+02  0.00000000000E+00 0. -1.
         11    1    3    3    0    0 -0.20966049394E+00 -0.53946906097E+00 -0.12736187133E+02  0.12749331251E+02  0.51100000000E-03 0.  1.
        -11    1    3    3    0    0 -0.70059309767E+01  0.17249927041E+02 -0.44048372392E+01  0.19132319335E+02  0.51100000000E-03 0. -1.
        -12    1    3    3    0    0  0.67662420139E+01  0.15750761156E+02 -0.73382268340E+01  0.18647200354E+02  0.00000000000E+00 0.  1.
</event>
<event>
 7    1  0.2891523E-011  0.5052898E+02  0.7816164E-02  0.1300438E+00
        -11   -1    0    0    0    0  0.00000000000E+00  0.00000000000E+00  0.45593999997E+02  0.45594000000E+02  0.51100000000E-03 0. -1.
         11   -1    0    0    0    0 -0.00000000000E+00 -0.00000000000E+00 -0.45593999997E+02  0.45594000000E+02  0.51100000000E-03 0.  1.
    9900012    2    1    2    0    0 -0.11321238029E+02  0.94775223889E+01 -0.37883534802E+02  0.50528977997E+02  0.30000359117E+02 0.  0.
         12    1    1    2    0    0  0.11321238029E+02 -0.94775223889E+01  0.37883534802E+02  0.40659022003E+02  0.00000000000E+00 0. -1.
         11    1    3    3    0    0  0.13075957068E+01 -0.29501670758E+01 -0.15302127289E+02  0.15638682558E+02  0.51100000000E-03 0. -1.
        -11    1    3    3    0    0 -0.13888656777E+02  0.11419572091E+02 -0.71105010227E+01  0.19335476174E+02  0.51100000000E-03 0.  1.
        -12    1    3    3    0    0  0.12598230416E+01  0.10081173734E+01 -0.15470906490E+02  0.15554819265E+02  0.00000000000E+00 0.  1.
</event>
<event>
 7    1  0.2891523E-011  0.5052886E+02  0.7816164E-02  0.1300439E+00
        -11   -1    0    0    0    0  0.00000000000E+00  0.00000000000E+00  0.45593999997E+02  0.45594000000E+02  0.51100000000E-03 0.  1.
         11   -1    0    0    0    0 -0.00000000000E+00 -0.00000000000E+00 -0.45593999997E+02  0.45594000000E+02  0.51100000000E-03 0. -1.
    9900012    2    1    2    0    0  0.38049296085E+02  0.10857928308E+02 -0.93553353915E+01  0.50528857854E+02  0.29999993933E+02 0.  0.
         12    1    1    2    0    0 -0.38049296085E+02 -0.10857928308E+02  0.93553353915E+01  0.40659142146E+02  0.00000000000E+00 0. -1.
         11    1    3    3    0    0  0.40049304426E+02  0.35167467161E+01 -0.10261497552E+02  0.41492320069E+02  0.51100000000E-03 0. -1.
        -11    1    3    3    0    0 -0.10449328580E+01  0.76334933135E+01  0.25186424415E-01  0.77047218939E+01  0.51100000000E-03 0.  1.
         12    1    3    3    0    0 -0.95507548244E+00 -0.29231172130E+00  0.88097573608E+00  0.13318158909E+01  0.00000000000E+00 0. -1.
</event>
<event>
 7    1  0.2891523E-011  0.5052886E+02  0.7816164E-02  0.1300439E+00
        -11   -1    0    0    0    0  0.00000000000E+00  0.00000000000E+00  0.45593999997E+02  0.45594000000E+02  0.51100000000E-03 0.  1.
         11   -1    0    0    0    0 -0.00000000000E+00 -0.00000000000E+00 -0.45593999997E+02  0.45594000000E+02  0.51100000000E-03 0. -1.
    9900012    2    1    2    0    0  0.79115995290E+01  0.20497230359E+02  0.34211630396E+02  0.50528861865E+02  0.30000006126E+02 0.  0.
         12    1    1    2    0    0 -0.79115995290E+01 -0.20497230359E+02 -0.34211630396E+02  0.40659138135E+02  0.00000000000E+00 0. -1.
         11    1    3    3    0    0 -0.20480225375E+01  0.39091261961E+01 -0.35806886229E+01  0.56830445367E+01  0.51100000000E-03 0. -1.
        -11    1    3    3    0    0  0.11404168642E+02  0.12781589262E+02  0.36893749964E+02  0.40676441255E+02  0.51100000000E-03 0.  1.
        -12    1    3    3    0    0 -0.14445465756E+01  0.38065149008E+01  0.89856905506E+00  0.41693760739E+01  0.00000000000E+00 0.  1.
</event>
<event>
 7    1  0.2891523E-011  0.5052886E+02  0.7816164E-02  0.1300439E+00
        -11   -1    0    0    0    0  0.00000000000E+00  0.00000000000E+00  0.45593999997E+02  0.45594000000E+02  0.51100000000E-03 0.  1.
         11   -1    0    0    0    0 -0.00000000000E+00 -0.00000000000E+00 -0.45593999997E+02  0.45594000000E+02  0.51100000000E-03 0. -1.
    9900012    2    1    2    0    0 -0.17100172978E+01 -0.27240468381E+02  0.30136326719E+02  0.50528862468E+02  0.30000007956E+02 0.  0.
         12    1    1    2    0    0  0.17100172978E+01  0.27240468381E+02 -0.30136326719E+02  0.40659137532E+02  0.00000000000E+00 0. -1.
         11    1    3    3    0    0  0.12144485196E+02 -0.19050114577E+02  0.10930726253E+02  0.25097333778E+02  0.51100000000E-03 0. -1.
        -11    1    3    3    0    0 -0.76469190792E+01 -0.47270126845E+01  0.13931290878E+02  0.16580135287E+02  0.51100000000E-03 0.  1.
         12    1    3    3    0    0 -0.62075834144E+01 -0.34633411193E+01  0.52743095878E+01  0.88513934035E+01  0.00000000000E+00 0. -1.
</event>
<event>
 7    1  0.2891523E-011  0.5052886E+02  0.7816164E-02  0.1300439E+00
        -11   -1    0    0    0    0  0.00000000000E+00  0.00000000000E+00  0.45593999997E+02  0.45594000000E+02  0.51100000000E-03 0. -1.
         11   -1    0    0    0    0 -0.00000000000E+00 -0.00000000000E+00 -0.45593999997E+02  0.45594000000E+02  0.51100000000E-03 0.  1.
    9900012    2    1    2    0    0 -0.12532359933E+02  0.35424087329E+02 -0.15531887874E+02  0.50528861427E+02  0.30000004793E+02 0.  0.
         12    1    1    2    0    0  0.12532359933E+02 -0.35424087329E+02  0.15531887874E+02  0.40659138573E+02  0.00000000000E+00 0. -1.
         11    1    3    3    0    0  0.50045261471E+00  0.12340761217E+02  0.74949222195E+01  0.14447100041E+02  0.51100000000E-03 0. -1.
        -11    1    3    3    0    0 -0.12057161955E+02  0.18966903029E+02 -0.15037556520E+02  0.27041573017E+02  0.51100000000E-03 0.  1.
         12    1    3    3    0    0 -0.97565059253E+00  0.41164230832E+01 -0.79892535738E+01  0.90401883689E+01  0.00000000000E+00 0. -1.
</event>
<event>
 7    1  0.2891523E-011  0.5052886E+02  0.7816164E-02  0.1300439E+00
        -11   -1    0    0    0    0  0.00000000000E+00  0.00000000000E+00  0.45593999997E+02  0.45594000000E+02  0.51100000000E-03 0.  1.
         11   -1    0    0    0    0 -0.00000000000E+00 -0.00000000000E+00 -0.45593999997E+02  0.45594000000E+02  0.51100000000E-03 0. -1.
    9900012    2    1    2    0    0 -0.16208283898E+02  0.29320065241E+02  0.23038905689E+02  0.50528857510E+02  0.29999992888E+02 0.  0.
         12    1    1    2    0    0  0.16208283898E+02 -0.29320065241E+02 -0.23038905689E+02  0.40659142490E+02  0.00000000000E+00 0. -1.
         11    1    3    3    0    0 -0.13452129504E+02  0.67474637450E+01  0.13818585928E+02  0.20431382051E+02  0.51100000000E-03 0.  1.
        -11    1    3    3    0    0  0.64943164855E+01  0.45532711735E+01  0.22461054449E+00  0.79346628883E+01  0.51100000000E-03 0. -1.
         12    1    3    3    0    0 -0.92504708795E+01  0.18019330322E+02  0.89957092166E+01  0.22162812571E+02  0.00000000000E+00 0. -1.
</event>
<event>
 7    1  0.2891523E-011  0.5052886E+02  0.7816164E-02  0.1300439E+00
        -11   -1    0    0    0    0  0.00000000000E+00  0.00000000000E+00  0.45593999997E+02  0.45594000000E+02  0.51100000000E-03 0. -1.
         11   -1    0    0    0    0 -0.00000000000E+00 -0.00000000000E+00 -0.45593999997E+02  0.45594000000E+02  0.51100000000E-03 0.  1.
    9900012    2    1    2    0    0 -0.24818124330E+02 -0.31559624503E+02  0.64199792740E+01  0.50528864152E+02  0.30000013077E+02 0.  0.
         12    1    1    2    0    0  0.24818124330E+02  0.31559624503E+02 -0.64199792740E+01  0.40659135848E+02  0.00000000000E+00 0. -1.
         11    1    3    3    0    0  0.34150997671E+00 -0.12582232608E+01  0.25955746487E+01  0.29046106204E+01  0.51100000000E-03 0. -1.
        -11    1    3    3    0    0 -0.27450327896E+02 -0.33639723795E+02  0.33374974914E+01  0.43546416710E+02  0.51100000000E-03 0.  1.
        -12    1    3    3    0    0  0.22906935892E+01  0.33383225527E+01  0.48690713397E+00  0.40778368214E+01  0.00000000000E+00 0.  1.
</event>
<event>
 7    1  0.2891523E-011  0.5052887E+02  0.7816164E-02  0.1300439E+00
        -11   -1    0    0    0    0  0.00000000000E+00  0.00000000000E+00  0.45593999997E+02  0.45594000000E+02  0.51100000000E-03 0. -1.
         11   -1    0    0    0    0 -0.00000000000E+00 -0.00000000000E+00 -0.45593999997E+02  0.45594000000E+02  0.51100000000E-03 0.  1.
    9900012    2    1    2    0    0 -0.37506272102E+02 -0.63339114985E+01  0.14364056983E+02  0.50528868002E+02  0.30000024777E+02 0.  0.
         12    1    1    2    0    0  0.37506272102E+02  0.63339114985E+01 -0.14364056983E+02  0.40659131998E+02  0.00000000000E+00 0. -1.
         11    1    3    3    0    0 -0.12658791499E+02 -0.15703703116E+02  0.40832164790E+01  0.20579697540E+02  0.51100000000E-03 0. -1.
        -11    1    3    3    0    0 -0.19002345675E+02  0.26253293001E+01  0.64675416744E+01  0.20243779061E+02  0.51100000000E-03 0.  1.
         12    1    3    3    0    0 -0.58451349283E+01  0.67444623174E+01  0.38132988293E+01  0.97053914008E+01  0.00000000000E+00 0. -1.
</event>
<event>
 7    1  0.2891523E-011  0.5052880E+02  0.7816164E-02  0.1300439E+00
        -11   -1    0    0    0    0  0.00000000000E+00  0.00000000000E+00  0.45593999997E+02  0.45594000000E+02  0.51100000000E-03 0. -1.
         11   -1    0    0    0    0 -0.00000000000E+00 -0.00000000000E+00 -0.45593999997E+02  0.45594000000E+02  0.51100000000E-03 0.  1.
    9900012    2    1    2    0    0  0.12977786656E+02  0.24237338448E+02 -0.29954947795E+02  0.50528801546E+02  0.29999822779E+02 0.  0.
         12    1    1    2    0    0 -0.12977786656E+02 -0.24237338448E+02  0.29954947795E+02  0.40659198454E+02  0.00000000000E+00 0. -1.
         11    1    3    3    0    0  0.13020072211E+01 -0.60183606573E+01 -0.22865329562E+00  0.61618317403E+01  0.51100000000E-03 0. -1.
        -11    1    3    3    0    0  0.57302132311E+01  0.13759645359E+02 -0.17517382418E+02  0.23000475454E+02  0.51100000000E-03 0.  1.
         12    1    3    3    0    0  0.59455662041E+01  0.16496053745E+02 -0.12208912082E+02  0.21366494352E+02  0.00000000000E+00 0. -1.
</event>
<event>
 7    1  0.2891523E-011  0.5052886E+02  0.7816164E-02  0.1300439E+00
        -11   -1    0    0    0    0  0.00000000000E+00  0.00000000000E+00  0.45593999997E+02  0.45594000000E+02  0.51100000000E-03 0.  1.
         11   -1    0    0    0    0 -0.00000000000E+00 -0.00000000000E+00 -0.45593999997E+02  0.45594000000E+02  0.51100000000E-03 0. -1.
    9900012    2    1    2    0    0 -0.93816479466E+01 -0.30864919132E+02  0.24748880014E+02  0.50528860645E+02  0.30000002415E+02 0.  0.
         12    1    1    2    0    0  0.93816479466E+01  0.30864919132E+02 -0.24748880014E+02  0.40659139355E+02  0.00000000000E+00 0. -1.
         11    1    3    3    0    0 -0.41204773867E+01  0.39746580490E+01 -0.95493186267E+00  0.58041481394E+01  0.51100000000E-03 0. -1.
        -11    1    3    3    0    0  0.20384175964E+01 -0.99635066620E+01  0.10740556196E+02  0.14791421803E+02  0.51100000000E-03 0.  1.
         12    1    3    3    0    0 -0.72995881562E+01 -0.24876070519E+02  0.14963255681E+02  0.29933290702E+02  0.00000000000E+00 0. -1.
</event>
<event>
 7    1  0.2891523E-011  0.5052885E+02  0.7816164E-02  0.1300439E+00
        -11   -1    0    0    0    0  0.00000000000E+00  0.00000000000E+00  0.45593999997E+02  0.45594000000E+02  0.51100000000E-03 0. -1.
         11   -1    0    0    0    0 -0.00000000000E+00 -0.00000000000E+00 -0.45593999997E+02  0.45594000000E+02  0.51100000000E-03 0.  1.
    9900012    2    1    2    0    0 -0.18142209376E+02 -0.87583030540E+01 -0.35317395766E+02  0.50528854939E+02  0.29999985071E+02 0.  0.
         12    1    1    2    0    0  0.18142209376E+02  0.87583030540E+01  0.35317395766E+02  0.40659145061E+02  0.00000000000E+00 0. -1.
         11    1    3    3    0    0 -0.79362550274E+01  0.27360473179E+01 -0.29922222913E+01  0.89119859340E+01  0.51100000000E-03 0. -1.
        -11    1    3    3    0    0 -0.10053508838E+02 -0.15939668613E+02 -0.32025528822E+02  0.37158855903E+02  0.51100000000E-03 0.  1.
        -12    1    3    3    0    0 -0.15244551126E+00  0.44453182409E+01 -0.29964465276E+00  0.44580131017E+01  0.00000000000E+00 0.  1.
</event>
<event>
 7    1  0.2891523E-011  0.5052886E+02  0.7816164E-02  0.1300439E+00
        -11   -1    0    0    0    0  0.00000000000E+00  0.00000000000E+00  0.45593999997E+02  0.45594000000E+02  0.51100000000E-03 0.  1.
         11   -1    0    0    0    0 -0.00000000000E+00 -0.00000000000E+00 -0.45593999997E+02  0.45594000000E+02  0.51100000000E-03 0. -1.
    9900012    2    1    2    0    0 -0.36713460172E+02 -0.15221687227E+02 -0.85783380786E+01  0.50528858297E+02  0.29999995281E+02 0.  0.
         12    1    1    2    0    0  0.36713460172E+02  0.15221687227E+02  0.85783380786E+01  0.40659141703E+02  0.00000000000E+00 0. -1.
         11    1    3    3    0    0 -0.40825851764E+01 -0.50371579509E+01  0.59798426242E+01  0.88203730089E+01  0.51100000000E-03 0.  1.
        -11    1    3    3    0    0 -0.20369803944E+02 -0.18715033737E+01 -0.17120789714E+02  0.26674948515E+02  0.51100000000E-03 0. -1.
         12    1    3    3    0    0 -0.12261071052E+02 -0.83130259021E+01  0.25626090113E+01  0.15033536774E+02  0.00000000000E+00 0. -1.
</event>
<event>
 7    1  0.2891523E-011  0.5052887E+02  0.7816164E-02  0.1300439E+00
        -11   -1    0    0    0    0  0.00000000000E+00  0.00000000000E+00  0.45593999997E+02  0.45594000000E+02  0.51100000000E-03 0.  1.
         11   -1    0    0    0    0 -0.00000000000E+00 -0.00000000000E+00 -0.45593999997E+02  0.45594000000E+02  0.51100000000E-03 0. -1.
    9900012    2    1    2    0    0  0.33294186988E+02  0.18260258180E+02  0.14533587091E+02  0.50528867327E+02  0.30000022727E+02 0.  0.
         12    1    1    2    0    0 -0.33294186988E+02 -0.18260258180E+02 -0.14533587091E+02  0.40659132673E+02  0.00000000000E+00 0. -1.
         11    1    3    3    0    0 -0.11937058459E+01 -0.17637781723E+00 -0.43169883379E+01  0.44824581818E+01  0.51100000000E-03 0. -1.
        -11    1    3    3    0    0  0.20254446580E+02  0.18523101350E+02  0.15100978473E+02  0.31327103936E+02  0.51100000000E-03 0.  1.
         12    1    3    3    0    0  0.14233446254E+02 -0.86465352894E-01  0.37495969555E+01  0.14719305209E+02  0.00000000000E+00 0. -1.
</event>
<event>
 7    1  0.2891523E-011  0.5052885E+02  0.7816164E-02  0.1300439E+00
        -11   -1    0    0    0    0  0.00000000000E+00  0.00000000000E+00  0.45593999997E+02  0.45594000000E+02  0.51100000000E-03 0. -1.
         11   -1    0    0    0    0 -0.00000000000E+00 -0.00000000000E+00 -0.45593999997E+02  0.45594000000E+02  0.51100000000E-03 0.  1.
    9900012    2    1    2    0    0 -0.25094832183E+02  0.28861539072E+02 -0.13799538401E+02  0.50528852198E+02  0.29999976740E+02 0.  0.
         12    1    1    2    0    0  0.25094832183E+02 -0.28861539072E+02  0.13799538401E+02  0.40659147802E+02  0.00000000000E+00 0. -1.
         11    1    3    3    0    0 -0.94746266323E+01  0.24407665039E+02  0.21470620765E+01  0.26269993116E+02  0.51100000000E-03 0. -1.
        -11    1    3    3    0    0 -0.13883166904E+02  0.25589693177E+01 -0.87304889924E+01  0.16598556731E+02  0.51100000000E-03 0.  1.
        -12    1    3    3    0    0 -0.17370386474E+01  0.18949047156E+01 -0.72161114851E+01  0.76603023511E+01  0.00000000000E+00 0.  1.
</event>
<event>
 7    1  0.2891523E-011  0.5052886E+02  0.7816164E-02  0.1300439E+00
        -11   -1    0    0    0    0  0.00000000000E+00  0.00000000000E+00  0.45593999997E+02  0.45594000000E+02  0.51100000000E-03 0.  1.
         11   -1    0    0    0    0 -0.00000000000E+00 -0.00000000000E+00 -0.45593999997E+02  0.45594000000E+02  0.51100000000E-03 0. -1.
    9900012    2    1    2    0    0  0.32405513186E+02  0.18552886521E+02  0.16088464632E+02  0.50528861085E+02  0.30000003753E+02 0.  0.
         12    1    1    2    0    0 -0.32405513186E+02 -0.18552886521E+02 -0.16088464632E+02  0.40659138915E+02  0.00000000000E+00 0. -1.
         11    1    3    3    0    0  0.29947070719E+02  0.63513738461E+01  0.60130191589E+01  0.31198131259E+02  0.51100000000E-03 0. -1.
        -11    1    3    3    0    0  0.47542353934E+01  0.29787404944E+01  0.77124458523E+01  0.95371625967E+01  0.51100000000E-03 0.  1.
         12    1    3    3    0    0 -0.22957929269E+01  0.92227721806E+01  0.23629996212E+01  0.97935672290E+01  0.00000000000E+00 0. -1.
</event>
<event>
 7    1  0.2891523E-011  0.5052887E+02  0.7816164E-02  0.1300439E+00
        -11   -1    0    0    0    0  0.00000000000E+00  0.00000000000E+00  0.45593999997E+02  0.45594000000E+02  0.51100000000E-03 0. -1.
         11   -1    0    0    0    0 -0.00000000000E+00 -0.00000000000E+00 -0.45593999997E+02  0.45594000000E+02  0.51100000000E-03 0.  1.
    9900012    2    1    2    0    0 -0.22470742523E+02  0.31554437831E+02 -0.12351048142E+02  0.50528865645E+02  0.30000017614E+02 0.  0.
         12    1    1    2    0    0  0.22470742523E+02 -0.31554437831E+02  0.12351048142E+02  0.40659134355E+02  0.00000000000E+00 0. -1.
         11    1    3    3    0    0  0.55758277820E+00 -0.46688692106E+01 -0.41559451516E+00  0.47203768200E+01  0.51100000000E-03 0. -1.
        -11    1    3    3    0    0 -0.23471748332E+02  0.35135753348E+02 -0.98072479227E+01  0.43377715998E+02  0.51100000000E-03 0.  1.
         12    1    3    3    0    0  0.44342303073E+00  0.10875536930E+01 -0.21282057037E+01  0.24307728270E+01  0.00000000000E+00 0. -1.
</event>
<event>
 7    1  0.2891523E-011  0.5052887E+02  0.7816164E-02  0.1300439E+00
        -11   -1    0    0    0    0  0.00000000000E+00  0.00000000000E+00  0.45593999997E+02  0.45594000000E+02  0.51100000000E-03 0. -1.
         11   -1    0    0    0    0 -0.00000000000E+00 -0.00000000000E+00 -0.45593999997E+02  0.45594000000E+02  0.51100000000E-03 0.  1.
    9900012    2    1    2    0    0  0.37136445014E+02  0.14588062403E+02 -0.78254290134E+01  0.50528874921E+02  0.30000045810E+02 0.  0.
         12    1    1    2    0    0 -0.37136445014E+02 -0.14588062403E+02  0.78254290134E+01  0.40659125079E+02  0.00000000000E+00 0. -1.
         11    1    3    3    0    0  0.58040900559E+01  0.63064060276E+01  0.71399195395E+01  0.11155118541E+02  0.51100000000E-03 0. -1.
        -11    1    3    3    0    0  0.23508810052E+02 -0.10005432649E+01 -0.13548349542E+02  0.27151850995E+02  0.51100000000E-03 0.  1.
        -12    1    3    3    0    0  0.78235449059E+01  0.92821996402E+01 -0.14169990105E+01  0.12221905385E+02  0.00000000000E+00 0.  1.
</event>
<event>
 7    1  0.2891523E-011  0.5052886E+02  0.7816164E-02  0.1300439E+00
        -11   -1    0    0    0    0  0.00000000000E+00  0.00000000000E+00  0.45593999997E+02  0.45594000000E+02  0.51100000000E-03 0.  1.
         11   -1    0    0    0    0 -0.00000000000E+00 -0.00000000000E+00 -0.45593999997E+02  0.45594000000E+02  0.51100000000E-03 0. -1.
    9900012    2    1    2    0    0  0.12824011985E+02 -0.12079411489E+02  0.36644209726E+02  0.50528861153E+02  0.30000003961E+02 0.  0.
         12    1    1    2    0    0 -0.12824011985E+02  0.12079411489E+02 -0.36644209726E+02  0.40659138847E+02  0.00000000000E+00 0. -1.
         11    1    3    3    0    0 -0.54776039651E+00  0.50586106215E+01  0.31988907267E+00  0.50982263731E+01  0.51100000000E-03 0. -1.
        -11    1    3    3    0    0  0.71053383917E+01 -0.12438900351E+02  0.34546433280E+02  0.37398771747E+02  0.51100000000E-03 0.  1.
        -12    1    3    3    0    0  0.62664339898E+01 -0.46991217596E+01  0.17778873737E+01  0.80318630326E+01  0.00000000000E+00 0.  1.
</event>
<event>
 7    1  0.2891523E-011  0.5052888E+02  0.7816164E-02  0.1300439E+00
        -11   -1    0    0    0    0  0.00000000000E+00  0.00000000000E+00  0.45593999997E+02  0.45594000000E+02  0.51100000000E-03 0.  1.
         11   -1    0    0    0    0 -0.00000000000E+00 -0.00000000000E+00 -0.45593999997E+02  0.45594000000E+02  0.51100000000E-03 0. -1.
    9900012    2    1    2    0    0  0.43965782577E+01  0.25781982599E+02  0.31130751073E+02  0.50528878151E+02  0.30000055629E+02 0.  0.
         12    1    1    2    0    0 -0.43965782577E+01 -0.25781982599E+02 -0.31130751073E+02  0.40659121849E+02  0.00000000000E+00 0. -1.
         11    1    3    3    0    0 -0.43004853072E+01  0.34255325180E+01  0.76355636144E+01  0.94090530278E+01  0.51100000000E-03 0. -1.
        -11    1    3    3    0    0  0.30392736540E+01  0.12299341227E+02 -0.22861264440E+01  0.12873902024E+02  0.51100000000E-03 0.  1.
        -12    1    3    3    0    0  0.56577899110E+01  0.10057108855E+02  0.25781313903E+02  0.28245923099E+02  0.00000000000E+00 0.  1.
</event>
<event>
 7    1  0.2891523E-011  0.5052887E+02  0.7816164E-02  0.1300439E+00
        -11   -1    0    0    0    0  0.00000000000E+00  0.00000000000E+00  0.45593999997E+02  0.45594000000E+02  0.51100000000E-03 0.  1.
         11   -1    0    0    0    0 -0.00000000000E+00 -0.00000000000E+00 -0.45593999997E+02  0.45594000000E+02  0.51100000000E-03 0. -1.
    9900012    2    1    2    0    0 -0.16916788509E+02 -0.13005797212E+02  0.34609766712E+02  0.50528874992E+02  0.30000046025E+02 0.  0.
         12    1    1    2    0    0  0.16916788509E+02  0.13005797212E+02 -0.34609766712E+02  0.40659125008E+02  0.00000000000E+00 0. -1.
         11    1    3    3    0    0 -0.80398800304E+01  0.69834524010E+01  0.29935067539E+01  0.11062068581E+02  0.51100000000E-03 0. -1.
        -11    1    3    3    0    0 -0.66736875390E+01 -0.14053145844E+02  0.28359842603E+02  0.32346710593E+02  0.51100000000E-03 0.  1.
        -12    1    3    3    0    0 -0.22032209401E+01 -0.59361037691E+01  0.32564173552E+01  0.71200958182E+01  0.00000000000E+00 0.  1.
</event>
<event>
 7    1  0.2891523E-011  0.5052886E+02  0.7816164E-02  0.1300439E+00
        -11   -1    0    0    0    0  0.00000000000E+00  0.00000000000E+00  0.45593999997E+02  0.45594000000E+02  0.51100000000E-03 0.  1.
         11   -1    0    0    0    0 -0.00000000000E+00 -0.00000000000E+00 -0.45593999997E+02  0.45594000000E+02  0.51100000000E-03 0. -1.
    9900012    2    1    2    0    0  0.33882884741E+02  0.97326980158E+01  0.20258096740E+02  0.50528858684E+02  0.29999996455E+02 0.  0.
         12    1    1    2    0    0 -0.33882884741E+02 -0.97326980158E+01 -0.20258096740E+02  0.40659141316E+02  0.00000000000E+00 0. -1.
         11    1    3    3    0    0  0.13005209890E+02 -0.32157239053E+01  0.34839380801E+01  0.13842477716E+02  0.51100000000E-03 0. -1.
        -11    1    3    3    0    0 -0.75524236712E-01  0.73252123376E+01  0.12628156879E+02  0.14599136486E+02  0.51100000000E-03 0.  1.
        -12    1    3    3    0    0  0.20953199088E+02  0.56232095835E+01  0.41460017809E+01  0.22087244482E+02  0.00000000000E+00 0.  1.
</event>
<event>
 7    1  0.2891523E-011  0.5052888E+02  0.7816164E-02  0.1300439E+00
        -11   -1    0    0    0    0  0.00000000000E+00  0.00000000000E+00  0.45593999997E+02  0.45594000000E+02  0.51100000000E-03 0.  1.
         11   -1    0    0    0    0 -0.00000000000E+00 -0.00000000000E+00 -0.45593999997E+02  0.45594000000E+02  0.51100000000E-03 0. -1.
    9900012    2    1    2    0    0  0.86687718074E+01 -0.91305009308E+01  0.38660713621E+02  0.50528875199E+02  0.30000046655E+02 0.  0.
         12    1    1    2    0    0 -0.86687718074E+01  0.91305009308E+01 -0.38660713621E+02  0.40659124801E+02  0.00000000000E+00 0. -1.
         11    1    3    3    0    0 -0.27340518861E+01 -0.46543331443E+01  0.85193783428E+00  0.54647648686E+01  0.51100000000E-03 0. -1.
        -11    1    3    3    0    0  0.16297843835E+01  0.97286612875E+00  0.32714579183E+02  0.32769595009E+02  0.51100000000E-03 0.  1.
        -12    1    3    3    0    0  0.97730393100E+01 -0.54490339152E+01  0.50941966034E+01  0.12294515322E+02  0.00000000000E+00 0.  1.
</event>
<event>
 7    1  0.2891523E-011  0.5052883E+02  0.7816164E-02  0.1300439E+00
        -11   -1    0    0    0    0  0.00000000000E+00  0.00000000000E+00  0.45593999997E+02  0.45594000000E+02  0.51100000000E-03 0. -1.
         11   -1    0    0    0    0 -0.00000000000E+00 -0.00000000000E+00 -0.45593999997E+02  0.45594000000E+02  0.51100000000E-03 0.  1.
    9900012    2    1    2    0    0 -0.50103901646E+01 -0.38950891467E+02  0.10530521204E+02  0.50528833352E+02  0.29999919458E+02 0.  0.
         12    1    1    2    0    0  0.50103901646E+01  0.38950891467E+02 -0.10530521204E+02  0.40659166648E+02  0.00000000000E+00 0. -1.
         11    1    3    3    0    0 -0.91404372706E+01 -0.17123335310E+02 -0.52032459394E+01  0.20095521247E+02  0.51100000000E-03 0.  1.
        -11    1    3    3    0    0  0.45316558709E+01 -0.69115709615E+00  0.47836032999E+01  0.66254406537E+01  0.51100000000E-03 0. -1.
        -12    1    3    3    0    0 -0.40160876501E+00 -0.21136399061E+02  0.10950163844E+02  0.23807871452E+02  0.00000000000E+00 0.  1.
</event>
<event>
 7    1  0.2891523E-011  0.5052886E+02  0.7816164E-02  0.1300439E+00
        -11   -1    0    0    0    0  0.00000000000E+00  0.00000000000E+00  0.45593999997E+02  0.45594000000E+02  0.51100000000E-03 0.  1.
         11   -1    0    0    0    0 -0.00000000000E+00 -0.00000000000E+00 -0.45593999997E+02  0.45594000000E+02  0.51100000000E-03 0. -1.
    9900012    2    1    2    0    0  0.21597362767E+02  0.33941797429E+02  0.58884707159E+01  0.50528858610E+02  0.29999996230E+02 0.  0.
         12    1    1    2    0    0 -0.21597362767E+02 -0.33941797429E+02 -0.58884707159E+01  0.40659141390E+02  0.00000000000E+00 0. -1.
         11    1    3    3    0    0  0.32265890457E+01 -0.15654952861E+01  0.88174665040E+01  0.95188953230E+01  0.51100000000E-03 0. -1.
        -11    1    3    3    0    0  0.10549015960E+02  0.19573567628E+02  0.26767296279E+01  0.22395784630E+02  0.51100000000E-03 0.  1.
         12    1    3    3    0    0  0.78217577614E+01  0.15933725087E+02 -0.56057254160E+01  0.18614178657E+02  0.00000000000E+00 0. -1.
</event>
<event>
 7    1  0.2891523E-011  0.5052886E+02  0.7816164E-02  0.1300439E+00
        -11   -1    0    0    0    0  0.00000000000E+00  0.00000000000E+00  0.45593999997E+02  0.45594000000E+02  0.51100000000E-03 0. -1.
         11   -1    0    0    0    0 -0.00000000000E+00 -0.00000000000E+00 -0.45593999997E+02  0.45594000000E+02  0.51100000000E-03 0.  1.
    9900012    2    1    2    0    0 -0.39112465547E+02 -0.74237672021E+01  0.82624525374E+01  0.50528863233E+02  0.30000010285E+02 0.  0.
         12    1    1    2    0    0  0.39112465547E+02  0.74237672021E+01 -0.82624525374E+01  0.40659136767E+02  0.00000000000E+00 0. -1.
         11    1    3    3    0    0 -0.10497505916E+02 -0.92332500410E+01 -0.90926627766E+01  0.16677141644E+02  0.51100000000E-03 0. -1.
        -11    1    3    3    0    0 -0.18919398266E+02 -0.28098236304E+00  0.93481869847E+01  0.21104766807E+02  0.51100000000E-03 0.  1.
         12    1    3    3    0    0 -0.96955613656E+01  0.20904652020E+01  0.80069283293E+01  0.12746954782E+02  0.00000000000E+00 0. -1.
</event>
<event>
 7    1  0.2891523E-011  0.5052886E+02  0.7816164E-02  0.1300439E+00
        -11   -1    0    0    0    0  0.00000000000E+00  0.00000000000E+00  0.45593999997E+02  0.45594000000E+02  0.51100000000E-03 0.  1.
         11   -1    0    0    0    0 -0.00000000000E+00 -0.00000000000E+00 -0.45593999997E+02  0.45594000000E+02  0.51100000000E-03 0. -1.
    9900012    2    1    2    0    0 -0.80370695142E+01  0.17690715121E+02  0.35715679654E+02  0.50528860055E+02  0.30000000625E+02 0.  0.
         12    1    1    2    0    0  0.80370695142E+01 -0.17690715121E+02 -0.35715679654E+02  0.40659139945E+02  0.00000000000E+00 0. -1.
         11    1    3    3    0    0  0.14138432533E+01  0.14793666921E+02  0.10746073724E+02  0.18339292093E+02  0.51100000000E-03 0. -1.
        -11    1    3    3    0    0 -0.14137761252E+02  0.40549714971E+01  0.22181276226E+02  0.26614434098E+02  0.51100000000E-03 0.  1.
         12    1    3    3    0    0  0.46868484846E+01 -0.11579232967E+01  0.27883297037E+01  0.55751338652E+01  0.00000000000E+00 0. -1.
</event>
<event>
 7    1  0.2891523E-011  0.5052893E+02  0.7816164E-02  0.1300439E+00
        -11   -1    0    0    0    0  0.00000000000E+00  0.00000000000E+00  0.45593999997E+02  0.45594000000E+02  0.51100000000E-03 0. -1.
         11   -1    0    0    0    0 -0.00000000000E+00 -0.00000000000E+00 -0.45593999997E+02  0.45594000000E+02  0.51100000000E-03 0.  1.
    9900012    2    1    2    0    0 -0.18002431362E+02  0.36430862507E+02 -0.13656491386E+01  0.50528926283E+02  0.30000201930E+02 0.  0.
         12    1    1    2    0    0  0.18002431362E+02 -0.36430862507E+02  0.13656491386E+01  0.40659073717E+02  0.00000000000E+00 0. -1.
         11    1    3    3    0    0 -0.21014820172E+02  0.22615377060E+02  0.41254705380E+01  0.31146387492E+02  0.51100000000E-03 0. -1.
        -11    1    3    3    0    0 -0.19657380061E+01  0.10414932512E+02 -0.75488602080E+01  0.13012310933E+02  0.51100000000E-03 0.  1.
         12    1    3    3    0    0  0.49781268158E+01  0.34005529357E+01  0.20577405315E+01  0.63702278576E+01  0.00000000000E+00 0. -1.
</event>
<event>
 7    1  0.2891523E-011  0.5052885E+02  0.7816164E-02  0.1300439E+00
        -11   -1    0    0    0    0  0.00000000000E+00  0.00000000000E+00  0.45593999997E+02  0.45594000000E+02  0.51100000000E-03 0.  1.
         11   -1    0    0    0    0 -0.00000000000E+00 -0.00000000000E+00 -0.45593999997E+02  0.45594000000E+02  0.51100000000E-03 0. -1.
    9900012    2    1    2    0    0 -0.34230838614E+02 -0.48703305296E+01  0.21393827599E+02  0.50528852308E+02  0.29999977075E+02 0.  0.
         12    1    1    2    0    0  0.34230838614E+02  0.48703305296E+01 -0.21393827599E+02  0.40659147692E+02  0.00000000000E+00 0. -1.
         11    1    3    3    0    0 -0.46841606955E+01  0.71839868257E+01  0.11385526338E+02  0.14254165650E+02  0.51100000000E-03 0. -1.
        -11    1    3    3    0    0 -0.20448380275E+02 -0.39250201311E+01  0.11815590066E+02  0.23940555711E+02  0.51100000000E-03 0.  1.
         12    1    3    3    0    0 -0.90982976441E+01 -0.81292972242E+01 -0.18072888047E+01  0.12334130946E+02  0.00000000000E+00 0. -1.
</event>
<event>
 7    1  0.2891523E-011  0.5052884E+02  0.7816164E-02  0.1300439E+00
        -11   -1    0    0    0    0  0.00000000000E+00  0.00000000000E+00  0.45593999997E+02  0.45594000000E+02  0.51100000000E-03 0. -1.
         11   -1    0    0    0    0 -0.00000000000E+00 -0.00000000000E+00 -0.45593999997E+02  0.45594000000E+02  0.51100000000E-03 0.  1.
    9900012    2    1    2    0    0  0.31666784001E+02 -0.16497499778E+02 -0.19447737798E+02  0.50528840966E+02  0.29999942600E+02 0.  0.
         12    1    1    2    0    0 -0.31666784001E+02  0.16497499778E+02  0.19447737798E+02  0.40659159034E+02  0.00000000000E+00 0. -1.
         11    1    3    3    0    0  0.45901590455E+01 -0.30224334898E+01  0.68662286948E+01  0.87948712904E+01  0.51100000000E-03 0. -1.
        -11    1    3    3    0    0  0.24422243415E+02 -0.85051545928E+01 -0.17334121174E+02  0.31132866640E+02  0.51100000000E-03 0.  1.
        -12    1    3    3    0    0  0.26543815402E+01 -0.49699116956E+01 -0.89798453192E+01  0.10601103036E+02  0.00000000000E+00 0.  1.
</event>
<event>
 7    1  0.2891523E-011  0.5052889E+02  0.7816164E-02  0.1300439E+00
        -11   -1    0    0    0    0  0.00000000000E+00  0.00000000000E+00  0.45593999997E+02  0.45594000000E+02  0.51100000000E-03 0. -1.
         11   -1    0    0    0    0 -0.00000000000E+00 -0.00000000000E+00 -0.45593999997E+02  0.45594000000E+02  0.51100000000E-03 0.  1.
    9900012    2    1    2    0    0  0.36877561775E+02 -0.62155491853E+01 -0.15955431066E+02  0.50528887926E+02  0.30000085340E+02 0.  0.
         12    1    1    2    0    0 -0.36877561775E+02  0.62155491853E+01  0.15955431066E+02  0.40659112074E+02  0.00000000000E+00 0. -1.
         11    1    3    3    0    0  0.23135446868E+02 -0.42531538169E+01  0.31500119748E+01  0.23733115996E+02  0.51100000000E-03 0. -1.
        -11    1    3    3    0    0  0.10732833137E+02  0.12229300095E+01 -0.19606344987E+02  0.22385218984E+02  0.51100000000E-03 0.  1.
         12    1    3    3    0    0  0.30092817692E+01 -0.31853253780E+01  0.50090194571E+00  0.44105529460E+01  0.00000000000E+00 0. -1.
</event>
<event>
 7    1  0.2891523E-011  0.5052885E+02  0.7816164E-02  0.1300439E+00
        -11   -1    0    0    0    0  0.00000000000E+00  0.00000000000E+00  0.45593999997E+02  0.45594000000E+02  0.51100000000E-03 0.  1.
         11   -1    0    0    0    0 -0.00000000000E+00 -0.00000000000E+00 -0.45593999997E+02  0.45594000000E+02  0.51100000000E-03 0. -1.
    9900012    2    1    2    0    0 -0.45554726277E+01  0.83310985623E+01  0.39534882187E+02  0.50528850431E+02  0.29999971369E+02 0.  0.
         12    1    1    2    0    0  0.45554726277E+01 -0.83310985623E+01 -0.39534882187E+02  0.40659149569E+02  0.00000000000E+00 0. -1.
         11    1    3    3    0    0  0.50026537631E-01  0.44381109844E+01 -0.27599691978E+00  0.44469659685E+01  0.51100000000E-03 0. -1.
        -11    1    3    3    0    0 -0.89392287511E+01  0.21471964906E+01  0.40345081341E+02  0.41379292552E+02  0.51100000000E-03 0.  1.
        -12    1    3    3    0    0  0.43337295858E+01  0.17457910874E+01 -0.53420223425E+00  0.47025919098E+01  0.00000000000E+00 0.  1.
</event>
<event>
 7    1  0.2891523E-011  0.5052886E+02  0.7816164E-02  0.1300439E+00
        -11   -1    0    0    0    0  0.00000000000E+00  0.00000000000E+00  0.45593999997E+02  0.45594000000E+02  0.51100000000E-03 0. -1.
         11   -1    0    0    0    0 -0.00000000000E+00 -0.00000000000E+00 -0.45593999997E+02  0.45594000000E+02  0.51100000000E-03 0.  1.
    9900012    2    1    2    0    0  0.33127097157E+01  0.30094169109E+02 -0.27139126985E+02  0.50528864821E+02  0.30000015110E+02 0.  0.
         12    1    1    2    0    0 -0.33127097157E+01 -0.30094169109E+02  0.27139126985E+02  0.40659135179E+02  0.00000000000E+00 0. -1.
         11    1    3    3    0    0  0.89802603161E+01  0.12617588827E+02 -0.88065213832E+01  0.17815820000E+02  0.51100000000E-03 0. -1.
        -11    1    3    3    0    0 -0.12697153352E+02  0.14501325105E+02 -0.14804123310E+02  0.24303666396E+02  0.51100000000E-03 0.  1.
        -12    1    3    3    0    0  0.70296027514E+01  0.29752551765E+01 -0.35284822912E+01  0.84093784245E+01  0.00000000000E+00 0.  1.
</event>
<event>
 7    1  0.2891523E-011  0.5052887E+02  0.7816164E-02  0.1300439E+00
        -11   -1    0    0    0    0  0.00000000000E+00  0.00000000000E+00  0.45593999997E+02  0.45594000000E+02  0.51100000000E-03 0.  1.
         11   -1    0    0    0    0 -0.00000000000E+00 -0.00000000000E+00 -0.45593999997E+02  0.45594000000E+02  0.51100000000E-03 0. -1.
    9900012    2    1    2    0    0 -0.12223205903E+02  0.21389962751E+02  0.32345435888E+02  0.50528874434E+02  0.30000044330E+02 0.  0.
         12    1    1    2    0    0  0.12223205903E+02 -0.21389962751E+02 -0.32345435888E+02  0.40659125566E+02  0.00000000000E+00 0. -1.
         11    1    3    3    0    0 -0.82592413434E+01  0.87564142706E+01  0.12446132269E+02  0.17314620041E+02  0.51100000000E-03 0. -1.
        -11    1    3    3    0    0 -0.56290798676E+01 -0.57302170548E+01  0.46137712268E+01  0.92633046396E+01  0.51100000000E-03 0.  1.
        -12    1    3    3    0    0  0.16651153078E+01  0.18363765535E+02  0.15285532391E+02  0.23950949753E+02  0.00000000000E+00 0.  1.
</event>
<event>
 7    1  0.2891523E-011  0.5052886E+02  0.7816164E-02  0.1300439E+00
        -11   -1    0    0    0    0  0.00000000000E+00  0.00000000000E+00  0.45593999997E+02  0.45594000000E+02  0.51100000000E-03 0. -1.
         11   -1    0    0    0    0 -0.00000000000E+00 -0.00000000000E+00 -0.45593999997E+02  0.45594000000E+02  0.51100000000E-03 0.  1.
    9900012    2    1    2    0    0  0.37623113922E+01  0.98097982535E+01 -0.39278221496E+02  0.50528858191E+02  0.29999994957E+02 0.  0.
         12    1    1    2    0    0 -0.37623113922E+01 -0.98097982535E+01  0.39278221496E+02  0.40659141809E+02  0.00000000000E+00 0. -1.
         11    1    3    3    0    0  0.11926357306E+02  0.76685479862E+01 -0.70707712834E+01  0.15844255540E+02  0.51100000000E-03 0. -1.
        -11    1    3    3    0    0 -0.69566815451E+01  0.47987567913E+01 -0.14875618127E+02  0.17108696613E+02  0.51100000000E-03 0.  1.
         12    1    3    3    0    0 -0.12073643688E+01 -0.26575065240E+01 -0.17331832085E+02  0.17575906038E+02  0.00000000000E+00 0. -1.
</event>
<event>
 7    1  0.2891523E-011  0.5052885E+02  0.7816164E-02  0.1300439E+00
        -11   -1    0    0    0    0  0.00000000000E+00  0.00000000000E+00  0.45593999997E+02  0.45594000000E+02  0.51100000000E-03 0.  1.
         11   -1    0    0    0    0 -0.00000000000E+00 -0.00000000000E+00 -0.45593999997E+02  0.45594000000E+02  0.51100000000E-03 0. -1.
    9900012    2    1    2    0    0  0.38631758291E+01  0.20516270411E+02  0.34890188338E+02  0.50528847016E+02  0.29999960991E+02 0.  0.
         12    1    1    2    0    0 -0.38631758291E+01 -0.20516270411E+02 -0.34890188338E+02  0.40659152984E+02  0.00000000000E+00 0. -1.
         11    1    3    3    0    0 -0.42055799306E+01  0.92282390216E+01  0.13801628262E+02  0.17126944881E+02  0.51100000000E-03 0. -1.
        -11    1    3    3    0    0 -0.25333912935E+01  0.10556404381E+01 -0.36747179560E+01  0.45865019893E+01  0.51100000000E-03 0.  1.
        -12    1    3    3    0    0  0.10602147053E+02  0.10232390952E+02  0.24763278032E+02  0.28815400146E+02  0.00000000000E+00 0.  1.
</event>
<event>
 7    1  0.2891523E-011  0.5052886E+02  0.7816164E-02  0.1300439E+00
        -11   -1    0    0    0    0  0.00000000000E+00  0.00000000000E+00  0.45593999997E+02  0.45594000000E+02  0.51100000000E-03 0. -1.
         11   -1    0    0    0    0 -0.00000000000E+00 -0.00000000000E+00 -0.45593999997E+02  0.45594000000E+02  0.51100000000E-03 0.  1.
    9900012    2    1    2    0    0  0.52997346691E+01  0.47488253410E+01 -0.40031574878E+02  0.50528861827E+02  0.30000006011E+02 0.  0.
         12    1    1    2    0    0 -0.52997346691E+01 -0.47488253410E+01  0.40031574878E+02  0.40659138173E+02  0.00000000000E+00 0. -1.
         11    1    3    3    0    0 -0.23523190971E+01 -0.35315959217E+01 -0.28380266217E+02  0.28695732883E+02  0.51100000000E-03 0.  1.
        -11    1    3    3    0    0  0.10571329294E+02  0.35289663669E+01 -0.11831056528E+02  0.16253630532E+02  0.51100000000E-03 0. -1.
         12    1    3    3    0    0 -0.29192755276E+01  0.47514548958E+01  0.17974786648E+00  0.55794984119E+01  0.00000000000E+00 0. -1.
</event>
<event>
 7    1  0.2891523E-011  0.5052887E+02  0.7816164E-02  0.1300439E+00
        -11   -1    0    0    0    0  0.00000000000E+00  0.00000000000E+00  0.45593999997E+02  0.45594000000E+02  0.51100000000E-03 0.  1.
         11   -1    0    0    0    0 -0.00000000000E+00 -0.00000000000E+00 -0.45593999997E+02  0.45594000000E+02  0.51100000000E-03 0. -1.
    9900012    2    1    2    0    0 -0.24761762940E+02  0.28648205420E+01  0.32121844635E+02  0.50528868142E+02  0.30000025206E+02 0.  0.
         12    1    1    2    0    0  0.24761762940E+02 -0.28648205420E+01 -0.32121844635E+02  0.40659131858E+02  0.00000000000E+00 0. -1.
         11    1    3    3    0    0  0.13725129446E+01 -0.78662550187E+01  0.23327784341E+01  0.83188710343E+01  0.51100000000E-03 0. -1.
        -11    1    3    3    0    0 -0.15099209743E+02  0.42085275631E+01  0.98719582935E+01  0.18524400123E+02  0.51100000000E-03 0.  1.
         12    1    3    3    0    0 -0.11035066142E+02  0.65225479976E+01  0.19917107907E+02  0.23685596985E+02  0.00000000000E+00 0. -1.
</event>
<event>
 7    1  0.2891523E-011  0.5052886E+02  0.7816164E-02  0.1300439E+00
        -11   -1    0    0    0    0  0.00000000000E+00  0.00000000000E+00  0.45593999997E+02  0.45594000000E+02  0.51100000000E-03 0.  1.
         11   -1    0    0    0    0 -0.00000000000E+00 -0.00000000000E+00 -0.45593999997E+02  0.45594000000E+02  0.51100000000E-03 0. -1.
    9900012    2    1    2    0    0 -0.25987798947E+02  0.35562060855E+01  0.31066916601E+02  0.50528860770E+02  0.30000002797E+02 0.  0.
         12    1    1    2    0    0  0.25987798947E+02 -0.35562060855E+01 -0.31066916601E+02  0.40659139230E+02  0.00000000000E+00 0. -1.
         11    1    3    3    0    0  0.11550288598E+01 -0.44293841158E+01  0.13833879099E+01  0.47819763364E+01  0.51100000000E-03 0. -1.
        -11    1    3    3    0    0 -0.21960612515E+02  0.33097149847E+01  0.31493124565E+02  0.38536211677E+02  0.51100000000E-03 0.  1.
        -12    1    3    3    0    0 -0.51822152918E+01  0.46758752166E+01 -0.18095958745E+01  0.72106727564E+01  0.00000000000E+00 0.  1.
</event>
<event>
 7    1  0.2891523E-011  0.5052884E+02  0.7816164E-02  0.1300439E+00
        -11   -1    0    0    0    0  0.00000000000E+00  0.00000000000E+00  0.45593999997E+02  0.45594000000E+02  0.51100000000E-03 0.  1.
         11   -1    0    0    0    0 -0.00000000000E+00 -0.00000000000E+00 -0.45593999997E+02  0.45594000000E+02  0.51100000000E-03 0. -1.
    9900012    2    1    2    0    0  0.28566728038E+02 -0.28099811398E+02  0.68927415854E+01  0.50528840663E+02  0.29999941679E+02 0.  0.
         12    1    1    2    0    0 -0.28566728038E+02  0.28099811398E+02 -0.68927415854E+01  0.40659159337E+02  0.00000000000E+00 0. -1.
         11    1    3    3    0    0  0.32488717528E+02 -0.23743745627E+02  0.17670733182E+01  0.40279086030E+02  0.51100000000E-03 0. -1.
        -11    1    3    3    0    0  0.14085379640E+01  0.17080531995E+00 -0.23499213672E+00  0.14381846956E+01  0.51100000000E-03 0.  1.
         12    1    3    3    0    0 -0.53305274533E+01 -0.45268710909E+01  0.53606604038E+01  0.88115699378E+01  0.00000000000E+00 0. -1.
</event>
<event>
 7    1  0.2891523E-011  0.5052887E+02  0.7816164E-02  0.1300439E+00
        -11   -1    0    0    0    0  0.00000000000E+00  0.00000000000E+00  0.45593999997E+02  0.45594000000E+02  0.51100000000E-03 0.  1.
         11   -1    0    0    0    0 -0.00000000000E+00 -0.00000000000E+00 -0.45593999997E+02  0.45594000000E+02  0.51100000000E-03 0. -1.
    9900012    2    1    2    0    0  0.41288777450E+01  0.30118129408E+02  0.27000293596E+02  0.50528865667E+02  0.30000017681E+02 0.  0.
         12    1    1    2    0    0 -0.41288777450E+01 -0.30118129408E+02 -0.27000293596E+02  0.40659134333E+02  0.00000000000E+00 0. -1.
         11    1    3    3    0    0  0.96321972800E+01  0.15442817248E+02  0.45302409129E+01  0.18755876732E+02  0.51100000000E-03 0.  1.
        -11    1    3    3    0    0 -0.11166094848E+02  0.86450869810E+01  0.12942568753E+02  0.19155398436E+02  0.51100000000E-03 0. -1.
         12    1    3    3    0    0  0.56627753133E+01  0.60302251792E+01  0.95274839300E+01  0.12617590499E+02  0.00000000000E+00 0. -1.
</event>
<event>
 7    1  0.2891523E-011  0.5052887E+02  0.7816164E-02  0.1300439E+00
        -11   -1    0    0    0    0  0.00000000000E+00  0.00000000000E+00  0.45593999997E+02  0.45594000000E+02  0.51100000000E-03 0. -1.
         11   -1    0    0    0    0 -0.00000000000E+00 -0.00000000000E+00 -0.45593999997E+02  0.45594000000E+02  0.51100000000E-03 0.  1.
    9900012    2    1    2    0    0  0.60868930449E+01 -0.39333909607E+02  0.83041160266E+01  0.50528867510E+02  0.30000023282E+02 0.  0.
         12    1    1    2    0    0 -0.60868930449E+01  0.39333909607E+02 -0.83041160266E+01  0.40659132490E+02  0.00000000000E+00 0. -1.
         11    1    3    3    0    0  0.98344442287E+01 -0.71327636436E+01  0.11733861865E+02  0.16890119153E+02  0.51100000000E-03 0. -1.
        -11    1    3    3    0    0  0.65931927946E+00 -0.42782351776E+01  0.21367230336E+01  0.48273785568E+01  0.51100000000E-03 0.  1.
         12    1    3    3    0    0 -0.44068704633E+01 -0.27922910785E+02 -0.55664688723E+01  0.28811369799E+02  0.00000000000E+00 0. -1.
</event>
<event>
 7    1  0.2891523E-011  0.5052886E+02  0.7816164E-02  0.1300439E+00
        -11   -1    0    0    0    0  0.00000000000E+00  0.00000000000E+00  0.45593999997E+02  0.45594000000E+02  0.51100000000E-03 0. -1.
         11   -1    0    0    0    0 -0.00000000000E+00 -0.00000000000E+00 -0.45593999997E+02  0.45594000000E+02  0.51100000000E-03 0.  1.
    9900012    2    1    2    0    0 -0.38490408238E+02  0.10233169474E+02 -0.81814811105E+01  0.50528856908E+02  0.29999991056E+02 0.  0.
         12    1    1    2    0    0  0.38490408238E+02 -0.10233169474E+02  0.81814811105E+01  0.40659143092E+02  0.00000000000E+00 0. -1.
         11    1    3    3    0    0 -0.14625481079E+02  0.21154984660E+00  0.79174750283E+01  0.16632373890E+02  0.51100000000E-03 0. -1.
        -11    1    3    3    0    0 -0.22159637055E+01 -0.60798959142E+00 -0.82034909497E+01  0.85192376719E+01  0.51100000000E-03 0.  1.
        -12    1    3    3    0    0 -0.21648963454E+02  0.10629609219E+02 -0.78954651892E+01  0.25377245346E+02  0.00000000000E+00 0.  1.
</event>
<event>
 7    1  0.2891523E-011  0.5052886E+02  0.7816164E-02  0.1300439E+00
        -11   -1    0    0    0    0  0.00000000000E+00  0.00000000000E+00  0.45593999997E+02  0.45594000000E+02  0.51100000000E-03 0.  1.
         11   -1    0    0    0    0 -0.00000000000E+00 -0.00000000000E+00 -0.45593999997E+02  0.45594000000E+02  0.51100000000E-03 0. -1.
    9900012    2    1    2    0    0  0.21891790265E+02  0.33346970190E+02 -0.78673101627E+01  0.50528862392E+02  0.30000007725E+02 0.  0.
         12    1    1    2    0    0 -0.21891790265E+02 -0.33346970190E+02  0.78673101627E+01  0.40659137608E+02  0.00000000000E+00 0. -1.
         11    1    3    3    0    0  0.13297906374E+02  0.12468261658E+02 -0.16217193437E+02  0.24398549669E+02  0.51100000000E-03 0. -1.
        -11    1    3    3    0    0  0.25697553312E+01  0.55089178446E+01  0.74253719123E+01  0.95962475259E+01  0.51100000000E-03 0.  1.
        -12    1    3    3    0    0  0.60241285605E+01  0.15369790687E+02  0.92451136216E+00  0.16534065197E+02  0.00000000000E+00 0.  1.
</event>
<event>
 7    1  0.2891523E-011  0.5052887E+02  0.7816164E-02  0.1300439E+00
        -11   -1    0    0    0    0  0.00000000000E+00  0.00000000000E+00  0.45593999997E+02  0.45594000000E+02  0.51100000000E-03 0.  1.
         11   -1    0    0    0    0 -0.00000000000E+00 -0.00000000000E+00 -0.45593999997E+02  0.45594000000E+02  0.51100000000E-03 0. -1.
    9900012    2    1    2    0    0 -0.15304618080E+02 -0.90069157020E+01  0.36576076711E+02  0.50528865078E+02  0.30000015891E+02 0.  0.
         12    1    1    2    0    0  0.15304618080E+02  0.90069157020E+01 -0.36576076711E+02  0.40659134922E+02  0.00000000000E+00 0. -1.
         11    1    3    3    0    0  0.19447191902E+01 -0.81901924538E+00  0.99740214652E+01  0.10194794245E+02  0.51100000000E-03 0. -1.
        -11    1    3    3    0    0 -0.17865918277E+02  0.78364987419E+00  0.78358787048E+01  0.19524500975E+02  0.51100000000E-03 0.  1.
        -12    1    3    3    0    0  0.61658100604E+00 -0.89715463309E+01  0.18766176541E+02  0.20809569858E+02  0.00000000000E+00 0.  1.
</event>
<event>
 7    1  0.2891523E-011  0.5052887E+02  0.7816164E-02  0.1300439E+00
        -11   -1    0    0    0    0  0.00000000000E+00  0.00000000000E+00  0.45593999997E+02  0.45594000000E+02  0.51100000000E-03 0. -1.
         11   -1    0    0    0    0 -0.00000000000E+00 -0.00000000000E+00 -0.45593999997E+02  0.45594000000E+02  0.51100000000E-03 0.  1.
    9900012    2    1    2    0    0  0.39332860488E+01  0.25145760844E+02 -0.31707798403E+02  0.50528874245E+02  0.30000043756E+02 0.  0.
         12    1    1    2    0    0 -0.39332860488E+01 -0.25145760844E+02  0.31707798403E+02  0.40659125755E+02  0.00000000000E+00 0. -1.
         11    1    3    3    0    0  0.47371911166E+01  0.70722146922E+01 -0.24133557984E+02  0.25590737026E+02  0.51100000000E-03 0. -1.
        -11    1    3    3    0    0  0.38941375907E+01  0.80878644993E+01  0.31857487065E+01  0.95250645571E+01  0.51100000000E-03 0.  1.
        -12    1    3    3    0    0 -0.46980426586E+01  0.99856816528E+01 -0.10759989126E+02  0.15413072662E+02  0.00000000000E+00 0.  1.
</event>
<event>
 7    1  0.2891523E-011  0.5052887E+02  0.7816164E-02  0.1300439E+00
        -11   -1    0    0    0    0  0.00000000000E+00  0.00000000000E+00  0.45593999997E+02  0.45594000000E+02  0.51100000000E-03 0. -1.
         11   -1    0    0    0    0 -0.00000000000E+00 -0.00000000000E+00 -0.45593999997E+02  0.45594000000E+02  0.51100000000E-03 0.  1.
    9900012    2    1    2    0    0 -0.27471448326E+02 -0.24105985877E+02 -0.17815332119E+02  0.50528867117E+02  0.30000022090E+02 0.  0.
         12    1    1    2    0    0  0.27471448326E+02  0.24105985877E+02  0.17815332119E+02  0.40659132883E+02  0.00000000000E+00 0. -1.
         11    1    3    3    0    0 -0.23033198726E+02 -0.20643661240E+02 -0.12110890739E+02  0.33216903343E+02  0.51100000000E-03 0. -1.
        -11    1    3    3    0    0  0.19807023464E+01 -0.52594992312E+01 -0.84124846077E+01  0.10117085128E+02  0.51100000000E-03 0.  1.
         12    1    3    3    0    0 -0.64189519468E+01  0.17971745946E+01  0.27080432273E+01  0.71948786466E+01  0.00000000000E+00 0. -1.
</event>
<event>
 7    1  0.2891523E-011  0.5052886E+02  0.7816164E-02  0.1300439E+00
        -11   -1    0    0    0    0  0.00000000000E+00  0.00000000000E+00  0.45593999997E+02  0.45594000000E+02  0.51100000000E-03 0. -1.
         11   -1    0    0    0    0 -0.00000000000E+00 -0.00000000000E+00 -0.45593999997E+02  0.45594000000E+02  0.51100000000E-03 0.  1.
    9900012    2    1    2    0    0 -0.20629751578E+01 -0.39872771132E+02 -0.76858477916E+01  0.50528855881E+02  0.29999987934E+02 0.  0.
         12    1    1    2    0    0  0.20629751578E+01  0.39872771132E+02  0.76858477916E+01  0.40659144119E+02  0.00000000000E+00 0. -1.
         11    1    3    3    0    0  0.95983594796E+01 -0.10211431871E+02 -0.99271096428E+01  0.17174089545E+02  0.51100000000E-03 0. -1.
        -11    1    3    3    0    0 -0.25953519057E+00 -0.70722918243E+01 -0.26976800155E+01  0.75737802906E+01  0.51100000000E-03 0.  1.
         12    1    3    3    0    0 -0.11401799447E+02 -0.22589047436E+02  0.49389418667E+01  0.25780986045E+02  0.00000000000E+00 0. -1.
</event>
<event>
 7    1  0.2891523E-011  0.5052890E+02  0.7816164E-02  0.1300439E+00
        -11   -1    0    0    0    0  0.00000000000E+00  0.00000000000E+00  0.45593999997E+02  0.45594000000E+02  0.51100000000E-03 0. -1.
         11   -1    0    0    0    0 -0.00000000000E+00 -0.00000000000E+00 -0.45593999997E+02  0.45594000000E+02  0.51100000000E-03 0.  1.
    9900012    2    1    2    0    0 -0.33268308086E+02 -0.16220545841E+02 -0.16830806194E+02  0.50528899328E+02  0.30000119997E+02 0.  0.
         12    1    1    2    0    0  0.33268308086E+02  0.16220545841E+02  0.16830806194E+02  0.40659100672E+02  0.00000000000E+00 0. -1.
         11    1    3    3    0    0 -0.20667274115E+02 -0.17706491252E+02 -0.12116222396E-02  0.27214996850E+02  0.51100000000E-03 0. -1.
        -11    1    3    3    0    0 -0.57986073356E+01  0.56702244979E+01 -0.76861116646E+01  0.11173701521E+02  0.51100000000E-03 0.  1.
        -12    1    3    3    0    0 -0.68024266358E+01 -0.41842790868E+01 -0.91434829076E+01  0.12140200958E+02  0.00000000000E+00 0.  1.
</event>
<event>
 7    1  0.2891523E-011  0.5052886E+02  0.7816164E-02  0.1300439E+00
        -11   -1    0    0    0    0  0.00000000000E+00  0.00000000000E+00  0.45593999997E+02  0.45594000000E+02  0.51100000000E-03 0.  1.
         11   -1    0    0    0    0 -0.00000000000E+00 -0.00000000000E+00 -0.45593999997E+02  0.45594000000E+02  0.51100000000E-03 0. -1.
    9900012    2    1    2    0    0  0.20498220006E+02  0.11241541505E+02  0.33265840897E+02  0.50528862658E+02  0.30000008534E+02 0.  0.
         12    1    1    2    0    0 -0.20498220006E+02 -0.11241541505E+02 -0.33265840897E+02  0.40659137342E+02  0.00000000000E+00 0. -1.
         11    1    3    3    0    0  0.16844158087E+01  0.10974760683E+02  0.36544932848E+01  0.11689223673E+02  0.51100000000E-03 0. -1.
        -11    1    3    3    0    0  0.33724770487E+01 -0.56520846242E+01  0.16406647028E+02  0.17677605296E+02  0.51100000000E-03 0.  1.
         12    1    3    3    0    0  0.15441327149E+02  0.59188654466E+01  0.13204700584E+02  0.21162033688E+02  0.00000000000E+00 0. -1.
</event>
<event>
 7    1  0.2891523E-011  0.5052886E+02  0.7816164E-02  0.1300439E+00
        -11   -1    0    0    0    0  0.00000000000E+00  0.00000000000E+00  0.45593999997E+02  0.45594000000E+02  0.51100000000E-03 0. -1.
         11   -1    0    0    0    0 -0.00000000000E+00 -0.00000000000E+00 -0.45593999997E+02  0.45594000000E+02  0.51100000000E-03 0.  1.
    9900012    2    1    2    0    0 -0.29966521411E+02 -0.27226530752E+02 -0.37268682470E+01  0.50528856758E+02  0.29999990601E+02 0.  0.
         12    1    1    2    0    0  0.29966521411E+02  0.27226530752E+02  0.37268682470E+01  0.40659143242E+02  0.00000000000E+00 0. -1.
         11    1    3    3    0    0 -0.88761591661E+00 -0.17372716890E+02  0.23402001534E+01  0.17552085095E+02  0.51100000000E-03 0. -1.
        -11    1    3    3    0    0 -0.15585432936E+02 -0.10300079027E+02 -0.15729469544E+01  0.18747573447E+02  0.51100000000E-03 0.  1.
         12    1    3    3    0    0 -0.13493472558E+02  0.44626516614E+00 -0.44941214460E+01  0.14229198215E+02  0.00000000000E+00 0. -1.
</event>
<event>
 7    1  0.2891523E-011  0.5052886E+02  0.7816164E-02  0.1300439E+00
        -11   -1    0    0    0    0  0.00000000000E+00  0.00000000000E+00  0.45593999997E+02  0.45594000000E+02  0.51100000000E-03 0.  1.
         11   -1    0    0    0    0 -0.00000000000E+00 -0.00000000000E+00 -0.45593999997E+02  0.45594000000E+02  0.51100000000E-03 0. -1.
    9900012    2    1    2    0    0  0.13301175130E+01 -0.10423500906E+02  0.39277820525E+02  0.50528858729E+02  0.29999996592E+02 0.  0.
         12    1    1    2    0    0 -0.13301175130E+01  0.10423500906E+02 -0.39277820525E+02  0.40659141271E+02  0.00000000000E+00 0. -1.
         11    1    3    3    0    0 -0.24126287785E+01  0.89320302497E+01  0.10908561042E+02  0.14303798316E+02  0.51100000000E-03 0. -1.
        -11    1    3    3    0    0  0.41837005393E+01 -0.11355221541E+02  0.84639081224E+01  0.14767604660E+02  0.51100000000E-03 0.  1.
        -12    1    3    3    0    0 -0.44095424780E+00 -0.80003096146E+01  0.19905351360E+02  0.21457455752E+02  0.00000000000E+00 0.  1.
</event>
<event>
 7    1  0.2891523E-011  0.5052886E+02  0.7816164E-02  0.1300439E+00
        -11   -1    0    0    0    0  0.00000000000E+00  0.00000000000E+00  0.45593999997E+02  0.45594000000E+02  0.51100000000E-03 0. -1.
         11   -1    0    0    0    0 -0.00000000000E+00 -0.00000000000E+00 -0.45593999997E+02  0.45594000000E+02  0.51100000000E-03 0.  1.
    9900012    2    1    2    0    0 -0.29609647335E+02  0.17129578056E+02 -0.21977532523E+02  0.50528860862E+02  0.30000003075E+02 0.  0.
         12    1    1    2    0    0  0.29609647335E+02 -0.17129578056E+02  0.21977532523E+02  0.40659139138E+02  0.00000000000E+00 0. -1.
         11    1    3    3    0    0 -0.88116470459E+01  0.11018860006E+02 -0.24489635061E+02  0.28263096525E+02  0.51100000000E-03 0. -1.
        -11    1    3    3    0    0 -0.12747038001E+02  0.49476409257E+01  0.33798230418E+01  0.14085074816E+02  0.51100000000E-03 0.  1.
         12    1    3    3    0    0 -0.80509622882E+01  0.11630771239E+01 -0.86772050409E+00  0.81806895208E+01  0.00000000000E+00 0. -1.
</event>
<event>
 7    1  0.2891523E-011  0.5052886E+02  0.7816164E-02  0.1300439E+00
        -11   -1    0    0    0    0  0.00000000000E+00  0.00000000000E+00  0.45593999997E+02  0.45594000000E+02  0.51100000000E-03 0.  1.
         11   -1    0    0    0    0 -0.00000000000E+00 -0.00000000000E+00 -0.45593999997E+02  0.45594000000E+02  0.51100000000E-03 0. -1.
    9900012    2    1    2    0    0  0.15376138396E+01  0.34741617120E+02  0.21067061107E+02  0.50528864740E+02  0.30000014863E+02 0.  0.
         12    1    1    2    0    0 -0.15376138396E+01 -0.34741617120E+02 -0.21067061107E+02  0.40659135260E+02  0.00000000000E+00 0. -1.
         11    1    3    3    0    0 -0.50769689574E+01  0.14813859704E+02  0.34947736144E+00  0.15663594346E+02  0.51100000000E-03 0. -1.
        -11    1    3    3    0    0  0.34023420970E+00  0.61877965534E+01  0.18609346163E+02  0.19614085509E+02  0.51100000000E-03 0.  1.
         12    1    3    3    0    0  0.62743485873E+01  0.13739960862E+02  0.21082375823E+01  0.15251184885E+02  0.00000000000E+00 0. -1.
</event>
<event>
 7    1  0.2891523E-011  0.5052887E+02  0.7816164E-02  0.1300439E+00
        -11   -1    0    0    0    0  0.00000000000E+00  0.00000000000E+00  0.45593999997E+02  0.45594000000E+02  0.51100000000E-03 0.  1.
         11   -1    0    0    0    0 -0.00000000000E+00 -0.00000000000E+00 -0.45593999997E+02  0.45594000000E+02  0.51100000000E-03 0. -1.
    9900012    2    1    2    0    0 -0.30456398277E+02  0.24360221168E+02  0.11495760090E+02  0.50528867307E+02  0.30000022665E+02 0.  0.
         12    1    1    2    0    0  0.30456398277E+02 -0.24360221168E+02 -0.11495760090E+02  0.40659132693E+02  0.00000000000E+00 0. -1.
         11    1    3    3    0    0 -0.14147524236E+02 -0.90398903610E+00  0.12423599518E+02  0.18849813353E+02  0.51100000000E-03 0. -1.
        -11    1    3    3    0    0 -0.13605248816E+02  0.13269503604E+02  0.17826018820E+01  0.19088221262E+02  0.51100000000E-03 0.  1.
         12    1    3    3    0    0 -0.27036252246E+01  0.11994706600E+02 -0.27104413096E+01  0.12590832691E+02  0.00000000000E+00 0. -1.
</event>
<event>
 7    1  0.2891523E-011  0.5052888E+02  0.7816164E-02  0.1300439E+00
        -11   -1    0    0    0    0  0.00000000000E+00  0.00000000000E+00  0.45593999997E+02  0.45594000000E+02  0.51100000000E-03 0. -1.
         11   -1    0    0    0    0 -0.00000000000E+00 -0.00000000000E+00 -0.45593999997E+02  0.45594000000E+02  0.51100000000E-03 0.  1.
    9900012    2    1    2    0    0  0.11923543139E+02  0.35751134944E+02 -0.15259399890E+02  0.50528882747E+02  0.30000069597E+02 0.  0.
         12    1    1    2    0    0 -0.11923543139E+02 -0.35751134944E+02  0.15259399890E+02  0.40659117253E+02  0.00000000000E+00 0. -1.
         11    1    3    3    0    0 -0.10160604731E+01  0.16040466210E+02  0.47504598202E+01  0.16759946416E+02  0.51100000000E-03 0. -1.
        -11    1    3    3    0    0  0.12150644565E+02  0.20081773162E+02 -0.21636975392E+02  0.31922945996E+02  0.51100000000E-03 0.  1.
         12    1    3    3    0    0  0.78895904747E+00 -0.37110442813E+00  0.16271156813E+01  0.18459903346E+01  0.00000000000E+00 0. -1.
</event>
<event>
 7    1  0.2891523E-011  0.5052886E+02  0.7816164E-02  0.1300439E+00
        -11   -1    0    0    0    0  0.00000000000E+00  0.00000000000E+00  0.45593999997E+02  0.45594000000E+02  0.51100000000E-03 0.  1.
         11   -1    0    0    0    0 -0.00000000000E+00 -0.00000000000E+00 -0.45593999997E+02  0.45594000000E+02  0.51100000000E-03 0. -1.
    9900012    2    1    2    0    0 -0.30293623406E+02  0.15437092454E+02  0.22297036910E+02  0.50528864527E+02  0.30000014215E+02 0.  0.
         12    1    1    2    0    0  0.30293623406E+02 -0.15437092454E+02 -0.22297036910E+02  0.40659135473E+02  0.00000000000E+00 0. -1.
         11    1    3    3    0    0  0.55585451642E+00 -0.35795589451E+01  0.82798315705E+01  0.90375786349E+01  0.51100000000E-03 0. -1.
        -11    1    3    3    0    0 -0.18425420703E+02  0.36451578318E+01  0.35112141749E+01  0.19107902264E+02  0.51100000000E-03 0.  1.
         12    1    3    3    0    0 -0.12424057220E+02  0.15371493567E+02  0.10505991165E+02  0.22383383628E+02  0.00000000000E+00 0. -1.
</event>
<event>
 7    1  0.2891523E-011  0.5052886E+02  0.7816164E-02  0.1300439E+00
        -11   -1    0    0    0    0  0.00000000000E+00  0.00000000000E+00  0.45593999997E+02  0.45594000000E+02  0.51100000000E-03 0. -1.
         11   -1    0    0    0    0 -0.00000000000E+00 -0.00000000000E+00 -0.45593999997E+02  0.45594000000E+02  0.51100000000E-03 0.  1.
    9900012    2    1    2    0    0 -0.72345014169E+01 -0.22901798542E+02 -0.32807548563E+02  0.50528860438E+02  0.30000001786E+02 0.  0.
         12    1    1    2    0    0  0.72345014169E+01  0.22901798542E+02  0.32807548563E+02  0.40659139562E+02  0.00000000000E+00 0. -1.
         11    1    3    3    0    0  0.11726855270E+01 -0.12323273192E+02 -0.17372112568E+02  0.21331398192E+02  0.51100000000E-03 0. -1.
        -11    1    3    3    0    0 -0.75712700927E+01 -0.11104058798E+02  0.28831017374E+00  0.13442744349E+02  0.51100000000E-03 0.  1.
        -12    1    3    3    0    0 -0.83591685123E+00  0.52553344890E+00 -0.15723746169E+02  0.15754717896E+02  0.00000000000E+00 0.  1.
</event>
<event>
 7    1  0.2891523E-011  0.5052886E+02  0.7816164E-02  0.1300439E+00
        -11   -1    0    0    0    0  0.00000000000E+00  0.00000000000E+00  0.45593999997E+02  0.45594000000E+02  0.51100000000E-03 0.  1.
         11   -1    0    0    0    0 -0.00000000000E+00 -0.00000000000E+00 -0.45593999997E+02  0.45594000000E+02  0.51100000000E-03 0. -1.
    9900012    2    1    2    0    0  0.31328036414E+02 -0.19994732538E+02 -0.16490324164E+02  0.50528856061E+02  0.29999988482E+02 0.  0.
         12    1    1    2    0    0 -0.31328036414E+02  0.19994732538E+02  0.16490324164E+02  0.40659143939E+02  0.00000000000E+00 0. -1.
         11    1    3    3    0    0  0.21280205680E+01  0.22849788874E+01 -0.30464829134E+01  0.43624142922E+01  0.51100000000E-03 0. -1.
        -11    1    3    3    0    0  0.29625809158E+02 -0.19684061101E+02 -0.33395401828E+01  0.35725388152E+02  0.51100000000E-03 0.  1.
        -12    1    3    3    0    0 -0.42579331207E+00 -0.25956503243E+01 -0.10104301068E+02  0.10441053616E+02  0.00000000000E+00 0.  1.
</event>
<event>
 7    1  0.2891523E-011  0.5052886E+02  0.7816164E-02  0.1300439E+00
        -11   -1    0    0    0    0  0.00000000000E+00  0.00000000000E+00  0.45593999997E+02  0.45594000000E+02  0.51100000000E-03 0. -1.
         11   -1    0    0    0    0 -0.00000000000E+00 -0.00000000000E+00 -0.45593999997E+02  0.45594000000E+02  0.51100000000E-03 0.  1.
    9900012    2    1    2    0    0  0.38318155745E+02 -0.10300061705E+02  0.88765636732E+01  0.50528859411E+02  0.29999998665E+02 0.  0.
         12    1    1    2    0    0 -0.38318155745E+02  0.10300061705E+02 -0.88765636732E+01  0.40659140589E+02  0.00000000000E+00 0. -1.
         11    1    3    3    0    0  0.16084896782E+02 -0.12242176188E+02  0.27549064532E+01  0.20400595387E+02  0.51100000000E-03 0. -1.
        -11    1    3    3    0    0  0.21577981080E+02  0.74993365941E+01  0.15395340398E+01  0.22895839844E+02  0.51100000000E-03 0.  1.
        -12    1    3    3    0    0  0.65527788334E+00 -0.55572221103E+01  0.45821231802E+01  0.72324241805E+01  0.00000000000E+00 0.  1.
</event>
<event>
 7    1  0.2891523E-011  0.5052887E+02  0.7816164E-02  0.1300439E+00
        -11   -1    0    0    0    0  0.00000000000E+00  0.00000000000E+00  0.45593999997E+02  0.45594000000E+02  0.51100000000E-03 0.  1.
         11   -1    0    0    0    0 -0.00000000000E+00 -0.00000000000E+00 -0.45593999997E+02  0.45594000000E+02  0.51100000000E-03 0. -1.
    9900012    2    1    2    0    0  0.31589206721E+02  0.20953808136E+02  0.14704585069E+02  0.50528869676E+02  0.30000029866E+02 0.  0.
         12    1    1    2    0    0 -0.31589206721E+02 -0.20953808136E+02 -0.14704585069E+02  0.40659130324E+02  0.00000000000E+00 0. -1.
         11    1    3    3    0    0  0.96497234399E+01  0.10200673687E+02 -0.86719911699E+01  0.16503767365E+02  0.51100000000E-03 0. -1.
        -11    1    3    3    0    0  0.10333840335E+02  0.68623199881E+01  0.10415212606E+02  0.16197417867E+02  0.51100000000E-03 0.  1.
         12    1    3    3    0    0  0.11605642947E+02  0.38908144612E+01  0.12961363633E+02  0.17827684443E+02  0.00000000000E+00 0. -1.
</event>
<event>
 7    1  0.3358865E-011  0.5052885E+02  0.7816164E-02  0.1300439E+00
        -11   -1    0    0    0    0  0.00000000000E+00  0.00000000000E+00  0.45593999997E+02  0.45594000000E+02  0.51100000000E-03 0. -1.
         11   -1    0    0    0    0 -0.00000000000E+00 -0.00000000000E+00 -0.45593999997E+02  0.45594000000E+02  0.51100000000E-03 0.  1.
    9900012    2    1    2    0    0 -0.24853535785E+02  0.49576699343E+01 -0.31794489519E+02  0.50528852248E+02  0.29999976892E+02 0.  0.
         12    1    1    2    0    0  0.24853535785E+02 -0.49576699343E+01  0.31794489519E+02  0.40659147752E+02  0.00000000000E+00 0. -1.
         11    1    3    3    0    0  0.72996681246E+00  0.10320879522E+01  0.43403417975E+01  0.45206884729E+01  0.51100000000E-03 0. -1.
        -11    1    3    3    0    0 -0.21415264461E+02  0.37343100443E+01 -0.20693491090E+02  0.30012983810E+02  0.51100000000E-03 0.  1.
        -12    1    3    3    0    0 -0.41682381365E+01  0.19127193779E+00 -0.15441340226E+02  0.15995179965E+02  0.00000000000E+00 0.  1.
</event>
<event>
 7    1  0.2891523E-011  0.5052887E+02  0.7816164E-02  0.1300439E+00
        -11   -1    0    0    0    0  0.00000000000E+00  0.00000000000E+00  0.45593999997E+02  0.45594000000E+02  0.51100000000E-03 0.  1.
         11   -1    0    0    0    0 -0.00000000000E+00 -0.00000000000E+00 -0.45593999997E+02  0.45594000000E+02  0.51100000000E-03 0. -1.
    9900012    2    1    2    0    0  0.61699098503E+01 -0.14600657514E+02  0.37442193026E+02  0.50528870571E+02  0.30000032586E+02 0.  0.
         12    1    1    2    0    0 -0.61699098503E+01  0.14600657514E+02 -0.37442193026E+02  0.40659129429E+02  0.00000000000E+00 0. -1.
         11    1    3    3    0    0  0.16430372370E+02 -0.46682688080E+01  0.11521669170E+02  0.20603366973E+02  0.51100000000E-03 0. -1.
        -11    1    3    3    0    0 -0.51716366622E+01 -0.37058230289E+01  0.15559122113E+02  0.16809676716E+02  0.51100000000E-03 0.  1.
         12    1    3    3    0    0 -0.50888258577E+01 -0.62265656769E+01  0.10361401742E+02  0.13115826882E+02  0.00000000000E+00 0. -1.
</event>
<event>
 7    1  0.2891523E-011  0.5052886E+02  0.7816164E-02  0.1300439E+00
        -11   -1    0    0    0    0  0.00000000000E+00  0.00000000000E+00  0.45593999997E+02  0.45594000000E+02  0.51100000000E-03 0.  1.
         11   -1    0    0    0    0 -0.00000000000E+00 -0.00000000000E+00 -0.45593999997E+02  0.45594000000E+02  0.51100000000E-03 0. -1.
    9900012    2    1    2    0    0 -0.12922176085E+02  0.43713687768E+01  0.38302400878E+02  0.50528863108E+02  0.30000009904E+02 0.  0.
         12    1    1    2    0    0  0.12922176085E+02 -0.43713687768E+01 -0.38302400878E+02  0.40659136892E+02  0.00000000000E+00 0. -1.
         11    1    3    3    0    0  0.21992921868E+01 -0.45794264185E+01 -0.24983724933E+01  0.56612629176E+01  0.51100000000E-03 0. -1.
        -11    1    3    3    0    0 -0.15371555249E+02  0.73627759443E+01  0.37746009997E+02  0.41415654666E+02  0.51100000000E-03 0.  1.
         12    1    3    3    0    0  0.25008697797E+00  0.15880192511E+01  0.30547633740E+01  0.34519455252E+01  0.00000000000E+00 0. -1.
</event>
<event>
 7    1  0.2891523E-011  0.5052886E+02  0.7816164E-02  0.1300439E+00
        -11   -1    0    0    0    0  0.00000000000E+00  0.00000000000E+00  0.45593999997E+02  0.45594000000E+02  0.51100000000E-03 0.  1.
         11   -1    0    0    0    0 -0.00000000000E+00 -0.00000000000E+00 -0.45593999997E+02  0.45594000000E+02  0.51100000000E-03 0. -1.
    9900012    2    1    2    0    0 -0.36316162630E+02  0.60687127406E+01  0.17247396632E+02  0.50528860399E+02  0.30000001669E+02 0.  0.
         12    1    1    2    0    0  0.36316162630E+02 -0.60687127406E+01 -0.17247396632E+02  0.40659139601E+02  0.00000000000E+00 0. -1.
         11    1    3    3    0    0 -0.95035373125E+01 -0.22177858660E+01  0.10160746809E+02  0.14088171335E+02  0.51100000000E-03 0. -1.
        -11    1    3    3    0    0 -0.22032564365E+02  0.27583235544E+01 -0.45819706646E+01  0.22672377395E+02  0.51100000000E-03 0.  1.
        -12    1    3    3    0    0 -0.47800609527E+01  0.55281750522E+01  0.11668620488E+02  0.13768311669E+02  0.00000000000E+00 0.  1.
</event>
<event>
 7    1  0.2891523E-011  0.5052886E+02  0.7816164E-02  0.1300439E+00
        -11   -1    0    0    0    0  0.00000000000E+00  0.00000000000E+00  0.45593999997E+02  0.45594000000E+02  0.51100000000E-03 0. -1.
         11   -1    0    0    0    0 -0.00000000000E+00 -0.00000000000E+00 -0.45593999997E+02  0.45594000000E+02  0.51100000000E-03 0.  1.
    9900012    2    1    2    0    0 -0.21451434242E+02 -0.27028885204E+02 -0.21504448238E+02  0.50528856373E+02  0.29999989432E+02 0.  0.
         12    1    1    2    0    0  0.21451434242E+02  0.27028885204E+02  0.21504448238E+02  0.40659143627E+02  0.00000000000E+00 0. -1.
         11    1    3    3    0    0 -0.12100572115E+02  0.21473692828E+01 -0.56325742415E+01  0.13518910207E+02  0.51100000000E-03 0. -1.
        -11    1    3    3    0    0 -0.32414946837E+01 -0.24607280389E+02 -0.80719548514E+01  0.26099463429E+02  0.51100000000E-03 0.  1.
        -12    1    3    3    0    0 -0.61093674437E+01 -0.45689740982E+01 -0.77999191454E+01  0.10910482737E+02  0.00000000000E+00 0.  1.
</event>
<event>
 7    1  0.2891523E-011  0.5052885E+02  0.7816164E-02  0.1300439E+00
        -11   -1    0    0    0    0  0.00000000000E+00  0.00000000000E+00  0.45593999997E+02  0.45594000000E+02  0.51100000000E-03 0. -1.
         11   -1    0    0    0    0 -0.00000000000E+00 -0.00000000000E+00 -0.45593999997E+02  0.45594000000E+02  0.51100000000E-03 0.  1.
    9900012    2    1    2    0    0  0.15817816470E+02  0.35246937981E+02 -0.12673458484E+02  0.50528849679E+02  0.29999969084E+02 0.  0.
         12    1    1    2    0    0 -0.15817816470E+02 -0.35246937981E+02  0.12673458484E+02  0.40659150321E+02  0.00000000000E+00 0. -1.
         11    1    3    3    0    0 -0.86290956449E+00 -0.21517686881E+01  0.46215532196E+01  0.51704425175E+01  0.51100000000E-03 0. -1.
        -11    1    3    3    0    0  0.10165271583E+02  0.27752096953E+02 -0.84529758970E+01  0.30740273801E+02  0.51100000000E-03 0.  1.
        -12    1    3    3    0    0  0.65154544518E+01  0.96466097163E+01 -0.88420358062E+01  0.14618133360E+02  0.00000000000E+00 0.  1.
</event>
<event>
 7    1  0.2891523E-011  0.5052889E+02  0.7816164E-02  0.1300439E+00
        -11   -1    0    0    0    0  0.00000000000E+00  0.00000000000E+00  0.45593999997E+02  0.45594000000E+02  0.51100000000E-03 0.  1.
         11   -1    0    0    0    0 -0.00000000000E+00 -0.00000000000E+00 -0.45593999997E+02  0.45594000000E+02  0.51100000000E-03 0. -1.
    9900012    2    1    2    0    0 -0.79436779438E+01  0.18041521130E+02  0.35560722671E+02  0.50528886620E+02  0.30000081371E+02 0.  0.
         12    1    1    2    0    0  0.79436779438E+01 -0.18041521130E+02 -0.35560722671E+02  0.40659113380E+02  0.00000000000E+00 0. -1.
         11    1    3    3    0    0 -0.54619145898E+00  0.97260566489E+00 -0.26190175973E+01  0.28466717980E+01  0.51100000000E-03 0. -1.
        -11    1    3    3    0    0 -0.60925622478E+01  0.58482091076E+01  0.34917508659E+02  0.35924271401E+02  0.51100000000E-03 0.  1.
        -12    1    3    3    0    0 -0.13049242370E+01  0.11220706357E+02  0.32622316091E+01  0.11757943421E+02  0.00000000000E+00 0.  1.
</event>
<event>
 7    1  0.2891523E-011  0.5052885E+02  0.7816164E-02  0.1300439E+00
        -11   -1    0    0    0    0  0.00000000000E+00  0.00000000000E+00  0.45593999997E+02  0.45594000000E+02  0.51100000000E-03 0. -1.
         11   -1    0    0    0    0 -0.00000000000E+00 -0.00000000000E+00 -0.45593999997E+02  0.45594000000E+02  0.51100000000E-03 0.  1.
    9900012    2    1    2    0    0  0.19730782462E+02 -0.19090487441E+02 -0.29990262676E+02  0.50528851673E+02  0.29999975145E+02 0.  0.
         12    1    1    2    0    0 -0.19730782462E+02  0.19090487441E+02  0.29990262676E+02  0.40659148327E+02  0.00000000000E+00 0. -1.
         11    1    3    3    0    0 -0.48165196987E+01 -0.55381676356E+01 -0.10343689170E+02  0.12683141120E+02  0.51100000000E-03 0. -1.
        -11    1    3    3    0    0  0.16590410236E+02 -0.44524303486E+00 -0.71751929322E+01  0.18081021736E+02  0.51100000000E-03 0.  1.
        -12    1    3    3    0    0  0.79568919251E+01 -0.13107076771E+02 -0.12471380574E+02  0.19764688816E+02  0.00000000000E+00 0.  1.
</event>
<event>
 7    1  0.2891523E-011  0.5052886E+02  0.7816164E-02  0.1300439E+00
        -11   -1    0    0    0    0  0.00000000000E+00  0.00000000000E+00  0.45593999997E+02  0.45594000000E+02  0.51100000000E-03 0. -1.
         11   -1    0    0    0    0 -0.00000000000E+00 -0.00000000000E+00 -0.45593999997E+02  0.45594000000E+02  0.51100000000E-03 0.  1.
    9900012    2    1    2    0    0  0.97443729714E+01 -0.39306099052E+02 -0.36391733632E+01  0.50528858222E+02  0.29999995053E+02 0.  0.
         12    1    1    2    0    0 -0.97443729714E+01  0.39306099052E+02  0.36391733632E+01  0.40659141778E+02  0.00000000000E+00 0. -1.
         11    1    3    3    0    0  0.14252456516E+02 -0.21846131214E+02  0.94190399275E+01  0.27732729386E+02  0.51100000000E-03 0. -1.
        -11    1    3    3    0    0  0.47052636046E+00 -0.13248957773E+00  0.70471148092E-01  0.49387750296E+00  0.51100000000E-03 0.  1.
         12    1    3    3    0    0 -0.49786099052E+01 -0.17327478261E+02 -0.13128684439E+02  0.22302251334E+02  0.00000000000E+00 0. -1.
</event>
<event>
 7    1  0.2891523E-011  0.5052887E+02  0.7816164E-02  0.1300439E+00
        -11   -1    0    0    0    0  0.00000000000E+00  0.00000000000E+00  0.45593999997E+02  0.45594000000E+02  0.51100000000E-03 0.  1.
         11   -1    0    0    0    0 -0.00000000000E+00 -0.00000000000E+00 -0.45593999997E+02  0.45594000000E+02  0.51100000000E-03 0. -1.
    9900012    2    1    2    0    0 -0.87773639858E+01 -0.36006440647E+02  0.16722998079E+02  0.50528873701E+02  0.30000042102E+02 0.  0.
         12    1    1    2    0    0  0.87773639858E+01  0.36006440647E+02 -0.16722998079E+02  0.40659126299E+02  0.00000000000E+00 0. -1.
         11    1    3    3    0    0 -0.60222642217E+00 -0.20550283893E+02 -0.24796932281E+01  0.20708107676E+02  0.51100000000E-03 0. -1.
        -11    1    3    3    0    0 -0.46097884235E+01 -0.17880806067E+02  0.14872370353E+02  0.23709929884E+02  0.51100000000E-03 0.  1.
         12    1    3    3    0    0 -0.35653491401E+01  0.24246493130E+01  0.43303209548E+01  0.61108361419E+01  0.00000000000E+00 0. -1.
</event>
<event>
 7    1  0.2891523E-011  0.5052886E+02  0.7816164E-02  0.1300439E+00
        -11   -1    0    0    0    0  0.00000000000E+00  0.00000000000E+00  0.45593999997E+02  0.45594000000E+02  0.51100000000E-03 0.  1.
         11   -1    0    0    0    0 -0.00000000000E+00 -0.00000000000E+00 -0.45593999997E+02  0.45594000000E+02  0.51100000000E-03 0. -1.
    9900012    2    1    2    0    0  0.83758516853E+01  0.62382956569E+01  0.39294962805E+02  0.50528864176E+02  0.30000013148E+02 0.  0.
         12    1    1    2    0    0 -0.83758516853E+01 -0.62382956569E+01 -0.39294962805E+02  0.40659135824E+02  0.00000000000E+00 0. -1.
         11    1    3    3    0    0 -0.69961810432E+01 -0.39949880483E+01  0.26677045604E+01  0.84866440115E+01  0.51100000000E-03 0. -1.
        -11    1    3    3    0    0  0.46019861859E+01  0.80943725116E+01  0.20689122043E+02  0.22687814226E+02  0.51100000000E-03 0.  1.
         12    1    3    3    0    0  0.10770046543E+02  0.21389111936E+01  0.15938136202E+02  0.19354405938E+02  0.00000000000E+00 0. -1.
</event>
<event>
 7    1  0.2891523E-011  0.5052887E+02  0.7816164E-02  0.1300439E+00
        -11   -1    0    0    0    0  0.00000000000E+00  0.00000000000E+00  0.45593999997E+02  0.45594000000E+02  0.51100000000E-03 0. -1.
         11   -1    0    0    0    0 -0.00000000000E+00 -0.00000000000E+00 -0.45593999997E+02  0.45594000000E+02  0.51100000000E-03 0.  1.
    9900012    2    1    2    0    0 -0.38963410611E+02  0.11303261267E+02  0.26933265040E+01  0.50528867085E+02  0.30000021992E+02 0.  0.
         12    1    1    2    0    0  0.38963410611E+02 -0.11303261267E+02 -0.26933265040E+01  0.40659132915E+02  0.00000000000E+00 0. -1.
         11    1    3    3    0    0 -0.31513955133E+02 -0.28578419188E+01 -0.12509072986E+01  0.31667986957E+02  0.51100000000E-03 0.  1.
        -11    1    3    3    0    0 -0.51767557730E+01  0.11112095302E+02 -0.13603250283E+01  0.12334015841E+02  0.51100000000E-03 0. -1.
        -12    1    3    3    0    0 -0.22726997049E+01  0.30490078843E+01  0.53045588308E+01  0.65268642867E+01  0.00000000000E+00 0.  1.
</event>
<event>
 7    1  0.2891523E-011  0.5052885E+02  0.7816164E-02  0.1300439E+00
        -11   -1    0    0    0    0  0.00000000000E+00  0.00000000000E+00  0.45593999997E+02  0.45594000000E+02  0.51100000000E-03 0.  1.
         11   -1    0    0    0    0 -0.00000000000E+00 -0.00000000000E+00 -0.45593999997E+02  0.45594000000E+02  0.51100000000E-03 0. -1.
    9900012    2    1    2    0    0 -0.26306975230E+01 -0.26466385605E+02  0.30753477038E+02  0.50528849906E+02  0.29999969773E+02 0.  0.
         12    1    1    2    0    0  0.26306975230E+01  0.26466385605E+02 -0.30753477038E+02  0.40659150094E+02  0.00000000000E+00 0. -1.
         11    1    3    3    0    0 -0.12946056766E+02 -0.16123948513E+01  0.10502152547E+02  0.16747997233E+02  0.51100000000E-03 0. -1.
        -11    1    3    3    0    0  0.67963724786E+01 -0.15385066905E+02  0.11113275769E+02  0.20159262415E+02  0.51100000000E-03 0.  1.
         12    1    3    3    0    0  0.35189867641E+01 -0.94689238483E+01  0.91380487220E+01  0.13621590257E+02  0.00000000000E+00 0. -1.
</event>
<event>
 7    1  0.2891523E-011  0.5052885E+02  0.7816164E-02  0.1300439E+00
        -11   -1    0    0    0    0  0.00000000000E+00  0.00000000000E+00  0.45593999997E+02  0.45594000000E+02  0.51100000000E-03 0. -1.
         11   -1    0    0    0    0 -0.00000000000E+00 -0.00000000000E+00 -0.45593999997E+02  0.45594000000E+02  0.51100000000E-03 0.  1.
    9900012    2    1    2    0    0 -0.45128017107E+01 -0.18101198479E+02 -0.36126822710E+02  0.50528854844E+02  0.29999984785E+02 0.  0.
         12    1    1    2    0    0  0.45128017107E+01  0.18101198479E+02  0.36126822710E+02  0.40659145156E+02  0.00000000000E+00 0. -1.
         11    1    3    3    0    0  0.39019065463E+00 -0.65738935776E+01 -0.42780180078E+01  0.78530098595E+01  0.51100000000E-03 0. -1.
        -11    1    3    3    0    0 -0.13555854428E+02 -0.35462476274E+01 -0.81381909562E+01  0.16203925876E+02  0.51100000000E-03 0.  1.
        -12    1    3    3    0    0  0.86528620625E+01 -0.79810572740E+01 -0.23710613746E+02  0.26471919109E+02  0.00000000000E+00 0.  1.
</event>
<event>
 7    1  0.2891523E-011  0.5052885E+02  0.7816164E-02  0.1300439E+00
        -11   -1    0    0    0    0  0.00000000000E+00  0.00000000000E+00  0.45593999997E+02  0.45594000000E+02  0.51100000000E-03 0.  1.
         11   -1    0    0    0    0 -0.00000000000E+00 -0.00000000000E+00 -0.45593999997E+02  0.45594000000E+02  0.51100000000E-03 0. -1.
    9900012    2    1    2    0    0 -0.44372067084E+01 -0.69984024647E+01  0.39805776757E+02  0.50528852152E+02  0.29999976602E+02 0.  0.
         12    1    1    2    0    0  0.44372067084E+01  0.69984024647E+01 -0.39805776757E+02  0.40659147848E+02  0.00000000000E+00 0. -1.
         11    1    3    3    0    0 -0.86409490668E+00  0.33317793107E+01 -0.22450404910E+01  0.41094550064E+01  0.51100000000E-03 0. -1.
        -11    1    3    3    0    0 -0.16471050459E+01 -0.14737133553E+01  0.34643862244E+02  0.34714290682E+02  0.51100000000E-03 0.  1.
        -12    1    3    3    0    0 -0.19260067558E+01 -0.88564684201E+01  0.74069550041E+01  0.11705106464E+02  0.00000000000E+00 0.  1.
</event>
<event>
 7    1  0.2891523E-011  0.5052886E+02  0.7816164E-02  0.1300439E+00
        -11   -1    0    0    0    0  0.00000000000E+00  0.00000000000E+00  0.45593999997E+02  0.45594000000E+02  0.51100000000E-03 0.  1.
         11   -1    0    0    0    0 -0.00000000000E+00 -0.00000000000E+00 -0.45593999997E+02  0.45594000000E+02  0.51100000000E-03 0. -1.
    9900012    2    1    2    0    0 -0.27966856206E+02  0.18066885247E+02 -0.23336839018E+02  0.50528862725E+02  0.30000008740E+02 0.  0.
         12    1    1    2    0    0  0.27966856206E+02 -0.18066885247E+02  0.23336839018E+02  0.40659137275E+02  0.00000000000E+00 0. -1.
         11    1    3    3    0    0  0.19561668131E+01  0.93900313470E+01 -0.16128161109E+01  0.97262764389E+01  0.51100000000E-03 0. -1.
        -11    1    3    3    0    0 -0.23520077962E+02  0.45670850359E+00 -0.11425275387E+02  0.26152238296E+02  0.51100000000E-03 0.  1.
         12    1    3    3    0    0 -0.64029450572E+01  0.82201453963E+01 -0.10298747520E+02  0.14650347990E+02  0.00000000000E+00 0. -1.
</event>
<event>
 7    1  0.2891523E-011  0.5052886E+02  0.7816164E-02  0.1300439E+00
        -11   -1    0    0    0    0  0.00000000000E+00  0.00000000000E+00  0.45593999997E+02  0.45594000000E+02  0.51100000000E-03 0. -1.
         11   -1    0    0    0    0 -0.00000000000E+00 -0.00000000000E+00 -0.45593999997E+02  0.45594000000E+02  0.51100000000E-03 0.  1.
    9900012    2    1    2    0    0 -0.38695522439E+02  0.78658519936E+01  0.96927939468E+01  0.50528864017E+02  0.30000012666E+02 0.  0.
         12    1    1    2    0    0  0.38695522439E+02 -0.78658519936E+01 -0.96927939468E+01  0.40659135983E+02  0.00000000000E+00 0. -1.
         11    1    3    3    0    0 -0.23086581743E+02  0.12799969181E+02 -0.11901913909E+01  0.26424345279E+02  0.51100000000E-03 0. -1.
        -11    1    3    3    0    0 -0.12637488594E+02 -0.40659921137E+01  0.51632746157E+00  0.13285518588E+02  0.51100000000E-03 0.  1.
         12    1    3    3    0    0 -0.29714521023E+01 -0.86812507374E+00  0.10366657876E+02  0.10819000151E+02  0.00000000000E+00 0. -1.
</event>
<event>
 7    1  0.2891523E-011  0.5052886E+02  0.7816164E-02  0.1300439E+00
        -11   -1    0    0    0    0  0.00000000000E+00  0.00000000000E+00  0.45593999997E+02  0.45594000000E+02  0.51100000000E-03 0. -1.
         11   -1    0    0    0    0 -0.00000000000E+00 -0.00000000000E+00 -0.45593999997E+02  0.45594000000E+02  0.51100000000E-03 0.  1.
    9900012    2    1    2    0    0 -0.38631355032E+02  0.10742365746E+02 -0.67368833880E+01  0.50528860668E+02  0.30000002487E+02 0.  0.
         12    1    1    2    0    0  0.38631355032E+02 -0.10742365746E+02  0.67368833880E+01  0.40659139332E+02  0.00000000000E+00 0. -1.
         11    1    3    3    0    0 -0.15992026974E+02  0.70117855865E+01  0.10019981443E+02  0.20132314626E+02  0.51100000000E-03 0. -1.
        -11    1    3    3    0    0 -0.11964372126E+02  0.48830667686E+00 -0.14853161928E+02  0.19078811894E+02  0.51100000000E-03 0.  1.
         12    1    3    3    0    0 -0.10674955932E+02  0.32422734828E+01 -0.19037029028E+01  0.11317734147E+02  0.00000000000E+00 0. -1.
</event>
<event>
 7    1  0.2891523E-011  0.5052885E+02  0.7816164E-02  0.1300439E+00
        -11   -1    0    0    0    0  0.00000000000E+00  0.00000000000E+00  0.45593999997E+02  0.45594000000E+02  0.51100000000E-03 0.  1.
         11   -1    0    0    0    0 -0.00000000000E+00 -0.00000000000E+00 -0.45593999997E+02  0.45594000000E+02  0.51100000000E-03 0. -1.
    9900012    2    1    2    0    0 -0.15010781615E+01 -0.32284101286E+01  0.40502969256E+02  0.50528851138E+02  0.29999973519E+02 0.  0.
         12    1    1    2    0    0  0.15010781615E+01  0.32284101286E+01 -0.40502969256E+02  0.40659148862E+02  0.00000000000E+00 0. -1.
         11    1    3    3    0    0 -0.80083970564E+01  0.51523538643E+01  0.67040942958E+01  0.11645859966E+02  0.51100000000E-03 0. -1.
        -11    1    3    3    0    0 -0.19759033827E+01 -0.97677970075E+01  0.23105523328E+02  0.25163053493E+02  0.51100000000E-03 0.  1.
         12    1    3    3    0    0  0.84832222776E+01  0.13870330145E+01  0.10693351632E+02  0.13719937679E+02  0.00000000000E+00 0. -1.
</event>
<event>
 7    1  0.2891523E-011  0.5052886E+02  0.7816164E-02  0.1300439E+00
        -11   -1    0    0    0    0  0.00000000000E+00  0.00000000000E+00  0.45593999997E+02  0.45594000000E+02  0.51100000000E-03 0.  1.
         11   -1    0    0    0    0 -0.00000000000E+00 -0.00000000000E+00 -0.45593999997E+02  0.45594000000E+02  0.51100000000E-03 0. -1.
    9900012    2    1    2    0    0 -0.28846660229E+02 -0.12056973539E+02  0.25993557699E+02  0.50528862538E+02  0.30000008170E+02 0.  0.
         12    1    1    2    0    0  0.28846660229E+02  0.12056973539E+02 -0.25993557699E+02  0.40659137462E+02  0.00000000000E+00 0. -1.
         11    1    3    3    0    0 -0.17869438658E+02  0.56268045570E+01  0.17021070789E+02  0.25311946163E+02  0.51100000000E-03 0. -1.
        -11    1    3    3    0    0 -0.58492050508E+01 -0.15154816086E+02  0.10444945311E+02  0.19312652151E+02  0.51100000000E-03 0.  1.
         12    1    3    3    0    0 -0.51280165201E+01 -0.25289620102E+01 -0.14724584008E+01  0.59042642236E+01  0.00000000000E+00 0. -1.
</event>
<event>
 7    1  0.2891523E-011  0.5052890E+02  0.7816164E-02  0.1300439E+00
        -11   -1    0    0    0    0  0.00000000000E+00  0.00000000000E+00  0.45593999997E+02  0.45594000000E+02  0.51100000000E-03 0. -1.
         11   -1    0    0    0    0 -0.00000000000E+00 -0.00000000000E+00 -0.45593999997E+02  0.45594000000E+02  0.51100000000E-03 0.  1.
    9900012    2    1    2    0    0  0.34826966375E+02 -0.18316087880E+02 -0.10235531825E+02  0.50528895560E+02  0.30000108545E+02 0.  0.
         12    1    1    2    0    0 -0.34826966375E+02  0.18316087880E+02  0.10235531825E+02  0.40659104440E+02  0.00000000000E+00 0. -1.
         11    1    3    3    0    0  0.25820979734E+02 -0.46223694250E+00 -0.32259241138E+01  0.26025818797E+02  0.51100000000E-03 0. -1.
        -11    1    3    3    0    0  0.83994267359E+00 -0.12587092206E+02 -0.76695366696E+01  0.14763542491E+02  0.51100000000E-03 0.  1.
        -12    1    3    3    0    0  0.81660439671E+01 -0.52667587311E+01  0.65992895808E+00  0.97395342719E+01  0.00000000000E+00 0.  1.
</event>
<event>
 7    1  0.2891523E-011  0.5052891E+02  0.7816164E-02  0.1300439E+00
        -11   -1    0    0    0    0  0.00000000000E+00  0.00000000000E+00  0.45593999997E+02  0.45594000000E+02  0.51100000000E-03 0.  1.
         11   -1    0    0    0    0 -0.00000000000E+00 -0.00000000000E+00 -0.45593999997E+02  0.45594000000E+02  0.51100000000E-03 0. -1.
    9900012    2    1    2    0    0  0.23929838078E+02 -0.10641699878E+02  0.31101102015E+02  0.50528911554E+02  0.30000157159E+02 0.  0.
         12    1    1    2    0    0 -0.23929838078E+02  0.10641699878E+02 -0.31101102015E+02  0.40659088446E+02  0.00000000000E+00 0. -1.
         11    1    3    3    0    0 -0.15331742077E+01  0.63167339540E+01  0.12059937873E+01  0.66110643828E+01  0.51100000000E-03 0. -1.
        -11    1    3    3    0    0  0.13575159429E+02 -0.14792186159E+02  0.19229749746E+02  0.27800665468E+02  0.51100000000E-03 0.  1.
        -12    1    3    3    0    0  0.11887852857E+02 -0.21662476733E+01  0.10665358481E+02  0.16117181703E+02  0.00000000000E+00 0.  1.
</event>
<event>
 7    1  0.2891523E-011  0.5052886E+02  0.7816164E-02  0.1300439E+00
        -11   -1    0    0    0    0  0.00000000000E+00  0.00000000000E+00  0.45593999997E+02  0.45594000000E+02  0.51100000000E-03 0.  1.
         11   -1    0    0    0    0 -0.00000000000E+00 -0.00000000000E+00 -0.45593999997E+02  0.45594000000E+02  0.51100000000E-03 0. -1.
    9900012    2    1    2    0    0  0.29792038527E+02 -0.27669386516E+02  0.72726835169E-01  0.50528858360E+02  0.29999995470E+02 0.  0.
         12    1    1    2    0    0 -0.29792038527E+02  0.27669386516E+02 -0.72726835169E-01  0.40659141640E+02  0.00000000000E+00 0. -1.
         11    1    3    3    0    0  0.74035259477E+01 -0.90398693481E+01 -0.90842069837E+01  0.14800481447E+02  0.51100000000E-03 0. -1.
        -11    1    3    3    0    0  0.11477317629E+02 -0.20448811849E+02  0.68361885375E+01  0.24425728238E+02  0.51100000000E-03 0.  1.
        -12    1    3    3    0    0  0.10911194950E+02  0.18192946816E+01  0.23207452815E+01  0.11302648674E+02  0.00000000000E+00 0.  1.
</event>
<event>
 7    1  0.2891523E-011  0.5052886E+02  0.7816164E-02  0.1300439E+00
        -11   -1    0    0    0    0  0.00000000000E+00  0.00000000000E+00  0.45593999997E+02  0.45594000000E+02  0.51100000000E-03 0. -1.
         11   -1    0    0    0    0 -0.00000000000E+00 -0.00000000000E+00 -0.45593999997E+02  0.45594000000E+02  0.51100000000E-03 0.  1.
    9900012    2    1    2    0    0 -0.29694753296E+02  0.21588420538E+02 -0.17473624812E+02  0.50528857870E+02  0.29999993983E+02 0.  0.
         12    1    1    2    0    0  0.29694753296E+02 -0.21588420538E+02  0.17473624812E+02  0.40659142130E+02  0.00000000000E+00 0. -1.
         11    1    3    3    0    0 -0.13940774545E+01  0.20691346504E+00  0.20682235021E+01  0.25027612445E+01  0.51100000000E-03 0. -1.
        -11    1    3    3    0    0 -0.32309252518E+02  0.15280693513E+02 -0.19525207974E+02  0.40726172656E+02  0.51100000000E-03 0.  1.
        -12    1    3    3    0    0  0.40085766765E+01  0.61008135600E+01 -0.16640339954E-01  0.72999239699E+01  0.00000000000E+00 0.  1.
</event>
<event>
 7    1  0.2891523E-011  0.5052888E+02  0.7816164E-02  0.1300439E+00
        -11   -1    0    0    0    0  0.00000000000E+00  0.00000000000E+00  0.45593999997E+02  0.45594000000E+02  0.51100000000E-03 0. -1.
         11   -1    0    0    0    0 -0.00000000000E+00 -0.00000000000E+00 -0.45593999997E+02  0.45594000000E+02  0.51100000000E-03 0.  1.
    9900012    2    1    2    0    0 -0.36865883843E+02 -0.74836940982E+00  0.17132157377E+02  0.50528877227E+02  0.30000052818E+02 0.  0.
         12    1    1    2    0    0  0.36865883843E+02  0.74836940982E+00 -0.17132157377E+02  0.40659122773E+02  0.00000000000E+00 0. -1.
         11    1    3    3    0    0 -0.36879349518E+00  0.28819441677E+00  0.72879486546E+01  0.73029624480E+01  0.51100000000E-03 0. -1.
        -11    1    3    3    0    0 -0.24657299220E+02 -0.14096207815E+01 -0.39849460630E+01  0.25016978854E+02  0.51100000000E-03 0.  1.
        -12    1    3    3    0    0 -0.11839791128E+02  0.37305695490E+00  0.13829154786E+02  0.18208935925E+02  0.00000000000E+00 0.  1.
</event>
<event>
 7    1  0.2891523E-011  0.5052886E+02  0.7816164E-02  0.1300439E+00
        -11   -1    0    0    0    0  0.00000000000E+00  0.00000000000E+00  0.45593999997E+02  0.45594000000E+02  0.51100000000E-03 0.  1.
         11   -1    0    0    0    0 -0.00000000000E+00 -0.00000000000E+00 -0.45593999997E+02  0.45594000000E+02  0.51100000000E-03 0. -1.
    9900012    2    1    2    0    0  0.67452126351E+01 -0.12306021347E+02  0.38160581136E+02  0.50528855795E+02  0.29999987674E+02 0.  0.
         12    1    1    2    0    0 -0.67452126351E+01  0.12306021347E+02 -0.38160581136E+02  0.40659144205E+02  0.00000000000E+00 0. -1.
         11    1    3    3    0    0 -0.89420843427E+01 -0.38148964938E+01  0.47574223582E+01  0.10823464113E+02  0.51100000000E-03 0. -1.
        -11    1    3    3    0    0  0.13123842938E+02 -0.43595541890E+01  0.13908184473E+02  0.19613224156E+02  0.51100000000E-03 0.  1.
        -12    1    3    3    0    0  0.25634540399E+01 -0.41315706639E+01  0.19494974304E+02  0.20092167526E+02  0.00000000000E+00 0.  1.
</event>
<event>
 7    1  0.2891523E-011  0.5052887E+02  0.7816164E-02  0.1300439E+00
        -11   -1    0    0    0    0  0.00000000000E+00  0.00000000000E+00  0.45593999997E+02  0.45594000000E+02  0.51100000000E-03 0.  1.
         11   -1    0    0    0    0 -0.00000000000E+00 -0.00000000000E+00 -0.45593999997E+02  0.45594000000E+02  0.51100000000E-03 0. -1.
    9900012    2    1    2    0    0  0.26057445713E+02  0.23424801299E+02 -0.20626522366E+02  0.50528865505E+02  0.30000017188E+02 0.  0.
         12    1    1    2    0    0 -0.26057445713E+02 -0.23424801299E+02  0.20626522366E+02  0.40659134495E+02  0.00000000000E+00 0. -1.
         11    1    3    3    0    0  0.39305294351E+01 -0.35712777545E+01 -0.78955692945E+01  0.95154138735E+01  0.51100000000E-03 0. -1.
        -11    1    3    3    0    0  0.49055536654E+01  0.15505629646E+02  0.79706776643E+00  0.16282638753E+02  0.51100000000E-03 0.  1.
        -12    1    3    3    0    0  0.17221362613E+02  0.11490449408E+02 -0.13528020838E+02  0.24730812878E+02  0.00000000000E+00 0.  1.
</event>
<event>
 7    1  0.2891523E-011  0.5052884E+02  0.7816164E-02  0.1300439E+00
        -11   -1    0    0    0    0  0.00000000000E+00  0.00000000000E+00  0.45593999997E+02  0.45594000000E+02  0.51100000000E-03 0.  1.
         11   -1    0    0    0    0 -0.00000000000E+00 -0.00000000000E+00 -0.45593999997E+02  0.45594000000E+02  0.51100000000E-03 0. -1.
    9900012    2    1    2    0    0 -0.19620161086E+02  0.14391338799E+02  0.32574618980E+02  0.50528841682E+02  0.29999944777E+02 0.  0.
         12    1    1    2    0    0  0.19620161086E+02 -0.14391338799E+02 -0.32574618980E+02  0.40659158318E+02  0.00000000000E+00 0. -1.
         11    1    3    3    0    0 -0.16535569650E+01  0.61017544756E+01  0.29774411940E+01  0.69879048821E+01  0.51100000000E-03 0. -1.
        -11    1    3    3    0    0 -0.25531582942E+01 -0.51659898500E+01 -0.18249801342E+01  0.60445530155E+01  0.51100000000E-03 0.  1.
        -12    1    3    3    0    0 -0.15413445826E+02  0.13455574174E+02  0.31422157920E+02  0.37496383785E+02  0.00000000000E+00 0.  1.
</event>
<event>
 7    1  0.2891523E-011  0.5052887E+02  0.7816164E-02  0.1300439E+00
        -11   -1    0    0    0    0  0.00000000000E+00  0.00000000000E+00  0.45593999997E+02  0.45594000000E+02  0.51100000000E-03 0.  1.
         11   -1    0    0    0    0 -0.00000000000E+00 -0.00000000000E+00 -0.45593999997E+02  0.45594000000E+02  0.51100000000E-03 0. -1.
    9900012    2    1    2    0    0 -0.43114577822E+00 -0.16299231160E+02  0.37246664176E+02  0.50528870456E+02  0.30000032237E+02 0.  0.
         12    1    1    2    0    0  0.43114577822E+00  0.16299231160E+02 -0.37246664176E+02  0.40659129544E+02  0.00000000000E+00 0. -1.
         11    1    3    3    0    0  0.17749825979E-01 -0.38200495142E+01  0.39738171624E+00  0.38407038205E+01  0.51100000000E-03 0. -1.
        -11    1    3    3    0    0  0.42343851048E+01 -0.10980289107E+02  0.39420172882E+02  0.41139358240E+02  0.51100000000E-03 0.  1.
        -12    1    3    3    0    0 -0.46832807090E+01 -0.14988925388E+01 -0.25708904224E+01  0.55488083952E+01  0.00000000000E+00 0.  1.
</event>
<event>
 7    1  0.2891523E-011  0.5052886E+02  0.7816164E-02  0.1300439E+00
        -11   -1    0    0    0    0  0.00000000000E+00  0.00000000000E+00  0.45593999997E+02  0.45594000000E+02  0.51100000000E-03 0.  1.
         11   -1    0    0    0    0 -0.00000000000E+00 -0.00000000000E+00 -0.45593999997E+02  0.45594000000E+02  0.51100000000E-03 0. -1.
    9900012    2    1    2    0    0  0.40093174305E+01 -0.13879042549E+02  0.38006096997E+02  0.50528857643E+02  0.29999993291E+02 0.  0.
         12    1    1    2    0    0 -0.40093174305E+01  0.13879042549E+02 -0.38006096997E+02  0.40659142357E+02  0.00000000000E+00 0. -1.
         11    1    3    3    0    0  0.93001726666E+01  0.15846554818E+00  0.44029738507E+01  0.10290991301E+02  0.51100000000E-03 0. -1.
        -11    1    3    3    0    0  0.18980874671E+00 -0.10151324595E+02  0.31653631952E+02  0.33242109355E+02  0.51100000000E-03 0.  1.
         12    1    3    3    0    0 -0.54806639828E+01 -0.38861835016E+01  0.19494911942E+01  0.69957569867E+01  0.00000000000E+00 0. -1.
</event>
<event>
 7    1  0.2891523E-011  0.5052886E+02  0.7816164E-02  0.1300439E+00
        -11   -1    0    0    0    0  0.00000000000E+00  0.00000000000E+00  0.45593999997E+02  0.45594000000E+02  0.51100000000E-03 0.  1.
         11   -1    0    0    0    0 -0.00000000000E+00 -0.00000000000E+00 -0.45593999997E+02  0.45594000000E+02  0.51100000000E-03 0. -1.
    9900012    2    1    2    0    0  0.16378329683E+02  0.31711697092E+02 -0.19475221927E+02  0.50528859764E+02  0.29999999738E+02 0.  0.
         12    1    1    2    0    0 -0.16378329683E+02 -0.31711697092E+02  0.19475221927E+02  0.40659140236E+02  0.00000000000E+00 0. -1.
         11    1    3    3    0    0 -0.53731004554E+01  0.18037117664E+02 -0.11099857174E+02  0.21849820404E+02  0.51100000000E-03 0. -1.
        -11    1    3    3    0    0  0.42356847807E+01  0.46863604011E+01  0.17302780289E+01  0.65495695804E+01  0.51100000000E-03 0.  1.
         12    1    3    3    0    0  0.17515745358E+02  0.89882190271E+01 -0.10105642782E+02  0.22129469780E+02  0.00000000000E+00 0. -1.
</event>
<event>
 7    1  0.2891523E-011  0.5052886E+02  0.7816164E-02  0.1300439E+00
        -11   -1    0    0    0    0  0.00000000000E+00  0.00000000000E+00  0.45593999997E+02  0.45594000000E+02  0.51100000000E-03 0.  1.
         11   -1    0    0    0    0 -0.00000000000E+00 -0.00000000000E+00 -0.45593999997E+02  0.45594000000E+02  0.51100000000E-03 0. -1.
    9900012    2    1    2    0    0  0.31102049591E+02  0.23406998824E+02 -0.11744812998E+02  0.50528859391E+02  0.29999998604E+02 0.  0.
         12    1    1    2    0    0 -0.31102049591E+02 -0.23406998824E+02  0.11744812998E+02  0.40659140609E+02  0.00000000000E+00 0. -1.
         11    1    3    3    0    0  0.39675392382E+01  0.18506058799E+01 -0.57714187213E+01  0.72439895118E+01  0.51100000000E-03 0. -1.
        -11    1    3    3    0    0  0.25048675607E+02  0.51539541905E+01  0.36784697519E+00  0.25576057263E+02  0.51100000000E-03 0.  1.
        -12    1    3    3    0    0  0.20858347461E+01  0.16402438753E+02 -0.63412412516E+01  0.17708812616E+02  0.00000000000E+00 0.  1.
</event>
<event>
 7    1  0.2891523E-011  0.5052886E+02  0.7816164E-02  0.1300439E+00
        -11   -1    0    0    0    0  0.00000000000E+00  0.00000000000E+00  0.45593999997E+02  0.45594000000E+02  0.51100000000E-03 0. -1.
         11   -1    0    0    0    0 -0.00000000000E+00 -0.00000000000E+00 -0.45593999997E+02  0.45594000000E+02  0.51100000000E-03 0.  1.
    9900012    2    1    2    0    0  0.37383664656E+02 -0.15151419799E+02  0.51050465681E+01  0.50528863198E+02  0.30000010176E+02 0.  0.
         12    1    1    2    0    0 -0.37383664656E+02  0.15151419799E+02 -0.51050465681E+01  0.40659136802E+02  0.00000000000E+00 0. -1.
         11    1    3    3    0    0  0.26893115653E+02 -0.19732503262E+02  0.15100285312E+01  0.33389991628E+02  0.51100000000E-03 0. -1.
        -11    1    3    3    0    0  0.10534955801E+02  0.32184117998E+01 -0.21592999583E+01  0.11225241414E+02  0.51100000000E-03 0.  1.
         12    1    3    3    0    0 -0.44406797974E-01  0.13626716631E+01  0.57543179951E+01  0.59136301554E+01  0.00000000000E+00 0. -1.
</event>
<event>
 7    1  0.2891523E-011  0.5052886E+02  0.7816164E-02  0.1300439E+00
        -11   -1    0    0    0    0  0.00000000000E+00  0.00000000000E+00  0.45593999997E+02  0.45594000000E+02  0.51100000000E-03 0.  1.
         11   -1    0    0    0    0 -0.00000000000E+00 -0.00000000000E+00 -0.45593999997E+02  0.45594000000E+02  0.51100000000E-03 0. -1.
    9900012    2    1    2    0    0  0.12231221708E+01 -0.37450171559E+02  0.15784624502E+02  0.50528858982E+02  0.29999997363E+02 0.  0.
         12    1    1    2    0    0 -0.12231221708E+01  0.37450171559E+02 -0.15784624502E+02  0.40659141018E+02  0.00000000000E+00 0. -1.
         11    1    3    3    0    0 -0.19979064827E+01  0.75105475928E+00  0.18064832316E+00  0.21420428667E+01  0.51100000000E-03 0. -1.
        -11    1    3    3    0    0  0.90688180336E+01 -0.29755961835E+02  0.17719763938E+01  0.31157673627E+02  0.51100000000E-03 0.  1.
        -12    1    3    3    0    0 -0.58477893801E+01 -0.84452644826E+01  0.13831999785E+02  0.17229142488E+02  0.00000000000E+00 0.  1.
</event>
<event>
 7    1  0.2891523E-011  0.5052883E+02  0.7816164E-02  0.1300439E+00
        -11   -1    0    0    0    0  0.00000000000E+00  0.00000000000E+00  0.45593999997E+02  0.45594000000E+02  0.51100000000E-03 0.  1.
         11   -1    0    0    0    0 -0.00000000000E+00 -0.00000000000E+00 -0.45593999997E+02  0.45594000000E+02  0.51100000000E-03 0. -1.
    9900012    2    1    2    0    0  0.31705243187E+02 -0.19852624806E+01  0.25377241777E+02  0.50528829904E+02  0.29999908976E+02 0.  0.
         12    1    1    2    0    0 -0.31705243187E+02  0.19852624806E+01 -0.25377241777E+02  0.40659170096E+02  0.00000000000E+00 0. -1.
         11    1    3    3    0    0  0.72647986650E+01 -0.26227544739E+01 -0.45596668587E+01  0.89692085937E+01  0.51100000000E-03 0. -1.
        -11    1    3    3    0    0  0.26479496793E+02  0.60421228218E+00  0.25942897886E+02  0.37075096411E+02  0.51100000000E-03 0.  1.
        -12    1    3    3    0    0 -0.20390522708E+01  0.33279711196E-01  0.39940107503E+01  0.44845248997E+01  0.00000000000E+00 0.  1.
</event>
<event>
 7    1  0.2891523E-011  0.5052886E+02  0.7816164E-02  0.1300439E+00
        -11   -1    0    0    0    0  0.00000000000E+00  0.00000000000E+00  0.45593999997E+02  0.45594000000E+02  0.51100000000E-03 0.  1.
         11   -1    0    0    0    0 -0.00000000000E+00 -0.00000000000E+00 -0.45593999997E+02  0.45594000000E+02  0.51100000000E-03 0. -1.
    9900012    2    1    2    0    0  0.85347619828E+01  0.22075600631E+02  0.33060419726E+02  0.50528860095E+02  0.30000000745E+02 0.  0.
         12    1    1    2    0    0 -0.85347619828E+01 -0.22075600631E+02 -0.33060419726E+02  0.40659139905E+02  0.00000000000E+00 0. -1.
         11    1    3    3    0    0 -0.81331463492E+01 -0.12485097319E+01  0.10902714870E+02  0.13659283945E+02  0.51100000000E-03 0. -1.
        -11    1    3    3    0    0  0.58939225513E+01  0.10315617022E+02  0.13167998230E+02  0.17735457571E+02  0.51100000000E-03 0.  1.
         12    1    3    3    0    0  0.10773985781E+02  0.13008493341E+02  0.89897066262E+01  0.19134118580E+02  0.00000000000E+00 0. -1.
</event>
<event>
 7    1  0.2891523E-011  0.5052886E+02  0.7816164E-02  0.1300439E+00
        -11   -1    0    0    0    0  0.00000000000E+00  0.00000000000E+00  0.45593999997E+02  0.45594000000E+02  0.51100000000E-03 0. -1.
         11   -1    0    0    0    0 -0.00000000000E+00 -0.00000000000E+00 -0.45593999997E+02  0.45594000000E+02  0.51100000000E-03 0.  1.
    9900012    2    1    2    0    0  0.38613468839E+01 -0.22173882803E+01 -0.40414583378E+02  0.50528863755E+02  0.30000011870E+02 0.  0.
         12    1    1    2    0    0 -0.38613468839E+01  0.22173882803E+01  0.40414583378E+02  0.40659136245E+02  0.00000000000E+00 0. -1.
         11    1    3    3    0    0 -0.37819982185E-01  0.53443691751E+01 -0.98698828313E+01  0.11224005506E+02  0.51100000000E-03 0. -1.
        -11    1    3    3    0    0  0.27924644325E+00 -0.14616566694E+02 -0.26817080862E+02  0.30543048746E+02  0.51100000000E-03 0.  1.
        -12    1    3    3    0    0  0.36199204228E+01  0.70548092382E+01 -0.37276196854E+01  0.87618095034E+01  0.00000000000E+00 0.  1.
</event>
<event>
 7    1  0.2891523E-011  0.5052894E+02  0.7816164E-02  0.1300439E+00
        -11   -1    0    0    0    0  0.00000000000E+00  0.00000000000E+00  0.45593999997E+02  0.45594000000E+02  0.51100000000E-03 0.  1.
         11   -1    0    0    0    0 -0.00000000000E+00 -0.00000000000E+00 -0.45593999997E+02  0.45594000000E+02  0.51100000000E-03 0. -1.
    9900012    2    1    2    0    0  0.11255347454E+02 -0.25686757521E+02  0.29439206943E+02  0.50528938726E+02  0.30000239751E+02 0.  0.
         12    1    1    2    0    0 -0.11255347454E+02  0.25686757521E+02 -0.29439206943E+02  0.40659061274E+02  0.00000000000E+00 0. -1.
         11    1    3    3    0    0 -0.14916333180E+01 -0.15831238171E+01 -0.22744512963E+01  0.31471224851E+01  0.51100000000E-03 0. -1.
        -11    1    3    3    0    0  0.10313495758E+02 -0.78994064273E+01  0.27574016266E+02  0.30481062808E+02  0.51100000000E-03 0.  1.
        -12    1    3    3    0    0  0.24334850141E+01 -0.16204227276E+02  0.41396419738E+01  0.16900753433E+02  0.00000000000E+00 0.  1.
</event>
<event>
 7    1  0.2891523E-011  0.5052885E+02  0.7816164E-02  0.1300439E+00
        -11   -1    0    0    0    0  0.00000000000E+00  0.00000000000E+00  0.45593999997E+02  0.45594000000E+02  0.51100000000E-03 0. -1.
         11   -1    0    0    0    0 -0.00000000000E+00 -0.00000000000E+00 -0.45593999997E+02  0.45594000000E+02  0.51100000000E-03 0.  1.
    9900012    2    1    2    0    0  0.31690547702E+02 -0.51760624794E+01  0.24941604916E+02  0.50528854753E+02  0.29999984506E+02 0.  0.
         12    1    1    2    0    0 -0.31690547702E+02  0.51760624794E+01 -0.24941604916E+02  0.40659145247E+02  0.00000000000E+00 0. -1.
         11    1    3    3    0    0  0.13776735830E+01  0.14395209414E+01 -0.30962106090E+01  0.36819458766E+01  0.51100000000E-03 0. -1.
        -11    1    3    3    0    0  0.27105070846E+02 -0.12412562469E+02  0.26840119698E+02  0.40114194474E+02  0.51100000000E-03 0.  1.
        -12    1    3    3    0    0  0.32078032727E+01  0.57969790482E+01  0.11976958274E+01  0.67327144019E+01  0.00000000000E+00 0.  1.
</event>
<event>
 7    1  0.2891523E-011  0.5052886E+02  0.7816164E-02  0.1300439E+00
        -11   -1    0    0    0    0  0.00000000000E+00  0.00000000000E+00  0.45593999997E+02  0.45594000000E+02  0.51100000000E-03 0.  1.
         11   -1    0    0    0    0 -0.00000000000E+00 -0.00000000000E+00 -0.45593999997E+02  0.45594000000E+02  0.51100000000E-03 0. -1.
    9900012    2    1    2    0    0  0.23979093007E+02  0.27619948373E+02  0.17756902053E+02  0.50528855640E+02  0.29999987203E+02 0.  0.
         12    1    1    2    0    0 -0.23979093007E+02 -0.27619948373E+02 -0.17756902053E+02  0.40659144360E+02  0.00000000000E+00 0. -1.
         11    1    3    3    0    0 -0.22262728259E+01  0.69922447487E+01 -0.37010250119E+01  0.82185986471E+01  0.51100000000E-03 0. -1.
        -11    1    3    3    0    0  0.24490387746E+02  0.19977897729E+02  0.23633817399E+02  0.39464576708E+02  0.51100000000E-03 0.  1.
        -12    1    3    3    0    0  0.17149780872E+01  0.64980589543E+00 -0.21758903337E+01  0.28456802852E+01  0.00000000000E+00 0.  1.
</event>
<event>
 7    1  0.2891523E-011  0.5052886E+02  0.7816164E-02  0.1300439E+00
        -11   -1    0    0    0    0  0.00000000000E+00  0.00000000000E+00  0.45593999997E+02  0.45594000000E+02  0.51100000000E-03 0.  1.
         11   -1    0    0    0    0 -0.00000000000E+00 -0.00000000000E+00 -0.45593999997E+02  0.45594000000E+02  0.51100000000E-03 0. -1.
    9900012    2    1    2    0    0  0.38581529712E+02  0.30505459433E+01  0.12462949876E+02  0.50528863449E+02  0.30000010938E+02 0.  0.
         12    1    1    2    0    0 -0.38581529712E+02 -0.30505459433E+01 -0.12462949876E+02  0.40659136551E+02  0.00000000000E+00 0. -1.
         11    1    3    3    0    0  0.23829195204E+02  0.79483865618E+01  0.18951382471E+02  0.31466844310E+02  0.51100000000E-03 0. -1.
        -11    1    3    3    0    0  0.14248977965E+02 -0.51181528757E+01 -0.28797464917E+01  0.15411742342E+02  0.51100000000E-03 0.  1.
         12    1    3    3    0    0  0.50335654317E+00  0.22031225723E+00 -0.36086861029E+01  0.36502767963E+01  0.00000000000E+00 0. -1.
</event>
<event>
 7    1  0.2891523E-011  0.5052889E+02  0.7816164E-02  0.1300439E+00
        -11   -1    0    0    0    0  0.00000000000E+00  0.00000000000E+00  0.45593999997E+02  0.45594000000E+02  0.51100000000E-03 0.  1.
         11   -1    0    0    0    0 -0.00000000000E+00 -0.00000000000E+00 -0.45593999997E+02  0.45594000000E+02  0.51100000000E-03 0. -1.
    9900012    2    1    2    0    0 -0.27985586219E+02 -0.29447613927E+02  0.16757357272E+01  0.50528891645E+02  0.30000096644E+02 0.  0.
         12    1    1    2    0    0  0.27985586219E+02  0.29447613927E+02 -0.16757357272E+01  0.40659108355E+02  0.00000000000E+00 0. -1.
         11    1    3    3    0    0 -0.93449771372E+01 -0.13182833584E+02  0.10573071189E+02  0.19310762119E+02  0.51100000000E-03 0.  1.
        -11    1    3    3    0    0 -0.81514634069E+01 -0.12656683522E+01 -0.99017532563E+01  0.12887706928E+02  0.51100000000E-03 0. -1.
         12    1    3    3    0    0 -0.10489145675E+02 -0.14999111991E+02  0.10044177946E+01  0.18330422598E+02  0.00000000000E+00 0. -1.
</event>
<event>
 7    1  0.2891523E-011  0.5052885E+02  0.7816164E-02  0.1300439E+00
        -11   -1    0    0    0    0  0.00000000000E+00  0.00000000000E+00  0.45593999997E+02  0.45594000000E+02  0.51100000000E-03 0. -1.
         11   -1    0    0    0    0 -0.00000000000E+00 -0.00000000000E+00 -0.45593999997E+02  0.45594000000E+02  0.51100000000E-03 0.  1.
    9900012    2    1    2    0    0  0.39076345561E+02 -0.10235453442E+02 -0.46304211773E+01  0.50528854782E+02  0.29999984597E+02 0.  0.
         12    1    1    2    0    0 -0.39076345561E+02  0.10235453442E+02  0.46304211773E+01  0.40659145218E+02  0.00000000000E+00 0. -1.
         11    1    3    3    0    0  0.14984064797E+02  0.12588888158E+01  0.53936994657E+01  0.15974948922E+02  0.51100000000E-03 0. -1.
        -11    1    3    3    0    0  0.11394706029E+02 -0.85442397237E+01 -0.14922449470E+02  0.20628205360E+02  0.51100000000E-03 0.  1.
        -12    1    3    3    0    0  0.12697574735E+02 -0.29501025339E+01  0.48983288267E+01  0.13925700500E+02  0.00000000000E+00 0.  1.
</event>
<event>
 7    1  0.2891523E-011  0.5052886E+02  0.7816164E-02  0.1300439E+00
        -11   -1    0    0    0    0  0.00000000000E+00  0.00000000000E+00  0.45593999997E+02  0.45594000000E+02  0.51100000000E-03 0. -1.
         11   -1    0    0    0    0 -0.00000000000E+00 -0.00000000000E+00 -0.45593999997E+02  0.45594000000E+02  0.51100000000E-03 0.  1.
    9900012    2    1    2    0    0 -0.36600028315E+02 -0.15372251099E+02  0.87918814386E+01  0.50528863810E+02  0.30000012037E+02 0.  0.
         12    1    1    2    0    0  0.36600028315E+02  0.15372251099E+02 -0.87918814386E+01  0.40659136190E+02  0.00000000000E+00 0. -1.
         11    1    3    3    0    0 -0.47724936567E+01 -0.65428932119E+01 -0.71399855784E+01  0.10796552302E+02  0.51100000000E-03 0. -1.
        -11    1    3    3    0    0 -0.28060700537E+02 -0.17392234416E+01  0.14288909427E+02  0.31537291350E+02  0.51100000000E-03 0.  1.
        -12    1    3    3    0    0 -0.37668341204E+01 -0.70901344457E+01  0.16429575896E+01  0.81950201580E+01  0.00000000000E+00 0.  1.
</event>
<event>
 7    1  0.2891523E-011  0.5052885E+02  0.7816164E-02  0.1300439E+00
        -11   -1    0    0    0    0  0.00000000000E+00  0.00000000000E+00  0.45593999997E+02  0.45594000000E+02  0.51100000000E-03 0.  1.
         11   -1    0    0    0    0 -0.00000000000E+00 -0.00000000000E+00 -0.45593999997E+02  0.45594000000E+02  0.51100000000E-03 0. -1.
    9900012    2    1    2    0    0  0.21686507504E+02 -0.33512682977E+02  0.77305852235E+01  0.50528850034E+02  0.29999970165E+02 0.  0.
         12    1    1    2    0    0 -0.21686507504E+02  0.33512682977E+02 -0.77305852235E+01  0.40659149966E+02  0.00000000000E+00 0. -1.
         11    1    3    3    0    0  0.59298955049E+01 -0.11722834808E+02 -0.69762337824E+01  0.14874688389E+02  0.51100000000E-03 0. -1.
        -11    1    3    3    0    0  0.17987155682E+02 -0.22263756503E+02  0.16238216041E+02  0.32907328722E+02  0.51100000000E-03 0.  1.
        -12    1    3    3    0    0 -0.22305436826E+01  0.47390833425E+00 -0.15313970352E+01  0.27468329234E+01  0.00000000000E+00 0.  1.
</event>
<event>
 7    1  0.2891523E-011  0.5052886E+02  0.7816164E-02  0.1300439E+00
        -11   -1    0    0    0    0  0.00000000000E+00  0.00000000000E+00  0.45593999997E+02  0.45594000000E+02  0.51100000000E-03 0.  1.
         11   -1    0    0    0    0 -0.00000000000E+00 -0.00000000000E+00 -0.45593999997E+02  0.45594000000E+02  0.51100000000E-03 0. -1.
    9900012    2    1    2    0    0 -0.24477859020E+02 -0.27833714781E+02 -0.16711813764E+02  0.50528856133E+02  0.29999988702E+02 0.  0.
         12    1    1    2    0    0  0.24477859020E+02  0.27833714781E+02  0.16711813764E+02  0.40659143867E+02  0.00000000000E+00 0. -1.
         11    1    3    3    0    0 -0.43987062721E+01 -0.30678469246E+01 -0.84583450714E+01  0.10015183634E+02  0.51100000000E-03 0. -1.
        -11    1    3    3    0    0 -0.24304250686E+02 -0.25099439352E+02 -0.52765485942E+01  0.35334408478E+02  0.51100000000E-03 0.  1.
        -12    1    3    3    0    0  0.42250979375E+01  0.33357149556E+00 -0.29769200983E+01  0.51792640206E+01  0.00000000000E+00 0.  1.
</event>
<event>
 7    1  0.2891523E-011  0.5052885E+02  0.7816164E-02  0.1300439E+00
        -11   -1    0    0    0    0  0.00000000000E+00  0.00000000000E+00  0.45593999997E+02  0.45594000000E+02  0.51100000000E-03 0.  1.
         11   -1    0    0    0    0 -0.00000000000E+00 -0.00000000000E+00 -0.45593999997E+02  0.45594000000E+02  0.51100000000E-03 0. -1.
    9900012    2    1    2    0    0 -0.22739610050E+02  0.18915621639E+02  0.27897591480E+02  0.50528853210E+02  0.29999979819E+02 0.  0.
         12    1    1    2    0    0  0.22739610050E+02 -0.18915621639E+02 -0.27897591480E+02  0.40659146790E+02  0.00000000000E+00 0. -1.
         11    1    3    3    0    0 -0.15839805539E+01  0.36217729910E+01  0.17304113719E+02  0.17749889742E+02  0.51100000000E-03 0. -1.
        -11    1    3    3    0    0 -0.21917579265E+02  0.10437750327E+02  0.40763444041E+01  0.24615919578E+02  0.51100000000E-03 0.  1.
        -12    1    3    3    0    0  0.76194976858E+00  0.48560983209E+01  0.65171333573E+01  0.81630438899E+01  0.00000000000E+00 0.  1.
</event>
<event>
 7    1  0.2891523E-011  0.5052886E+02  0.7816164E-02  0.1300439E+00
        -11   -1    0    0    0    0  0.00000000000E+00  0.00000000000E+00  0.45593999997E+02  0.45594000000E+02  0.51100000000E-03 0. -1.
         11   -1    0    0    0    0 -0.00000000000E+00 -0.00000000000E+00 -0.45593999997E+02  0.45594000000E+02  0.51100000000E-03 0.  1.
    9900012    2    1    2    0    0 -0.39516829598E+02 -0.33211042871E+01 -0.89753053406E+01  0.50528860054E+02  0.30000000621E+02 0.  0.
         12    1    1    2    0    0  0.39516829598E+02  0.33211042871E+01  0.89753053406E+01  0.40659139946E+02  0.00000000000E+00 0. -1.
         11    1    3    3    0    0 -0.10935003774E+02  0.82785418376E+01  0.30891718843E+01  0.14058860042E+02  0.51100000000E-03 0. -1.
        -11    1    3    3    0    0 -0.21510577312E+02 -0.31442971313E+01 -0.13129180100E+02  0.25396198753E+02  0.51100000000E-03 0.  1.
        -12    1    3    3    0    0 -0.70712485115E+01 -0.84553489934E+01  0.10647028747E+01  0.11073801259E+02  0.00000000000E+00 0.  1.
</event>
<event>
 7    1  0.2891523E-011  0.5052887E+02  0.7816164E-02  0.1300439E+00
        -11   -1    0    0    0    0  0.00000000000E+00  0.00000000000E+00  0.45593999997E+02  0.45594000000E+02  0.51100000000E-03 0.  1.
         11   -1    0    0    0    0 -0.00000000000E+00 -0.00000000000E+00 -0.45593999997E+02  0.45594000000E+02  0.51100000000E-03 0. -1.
    9900012    2    1    2    0    0  0.18071913735E+02  0.69465879652E+01  0.35753539363E+02  0.50528871537E+02  0.30000035524E+02 0.  0.
         12    1    1    2    0    0 -0.18071913735E+02 -0.69465879652E+01 -0.35753539363E+02  0.40659128463E+02  0.00000000000E+00 0. -1.
         11    1    3    3    0    0 -0.29570379088E+01 -0.14864945356E+01  0.10596558117E+01  0.34751417092E+01  0.51100000000E-03 0. -1.
        -11    1    3    3    0    0  0.12170721749E+02  0.13400036898E+02  0.31633755812E+02  0.36446974686E+02  0.51100000000E-03 0.  1.
        -12    1    3    3    0    0  0.88582298950E+01 -0.49669543969E+01  0.30601277390E+01  0.10606755142E+02  0.00000000000E+00 0.  1.
</event>
<event>
 7    1  0.2891523E-011  0.5052886E+02  0.7816164E-02  0.1300439E+00
        -11   -1    0    0    0    0  0.00000000000E+00  0.00000000000E+00  0.45593999997E+02  0.45594000000E+02  0.51100000000E-03 0.  1.
         11   -1    0    0    0    0 -0.00000000000E+00 -0.00000000000E+00 -0.45593999997E+02  0.45594000000E+02  0.51100000000E-03 0. -1.
    9900012    2    1    2    0    0 -0.48374063744E+01  0.13341617905E+02  0.38102049588E+02  0.50528862632E+02  0.30000008455E+02 0.  0.
         12    1    1    2    0    0  0.48374063744E+01 -0.13341617905E+02 -0.38102049588E+02  0.40659137368E+02  0.00000000000E+00 0. -1.
         11    1    3    3    0    0 -0.13944607441E+02  0.10135433612E+02  0.13459759098E+02  0.21871081510E+02  0.51100000000E-03 0. -1.
        -11    1    3    3    0    0  0.27250685211E+01  0.54646337901E+01  0.18623975538E+02  0.19599507290E+02  0.51100000000E-03 0.  1.
         12    1    3    3    0    0  0.63821325453E+01 -0.22584494969E+01  0.60183149522E+01  0.90582738323E+01  0.00000000000E+00 0. -1.
</event>
<event>
 7    1  0.2891523E-011  0.5052886E+02  0.7816164E-02  0.1300439E+00
        -11   -1    0    0    0    0  0.00000000000E+00  0.00000000000E+00  0.45593999997E+02  0.45594000000E+02  0.51100000000E-03 0. -1.
         11   -1    0    0    0    0 -0.00000000000E+00 -0.00000000000E+00 -0.45593999997E+02  0.45594000000E+02  0.51100000000E-03 0.  1.
    9900012    2    1    2    0    0 -0.40068736153E+02  0.69028695173E+01 -0.11111928938E+00  0.50528861151E+02  0.30000003954E+02 0.  0.
         12    1    1    2    0    0  0.40068736153E+02 -0.69028695173E+01  0.11111928938E+00  0.40659138849E+02  0.00000000000E+00 0. -1.
         11    1    3    3    0    0 -0.18335194111E+02 -0.65104278052E+01  0.80517338920E+01  0.21056956860E+02  0.51100000000E-03 0. -1.
        -11    1    3    3    0    0 -0.16625246504E+02  0.10824041647E+02 -0.11412880490E+02  0.22886951309E+02  0.51100000000E-03 0.  1.
         12    1    3    3    0    0 -0.51082955385E+01  0.25892556752E+01  0.32500273085E+01  0.65849529813E+01  0.00000000000E+00 0. -1.
</event>
<event>
 7    1  0.2891523E-011  0.5052885E+02  0.7816164E-02  0.1300439E+00
        -11   -1    0    0    0    0  0.00000000000E+00  0.00000000000E+00  0.45593999997E+02  0.45594000000E+02  0.51100000000E-03 0.  1.
         11   -1    0    0    0    0 -0.00000000000E+00 -0.00000000000E+00 -0.45593999997E+02  0.45594000000E+02  0.51100000000E-03 0. -1.
    9900012    2    1    2    0    0 -0.33506065107E+02 -0.22032781016E+02  0.67131555717E+01  0.50528852247E+02  0.29999976889E+02 0.  0.
         12    1    1    2    0    0  0.33506065107E+02  0.22032781016E+02 -0.67131555717E+01  0.40659147753E+02  0.00000000000E+00 0. -1.
         11    1    3    3    0    0  0.62209802035E+00 -0.91147915667E+01  0.39976302533E+01  0.99723356921E+01  0.51100000000E-03 0. -1.
        -11    1    3    3    0    0 -0.33508567583E+02 -0.13470458802E+02 -0.16113680303E+01  0.36150710491E+02  0.51100000000E-03 0.  1.
        -12    1    3    3    0    0 -0.61959554459E+00  0.55246935195E+00  0.43268933487E+01  0.44058060641E+01  0.00000000000E+00 0.  1.
</event>
<event>
 7    1  0.2891523E-011  0.5052887E+02  0.7816164E-02  0.1300439E+00
        -11   -1    0    0    0    0  0.00000000000E+00  0.00000000000E+00  0.45593999997E+02  0.45594000000E+02  0.51100000000E-03 0. -1.
         11   -1    0    0    0    0 -0.00000000000E+00 -0.00000000000E+00 -0.45593999997E+02  0.45594000000E+02  0.51100000000E-03 0.  1.
    9900012    2    1    2    0    0 -0.20978014582E+00 -0.15593466628E+02 -0.37549499625E+02  0.50528866570E+02  0.30000020427E+02 0.  0.
         12    1    1    2    0    0  0.20978014582E+00  0.15593466628E+02  0.37549499625E+02  0.40659133430E+02  0.00000000000E+00 0. -1.
         11    1    3    3    0    0 -0.40420232907E+01  0.66127725050E+01 -0.24918589320E+01  0.81410118341E+01  0.51100000000E-03 0. -1.
        -11    1    3    3    0    0  0.25647628289E+01 -0.79205403527E+01 -0.19636116874E+02  0.21328151678E+02  0.51100000000E-03 0.  1.
         12    1    3    3    0    0  0.12674803159E+01 -0.14285698781E+02 -0.15421523818E+02  0.21059703058E+02  0.00000000000E+00 0. -1.
</event>
<event>
 7    1  0.2891523E-011  0.5052886E+02  0.7816164E-02  0.1300439E+00
        -11   -1    0    0    0    0  0.00000000000E+00  0.00000000000E+00  0.45593999997E+02  0.45594000000E+02  0.51100000000E-03 0. -1.
         11   -1    0    0    0    0 -0.00000000000E+00 -0.00000000000E+00 -0.45593999997E+02  0.45594000000E+02  0.51100000000E-03 0.  1.
    9900012    2    1    2    0    0  0.50350459828E+01  0.38867741085E+02  0.10821868985E+02  0.50528857936E+02  0.29999994181E+02 0.  0.
         12    1    1    2    0    0 -0.50350459828E+01 -0.38867741085E+02 -0.10821868985E+02  0.40659142064E+02  0.00000000000E+00 0. -1.
         11    1    3    3    0    0 -0.60881892748E+01  0.27402688079E+02 -0.15363475483E+01  0.28112874749E+02  0.51100000000E-03 0. -1.
        -11    1    3    3    0    0  0.67006010615E+01  0.11533217553E+02  0.58922779295E+01  0.14581910066E+02  0.51100000000E-03 0.  1.
         12    1    3    3    0    0  0.44226341962E+01 -0.68164546983E-01  0.64659386036E+01  0.78340731209E+01  0.00000000000E+00 0. -1.
</event>
<event>
 7    1  0.2891523E-011  0.5052890E+02  0.7816164E-02  0.1300439E+00
        -11   -1    0    0    0    0  0.00000000000E+00  0.00000000000E+00  0.45593999997E+02  0.45594000000E+02  0.51100000000E-03 0.  1.
         11   -1    0    0    0    0 -0.00000000000E+00 -0.00000000000E+00 -0.45593999997E+02  0.45594000000E+02  0.51100000000E-03 0. -1.
    9900012    2    1    2    0    0 -0.22654866081E+02 -0.15984682275E+02  0.29739018426E+02  0.50528902106E+02  0.30000128443E+02 0.  0.
         12    1    1    2    0    0  0.22654866081E+02  0.15984682275E+02 -0.29739018426E+02  0.40659097894E+02  0.00000000000E+00 0. -1.
         11    1    3    3    0    0 -0.10935182649E+02  0.35633221469E+01  0.16727650009E+02  0.20299994073E+02  0.51100000000E-03 0. -1.
        -11    1    3    3    0    0 -0.31402956545E+01 -0.17510816281E+02  0.11752367615E+02  0.21321545170E+02  0.51100000000E-03 0.  1.
        -12    1    3    3    0    0 -0.85793877780E+01 -0.20371881411E+01  0.12590008023E+01  0.89073628639E+01  0.00000000000E+00 0.  1.
</event>
<event>
 7    1  0.2891523E-011  0.5052886E+02  0.7816164E-02  0.1300439E+00
        -11   -1    0    0    0    0  0.00000000000E+00  0.00000000000E+00  0.45593999997E+02  0.45594000000E+02  0.51100000000E-03 0.  1.
         11   -1    0    0    0    0 -0.00000000000E+00 -0.00000000000E+00 -0.45593999997E+02  0.45594000000E+02  0.51100000000E-03 0. -1.
    9900012    2    1    2    0    0  0.40221484759E+02 -0.56305866218E+00  0.59228922518E+01  0.50528861741E+02  0.30000005749E+02 0.  0.
         12    1    1    2    0    0 -0.40221484759E+02  0.56305866218E+00 -0.59228922518E+01  0.40659138259E+02  0.00000000000E+00 0. -1.
         11    1    3    3    0    0  0.14382747550E+02  0.14030531137E+01  0.33008108884E+00  0.14454789480E+02  0.51100000000E-03 0. -1.
        -11    1    3    3    0    0  0.27563319239E+01  0.44609838892E+01  0.10389799686E+02  0.11638113280E+02  0.51100000000E-03 0.  1.
        -12    1    3    3    0    0  0.23082405285E+02 -0.64270956651E+01 -0.47969885232E+01  0.24435958981E+02  0.00000000000E+00 0.  1.
</event>
<event>
 7    1  0.2891523E-011  0.5052888E+02  0.7816164E-02  0.1300439E+00
        -11   -1    0    0    0    0  0.00000000000E+00  0.00000000000E+00  0.45593999997E+02  0.45594000000E+02  0.51100000000E-03 0.  1.
         11   -1    0    0    0    0 -0.00000000000E+00 -0.00000000000E+00 -0.45593999997E+02  0.45594000000E+02  0.51100000000E-03 0. -1.
    9900012    2    1    2    0    0  0.67963244720E+01 -0.34631579271E+02  0.20189789518E+02  0.50528881590E+02  0.30000066079E+02 0.  0.
         12    1    1    2    0    0 -0.67963244720E+01  0.34631579271E+02 -0.20189789518E+02  0.40659118410E+02  0.00000000000E+00 0. -1.
         11    1    3    3    0    0 -0.28759990391E+01 -0.17599289159E+01  0.54932518533E+01  0.64455051351E+01  0.51100000000E-03 0. -1.
        -11    1    3    3    0    0 -0.84613429580E+00 -0.28955740841E+02  0.53074653112E+01  0.29450298118E+02  0.51100000000E-03 0.  1.
        -12    1    3    3    0    0  0.10518457807E+02 -0.39159095138E+01  0.93890723533E+01  0.14633078337E+02  0.00000000000E+00 0.  1.
</event>
<event>
 7    1  0.2891523E-011  0.5052884E+02  0.7816164E-02  0.1300439E+00
        -11   -1    0    0    0    0  0.00000000000E+00  0.00000000000E+00  0.45593999997E+02  0.45594000000E+02  0.51100000000E-03 0. -1.
         11   -1    0    0    0    0 -0.00000000000E+00 -0.00000000000E+00 -0.45593999997E+02  0.45594000000E+02  0.51100000000E-03 0.  1.
    9900012    2    1    2    0    0  0.23142108317E+02  0.15578882670E+02  0.29578849306E+02  0.50528842497E+02  0.29999947254E+02 0.  0.
         12    1    1    2    0    0 -0.23142108317E+02 -0.15578882670E+02 -0.29578849306E+02  0.40659157503E+02  0.00000000000E+00 0. -1.
         11    1    3    3    0    0  0.16154237276E+02 -0.25465523502E+01  0.19409790479E+02  0.25380785597E+02  0.51100000000E-03 0. -1.
        -11    1    3    3    0    0  0.17545032995E+01  0.20200305135E+01 -0.27587546070E+01  0.38431149275E+01  0.51100000000E-03 0.  1.
         12    1    3    3    0    0  0.52333677417E+01  0.16105404507E+02  0.12927813434E+02  0.21304941972E+02  0.00000000000E+00 0. -1.
</event>
<event>
 7    1  0.2891523E-011  0.5052888E+02  0.7816164E-02  0.1300439E+00
        -11   -1    0    0    0    0  0.00000000000E+00  0.00000000000E+00  0.45593999997E+02  0.45594000000E+02  0.51100000000E-03 0.  1.
         11   -1    0    0    0    0 -0.00000000000E+00 -0.00000000000E+00 -0.45593999997E+02  0.45594000000E+02  0.51100000000E-03 0. -1.
    9900012    2    1    2    0    0 -0.26874172572E+02  0.21166227915E+02  0.21975744775E+02  0.50528883999E+02  0.30000073402E+02 0.  0.
         12    1    1    2    0    0  0.26874172572E+02 -0.21166227915E+02 -0.21975744775E+02  0.40659116001E+02  0.00000000000E+00 0. -1.
         11    1    3    3    0    0 -0.13720755009E+02  0.31273719108E+01 -0.50687087352E+01  0.14957652944E+02  0.51100000000E-03 0. -1.
        -11    1    3    3    0    0 -0.11248307859E+02  0.14751184600E+02  0.18398401250E+02  0.26127055816E+02  0.51100000000E-03 0.  1.
         12    1    3    3    0    0 -0.19051097039E+01  0.32876714047E+01  0.86460522608E+01  0.94441752391E+01  0.00000000000E+00 0. -1.
</event>
<event>
 7    1  0.2891523E-011  0.5052885E+02  0.7816164E-02  0.1300439E+00
        -11   -1    0    0    0    0  0.00000000000E+00  0.00000000000E+00  0.45593999997E+02  0.45594000000E+02  0.51100000000E-03 0.  1.
         11   -1    0    0    0    0 -0.00000000000E+00 -0.00000000000E+00 -0.45593999997E+02  0.45594000000E+02  0.51100000000E-03 0. -1.
    9900012    2    1    2    0    0  0.22801642562E+02 -0.84560285647E+01 -0.32584458855E+02  0.50528852425E+02  0.29999977432E+02 0.  0.
         12    1    1    2    0    0 -0.22801642562E+02  0.84560285647E+01  0.32584458855E+02  0.40659147575E+02  0.00000000000E+00 0. -1.
         11    1    3    3    0    0  0.18718386858E+01 -0.11813165955E+02 -0.26034418444E+01  0.12240611899E+02  0.51100000000E-03 0.  1.
        -11    1    3    3    0    0  0.26181840242E+01  0.34614687117E+01 -0.11409347257E+02  0.12206959422E+02  0.51100000000E-03 0. -1.
         12    1    3    3    0    0  0.18311619852E+02 -0.10433132114E+00 -0.18571669754E+02  0.26081281105E+02  0.00000000000E+00 0. -1.
</event>
<event>
 7    1  0.2891523E-011  0.5052888E+02  0.7816164E-02  0.1300439E+00
        -11   -1    0    0    0    0  0.00000000000E+00  0.00000000000E+00  0.45593999997E+02  0.45594000000E+02  0.51100000000E-03 0.  1.
         11   -1    0    0    0    0 -0.00000000000E+00 -0.00000000000E+00 -0.45593999997E+02  0.45594000000E+02  0.51100000000E-03 0. -1.
    9900012    2    1    2    0    0  0.23904952104E+02 -0.25211572542E+02  0.21120937865E+02  0.50528878742E+02  0.30000057425E+02 0.  0.
         12    1    1    2    0    0 -0.23904952104E+02  0.25211572542E+02 -0.21120937865E+02  0.40659121258E+02  0.00000000000E+00 0. -1.
         11    1    3    3    0    0  0.18279958158E+02 -0.85362391494E+01  0.10868440626E+02  0.22916091529E+02  0.51100000000E-03 0. -1.
        -11    1    3    3    0    0 -0.28749096751E+01 -0.14277777182E+02  0.66781140778E+00  0.14579643316E+02  0.51100000000E-03 0.  1.
        -12    1    3    3    0    0  0.84999036216E+01 -0.23975562115E+01  0.95846858313E+01  0.13033143897E+02  0.00000000000E+00 0.  1.
</event>
<event>
 7    1  0.2891523E-011  0.5052886E+02  0.7816164E-02  0.1300439E+00
        -11   -1    0    0    0    0  0.00000000000E+00  0.00000000000E+00  0.45593999997E+02  0.45594000000E+02  0.51100000000E-03 0. -1.
         11   -1    0    0    0    0 -0.00000000000E+00 -0.00000000000E+00 -0.45593999997E+02  0.45594000000E+02  0.51100000000E-03 0.  1.
    9900012    2    1    2    0    0 -0.38367547501E+02  0.13454647415E+02  0.26328013547E+00  0.50528861362E+02  0.30000004597E+02 0.  0.
         12    1    1    2    0    0  0.38367547501E+02 -0.13454647415E+02 -0.26328013547E+00  0.40659138638E+02  0.00000000000E+00 0. -1.
         11    1    3    3    0    0 -0.25993849359E+01  0.20103080928E+01  0.49782765356E+01  0.59650128415E+01  0.51100000000E-03 0. -1.
        -11    1    3    3    0    0 -0.25184310691E+02  0.71070448306E+01 -0.14139099395E+02  0.29743465218E+02  0.51100000000E-03 0.  1.
        -12    1    3    3    0    0 -0.10583851875E+02  0.43372944911E+01  0.94241029944E+01  0.14820383303E+02  0.00000000000E+00 0.  1.
</event>
<event>
 7    1  0.2891523E-011  0.5052886E+02  0.7816164E-02  0.1300439E+00
        -11   -1    0    0    0    0  0.00000000000E+00  0.00000000000E+00  0.45593999997E+02  0.45594000000E+02  0.51100000000E-03 0. -1.
         11   -1    0    0    0    0 -0.00000000000E+00 -0.00000000000E+00 -0.45593999997E+02  0.45594000000E+02  0.51100000000E-03 0.  1.
    9900012    2    1    2    0    0  0.29588098501E+02  0.47513087867E+01 -0.27479726679E+02  0.50528857283E+02  0.29999992198E+02 0.  0.
         12    1    1    2    0    0 -0.29588098501E+02 -0.47513087867E+01  0.27479726679E+02  0.40659142717E+02  0.00000000000E+00 0. -1.
         11    1    3    3    0    0  0.96467100425E+00 -0.24037624982E+01 -0.55156380054E+01  0.60935151729E+01  0.51100000000E-03 0. -1.
        -11    1    3    3    0    0  0.22421051599E+02  0.12580810619E+02 -0.58954115693E+01  0.26376812326E+02  0.51100000000E-03 0.  1.
        -12    1    3    3    0    0  0.62023758978E+01 -0.54257393341E+01 -0.16068677104E+02  0.18058529785E+02  0.00000000000E+00 0.  1.
</event>
<event>
 7    1  0.2891523E-011  0.5052886E+02  0.7816164E-02  0.1300439E+00
        -11   -1    0    0    0    0  0.00000000000E+00  0.00000000000E+00  0.45593999997E+02  0.45594000000E+02  0.51100000000E-03 0.  1.
         11   -1    0    0    0    0 -0.00000000000E+00 -0.00000000000E+00 -0.45593999997E+02  0.45594000000E+02  0.51100000000E-03 0. -1.
    9900012    2    1    2    0    0 -0.52917656495E+00  0.38804417761E+02 -0.12128584492E+02  0.50528862928E+02  0.30000009357E+02 0.  0.
         12    1    1    2    0    0  0.52917656495E+00 -0.38804417761E+02  0.12128584492E+02  0.40659137072E+02  0.00000000000E+00 0. -1.
         11    1    3    3    0    0 -0.13068671534E+02  0.14832170029E+02 -0.54076788071E+01  0.20494546440E+02  0.51100000000E-03 0. -1.
        -11    1    3    3    0    0  0.69459527237E+01  0.92583295610E+01 -0.82579752509E+01  0.14218195420E+02  0.51100000000E-03 0.  1.
         12    1    3    3    0    0  0.55935422453E+01  0.14713918171E+02  0.15370695655E+01  0.15816121068E+02  0.00000000000E+00 0. -1.
</event>
<event>
 7    1  0.2891523E-011  0.5052886E+02  0.7816164E-02  0.1300439E+00
        -11   -1    0    0    0    0  0.00000000000E+00  0.00000000000E+00  0.45593999997E+02  0.45594000000E+02  0.51100000000E-03 0.  1.
         11   -1    0    0    0    0 -0.00000000000E+00 -0.00000000000E+00 -0.45593999997E+02  0.45594000000E+02  0.51100000000E-03 0. -1.
    9900012    2    1    2    0    0  0.39188435471E+02 -0.65995948179E+01  0.85952080384E+01  0.50528859236E+02  0.29999998134E+02 0.  0.
         12    1    1    2    0    0 -0.39188435471E+02  0.65995948179E+01 -0.85952080384E+01  0.40659140764E+02  0.00000000000E+00 0. -1.
         11    1    3    3    0    0  0.16236912953E+02 -0.41282343431E+01 -0.69887280882E+00  0.16768067405E+02  0.51100000000E-03 0. -1.
        -11    1    3    3    0    0  0.13862220096E+01  0.77502286896E+01 -0.66455153636E+00  0.79012204884E+01  0.51100000000E-03 0.  1.
        -12    1    3    3    0    0  0.21565300509E+02 -0.10221589164E+02  0.99586323835E+01  0.25859571343E+02  0.00000000000E+00 0.  1.
</event>
<event>
 7    1  0.2891523E-011  0.5052886E+02  0.7816164E-02  0.1300439E+00
        -11   -1    0    0    0    0  0.00000000000E+00  0.00000000000E+00  0.45593999997E+02  0.45594000000E+02  0.51100000000E-03 0.  1.
         11   -1    0    0    0    0 -0.00000000000E+00 -0.00000000000E+00 -0.45593999997E+02  0.45594000000E+02  0.51100000000E-03 0. -1.
    9900012    2    1    2    0    0  0.26642632787E+02 -0.16411761702E+01  0.30669896365E+02  0.50528857313E+02  0.29999992287E+02 0.  0.
         12    1    1    2    0    0 -0.26642632787E+02  0.16411761702E+01 -0.30669896365E+02  0.40659142687E+02  0.00000000000E+00 0. -1.
         11    1    3    3    0    0  0.33981655150E+01  0.14356102620E+01 -0.16317762160E+01  0.40337575004E+01  0.51100000000E-03 0.  1.
        -11    1    3    3    0    0  0.61407279341E+01 -0.73751375601E+01  0.26087452923E+02  0.27796697535E+02  0.51100000000E-03 0. -1.
        -12    1    3    3    0    0  0.17103739338E+02  0.42983511279E+01  0.62142196579E+01  0.18698402277E+02  0.00000000000E+00 0.  1.
</event>
<event>
 7    1  0.2891523E-011  0.5052886E+02  0.7816164E-02  0.1300439E+00
        -11   -1    0    0    0    0  0.00000000000E+00  0.00000000000E+00  0.45593999997E+02  0.45594000000E+02  0.51100000000E-03 0. -1.
         11   -1    0    0    0    0 -0.00000000000E+00 -0.00000000000E+00 -0.45593999997E+02  0.45594000000E+02  0.51100000000E-03 0.  1.
    9900012    2    1    2    0    0 -0.37778368793E+02  0.11567352906E+02  0.95998279238E+01  0.50528862059E+02  0.30000006716E+02 0.  0.
         12    1    1    2    0    0  0.37778368793E+02 -0.11567352906E+02 -0.95998279238E+01  0.40659137941E+02  0.00000000000E+00 0. -1.
         11    1    3    3    0    0 -0.14327062848E+02 -0.77367906118E+01 -0.12473801642E+01  0.16330297497E+02  0.51100000000E-03 0. -1.
        -11    1    3    3    0    0 -0.20345523142E+02  0.13866483870E+02  0.40428770045E+01  0.24951243287E+02  0.51100000000E-03 0.  1.
         12    1    3    3    0    0 -0.31057828031E+01  0.54376596477E+01  0.68043310834E+01  0.92473212747E+01  0.00000000000E+00 0. -1.
</event>
<event>
 7    1  0.2891523E-011  0.5052886E+02  0.7816164E-02  0.1300439E+00
        -11   -1    0    0    0    0  0.00000000000E+00  0.00000000000E+00  0.45593999997E+02  0.45594000000E+02  0.51100000000E-03 0.  1.
         11   -1    0    0    0    0 -0.00000000000E+00 -0.00000000000E+00 -0.45593999997E+02  0.45594000000E+02  0.51100000000E-03 0. -1.
    9900012    2    1    2    0    0  0.37432626474E+02 -0.14484521686E+02 -0.64932672052E+01  0.50528863115E+02  0.30000009924E+02 0.  0.
         12    1    1    2    0    0 -0.37432626474E+02  0.14484521686E+02  0.64932672052E+01  0.40659136885E+02  0.00000000000E+00 0. -1.
         11    1    3    3    0    0  0.17736869974E+01 -0.33932622144E+01 -0.10204075518E+02  0.10898777522E+02  0.51100000000E-03 0. -1.
        -11    1    3    3    0    0  0.31031915848E+02 -0.13854759859E+02  0.23164794542E+01  0.34063180257E+02  0.51100000000E-03 0.  1.
        -12    1    3    3    0    0  0.46270236293E+01  0.27635003871E+01  0.13943288590E+01  0.55669053362E+01  0.00000000000E+00 0.  1.
</event>
<event>
 7    1  0.2891523E-011  0.5052895E+02  0.7816164E-02  0.1300438E+00
        -11   -1    0    0    0    0  0.00000000000E+00  0.00000000000E+00  0.45593999997E+02  0.45594000000E+02  0.51100000000E-03 0.  1.
         11   -1    0    0    0    0 -0.00000000000E+00 -0.00000000000E+00 -0.45593999997E+02  0.45594000000E+02  0.51100000000E-03 0. -1.
    9900012    2    1    2    0    0  0.10508433793E+02 -0.35582971133E+02  0.16630798665E+02  0.50528948367E+02  0.30000269056E+02 0.  0.
         12    1    1    2    0    0 -0.10508433793E+02  0.35582971133E+02 -0.16630798665E+02  0.40659051633E+02  0.00000000000E+00 0. -1.
         11    1    3    3    0    0 -0.31312467597E+01 -0.23818688790E+01  0.29711070811E+01  0.49300591452E+01  0.51100000000E-03 0. -1.
        -11    1    3    3    0    0  0.20814649726E+02 -0.26391879471E+02  0.10428545762E+02  0.35192833251E+02  0.51100000000E-03 0.  1.
        -12    1    3    3    0    0 -0.71749691736E+01 -0.68092227825E+01  0.32311458219E+01  0.10406055971E+02  0.00000000000E+00 0.  1.
</event>
<event>
 7    1  0.2891523E-011  0.5052886E+02  0.7816164E-02  0.1300439E+00
        -11   -1    0    0    0    0  0.00000000000E+00  0.00000000000E+00  0.45593999997E+02  0.45594000000E+02  0.51100000000E-03 0. -1.
         11   -1    0    0    0    0 -0.00000000000E+00 -0.00000000000E+00 -0.45593999997E+02  0.45594000000E+02  0.51100000000E-03 0.  1.
    9900012    2    1    2    0    0  0.12774179200E+02 -0.15403596976E+01 -0.38569589448E+02  0.50528860899E+02  0.30000003190E+02 0.  0.
         12    1    1    2    0    0 -0.12774179200E+02  0.15403596976E+01  0.38569589448E+02  0.40659139101E+02  0.00000000000E+00 0. -1.
         11    1    3    3    0    0  0.86668586221E+01 -0.10493931096E+02 -0.13387146036E+02  0.19090644501E+02  0.51100000000E-03 0. -1.
        -11    1    3    3    0    0 -0.45353887240E+01  0.62879315661E+01 -0.18893058308E+02  0.20421936410E+02  0.51100000000E-03 0.  1.
         12    1    3    3    0    0  0.86427093018E+01  0.26656398321E+01 -0.62893851037E+01  0.11016279988E+02  0.00000000000E+00 0. -1.
</event>
<event>
 7    1  0.2891523E-011  0.5052884E+02  0.7816164E-02  0.1300439E+00
        -11   -1    0    0    0    0  0.00000000000E+00  0.00000000000E+00  0.45593999997E+02  0.45594000000E+02  0.51100000000E-03 0.  1.
         11   -1    0    0    0    0 -0.00000000000E+00 -0.00000000000E+00 -0.45593999997E+02  0.45594000000E+02  0.51100000000E-03 0. -1.
    9900012    2    1    2    0    0  0.18009851775E+02  0.15849585259E+02  0.32826871180E+02  0.50528836392E+02  0.29999928697E+02 0.  0.
         12    1    1    2    0    0 -0.18009851775E+02 -0.15849585259E+02 -0.32826871180E+02  0.40659163608E+02  0.00000000000E+00 0. -1.
         11    1    3    3    0    0  0.54164114833E+00  0.44019374444E+00 -0.29293619519E+01  0.30113630423E+01  0.51100000000E-03 0. -1.
        -11    1    3    3    0    0  0.10494298593E+02  0.19370110648E+02  0.31496003320E+02  0.38436047077E+02  0.51100000000E-03 0.  1.
        -12    1    3    3    0    0  0.69739120339E+01 -0.39607191331E+01  0.42602298110E+01  0.90814262729E+01  0.00000000000E+00 0.  1.
</event>
<event>
 7    1  0.2891523E-011  0.5052885E+02  0.7816164E-02  0.1300439E+00
        -11   -1    0    0    0    0  0.00000000000E+00  0.00000000000E+00  0.45593999997E+02  0.45594000000E+02  0.51100000000E-03 0.  1.
         11   -1    0    0    0    0 -0.00000000000E+00 -0.00000000000E+00 -0.45593999997E+02  0.45594000000E+02  0.51100000000E-03 0. -1.
    9900012    2    1    2    0    0 -0.11086153030E+02 -0.15718406750E+02  0.35821715023E+02  0.50528851375E+02  0.29999974238E+02 0.  0.
         12    1    1    2    0    0  0.11086153030E+02  0.15718406750E+02 -0.35821715023E+02  0.40659148625E+02  0.00000000000E+00 0. -1.
         11    1    3    3    0    0  0.22464103696E+01 -0.13681009946E+02  0.14454510378E+02  0.20028710972E+02  0.51100000000E-03 0. -1.
        -11    1    3    3    0    0 -0.10129498653E+02  0.16886127467E+01  0.19268946715E+01  0.10448496509E+02  0.51100000000E-03 0.  1.
         12    1    3    3    0    0 -0.32030647466E+01 -0.37260095507E+01  0.19440309973E+02  0.20051643893E+02  0.00000000000E+00 0. -1.
</event>
<event>
 7    1  0.2891523E-011  0.5052886E+02  0.7816164E-02  0.1300439E+00
        -11   -1    0    0    0    0  0.00000000000E+00  0.00000000000E+00  0.45593999997E+02  0.45594000000E+02  0.51100000000E-03 0. -1.
         11   -1    0    0    0    0 -0.00000000000E+00 -0.00000000000E+00 -0.45593999997E+02  0.45594000000E+02  0.51100000000E-03 0.  1.
    9900012    2    1    2    0    0  0.20559026622E+02 -0.19688001490E+02 -0.29032309250E+02  0.50528856395E+02  0.29999989499E+02 0.  0.
         12    1    1    2    0    0 -0.20559026622E+02  0.19688001490E+02  0.29032309250E+02  0.40659143605E+02  0.00000000000E+00 0. -1.
         11    1    3    3    0    0  0.49586020892E+00 -0.23927127326E+00  0.56102912547E+01  0.56372419065E+01  0.51100000000E-03 0. -1.
        -11    1    3    3    0    0  0.53683367780E+01 -0.41987072966E+01 -0.12593286877E+02  0.14319184940E+02  0.51100000000E-03 0.  1.
         12    1    3    3    0    0  0.14694829635E+02 -0.15250022920E+02 -0.22049313627E+02  0.30572429548E+02  0.00000000000E+00 0. -1.
</event>
<event>
 7    1  0.2891523E-011  0.5052886E+02  0.7816164E-02  0.1300439E+00
        -11   -1    0    0    0    0  0.00000000000E+00  0.00000000000E+00  0.45593999997E+02  0.45594000000E+02  0.51100000000E-03 0.  1.
         11   -1    0    0    0    0 -0.00000000000E+00 -0.00000000000E+00 -0.45593999997E+02  0.45594000000E+02  0.51100000000E-03 0. -1.
    9900012    2    1    2    0    0  0.10388797390E+02  0.36952625431E+02  0.13406783855E+02  0.50528862149E+02  0.30000006987E+02 0.  0.
         12    1    1    2    0    0 -0.10388797390E+02 -0.36952625431E+02 -0.13406783855E+02  0.40659137851E+02  0.00000000000E+00 0. -1.
         11    1    3    3    0    0  0.12557660430E+02  0.29286051692E+01 -0.12160262821E+01  0.12951844807E+02  0.51100000000E-03 0. -1.
        -11    1    3    3    0    0 -0.33286571104E+01  0.17966625101E+02  0.99874801657E+01  0.20823768535E+02  0.51100000000E-03 0.  1.
         12    1    3    3    0    0  0.11597940703E+01  0.16057395161E+02  0.46353299711E+01  0.16753248807E+02  0.00000000000E+00 0. -1.
</event>
<event>
 7    1  0.2891523E-011  0.5052880E+02  0.7816164E-02  0.1300439E+00
        -11   -1    0    0    0    0  0.00000000000E+00  0.00000000000E+00  0.45593999997E+02  0.45594000000E+02  0.51100000000E-03 0. -1.
         11   -1    0    0    0    0 -0.00000000000E+00 -0.00000000000E+00 -0.45593999997E+02  0.45594000000E+02  0.51100000000E-03 0.  1.
    9900012    2    1    2    0    0  0.24449190713E+02  0.12330937789E+02 -0.30055874120E+02  0.50528800274E+02  0.29999818911E+02 0.  0.
         12    1    1    2    0    0 -0.24449190713E+02 -0.12330937789E+02  0.30055874120E+02  0.40659199726E+02  0.00000000000E+00 0. -1.
         11    1    3    3    0    0 -0.45031585123E+01  0.30889518033E+01 -0.10928182426E+02  0.12216596549E+02  0.51100000000E-03 0. -1.
        -11    1    3    3    0    0  0.28396055866E+02  0.49250005309E+01 -0.16125611512E+02  0.33024641797E+02  0.51100000000E-03 0.  1.
         12    1    3    3    0    0  0.55629335997E+00  0.43169854548E+01 -0.30020801820E+01  0.52875619277E+01  0.00000000000E+00 0. -1.
</event>
<event>
 7    1  0.2891523E-011  0.5052886E+02  0.7816164E-02  0.1300439E+00
        -11   -1    0    0    0    0  0.00000000000E+00  0.00000000000E+00  0.45593999997E+02  0.45594000000E+02  0.51100000000E-03 0.  1.
         11   -1    0    0    0    0 -0.00000000000E+00 -0.00000000000E+00 -0.45593999997E+02  0.45594000000E+02  0.51100000000E-03 0. -1.
    9900012    2    1    2    0    0  0.16188253150E+02 -0.14321827337E+01  0.37270028561E+02  0.50528859375E+02  0.29999998557E+02 0.  0.
         12    1    1    2    0    0 -0.16188253150E+02  0.14321827337E+01 -0.37270028561E+02  0.40659140625E+02  0.00000000000E+00 0. -1.
         11    1    3    3    0    0  0.51370352799E+01 -0.12532766630E+01  0.14458185818E+01  0.54818085969E+01  0.51100000000E-03 0. -1.
        -11    1    3    3    0    0  0.14782428348E+02 -0.14205262656E+01  0.37824375273E+02  0.40635224225E+02  0.51100000000E-03 0.  1.
        -12    1    3    3    0    0 -0.37312104776E+01  0.12416201948E+01 -0.20001652943E+01  0.44118265538E+01  0.00000000000E+00 0.  1.
</event>
<event>
 7    1  0.2891523E-011  0.5052886E+02  0.7816164E-02  0.1300439E+00
        -11   -1    0    0    0    0  0.00000000000E+00  0.00000000000E+00  0.45593999997E+02  0.45594000000E+02  0.51100000000E-03 0.  1.
         11   -1    0    0    0    0 -0.00000000000E+00 -0.00000000000E+00 -0.45593999997E+02  0.45594000000E+02  0.51100000000E-03 0. -1.
    9900012    2    1    2    0    0  0.30939958776E+00 -0.34714359238E+02  0.21165609244E+02  0.50528862281E+02  0.30000007389E+02 0.  0.
         12    1    1    2    0    0 -0.30939958776E+00  0.34714359238E+02 -0.21165609244E+02  0.40659137719E+02  0.00000000000E+00 0. -1.
         11    1    3    3    0    0 -0.16204068629E+01 -0.20926974020E+02 -0.72833812134E+00  0.21002248373E+02  0.51100000000E-03 0. -1.
        -11    1    3    3    0    0  0.15773577595E+01 -0.16622395708E+02  0.20191695970E+02  0.26201081714E+02  0.51100000000E-03 0.  1.
        -12    1    3    3    0    0  0.35244869117E+00  0.28350104905E+01  0.17022513959E+01  0.33255321944E+01  0.00000000000E+00 0.  1.
</event>
<event>
 7    1  0.2891523E-011  0.5052886E+02  0.7816164E-02  0.1300439E+00
        -11   -1    0    0    0    0  0.00000000000E+00  0.00000000000E+00  0.45593999997E+02  0.45594000000E+02  0.51100000000E-03 0.  1.
         11   -1    0    0    0    0 -0.00000000000E+00 -0.00000000000E+00 -0.45593999997E+02  0.45594000000E+02  0.51100000000E-03 0. -1.
    9900012    2    1    2    0    0 -0.32663873048E+01  0.38075857546E+02  0.13882555775E+02  0.50528861191E+02  0.30000004075E+02 0.  0.
         12    1    1    2    0    0  0.32663873048E+01 -0.38075857546E+02 -0.13882555775E+02  0.40659138809E+02  0.00000000000E+00 0. -1.
         11    1    3    3    0    0 -0.10724965619E+02  0.17250399875E+02  0.16869481686E+02  0.26404177624E+02  0.51100000000E-03 0. -1.
        -11    1    3    3    0    0  0.60254239192E+01  0.14594169412E+02  0.21342072706E+01  0.15932681983E+02  0.51100000000E-03 0.  1.
         12    1    3    3    0    0  0.14331543946E+01  0.62312882586E+01 -0.51211331821E+01  0.81920015838E+01  0.00000000000E+00 0. -1.
</event>
<event>
 7    1  0.2891523E-011  0.5052886E+02  0.7816164E-02  0.1300439E+00
        -11   -1    0    0    0    0  0.00000000000E+00  0.00000000000E+00  0.45593999997E+02  0.45594000000E+02  0.51100000000E-03 0.  1.
         11   -1    0    0    0    0 -0.00000000000E+00 -0.00000000000E+00 -0.45593999997E+02  0.45594000000E+02  0.51100000000E-03 0. -1.
    9900012    2    1    2    0    0 -0.18676922845E+02 -0.35704978802E+02 -0.54307266843E+01  0.50528858955E+02  0.29999997280E+02 0.  0.
         12    1    1    2    0    0  0.18676922845E+02  0.35704978802E+02  0.54307266843E+01  0.40659141045E+02  0.00000000000E+00 0. -1.
         11    1    3    3    0    0 -0.28851767234E+00 -0.17907305881E+02  0.56491235404E+01  0.18779442042E+02  0.51100000000E-03 0. -1.
        -11    1    3    3    0    0 -0.19585646529E+02 -0.11507495024E+02 -0.57861414555E+01  0.23441404072E+02  0.51100000000E-03 0.  1.
         12    1    3    3    0    0  0.11972413559E+01 -0.62901778963E+01 -0.52937087693E+01  0.83080128409E+01  0.00000000000E+00 0. -1.
</event>
<event>
 7    1  0.2891523E-011  0.5052887E+02  0.7816164E-02  0.1300439E+00
        -11   -1    0    0    0    0  0.00000000000E+00  0.00000000000E+00  0.45593999997E+02  0.45594000000E+02  0.51100000000E-03 0.  1.
         11   -1    0    0    0    0 -0.00000000000E+00 -0.00000000000E+00 -0.45593999997E+02  0.45594000000E+02  0.51100000000E-03 0. -1.
    9900012    2    1    2    0    0 -0.72046550278E+01  0.39688560795E+02 -0.51064797811E+01  0.50528867597E+02  0.30000023547E+02 0.  0.
         12    1    1    2    0    0  0.72046550278E+01 -0.39688560795E+02  0.51064797811E+01  0.40659132403E+02  0.00000000000E+00 0. -1.
         11    1    3    3    0    0 -0.15035399870E+02  0.14148299858E+02  0.48446212637E+01  0.21206319662E+02  0.51100000000E-03 0. -1.
        -11    1    3    3    0    0  0.41417041873E+01  0.11711078608E+02 -0.10465047316E+01  0.12465883368E+02  0.51100000000E-03 0.  1.
         12    1    3    3    0    0  0.36890406549E+01  0.13829182328E+02 -0.89045963133E+01  0.16856664567E+02  0.00000000000E+00 0. -1.
</event>
<event>
 7    1  0.2891523E-011  0.5052886E+02  0.7816164E-02  0.1300439E+00
        -11   -1    0    0    0    0  0.00000000000E+00  0.00000000000E+00  0.45593999997E+02  0.45594000000E+02  0.51100000000E-03 0. -1.
         11   -1    0    0    0    0 -0.00000000000E+00 -0.00000000000E+00 -0.45593999997E+02  0.45594000000E+02  0.51100000000E-03 0.  1.
    9900012    2    1    2    0    0  0.36840252914E+02  0.17186143402E+02  0.77339914756E+00  0.50528857042E+02  0.29999991465E+02 0.  0.
         12    1    1    2    0    0 -0.36840252914E+02 -0.17186143402E+02 -0.77339914756E+00  0.40659142958E+02  0.00000000000E+00 0. -1.
         11    1    3    3    0    0  0.16747620454E+02  0.23279026463E+01  0.84115371960E+01  0.18885335048E+02  0.51100000000E-03 0. -1.
        -11    1    3    3    0    0  0.19078462956E+02  0.18194696950E+02 -0.41083929659E+01  0.26681709819E+02  0.51100000000E-03 0.  1.
        -12    1    3    3    0    0  0.10141695045E+01 -0.33364561938E+01 -0.35297450826E+01  0.49618121755E+01  0.00000000000E+00 0.  1.
</event>
<event>
 7    1  0.2891523E-011  0.5052885E+02  0.7816164E-02  0.1300439E+00
        -11   -1    0    0    0    0  0.00000000000E+00  0.00000000000E+00  0.45593999997E+02  0.45594000000E+02  0.51100000000E-03 0.  1.
         11   -1    0    0    0    0 -0.00000000000E+00 -0.00000000000E+00 -0.45593999997E+02  0.45594000000E+02  0.51100000000E-03 0. -1.
    9900012    2    1    2    0    0  0.11963681864E+02 -0.37941143860E+02  0.83968143037E+01  0.50528848858E+02  0.29999966590E+02 0.  0.
         12    1    1    2    0    0 -0.11963681864E+02  0.37941143860E+02 -0.83968143037E+01  0.40659151142E+02  0.00000000000E+00 0. -1.
         11    1    3    3    0    0 -0.20491259244E+01 -0.28928531525E+00 -0.45742434019E+01  0.50205882134E+01  0.51100000000E-03 0. -1.
        -11    1    3    3    0    0  0.12328136916E+02 -0.30475647779E+02  0.28647432163E+01  0.32999315468E+02  0.51100000000E-03 0.  1.
         12    1    3    3    0    0  0.16846708724E+01 -0.71762107651E+01  0.10106314489E+02  0.12508945177E+02  0.00000000000E+00 0. -1.
</event>
<event>
 7    1  0.2891523E-011  0.5052886E+02  0.7816164E-02  0.1300439E+00
        -11   -1    0    0    0    0  0.00000000000E+00  0.00000000000E+00  0.45593999997E+02  0.45594000000E+02  0.51100000000E-03 0.  1.
         11   -1    0    0    0    0 -0.00000000000E+00 -0.00000000000E+00 -0.45593999997E+02  0.45594000000E+02  0.51100000000E-03 0. -1.
    9900012    2    1    2    0    0 -0.25914705636E+02 -0.30499779004E+02  0.71663893807E+01  0.50528860508E+02  0.30000002001E+02 0.  0.
         12    1    1    2    0    0  0.25914705636E+02  0.30499779004E+02 -0.71663893807E+01  0.40659139492E+02  0.00000000000E+00 0. -1.
         11    1    3    3    0    0 -0.40241647380E+01 -0.10120629036E+02  0.15581253472E+02  0.19010431188E+02  0.51100000000E-03 0. -1.
        -11    1    3    3    0    0 -0.12880890470E+02 -0.15404464490E+02 -0.53781490919E+01  0.20787961744E+02  0.51100000000E-03 0.  1.
         12    1    3    3    0    0 -0.90096504275E+01 -0.49746854773E+01 -0.30367149997E+01  0.10730467577E+02  0.00000000000E+00 0. -1.
</event>
<event>
 7    1  0.2891523E-011  0.5052886E+02  0.7816164E-02  0.1300439E+00
        -11   -1    0    0    0    0  0.00000000000E+00  0.00000000000E+00  0.45593999997E+02  0.45594000000E+02  0.51100000000E-03 0. -1.
         11   -1    0    0    0    0 -0.00000000000E+00 -0.00000000000E+00 -0.45593999997E+02  0.45594000000E+02  0.51100000000E-03 0.  1.
    9900012    2    1    2    0    0 -0.20186027826E+02 -0.68057245168E+00 -0.35287771754E+02  0.50528859163E+02  0.29999997912E+02 0.  0.
         12    1    1    2    0    0  0.20186027826E+02  0.68057245168E+00  0.35287771754E+02  0.40659140837E+02  0.00000000000E+00 0. -1.
         11    1    3    3    0    0 -0.72699736685E+01  0.53502110314E+01 -0.62501604232E+01  0.10979152098E+02  0.51100000000E-03 0. -1.
        -11    1    3    3    0    0  0.65278914104E+01 -0.12258874037E+00 -0.71724689261E+01  0.96991084653E+01  0.51100000000E-03 0.  1.
        -12    1    3    3    0    0 -0.19443945568E+02 -0.59081947427E+01 -0.21865142404E+02  0.29850598599E+02  0.00000000000E+00 0.  1.
</event>
<event>
 7    1  0.2891523E-011  0.5052886E+02  0.7816164E-02  0.1300439E+00
        -11   -1    0    0    0    0  0.00000000000E+00  0.00000000000E+00  0.45593999997E+02  0.45594000000E+02  0.51100000000E-03 0.  1.
         11   -1    0    0    0    0 -0.00000000000E+00 -0.00000000000E+00 -0.45593999997E+02  0.45594000000E+02  0.51100000000E-03 0. -1.
    9900012    2    1    2    0    0  0.29215081969E+02 -0.25720698752E+02  0.11751188911E+02  0.50528858352E+02  0.29999995446E+02 0.  0.
         12    1    1    2    0    0 -0.29215081969E+02  0.25720698752E+02 -0.11751188911E+02  0.40659141648E+02  0.00000000000E+00 0. -1.
         11    1    3    3    0    0  0.11663977704E+01 -0.89847865515E+01  0.34935440722E+01  0.97103925554E+01  0.51100000000E-03 0. -1.
        -11    1    3    3    0    0  0.87125463119E+01  0.27077213129E+01 -0.49522025248E+01  0.10380969514E+02  0.51100000000E-03 0.  1.
        -12    1    3    3    0    0  0.19336137887E+02 -0.19443633513E+02  0.13209847363E+02  0.30437496282E+02  0.00000000000E+00 0.  1.
</event>
<event>
 7    1  0.2891523E-011  0.5052886E+02  0.7816164E-02  0.1300439E+00
        -11   -1    0    0    0    0  0.00000000000E+00  0.00000000000E+00  0.45593999997E+02  0.45594000000E+02  0.51100000000E-03 0. -1.
         11   -1    0    0    0    0 -0.00000000000E+00 -0.00000000000E+00 -0.45593999997E+02  0.45594000000E+02  0.51100000000E-03 0.  1.
    9900012    2    1    2    0    0 -0.19955319591E+01 -0.37257481814E+02 -0.16157470349E+02  0.50528856539E+02  0.29999989934E+02 0.  0.
         12    1    1    2    0    0  0.19955319591E+01  0.37257481814E+02  0.16157470349E+02  0.40659143461E+02  0.00000000000E+00 0. -1.
         11    1    3    3    0    0  0.78690674908E+00  0.37905680608E+01  0.24287496375E+01  0.45701699660E+01  0.51100000000E-03 0. -1.
        -11    1    3    3    0    0 -0.75570736907E+00 -0.11270563433E+02 -0.10565665425E+01  0.11345176369E+02  0.51100000000E-03 0.  1.
         12    1    3    3    0    0 -0.20267313391E+01 -0.29777486442E+02 -0.17529653444E+02  0.34613510203E+02  0.00000000000E+00 0. -1.
</event>
<event>
 7    1  0.2891523E-011  0.5052886E+02  0.7816164E-02  0.1300439E+00
        -11   -1    0    0    0    0  0.00000000000E+00  0.00000000000E+00  0.45593999997E+02  0.45594000000E+02  0.51100000000E-03 0.  1.
         11   -1    0    0    0    0 -0.00000000000E+00 -0.00000000000E+00 -0.45593999997E+02  0.45594000000E+02  0.51100000000E-03 0. -1.
    9900012    2    1    2    0    0  0.27632038237E+02  0.18671149934E+02  0.23259933409E+02  0.50528857373E+02  0.29999992472E+02 0.  0.
         12    1    1    2    0    0 -0.27632038237E+02 -0.18671149934E+02 -0.23259933409E+02  0.40659142627E+02  0.00000000000E+00 0. -1.
         11    1    3    3    0    0  0.42748871637E+01 -0.37169717119E+01 -0.11220961568E+01  0.57749146327E+01  0.51100000000E-03 0. -1.
        -11    1    3    3    0    0  0.14196853762E+02  0.20959804348E+02  0.24846551588E+02  0.35471329001E+02  0.51100000000E-03 0.  1.
        -12    1    3    3    0    0  0.91602973111E+01  0.14283172979E+01 -0.46452202205E+00  0.92826137397E+01  0.00000000000E+00 0.  1.
</event>
<event>
 7    1  0.2891523E-011  0.5052886E+02  0.7816164E-02  0.1300439E+00
        -11   -1    0    0    0    0  0.00000000000E+00  0.00000000000E+00  0.45593999997E+02  0.45594000000E+02  0.51100000000E-03 0.  1.
         11   -1    0    0    0    0 -0.00000000000E+00 -0.00000000000E+00 -0.45593999997E+02  0.45594000000E+02  0.51100000000E-03 0. -1.
    9900012    2    1    2    0    0  0.13423015781E+02  0.10758541072E+02  0.36840765309E+02  0.50528861455E+02  0.30000004879E+02 0.  0.
         12    1    1    2    0    0 -0.13423015781E+02 -0.10758541072E+02 -0.36840765309E+02  0.40659138545E+02  0.00000000000E+00 0. -1.
         11    1    3    3    0    0 -0.71226327168E+00  0.10362459495E+02  0.11344753841E+02  0.15381525468E+02  0.51100000000E-03 0. -1.
        -11    1    3    3    0    0  0.48814238089E+01 -0.67503644443E+01  0.15138756493E+01  0.84668493712E+01  0.51100000000E-03 0.  1.
        -12    1    3    3    0    0  0.92538552438E+01  0.71464460219E+01  0.23982135819E+02  0.26680486616E+02  0.00000000000E+00 0.  1.
</event>
<event>
 7    1  0.2891523E-011  0.5052884E+02  0.7816164E-02  0.1300439E+00
        -11   -1    0    0    0    0  0.00000000000E+00  0.00000000000E+00  0.45593999997E+02  0.45594000000E+02  0.51100000000E-03 0. -1.
         11   -1    0    0    0    0 -0.00000000000E+00 -0.00000000000E+00 -0.45593999997E+02  0.45594000000E+02  0.51100000000E-03 0.  1.
    9900012    2    1    2    0    0 -0.17360358184E+02 -0.34270819197E+02 -0.13315273532E+02  0.50528836285E+02  0.29999928373E+02 0.  0.
         12    1    1    2    0    0  0.17360358184E+02  0.34270819197E+02  0.13315273532E+02  0.40659163715E+02  0.00000000000E+00 0. -1.
         11    1    3    3    0    0 -0.23030929767E+00  0.52775130713E+00  0.17122677163E+00  0.60073511901E+00  0.51100000000E-03 0. -1.
        -11    1    3    3    0    0 -0.15958653516E+02 -0.21489774492E+02 -0.21514111970E+02  0.34341608056E+02  0.51100000000E-03 0.  1.
        -12    1    3    3    0    0 -0.11713953701E+01 -0.13308796012E+02  0.80276116658E+01  0.15586493110E+02  0.00000000000E+00 0.  1.
</event>
<event>
 7    1  0.2891523E-011  0.5052886E+02  0.7816164E-02  0.1300439E+00
        -11   -1    0    0    0    0  0.00000000000E+00  0.00000000000E+00  0.45593999997E+02  0.45594000000E+02  0.51100000000E-03 0.  1.
         11   -1    0    0    0    0 -0.00000000000E+00 -0.00000000000E+00 -0.45593999997E+02  0.45594000000E+02  0.51100000000E-03 0. -1.
    9900012    2    1    2    0    0 -0.95656529826E+01  0.28817263921E+02  0.27041254118E+02  0.50528857840E+02  0.29999993892E+02 0.  0.
         12    1    1    2    0    0  0.95656529826E+01 -0.28817263921E+02 -0.27041254118E+02  0.40659142160E+02  0.00000000000E+00 0. -1.
         11    1    3    3    0    0  0.54023568475E+01  0.11070883280E+02  0.77186640122E+01  0.14537114243E+02  0.51100000000E-03 0. -1.
        -11    1    3    3    0    0 -0.73808651124E+01  0.50205557177E+00  0.14906739209E+02  0.16641517470E+02  0.51100000000E-03 0.  1.
        -12    1    3    3    0    0 -0.75871447177E+01  0.17244325069E+02  0.44158508973E+01  0.19350226128E+02  0.00000000000E+00 0.  1.
</event>
<event>
 7    1  0.2891523E-011  0.5052886E+02  0.7816164E-02  0.1300439E+00
        -11   -1    0    0    0    0  0.00000000000E+00  0.00000000000E+00  0.45593999997E+02  0.45594000000E+02  0.51100000000E-03 0.  1.
         11   -1    0    0    0    0 -0.00000000000E+00 -0.00000000000E+00 -0.45593999997E+02  0.45594000000E+02  0.51100000000E-03 0. -1.
    9900012    2    1    2    0    0 -0.25695571889E+02  0.28359925772E+02 -0.13733834168E+02  0.50528855820E+02  0.29999987750E+02 0.  0.
         12    1    1    2    0    0  0.25695571889E+02 -0.28359925772E+02  0.13733834168E+02  0.40659144180E+02  0.00000000000E+00 0. -1.
         11    1    3    3    0    0 -0.12422259654E+02  0.23581235697E+01  0.40609535993E+01  0.13280234413E+02  0.51100000000E-03 0. -1.
        -11    1    3    3    0    0 -0.14060078295E+02  0.15986401903E+02 -0.67862931541E+01  0.22345125251E+02  0.51100000000E-03 0.  1.
         12    1    3    3    0    0  0.78676606008E+00  0.10015400300E+02 -0.11008494613E+02  0.14903496155E+02  0.00000000000E+00 0. -1.
</event>
<event>
 7    1  0.2891523E-011  0.5052886E+02  0.7816164E-02  0.1300439E+00
        -11   -1    0    0    0    0  0.00000000000E+00  0.00000000000E+00  0.45593999997E+02  0.45594000000E+02  0.51100000000E-03 0. -1.
         11   -1    0    0    0    0 -0.00000000000E+00 -0.00000000000E+00 -0.45593999997E+02  0.45594000000E+02  0.51100000000E-03 0.  1.
    9900012    2    1    2    0    0  0.25239172297E+02 -0.29059462748E+02  0.13103332676E+02  0.50528861782E+02  0.30000005873E+02 0.  0.
         12    1    1    2    0    0 -0.25239172297E+02  0.29059462748E+02 -0.13103332676E+02  0.40659138218E+02  0.00000000000E+00 0. -1.
         11    1    3    3    0    0  0.21498520217E+02 -0.76736583203E+01  0.99656344297E+01  0.24907534471E+02  0.51100000000E-03 0. -1.
        -11    1    3    3    0    0 -0.79116659742E+00 -0.12543990992E+02  0.76448473753E+01  0.14711265963E+02  0.51100000000E-03 0.  1.
         12    1    3    3    0    0  0.45318186765E+01 -0.88418134359E+01 -0.45071491293E+01  0.10910061348E+02  0.00000000000E+00 0. -1.
</event>
<event>
 7    1  0.2891523E-011  0.5052900E+02  0.7816164E-02  0.1300438E+00
        -11   -1    0    0    0    0  0.00000000000E+00  0.00000000000E+00  0.45593999997E+02  0.45594000000E+02  0.51100000000E-03 0.  1.
         11   -1    0    0    0    0 -0.00000000000E+00 -0.00000000000E+00 -0.45593999997E+02  0.45594000000E+02  0.51100000000E-03 0. -1.
    9900012    2    1    2    0    0 -0.27374680006E+02 -0.16600502587E+01  0.30017085406E+02  0.50528999907E+02  0.30000425715E+02 0.  0.
         12    1    1    2    0    0  0.27374680006E+02  0.16600502587E+01 -0.30017085406E+02  0.40659000093E+02  0.00000000000E+00 0. -1.
         11    1    3    3    0    0 -0.10213050724E+02 -0.50171712999E+01  0.69894417229E+01  0.13354052149E+02  0.51100000000E-03 0.  1.
        -11    1    3    3    0    0  0.29483864727E+01  0.92662296996E+00 -0.29234156183E+01  0.42541711366E+01  0.51100000000E-03 0. -1.
        -12    1    3    3    0    0 -0.20110015754E+02  0.24304980712E+01  0.25951059301E+02  0.32920776621E+02  0.00000000000E+00 0.  1.
</event>
<event>
 7    1  0.2891523E-011  0.5052885E+02  0.7816164E-02  0.1300439E+00
        -11   -1    0    0    0    0  0.00000000000E+00  0.00000000000E+00  0.45593999997E+02  0.45594000000E+02  0.51100000000E-03 0.  1.
         11   -1    0    0    0    0 -0.00000000000E+00 -0.00000000000E+00 -0.45593999997E+02  0.45594000000E+02  0.51100000000E-03 0. -1.
    9900012    2    1    2    0    0  0.26116201173E+02  0.29180914144E+02  0.10935469628E+02  0.50528853305E+02  0.29999980106E+02 0.  0.
         12    1    1    2    0    0 -0.26116201173E+02 -0.29180914144E+02 -0.10935469628E+02  0.40659146695E+02  0.00000000000E+00 0. -1.
         11    1    3    3    0    0 -0.20818408815E-01  0.17346800175E+02  0.39825930856E+01  0.17798116689E+02  0.51100000000E-03 0. -1.
        -11    1    3    3    0    0  0.17889730419E+02  0.37429820285E+01  0.99291416300E+01  0.20800005354E+02  0.51100000000E-03 0.  1.
        -12    1    3    3    0    0  0.82472891622E+01  0.80911319404E+01 -0.29762650871E+01  0.11930731263E+02  0.00000000000E+00 0.  1.
</event>
<event>
 7    1  0.2891523E-011  0.5052889E+02  0.7816164E-02  0.1300439E+00
        -11   -1    0    0    0    0  0.00000000000E+00  0.00000000000E+00  0.45593999997E+02  0.45594000000E+02  0.51100000000E-03 0.  1.
         11   -1    0    0    0    0 -0.00000000000E+00 -0.00000000000E+00 -0.45593999997E+02  0.45594000000E+02  0.51100000000E-03 0. -1.
    9900012    2    1    2    0    0 -0.79902085613E+01 -0.32454472015E+02  0.23152266482E+02  0.50528885034E+02  0.30000076548E+02 0.  0.
         12    1    1    2    0    0  0.79902085613E+01  0.32454472015E+02 -0.23152266482E+02  0.40659114966E+02  0.00000000000E+00 0. -1.
         11    1    3    3    0    0 -0.19098382898E+01 -0.44899333467E+01 -0.70156175515E+01  0.85455177514E+01  0.51100000000E-03 0. -1.
        -11    1    3    3    0    0 -0.16111257981E+01 -0.18603871847E+02  0.17303981255E+02  0.25458349153E+02  0.51100000000E-03 0.  1.
         12    1    3    3    0    0 -0.44692444735E+01 -0.93606668212E+01  0.12863902778E+02  0.16525018130E+02  0.00000000000E+00 0. -1.
</event>
<event>
 7    1  0.2891523E-011  0.5052886E+02  0.7816164E-02  0.1300439E+00
        -11   -1    0    0    0    0  0.00000000000E+00  0.00000000000E+00  0.45593999997E+02  0.45594000000E+02  0.51100000000E-03 0. -1.
         11   -1    0    0    0    0 -0.00000000000E+00 -0.00000000000E+00 -0.45593999997E+02  0.45594000000E+02  0.51100000000E-03 0.  1.
    9900012    2    1    2    0    0  0.34088105849E+02 -0.17925800704E+02 -0.13031974474E+02  0.50528860192E+02  0.30000001039E+02 0.  0.
         12    1    1    2    0    0 -0.34088105849E+02  0.17925800704E+02  0.13031974474E+02  0.40659139808E+02  0.00000000000E+00 0. -1.
         11    1    3    3    0    0 -0.14407204496E+01 -0.34825391206E+01 -0.10619041754E+02  0.11267999031E+02  0.51100000000E-03 0. -1.
        -11    1    3    3    0    0  0.85026758221E+01 -0.27367556320E+01  0.27780902216E+01  0.93543098658E+01  0.51100000000E-03 0.  1.
         12    1    3    3    0    0  0.27026150477E+02 -0.11706505951E+02 -0.51910229417E+01  0.29906551295E+02  0.00000000000E+00 0. -1.
</event>
<event>
 7    1  0.2891523E-011  0.5052886E+02  0.7816164E-02  0.1300439E+00
        -11   -1    0    0    0    0  0.00000000000E+00  0.00000000000E+00  0.45593999997E+02  0.45594000000E+02  0.51100000000E-03 0.  1.
         11   -1    0    0    0    0 -0.00000000000E+00 -0.00000000000E+00 -0.45593999997E+02  0.45594000000E+02  0.51100000000E-03 0. -1.
    9900012    2    1    2    0    0  0.33945759265E+02 -0.17379893257E+02  0.14099305210E+02  0.50528859956E+02  0.30000000322E+02 0.  0.
         12    1    1    2    0    0 -0.33945759265E+02  0.17379893257E+02 -0.14099305210E+02  0.40659140044E+02  0.00000000000E+00 0. -1.
         11    1    3    3    0    0  0.23603667487E+02 -0.21171179903E+01  0.84963210837E+01  0.25175440009E+02  0.51100000000E-03 0. -1.
        -11    1    3    3    0    0  0.38158274405E+01 -0.10056480746E+02 -0.49973321806E+01  0.11860298193E+02  0.51100000000E-03 0.  1.
        -12    1    3    3    0    0  0.65262643373E+01 -0.52062945215E+01  0.10600316307E+02  0.13493121754E+02  0.00000000000E+00 0.  1.
</event>
<event>
 7    1  0.2891523E-011  0.5052886E+02  0.7816164E-02  0.1300439E+00
        -11   -1    0    0    0    0  0.00000000000E+00  0.00000000000E+00  0.45593999997E+02  0.45594000000E+02  0.51100000000E-03 0.  1.
         11   -1    0    0    0    0 -0.00000000000E+00 -0.00000000000E+00 -0.45593999997E+02  0.45594000000E+02  0.51100000000E-03 0. -1.
    9900012    2    1    2    0    0  0.38707296699E+02 -0.27443579657E+01  0.12139988462E+02  0.50528860336E+02  0.30000001476E+02 0.  0.
         12    1    1    2    0    0 -0.38707296699E+02  0.27443579657E+01 -0.12139988462E+02  0.40659139664E+02  0.00000000000E+00 0. -1.
         11    1    3    3    0    0  0.13244065342E+01  0.87498998332E+01  0.64201278872E+01  0.10933107614E+02  0.51100000000E-03 0. -1.
        -11    1    3    3    0    0  0.12185499085E+02 -0.38580529836E+01  0.29803884170E+01  0.13124544797E+02  0.51100000000E-03 0.  1.
         12    1    3    3    0    0  0.25197391080E+02 -0.76362048154E+01  0.27394721578E+01  0.26471207924E+02  0.00000000000E+00 0. -1.
</event>
<event>
 7    1  0.2891523E-011  0.5052886E+02  0.7816164E-02  0.1300439E+00
        -11   -1    0    0    0    0  0.00000000000E+00  0.00000000000E+00  0.45593999997E+02  0.45594000000E+02  0.51100000000E-03 0.  1.
         11   -1    0    0    0    0 -0.00000000000E+00 -0.00000000000E+00 -0.45593999997E+02  0.45594000000E+02  0.51100000000E-03 0. -1.
    9900012    2    1    2    0    0 -0.78014622054E+01 -0.14506319093E+02  0.37173501576E+02  0.50528864180E+02  0.30000013163E+02 0.  0.
         12    1    1    2    0    0  0.78014622054E+01  0.14506319093E+02 -0.37173501576E+02  0.40659135820E+02  0.00000000000E+00 0. -1.
         11    1    3    3    0    0  0.51819437922E+01 -0.15290087249E+02  0.10994141685E+02  0.19532292779E+02  0.51100000000E-03 0. -1.
        -11    1    3    3    0    0 -0.70088831235E+01 -0.40848163651E+01  0.18078737011E+02  0.19815420751E+02  0.51100000000E-03 0.  1.
         12    1    3    3    0    0 -0.59745228741E+01  0.48685845212E+01  0.81006228804E+01  0.11181150650E+02  0.00000000000E+00 0. -1.
</event>
<event>
 7    1  0.2891523E-011  0.5052886E+02  0.7816164E-02  0.1300439E+00
        -11   -1    0    0    0    0  0.00000000000E+00  0.00000000000E+00  0.45593999997E+02  0.45594000000E+02  0.51100000000E-03 0.  1.
         11   -1    0    0    0    0 -0.00000000000E+00 -0.00000000000E+00 -0.45593999997E+02  0.45594000000E+02  0.51100000000E-03 0. -1.
    9900012    2    1    2    0    0 -0.37412939882E+02 -0.42877895962E+01  0.15331418312E+02  0.50528860835E+02  0.30000002993E+02 0.  0.
         12    1    1    2    0    0  0.37412939882E+02  0.42877895962E+01 -0.15331418312E+02  0.40659139165E+02  0.00000000000E+00 0. -1.
         11    1    3    3    0    0 -0.12864498166E+02 -0.12236853499E+02  0.56535687112E+01  0.18633269602E+02  0.51100000000E-03 0. -1.
        -11    1    3    3    0    0 -0.24507687913E+01  0.50319946094E+01  0.76990599459E+01  0.95185482995E+01  0.51100000000E-03 0.  1.
         12    1    3    3    0    0 -0.22097672924E+02  0.29170692935E+01  0.19787896548E+01  0.22377042933E+02  0.00000000000E+00 0. -1.
</event>
<event>
 7    1  0.2891523E-011  0.5052886E+02  0.7816164E-02  0.1300439E+00
        -11   -1    0    0    0    0  0.00000000000E+00  0.00000000000E+00  0.45593999997E+02  0.45594000000E+02  0.51100000000E-03 0. -1.
         11   -1    0    0    0    0 -0.00000000000E+00 -0.00000000000E+00 -0.45593999997E+02  0.45594000000E+02  0.51100000000E-03 0.  1.
    9900012    2    1    2    0    0 -0.19742391469E+02  0.21749372421E+02 -0.28113485858E+02  0.50528864388E+02  0.30000013794E+02 0.  0.
         12    1    1    2    0    0  0.19742391469E+02 -0.21749372421E+02  0.28113485858E+02  0.40659135612E+02  0.00000000000E+00 0. -1.
         11    1    3    3    0    0  0.39874451863E+01  0.95110795020E+01 -0.13233806984E+01  0.10397677103E+02  0.51100000000E-03 0. -1.
        -11    1    3    3    0    0 -0.17686462697E+02  0.13704398463E+02 -0.25225625629E+02  0.33718743876E+02  0.51100000000E-03 0.  1.
        -12    1    3    3    0    0 -0.60433739583E+01 -0.14661055445E+01 -0.15644795308E+01  0.64124434087E+01  0.00000000000E+00 0.  1.
</event>
<event>
 7    1  0.2891523E-011  0.5052886E+02  0.7816164E-02  0.1300439E+00
        -11   -1    0    0    0    0  0.00000000000E+00  0.00000000000E+00  0.45593999997E+02  0.45594000000E+02  0.51100000000E-03 0.  1.
         11   -1    0    0    0    0 -0.00000000000E+00 -0.00000000000E+00 -0.45593999997E+02  0.45594000000E+02  0.51100000000E-03 0. -1.
    9900012    2    1    2    0    0  0.21608547912E+02 -0.15525442587E+02  0.30744053947E+02  0.50528861255E+02  0.30000004272E+02 0.  0.
         12    1    1    2    0    0 -0.21608547912E+02  0.15525442587E+02 -0.30744053947E+02  0.40659138745E+02  0.00000000000E+00 0. -1.
         11    1    3    3    0    0  0.20569589892E+00 -0.63262766408E+01  0.36143834187E+01  0.72888856965E+01  0.51100000000E-03 0. -1.
        -11    1    3    3    0    0  0.25005089832E+02 -0.13620762557E+01  0.19942075660E+02  0.32012437444E+02  0.51100000000E-03 0.  1.
        -12    1    3    3    0    0 -0.36022378191E+01 -0.78370896906E+01  0.71875948679E+01  0.11227538114E+02  0.00000000000E+00 0.  1.
</event>
<event>
 7    1  0.2891523E-011  0.5052886E+02  0.7816164E-02  0.1300439E+00
        -11   -1    0    0    0    0  0.00000000000E+00  0.00000000000E+00  0.45593999997E+02  0.45594000000E+02  0.51100000000E-03 0.  1.
         11   -1    0    0    0    0 -0.00000000000E+00 -0.00000000000E+00 -0.45593999997E+02  0.45594000000E+02  0.51100000000E-03 0. -1.
    9900012    2    1    2    0    0 -0.68690742048E+01  0.14371554495E+02  0.37409086746E+02  0.50528861664E+02  0.30000005515E+02 0.  0.
         12    1    1    2    0    0  0.68690742048E+01 -0.14371554495E+02 -0.37409086746E+02  0.40659138336E+02  0.00000000000E+00 0. -1.
         11    1    3    3    0    0  0.63467107559E+01  0.95698670224E+01  0.32090684073E+01  0.11923137697E+02  0.51100000000E-03 0. -1.
        -11    1    3    3    0    0 -0.75592748437E+01  0.77045151059E+01  0.15771684472E+02  0.19111468298E+02  0.51100000000E-03 0.  1.
         12    1    3    3    0    0 -0.56565101170E+01 -0.29028276328E+01  0.18428333867E+02  0.19494255668E+02  0.00000000000E+00 0. -1.
</event>
<event>
 7    1  0.2891523E-011  0.5052886E+02  0.7816164E-02  0.1300439E+00
        -11   -1    0    0    0    0  0.00000000000E+00  0.00000000000E+00  0.45593999997E+02  0.45594000000E+02  0.51100000000E-03 0.  1.
         11   -1    0    0    0    0 -0.00000000000E+00 -0.00000000000E+00 -0.45593999997E+02  0.45594000000E+02  0.51100000000E-03 0. -1.
    9900012    2    1    2    0    0 -0.15190178890E+02 -0.36308900406E+02  0.10202350899E+02  0.50528858995E+02  0.29999997402E+02 0.  0.
         12    1    1    2    0    0  0.15190178890E+02  0.36308900406E+02 -0.10202350899E+02  0.40659141005E+02  0.00000000000E+00 0. -1.
         11    1    3    3    0    0  0.68168030458E+01 -0.77989617280E+01 -0.33164176982E+01  0.10876177380E+02  0.51100000000E-03 0. -1.
        -11    1    3    3    0    0 -0.83007461526E+01 -0.13198527035E+02  0.10700405452E+02  0.18910372278E+02  0.51100000000E-03 0.  1.
         12    1    3    3    0    0 -0.13706235783E+02 -0.15311411643E+02  0.28183631450E+01  0.20742309337E+02  0.00000000000E+00 0. -1.
</event>
<event>
 7    1  0.2891523E-011  0.5052879E+02  0.7816164E-02  0.1300439E+00
        -11   -1    0    0    0    0  0.00000000000E+00  0.00000000000E+00  0.45593999997E+02  0.45594000000E+02  0.51100000000E-03 0.  1.
         11   -1    0    0    0    0 -0.00000000000E+00 -0.00000000000E+00 -0.45593999997E+02  0.45594000000E+02  0.51100000000E-03 0. -1.
    9900012    2    1    2    0    0  0.37688351852E+02 -0.14470386635E+02 -0.48340072716E+01  0.50528787255E+02  0.29999779340E+02 0.  0.
         12    1    1    2    0    0 -0.37688351852E+02  0.14470386635E+02  0.48340072716E+01  0.40659212745E+02  0.00000000000E+00 0. -1.
         11    1    3    3    0    0  0.13438007505E+02 -0.40852699907E+00  0.10160955893E+02  0.16852061149E+02  0.51100000000E-03 0. -1.
        -11    1    3    3    0    0  0.22584149815E+02 -0.10735531955E+02 -0.89124963193E+01  0.26546714677E+02  0.51100000000E-03 0.  1.
        -12    1    3    3    0    0  0.16661945317E+01 -0.33263276809E+01 -0.60824668458E+01  0.71300114297E+01  0.00000000000E+00 0.  1.
</event>
<event>
 7    1  0.2891523E-011  0.5052886E+02  0.7816164E-02  0.1300439E+00
        -11   -1    0    0    0    0  0.00000000000E+00  0.00000000000E+00  0.45593999997E+02  0.45594000000E+02  0.51100000000E-03 0.  1.
         11   -1    0    0    0    0 -0.00000000000E+00 -0.00000000000E+00 -0.45593999997E+02  0.45594000000E+02  0.51100000000E-03 0. -1.
    9900012    2    1    2    0    0  0.56709898304E+01 -0.40214085798E+02 -0.19578148471E+01  0.50528857594E+02  0.29999993143E+02 0.  0.
         12    1    1    2    0    0 -0.56709898304E+01  0.40214085798E+02  0.19578148471E+01  0.40659142406E+02  0.00000000000E+00 0. -1.
         11    1    3    3    0    0  0.93260782017E-01 -0.16258968988E+02 -0.10498755140E+02  0.19354240617E+02  0.51100000000E-03 0. -1.
        -11    1    3    3    0    0  0.10925435390E+01 -0.25269194637E+02  0.68445452123E+01  0.26202550419E+02  0.51100000000E-03 0.  1.
         12    1    3    3    0    0  0.44851855094E+01  0.13140778279E+01  0.16963950801E+01  0.49720665583E+01  0.00000000000E+00 0. -1.
</event>
<event>
 7    1  0.2891523E-011  0.5052885E+02  0.7816164E-02  0.1300439E+00
        -11   -1    0    0    0    0  0.00000000000E+00  0.00000000000E+00  0.45593999997E+02  0.45594000000E+02  0.51100000000E-03 0.  1.
         11   -1    0    0    0    0 -0.00000000000E+00 -0.00000000000E+00 -0.45593999997E+02  0.45594000000E+02  0.51100000000E-03 0. -1.
    9900012    2    1    2    0    0  0.13821434330E+02 -0.31295349409E+02  0.21971237989E+02  0.50528852931E+02  0.29999978970E+02 0.  0.
         12    1    1    2    0    0 -0.13821434330E+02  0.31295349409E+02 -0.21971237989E+02  0.40659147069E+02  0.00000000000E+00 0. -1.
         11    1    3    3    0    0 -0.46197966560E+01 -0.15575566325E+02  0.37426788986E+01  0.16671785540E+02  0.51100000000E-03 0. -1.
        -11    1    3    3    0    0  0.16015378018E+02 -0.88282184724E+01  0.19166309800E+02  0.26491077857E+02  0.51100000000E-03 0.  1.
        -12    1    3    3    0    0  0.24258529681E+01 -0.68915646122E+01 -0.93775070942E+00  0.73659895344E+01  0.00000000000E+00 0.  1.
</event>
<event>
 7    1  0.2891523E-011  0.5052886E+02  0.7816164E-02  0.1300439E+00
        -11   -1    0    0    0    0  0.00000000000E+00  0.00000000000E+00  0.45593999997E+02  0.45594000000E+02  0.51100000000E-03 0.  1.
         11   -1    0    0    0    0 -0.00000000000E+00 -0.00000000000E+00 -0.45593999997E+02  0.45594000000E+02  0.51100000000E-03 0. -1.
    9900012    2    1    2    0    0  0.18038163629E+02 -0.20463027063E+02  0.30150539353E+02  0.50528857768E+02  0.29999993673E+02 0.  0.
         12    1    1    2    0    0 -0.18038163629E+02  0.20463027063E+02 -0.30150539353E+02  0.40659142232E+02  0.00000000000E+00 0. -1.
         11    1    3    3    0    0 -0.61647960852E+01 -0.42741033545E+01  0.14128828722E+01  0.76334073996E+01  0.51100000000E-03 0. -1.
        -11    1    3    3    0    0  0.17091728132E+02 -0.16153686039E+02  0.16454491703E+02  0.28702248007E+02  0.51100000000E-03 0.  1.
        -12    1    3    3    0    0  0.71112315821E+01 -0.35237669287E-01  0.12283164779E+02  0.14193202362E+02  0.00000000000E+00 0.  1.
</event>
<event>
 7    1  0.2891523E-011  0.5052886E+02  0.7816164E-02  0.1300439E+00
        -11   -1    0    0    0    0  0.00000000000E+00  0.00000000000E+00  0.45593999997E+02  0.45594000000E+02  0.51100000000E-03 0. -1.
         11   -1    0    0    0    0 -0.00000000000E+00 -0.00000000000E+00 -0.45593999997E+02  0.45594000000E+02  0.51100000000E-03 0.  1.
    9900012    2    1    2    0    0  0.17157576641E+01  0.32386442084E+02 -0.24522237079E+02  0.50528861217E+02  0.30000004154E+02 0.  0.
         12    1    1    2    0    0 -0.17157576641E+01 -0.32386442084E+02  0.24522237079E+02  0.40659138783E+02  0.00000000000E+00 0. -1.
         11    1    3    3    0    0 -0.84533760332E+01  0.15666039383E+02  0.13382454926E+01  0.17851477741E+02  0.51100000000E-03 0. -1.
        -11    1    3    3    0    0  0.11536479697E+01  0.18968278121E+01 -0.54766441682E+01  0.59095254457E+01  0.51100000000E-03 0.  1.
         12    1    3    3    0    0  0.90154857276E+01  0.14823574890E+02 -0.20383838404E+02  0.26767858029E+02  0.00000000000E+00 0. -1.
</event>
<event>
 7    1  0.2891523E-011  0.5052886E+02  0.7816164E-02  0.1300439E+00
        -11   -1    0    0    0    0  0.00000000000E+00  0.00000000000E+00  0.45593999997E+02  0.45594000000E+02  0.51100000000E-03 0.  1.
         11   -1    0    0    0    0 -0.00000000000E+00 -0.00000000000E+00 -0.45593999997E+02  0.45594000000E+02  0.51100000000E-03 0. -1.
    9900012    2    1    2    0    0  0.20542800388E+02 -0.35077462868E+02  0.85470880100E+00  0.50528861099E+02  0.30000003798E+02 0.  0.
         12    1    1    2    0    0 -0.20542800388E+02  0.35077462868E+02 -0.85470880100E+00  0.40659138901E+02  0.00000000000E+00 0. -1.
         11    1    3    3    0    0  0.16586128048E+01 -0.61562197640E+01 -0.10079065703E+02  0.11926340760E+02  0.51100000000E-03 0. -1.
        -11    1    3    3    0    0  0.14957087672E+02 -0.27081402159E+02  0.13285382021E+02  0.33669246951E+02  0.51100000000E-03 0.  1.
        -12    1    3    3    0    0  0.39270999109E+01 -0.18398409444E+01 -0.23516075166E+01  0.49332733882E+01  0.00000000000E+00 0.  1.
</event>
<event>
 7    1  0.2891523E-011  0.5052885E+02  0.7816164E-02  0.1300439E+00
        -11   -1    0    0    0    0  0.00000000000E+00  0.00000000000E+00  0.45593999997E+02  0.45594000000E+02  0.51100000000E-03 0.  1.
         11   -1    0    0    0    0 -0.00000000000E+00 -0.00000000000E+00 -0.45593999997E+02  0.45594000000E+02  0.51100000000E-03 0. -1.
    9900012    2    1    2    0    0 -0.23960897299E+02 -0.22022647471E+02  0.24373031176E+02  0.50528852817E+02  0.29999978621E+02 0.  0.
         12    1    1    2    0    0  0.23960897299E+02  0.22022647471E+02 -0.24373031176E+02  0.40659147183E+02  0.00000000000E+00 0. -1.
         11    1    3    3    0    0 -0.87315046140E+01 -0.52631046479E+01 -0.24134703401E+01  0.10476845074E+02  0.51100000000E-03 0. -1.
        -11    1    3    3    0    0  0.15281899195E+01 -0.12355519879E+02  0.11108384698E+02  0.16685036613E+02  0.51100000000E-03 0.  1.
        -12    1    3    3    0    0 -0.16757582604E+02 -0.44040229438E+01  0.15678116818E+02  0.23366971130E+02  0.00000000000E+00 0.  1.
</event>
<event>
 7    1  0.2891523E-011  0.5052886E+02  0.7816164E-02  0.1300439E+00
        -11   -1    0    0    0    0  0.00000000000E+00  0.00000000000E+00  0.45593999997E+02  0.45594000000E+02  0.51100000000E-03 0.  1.
         11   -1    0    0    0    0 -0.00000000000E+00 -0.00000000000E+00 -0.45593999997E+02  0.45594000000E+02  0.51100000000E-03 0. -1.
    9900012    2    1    2    0    0  0.28965535566E+02  0.24400187702E+02  0.14791682119E+02  0.50528864859E+02  0.30000015225E+02 0.  0.
         12    1    1    2    0    0 -0.28965535566E+02 -0.24400187702E+02 -0.14791682119E+02  0.40659135141E+02  0.00000000000E+00 0. -1.
         11    1    3    3    0    0  0.78002543118E+01  0.40639940692E+01 -0.18474548687E+01  0.89873858755E+01  0.51100000000E-03 0. -1.
        -11    1    3    3    0    0  0.16632978745E+02  0.90789551030E+01  0.21329497812E+02  0.28531226487E+02  0.51100000000E-03 0.  1.
        -12    1    3    3    0    0  0.45323025092E+01  0.11257238530E+02 -0.46903608240E+01  0.13010252496E+02  0.00000000000E+00 0.  1.
</event>
<event>
 7    1  0.2891523E-011  0.5052885E+02  0.7816164E-02  0.1300439E+00
        -11   -1    0    0    0    0  0.00000000000E+00  0.00000000000E+00  0.45593999997E+02  0.45594000000E+02  0.51100000000E-03 0.  1.
         11   -1    0    0    0    0 -0.00000000000E+00 -0.00000000000E+00 -0.45593999997E+02  0.45594000000E+02  0.51100000000E-03 0. -1.
    9900012    2    1    2    0    0  0.17619502948E+02  0.35439490913E+02  0.93145972539E+01  0.50528854383E+02  0.29999983383E+02 0.  0.
         12    1    1    2    0    0 -0.17619502948E+02 -0.35439490913E+02 -0.93145972539E+01  0.40659145617E+02  0.00000000000E+00 0. -1.
         11    1    3    3    0    0 -0.75175111328E+00  0.25681099220E+01 -0.84580812099E+01  0.88712714039E+01  0.51100000000E-03 0. -1.
        -11    1    3    3    0    0  0.45306519689E+01  0.80371184432E+01  0.37864652773E+01  0.99729333544E+01  0.51100000000E-03 0.  1.
         12    1    3    3    0    0  0.13840602092E+02  0.24834262547E+02  0.13986213186E+02  0.31684649625E+02  0.00000000000E+00 0. -1.
</event>
<event>
 7    1  0.2891523E-011  0.5052886E+02  0.7816164E-02  0.1300439E+00
        -11   -1    0    0    0    0  0.00000000000E+00  0.00000000000E+00  0.45593999997E+02  0.45594000000E+02  0.51100000000E-03 0.  1.
         11   -1    0    0    0    0 -0.00000000000E+00 -0.00000000000E+00 -0.45593999997E+02  0.45594000000E+02  0.51100000000E-03 0. -1.
    9900012    2    1    2    0    0  0.57666790724E+01 -0.25199151752E+02  0.31383339596E+02  0.50528857845E+02  0.29999993907E+02 0.  0.
         12    1    1    2    0    0 -0.57666790724E+01  0.25199151752E+02 -0.31383339596E+02  0.40659142155E+02  0.00000000000E+00 0. -1.
         11    1    3    3    0    0 -0.92933946083E+00  0.22981204858E+01 -0.58625433600E+00  0.25472973930E+01  0.51100000000E-03 0. -1.
        -11    1    3    3    0    0  0.11069601499E+02 -0.25330173118E+02  0.17514901115E+02  0.32724998226E+02  0.51100000000E-03 0.  1.
        -12    1    3    3    0    0 -0.43735829656E+01 -0.21670991198E+01  0.14454692817E+02  0.15256562227E+02  0.00000000000E+00 0.  1.
</event>
<event>
 7    1  0.2891523E-011  0.5052886E+02  0.7816164E-02  0.1300439E+00
        -11   -1    0    0    0    0  0.00000000000E+00  0.00000000000E+00  0.45593999997E+02  0.45594000000E+02  0.51100000000E-03 0. -1.
         11   -1    0    0    0    0 -0.00000000000E+00 -0.00000000000E+00 -0.45593999997E+02  0.45594000000E+02  0.51100000000E-03 0.  1.
    9900012    2    1    2    0    0 -0.27714369611E+02 -0.10244615907E+02 -0.27930752724E+02  0.50528863440E+02  0.30000010913E+02 0.  0.
         12    1    1    2    0    0  0.27714369611E+02  0.10244615907E+02  0.27930752724E+02  0.40659136560E+02  0.00000000000E+00 0. -1.
         11    1    3    3    0    0 -0.21485319278E+02 -0.20171890535E+02 -0.15656182743E+02  0.33371247663E+02  0.51100000000E-03 0. -1.
        -11    1    3    3    0    0 -0.13946618751E+01  0.25145824304E+01 -0.15964842542E+01  0.32889160494E+01  0.51100000000E-03 0.  1.
         12    1    3    3    0    0 -0.48343884580E+01  0.74126921967E+01 -0.10678085726E+02  0.13868699728E+02  0.00000000000E+00 0. -1.
</event>
<event>
 7    1  0.2891523E-011  0.5052886E+02  0.7816164E-02  0.1300439E+00
        -11   -1    0    0    0    0  0.00000000000E+00  0.00000000000E+00  0.45593999997E+02  0.45594000000E+02  0.51100000000E-03 0.  1.
         11   -1    0    0    0    0 -0.00000000000E+00 -0.00000000000E+00 -0.45593999997E+02  0.45594000000E+02  0.51100000000E-03 0. -1.
    9900012    2    1    2    0    0  0.24477920689E+02 -0.28113476246E+02  0.16236677664E+02  0.50528857738E+02  0.29999993582E+02 0.  0.
         12    1    1    2    0    0 -0.24477920689E+02  0.28113476246E+02 -0.16236677664E+02  0.40659142262E+02  0.00000000000E+00 0. -1.
         11    1    3    3    0    0  0.62784332208E+01 -0.10636808819E+02 -0.46120348546E+01  0.13184509521E+02  0.51100000000E-03 0. -1.
        -11    1    3    3    0    0  0.16893006735E+01 -0.10990118483E+02  0.14988779248E+02  0.18662795735E+02  0.51100000000E-03 0.  1.
        -12    1    3    3    0    0  0.16510186795E+02 -0.64865489438E+01  0.58599332705E+01  0.18681552482E+02  0.00000000000E+00 0.  1.
</event>
<event>
 7    1  0.2891523E-011  0.5052886E+02  0.7816164E-02  0.1300439E+00
        -11   -1    0    0    0    0  0.00000000000E+00  0.00000000000E+00  0.45593999997E+02  0.45594000000E+02  0.51100000000E-03 0.  1.
         11   -1    0    0    0    0 -0.00000000000E+00 -0.00000000000E+00 -0.45593999997E+02  0.45594000000E+02  0.51100000000E-03 0. -1.
    9900012    2    1    2    0    0 -0.13111903701E+02 -0.10207827147E+02  0.37108544055E+02  0.50528858400E+02  0.29999995594E+02 0.  0.
         12    1    1    2    0    0  0.13111903701E+02  0.10207827147E+02 -0.37108544055E+02  0.40659141600E+02  0.00000000000E+00 0. -1.
         11    1    3    3    0    0 -0.66433561733E+01  0.76580537578E+00  0.14025654659E+01  0.68328492788E+01  0.51100000000E-03 0. -1.
        -11    1    3    3    0    0  0.73673442205E+01 -0.80775282010E+01  0.17700307945E+02  0.20804449628E+02  0.51100000000E-03 0.  1.
        -12    1    3    3    0    0 -0.13835891748E+02 -0.28961043216E+01  0.18005670644E+02  0.22891559494E+02  0.00000000000E+00 0.  1.
</event>
<event>
 7    1  0.2891523E-011  0.5052886E+02  0.7816164E-02  0.1300439E+00
        -11   -1    0    0    0    0  0.00000000000E+00  0.00000000000E+00  0.45593999997E+02  0.45594000000E+02  0.51100000000E-03 0.  1.
         11   -1    0    0    0    0 -0.00000000000E+00 -0.00000000000E+00 -0.45593999997E+02  0.45594000000E+02  0.51100000000E-03 0. -1.
    9900012    2    1    2    0    0 -0.24870203158E+02  0.29278053848E+02  0.13320456212E+02  0.50528855937E+02  0.29999988105E+02 0.  0.
         12    1    1    2    0    0  0.24870203158E+02 -0.29278053848E+02 -0.13320456212E+02  0.40659144063E+02  0.00000000000E+00 0. -1.
         11    1    3    3    0    0 -0.24560476739E+02  0.16583377723E+02 -0.18862840262E+01  0.29694839653E+02  0.51100000000E-03 0. -1.
        -11    1    3    3    0    0  0.14615689566E+01  0.78778476149E+01  0.12948520688E+02  0.15226977872E+02  0.51100000000E-03 0.  1.
         12    1    3    3    0    0 -0.17712953761E+01  0.48168285100E+01  0.22582195505E+01  0.56070384111E+01  0.00000000000E+00 0. -1.
</event>
<event>
 7    1  0.2891523E-011  0.5052885E+02  0.7816164E-02  0.1300439E+00
        -11   -1    0    0    0    0  0.00000000000E+00  0.00000000000E+00  0.45593999997E+02  0.45594000000E+02  0.51100000000E-03 0.  1.
         11   -1    0    0    0    0 -0.00000000000E+00 -0.00000000000E+00 -0.45593999997E+02  0.45594000000E+02  0.51100000000E-03 0. -1.
    9900012    2    1    2    0    0  0.25366751570E+02  0.31774723861E+02 -0.24733853242E+00  0.50528851731E+02  0.29999975320E+02 0.  0.
         12    1    1    2    0    0 -0.25366751570E+02 -0.31774723861E+02  0.24733853242E+00  0.40659148269E+02  0.00000000000E+00 0. -1.
         11    1    3    3    0    0  0.14166652947E+02  0.32445674553E+02 -0.53547782759E+01  0.35806277433E+02  0.51100000000E-03 0. -1.
        -11    1    3    3    0    0  0.74938367002E+01  0.30697861556E+01  0.12480221556E+01  0.81938229839E+01  0.51100000000E-03 0.  1.
         12    1    3    3    0    0  0.37062619225E+01 -0.37407368477E+01  0.38594175879E+01  0.65287513140E+01  0.00000000000E+00 0. -1.
</event>
<event>
 7    1  0.2891523E-011  0.5052892E+02  0.7816164E-02  0.1300439E+00
        -11   -1    0    0    0    0  0.00000000000E+00  0.00000000000E+00  0.45593999997E+02  0.45594000000E+02  0.51100000000E-03 0. -1.
         11   -1    0    0    0    0 -0.00000000000E+00 -0.00000000000E+00 -0.45593999997E+02  0.45594000000E+02  0.51100000000E-03 0.  1.
    9900012    2    1    2    0    0 -0.22309770689E+02  0.95755992860E+01 -0.32615065584E+02  0.50528923856E+02  0.30000194551E+02 0.  0.
         12    1    1    2    0    0  0.22309770689E+02 -0.95755992860E+01  0.32615065584E+02  0.40659076144E+02  0.00000000000E+00 0. -1.
         11    1    3    3    0    0  0.60616085810E+01 -0.15771185920E+01 -0.55333370689E+01  0.83575248143E+01  0.51100000000E-03 0. -1.
        -11    1    3    3    0    0 -0.11646715624E+02  0.56954100405E+01 -0.18517855462E+02  0.22605190809E+02  0.51100000000E-03 0.  1.
         12    1    3    3    0    0 -0.16724663646E+02  0.54573078375E+01 -0.85638730530E+01  0.19566208232E+02  0.00000000000E+00 0. -1.
</event>
<event>
 7    1  0.2891523E-011  0.5052886E+02  0.7816164E-02  0.1300439E+00
        -11   -1    0    0    0    0  0.00000000000E+00  0.00000000000E+00  0.45593999997E+02  0.45594000000E+02  0.51100000000E-03 0.  1.
         11   -1    0    0    0    0 -0.00000000000E+00 -0.00000000000E+00 -0.45593999997E+02  0.45594000000E+02  0.51100000000E-03 0. -1.
    9900012    2    1    2    0    0 -0.96271973949E+01  0.39070683088E+02  0.58278872935E+01  0.50528862320E+02  0.30000007507E+02 0.  0.
         12    1    1    2    0    0  0.96271973949E+01 -0.39070683088E+02 -0.58278872935E+01  0.40659137680E+02  0.00000000000E+00 0. -1.
         11    1    3    3    0    0 -0.25836843706E+00  0.28244346431E+01  0.90469337120E+01  0.94810967273E+01  0.51100000000E-03 0. -1.
        -11    1    3    3    0    0 -0.12088043868E+02  0.21541551794E+02 -0.69007372781E+01  0.25647211027E+02  0.51100000000E-03 0.  1.
        -12    1    3    3    0    0  0.27192149105E+01  0.14704696651E+02  0.36816908596E+01  0.15400554565E+02  0.00000000000E+00 0.  1.
</event>
<event>
 7    1  0.2891523E-011  0.5052885E+02  0.7816164E-02  0.1300439E+00
        -11   -1    0    0    0    0  0.00000000000E+00  0.00000000000E+00  0.45593999997E+02  0.45594000000E+02  0.51100000000E-03 0. -1.
         11   -1    0    0    0    0 -0.00000000000E+00 -0.00000000000E+00 -0.45593999997E+02  0.45594000000E+02  0.51100000000E-03 0.  1.
    9900012    2    1    2    0    0 -0.29176953843E+00 -0.38330732279E+02  0.13558618530E+02  0.50528852162E+02  0.29999976630E+02 0.  0.
         12    1    1    2    0    0  0.29176953843E+00  0.38330732279E+02 -0.13558618530E+02  0.40659147838E+02  0.00000000000E+00 0. -1.
         11    1    3    3    0    0 -0.56319290855E+01  0.27118927238E+01  0.36562802059E+01  0.72416415663E+01  0.51100000000E-03 0. -1.
        -11    1    3    3    0    0  0.31607827420E+01 -0.22347714352E+02  0.94268583438E+01  0.24459692205E+02  0.51100000000E-03 0.  1.
         12    1    3    3    0    0  0.21793768051E+01 -0.18694910651E+02  0.47547998022E+00  0.18827518390E+02  0.00000000000E+00 0. -1.
</event>
<event>
 7    1  0.2891523E-011  0.5052886E+02  0.7816164E-02  0.1300439E+00
        -11   -1    0    0    0    0  0.00000000000E+00  0.00000000000E+00  0.45593999997E+02  0.45594000000E+02  0.51100000000E-03 0.  1.
         11   -1    0    0    0    0 -0.00000000000E+00 -0.00000000000E+00 -0.45593999997E+02  0.45594000000E+02  0.51100000000E-03 0. -1.
    9900012    2    1    2    0    0  0.89250418008E+01  0.19731641633E+02  0.34411792321E+02  0.50528861994E+02  0.30000006516E+02 0.  0.
         12    1    1    2    0    0 -0.89250418008E+01 -0.19731641633E+02 -0.34411792321E+02  0.40659138006E+02  0.00000000000E+00 0. -1.
         11    1    3    3    0    0  0.70253279245E+00  0.20637623457E+02  0.12118592788E+02  0.23942960253E+02  0.51100000000E-03 0. -1.
        -11    1    3    3    0    0 -0.20221197491E+01 -0.26247218919E+01  0.97622070356E+01  0.10309161933E+02  0.51100000000E-03 0.  1.
        -12    1    3    3    0    0  0.10244628757E+02  0.17187400682E+01  0.12530992498E+02  0.16276739808E+02  0.00000000000E+00 0.  1.
</event>
<event>
 7    1  0.2891523E-011  0.5052888E+02  0.7816164E-02  0.1300439E+00
        -11   -1    0    0    0    0  0.00000000000E+00  0.00000000000E+00  0.45593999997E+02  0.45594000000E+02  0.51100000000E-03 0.  1.
         11   -1    0    0    0    0 -0.00000000000E+00 -0.00000000000E+00 -0.45593999997E+02  0.45594000000E+02  0.51100000000E-03 0. -1.
    9900012    2    1    2    0    0  0.23185332864E+02 -0.29740677113E+02 -0.15201870697E+02  0.50528875466E+02  0.30000047468E+02 0.  0.
         12    1    1    2    0    0 -0.23185332864E+02  0.29740677113E+02  0.15201870697E+02  0.40659124534E+02  0.00000000000E+00 0. -1.
         11    1    3    3    0    0  0.38101285596E+00  0.84526777136E+00  0.25110205887E+01  0.26767280511E+01  0.51100000000E-03 0. -1.
        -11    1    3    3    0    0  0.21509946270E+02 -0.12069708493E+02 -0.15568316248E+02  0.29167244003E+02  0.51100000000E-03 0.  1.
        -12    1    3    3    0    0  0.12943737382E+01 -0.18516236391E+02 -0.21445750376E+01  0.18684903413E+02  0.00000000000E+00 0.  1.
</event>
<event>
 7    1  0.2891523E-011  0.5052886E+02  0.7816164E-02  0.1300439E+00
        -11   -1    0    0    0    0  0.00000000000E+00  0.00000000000E+00  0.45593999997E+02  0.45594000000E+02  0.51100000000E-03 0. -1.
         11   -1    0    0    0    0 -0.00000000000E+00 -0.00000000000E+00 -0.45593999997E+02  0.45594000000E+02  0.51100000000E-03 0.  1.
    9900012    2    1    2    0    0 -0.40144445766E+02 -0.46696068562E+01 -0.44479351837E+01  0.50528857345E+02  0.29999992387E+02 0.  0.
         12    1    1    2    0    0  0.40144445766E+02  0.46696068562E+01  0.44479351837E+01  0.40659142655E+02  0.00000000000E+00 0. -1.
         11    1    3    3    0    0 -0.39202063211E+01  0.78328987360E+01 -0.16463944996E+01  0.89125156560E+01  0.51100000000E-03 0. -1.
        -11    1    3    3    0    0 -0.35904348048E+02 -0.10405657915E+02  0.85222015266E+00  0.37391525843E+02  0.51100000000E-03 0.  1.
         12    1    3    3    0    0 -0.31989139652E+00 -0.20968476772E+01 -0.36537608367E+01  0.42248158467E+01  0.00000000000E+00 0. -1.
</event>
<event>
 7    1  0.2891523E-011  0.5052886E+02  0.7816164E-02  0.1300439E+00
        -11   -1    0    0    0    0  0.00000000000E+00  0.00000000000E+00  0.45593999997E+02  0.45594000000E+02  0.51100000000E-03 0.  1.
         11   -1    0    0    0    0 -0.00000000000E+00 -0.00000000000E+00 -0.45593999997E+02  0.45594000000E+02  0.51100000000E-03 0. -1.
    9900012    2    1    2    0    0 -0.31111473788E+01  0.46942547385E+00  0.40537222491E+02  0.50528855818E+02  0.29999987746E+02 0.  0.
         12    1    1    2    0    0  0.31111473788E+01 -0.46942547385E+00 -0.40537222491E+02  0.40659144182E+02  0.00000000000E+00 0. -1.
         11    1    3    3    0    0  0.29203128630E+01  0.11011082001E+02  0.13120155910E+02  0.17375576118E+02  0.51100000000E-03 0. -1.
        -11    1    3    3    0    0 -0.61629038677E+01 -0.10897694866E+02  0.28967428637E+02  0.31557139597E+02  0.51100000000E-03 0.  1.
        -12    1    3    3    0    0  0.13144362598E+00  0.35603833853E+00 -0.15503620559E+01  0.15961401034E+01  0.00000000000E+00 0.  1.
</event>
<event>
 7    1  0.2891523E-011  0.5052886E+02  0.7816164E-02  0.1300439E+00
        -11   -1    0    0    0    0  0.00000000000E+00  0.00000000000E+00  0.45593999997E+02  0.45594000000E+02  0.51100000000E-03 0.  1.
         11   -1    0    0    0    0 -0.00000000000E+00 -0.00000000000E+00 -0.45593999997E+02  0.45594000000E+02  0.51100000000E-03 0. -1.
    9900012    2    1    2    0    0 -0.27719063338E+02 -0.28961382989E+02  0.67865875067E+01  0.50528856539E+02  0.29999989936E+02 0.  0.
         12    1    1    2    0    0  0.27719063338E+02  0.28961382989E+02 -0.67865875067E+01  0.40659143461E+02  0.00000000000E+00 0. -1.
         11    1    3    3    0    0 -0.18983845457E+02 -0.73150855283E+01  0.11663357694E+02  0.23450602926E+02  0.51100000000E-03 0. -1.
        -11    1    3    3    0    0 -0.38889718355E+01 -0.18042219664E+02  0.12195545065E+01  0.18496840427E+02  0.51100000000E-03 0.  1.
         12    1    3    3    0    0 -0.48462460459E+01 -0.36040777969E+01 -0.60963246935E+01  0.85814131862E+01  0.00000000000E+00 0. -1.
</event>
<event>
 7    1  0.2891523E-011  0.5052886E+02  0.7816164E-02  0.1300439E+00
        -11   -1    0    0    0    0  0.00000000000E+00  0.00000000000E+00  0.45593999997E+02  0.45594000000E+02  0.51100000000E-03 0.  1.
         11   -1    0    0    0    0 -0.00000000000E+00 -0.00000000000E+00 -0.45593999997E+02  0.45594000000E+02  0.51100000000E-03 0. -1.
    9900012    2    1    2    0    0  0.11111667202E+02  0.60623204546E+01  0.38638645099E+02  0.50528858687E+02  0.29999996464E+02 0.  0.
         12    1    1    2    0    0 -0.11111667202E+02 -0.60623204546E+01 -0.38638645099E+02  0.40659141313E+02  0.00000000000E+00 0. -1.
         11    1    3    3    0    0  0.66090183998E+01 -0.96974734406E+01  0.10030255293E+02  0.15437815158E+02  0.51100000000E-03 0. -1.
        -11    1    3    3    0    0  0.16629216914E+01  0.28613335976E+01  0.17567891674E+02  0.17876894491E+02  0.51100000000E-03 0.  1.
         12    1    3    3    0    0  0.28397271106E+01  0.12898460298E+02  0.11040498132E+02  0.17214149038E+02  0.00000000000E+00 0. -1.
</event>
<event>
 7    1  0.2891523E-011  0.5052888E+02  0.7816164E-02  0.1300439E+00
        -11   -1    0    0    0    0  0.00000000000E+00  0.00000000000E+00  0.45593999997E+02  0.45594000000E+02  0.51100000000E-03 0.  1.
         11   -1    0    0    0    0 -0.00000000000E+00 -0.00000000000E+00 -0.45593999997E+02  0.45594000000E+02  0.51100000000E-03 0. -1.
    9900012    2    1    2    0    0 -0.26567532027E+02  0.16527793318E+02  0.25964634963E+02  0.50528880743E+02  0.30000063507E+02 0.  0.
         12    1    1    2    0    0  0.26567532027E+02 -0.16527793318E+02 -0.25964634963E+02  0.40659119257E+02  0.00000000000E+00 0. -1.
         11    1    3    3    0    0 -0.20102954036E+02  0.32827248098E+01  0.11452654304E+02  0.23368105058E+02  0.51100000000E-03 0.  1.
        -11    1    3    3    0    0 -0.62514502463E+01  0.17343313101E+02  0.96838301412E+01  0.20824209612E+02  0.51100000000E-03 0. -1.
         12    1    3    3    0    0 -0.21312774518E+00 -0.40982445928E+01  0.48281505175E+01  0.63365660731E+01  0.00000000000E+00 0. -1.
</event>
<event>
 7    1  0.2891523E-011  0.5052885E+02  0.7816164E-02  0.1300439E+00
        -11   -1    0    0    0    0  0.00000000000E+00  0.00000000000E+00  0.45593999997E+02  0.45594000000E+02  0.51100000000E-03 0. -1.
         11   -1    0    0    0    0 -0.00000000000E+00 -0.00000000000E+00 -0.45593999997E+02  0.45594000000E+02  0.51100000000E-03 0.  1.
    9900012    2    1    2    0    0  0.15951992858E+01 -0.31172416676E+02 -0.26055752993E+02  0.50528849908E+02  0.29999969779E+02 0.  0.
         12    1    1    2    0    0 -0.15951992858E+01  0.31172416676E+02  0.26055752993E+02  0.40659150092E+02  0.00000000000E+00 0. -1.
         11    1    3    3    0    0 -0.45115401983E+01  0.27255594356E+00  0.37585033988E+01  0.58783186170E+01  0.51100000000E-03 0. -1.
        -11    1    3    3    0    0  0.42253628366E+01 -0.15893819455E+02 -0.94810101098E+01  0.18983064583E+02  0.51100000000E-03 0.  1.
         12    1    3    3    0    0  0.18813766475E+01 -0.15551153164E+02 -0.20333246282E+02  0.25667466708E+02  0.00000000000E+00 0. -1.
</event>
<event>
 7    1  0.2891523E-011  0.5052886E+02  0.7816164E-02  0.1300439E+00
        -11   -1    0    0    0    0  0.00000000000E+00  0.00000000000E+00  0.45593999997E+02  0.45594000000E+02  0.51100000000E-03 0. -1.
         11   -1    0    0    0    0 -0.00000000000E+00 -0.00000000000E+00 -0.45593999997E+02  0.45594000000E+02  0.51100000000E-03 0.  1.
    9900012    2    1    2    0    0  0.16082273798E+02 -0.14455613813E+02 -0.34431982547E+02  0.50528859289E+02  0.29999998293E+02 0.  0.
         12    1    1    2    0    0 -0.16082273798E+02  0.14455613813E+02  0.34431982547E+02  0.40659140711E+02  0.00000000000E+00 0. -1.
         11    1    3    3    0    0  0.13939408830E+02 -0.53594999583E+01 -0.40814141586E+01  0.15481902342E+02  0.51100000000E-03 0. -1.
        -11    1    3    3    0    0 -0.55995854423E+01 -0.14653235615E+01 -0.57844010689E+01  0.81830206069E+01  0.51100000000E-03 0.  1.
        -12    1    3    3    0    0  0.77424504105E+01 -0.76307902936E+01 -0.24566167320E+02  0.26863936340E+02  0.00000000000E+00 0.  1.
</event>
<event>
 7    1  0.2891523E-011  0.5052885E+02  0.7816164E-02  0.1300439E+00
        -11   -1    0    0    0    0  0.00000000000E+00  0.00000000000E+00  0.45593999997E+02  0.45594000000E+02  0.51100000000E-03 0. -1.
         11   -1    0    0    0    0 -0.00000000000E+00 -0.00000000000E+00 -0.45593999997E+02  0.45594000000E+02  0.51100000000E-03 0.  1.
    9900012    2    1    2    0    0  0.88873599079E+01 -0.30312125123E+02 -0.25599923897E+02  0.50528853438E+02  0.29999980510E+02 0.  0.
         12    1    1    2    0    0 -0.88873599079E+01  0.30312125123E+02  0.25599923897E+02  0.40659146562E+02  0.00000000000E+00 0. -1.
         11    1    3    3    0    0  0.11409808609E+02 -0.27962702428E+02 -0.14382211356E+02  0.33450627248E+02  0.51100000000E-03 0. -1.
        -11    1    3    3    0    0 -0.52173722910E+01 -0.12281530161E+01  0.12957135273E+00  0.53615410518E+01  0.51100000000E-03 0.  1.
         12    1    3    3    0    0  0.26949235894E+01 -0.11212696799E+01 -0.11347283894E+02  0.11716685138E+02  0.00000000000E+00 0. -1.
</event>
<event>
 7    1  0.2891523E-011  0.5052887E+02  0.7816164E-02  0.1300439E+00
        -11   -1    0    0    0    0  0.00000000000E+00  0.00000000000E+00  0.45593999997E+02  0.45594000000E+02  0.51100000000E-03 0. -1.
         11   -1    0    0    0    0 -0.00000000000E+00 -0.00000000000E+00 -0.45593999997E+02  0.45594000000E+02  0.51100000000E-03 0.  1.
    9900012    2    1    2    0    0  0.35476297418E+01  0.37059225531E+02 -0.16346041700E+02  0.50528868763E+02  0.30000027092E+02 0.  0.
         12    1    1    2    0    0 -0.35476297418E+01 -0.37059225531E+02  0.16346041700E+02  0.40659131237E+02  0.00000000000E+00 0. -1.
         11    1    3    3    0    0 -0.11450919625E+02  0.87848786667E+01 -0.82736158245E+01  0.16635815956E+02  0.51100000000E-03 0. -1.
        -11    1    3    3    0    0  0.53868944055E+01  0.15762678725E+02 -0.70326397392E+01  0.18081446122E+02  0.51100000000E-03 0.  1.
         12    1    3    3    0    0  0.96116549619E+01  0.12511668139E+02 -0.10397861359E+01  0.15811606684E+02  0.00000000000E+00 0. -1.
</event>
<event>
 7    1  0.2891523E-011  0.5052886E+02  0.7816164E-02  0.1300439E+00
        -11   -1    0    0    0    0  0.00000000000E+00  0.00000000000E+00  0.45593999997E+02  0.45594000000E+02  0.51100000000E-03 0.  1.
         11   -1    0    0    0    0 -0.00000000000E+00 -0.00000000000E+00 -0.45593999997E+02  0.45594000000E+02  0.51100000000E-03 0. -1.
    9900012    2    1    2    0    0 -0.54203585913E+01  0.38525652221E+02  0.11813532003E+02  0.50528859518E+02  0.29999998992E+02 0.  0.
         12    1    1    2    0    0  0.54203585913E+01 -0.38525652221E+02 -0.11813532003E+02  0.40659140482E+02  0.00000000000E+00 0. -1.
         11    1    3    3    0    0  0.57975389805E+01  0.17415943281E+02  0.14679958861E+02  0.23503781207E+02  0.51100000000E-03 0. -1.
        -11    1    3    3    0    0 -0.97935732918E+01  0.18783021273E+02  0.21735626513E+01  0.21294138649E+02  0.51100000000E-03 0.  1.
         12    1    3    3    0    0 -0.14243242800E+01  0.23266876678E+01 -0.50399895095E+01  0.57309396624E+01  0.00000000000E+00 0. -1.
</event>
<event>
 7    1  0.2891523E-011  0.5052877E+02  0.7816164E-02  0.1300439E+00
        -11   -1    0    0    0    0  0.00000000000E+00  0.00000000000E+00  0.45593999997E+02  0.45594000000E+02  0.51100000000E-03 0. -1.
         11   -1    0    0    0    0 -0.00000000000E+00 -0.00000000000E+00 -0.45593999997E+02  0.45594000000E+02  0.51100000000E-03 0.  1.
    9900012    2    1    2    0    0  0.23048052329E+02  0.33478468423E+02  0.10733934739E+01  0.50528773031E+02  0.29999736105E+02 0.  0.
         12    1    1    2    0    0 -0.23048052329E+02 -0.33478468423E+02 -0.10733934739E+01  0.40659226969E+02  0.00000000000E+00 0. -1.
         11    1    3    3    0    0 -0.24589995017E+01  0.51165154560E+00 -0.15006670893E+01  0.29258277167E+01  0.51100000000E-03 0. -1.
        -11    1    3    3    0    0  0.19242730385E+02  0.24758094389E+02  0.12045775265E+02  0.33590870969E+02  0.51100000000E-03 0.  1.
        -12    1    3    3    0    0  0.62643214460E+01  0.82087224888E+01 -0.94717147022E+01  0.14012074346E+02  0.00000000000E+00 0.  1.
</event>
<event>
 7    1  0.2891523E-011  0.5052886E+02  0.7816164E-02  0.1300439E+00
        -11   -1    0    0    0    0  0.00000000000E+00  0.00000000000E+00  0.45593999997E+02  0.45594000000E+02  0.51100000000E-03 0. -1.
         11   -1    0    0    0    0 -0.00000000000E+00 -0.00000000000E+00 -0.45593999997E+02  0.45594000000E+02  0.51100000000E-03 0.  1.
    9900012    2    1    2    0    0  0.31620563942E+02  0.25558009853E+02 -0.30613501108E+00  0.50528860188E+02  0.30000001026E+02 0.  0.
         12    1    1    2    0    0 -0.31620563942E+02 -0.25558009853E+02  0.30613501108E+00  0.40659139812E+02  0.00000000000E+00 0. -1.
         11    1    3    3    0    0 -0.29895806106E+01  0.76899671886E+01  0.45718389440E+01  0.94326506974E+01  0.51100000000E-03 0. -1.
        -11    1    3    3    0    0  0.27461559828E+02  0.80007385382E+01 -0.28656372520E+01  0.28746494785E+02  0.51100000000E-03 0.  1.
        -12    1    3    3    0    0  0.71485847250E+01  0.98673041260E+01 -0.20123367030E+01  0.12349714705E+02  0.00000000000E+00 0.  1.
</event>
<event>
 7    1  0.2891523E-011  0.5052886E+02  0.7816164E-02  0.1300439E+00
        -11   -1    0    0    0    0  0.00000000000E+00  0.00000000000E+00  0.45593999997E+02  0.45594000000E+02  0.51100000000E-03 0. -1.
         11   -1    0    0    0    0 -0.00000000000E+00 -0.00000000000E+00 -0.45593999997E+02  0.45594000000E+02  0.51100000000E-03 0.  1.
    9900012    2    1    2    0    0 -0.10379224394E+02  0.14394066185E+02 -0.36582075035E+02  0.50528860139E+02  0.30000000878E+02 0.  0.
         12    1    1    2    0    0  0.10379224394E+02 -0.14394066185E+02  0.36582075035E+02  0.40659139861E+02  0.00000000000E+00 0. -1.
         11    1    3    3    0    0 -0.51033446940E+01  0.32237871244E+01 -0.69194178109E+01  0.91823348661E+01  0.51100000000E-03 0.  1.
        -11    1    3    3    0    0  0.32591171872E+01  0.17395544630E+02 -0.14570078121E+02  0.22924092011E+02  0.51100000000E-03 0. -1.
        -12    1    3    3    0    0 -0.85349968873E+01 -0.62252655696E+01 -0.15092579103E+02  0.18422433261E+02  0.00000000000E+00 0.  1.
</event>
<event>
 7    1  0.2891523E-011  0.5052887E+02  0.7816164E-02  0.1300439E+00
        -11   -1    0    0    0    0  0.00000000000E+00  0.00000000000E+00  0.45593999997E+02  0.45594000000E+02  0.51100000000E-03 0. -1.
         11   -1    0    0    0    0 -0.00000000000E+00 -0.00000000000E+00 -0.45593999997E+02  0.45594000000E+02  0.51100000000E-03 0.  1.
    9900012    2    1    2    0    0 -0.29814778343E+02  0.23920382139E+02  0.13858532176E+02  0.50528873062E+02  0.30000040158E+02 0.  0.
         12    1    1    2    0    0  0.29814778343E+02 -0.23920382139E+02 -0.13858532176E+02  0.40659126938E+02  0.00000000000E+00 0. -1.
         11    1    3    3    0    0 -0.62925039851E+01  0.35972271807E+01 -0.87899258150E+01  0.11392912090E+02  0.51100000000E-03 0. -1.
        -11    1    3    3    0    0 -0.79031715570E+01  0.56443391761E+01  0.32900672592E+01  0.10253937206E+02  0.51100000000E-03 0.  1.
         12    1    3    3    0    0 -0.15619102801E+02  0.14678815782E+02  0.19358390732E+02  0.28882023766E+02  0.00000000000E+00 0. -1.
</event>
<event>
 7    1  0.2891523E-011  0.5052886E+02  0.7816164E-02  0.1300439E+00
        -11   -1    0    0    0    0  0.00000000000E+00  0.00000000000E+00  0.45593999997E+02  0.45594000000E+02  0.51100000000E-03 0.  1.
         11   -1    0    0    0    0 -0.00000000000E+00 -0.00000000000E+00 -0.45593999997E+02  0.45594000000E+02  0.51100000000E-03 0. -1.
    9900012    2    1    2    0    0 -0.16806159804E+02 -0.35950122016E+02  0.88491352214E+01  0.50528862349E+02  0.30000007597E+02 0.  0.
         12    1    1    2    0    0  0.16806159804E+02  0.35950122016E+02 -0.88491352214E+01  0.40659137651E+02  0.00000000000E+00 0. -1.
         11    1    3    3    0    0 -0.37322819060E+01 -0.22119603324E+02  0.27817481250E+01  0.22604090390E+02  0.51100000000E-03 0. -1.
        -11    1    3    3    0    0  0.90833408909E+00  0.32234281986E+01  0.47769630821E+01  0.58339469245E+01  0.51100000000E-03 0.  1.
        -12    1    3    3    0    0 -0.13982211987E+02 -0.17053946890E+02  0.12904240143E+01  0.22090825035E+02  0.00000000000E+00 0.  1.
</event>
<event>
 7    1  0.2891523E-011  0.5052886E+02  0.7816164E-02  0.1300439E+00
        -11   -1    0    0    0    0  0.00000000000E+00  0.00000000000E+00  0.45593999997E+02  0.45594000000E+02  0.51100000000E-03 0.  1.
         11   -1    0    0    0    0 -0.00000000000E+00 -0.00000000000E+00 -0.45593999997E+02  0.45594000000E+02  0.51100000000E-03 0. -1.
    9900012    2    1    2    0    0 -0.27037199543E+02  0.10580374694E+02  0.28464209470E+02  0.50528859471E+02  0.29999998848E+02 0.  0.
         12    1    1    2    0    0  0.27037199543E+02 -0.10580374694E+02 -0.28464209470E+02  0.40659140529E+02  0.00000000000E+00 0. -1.
         11    1    3    3    0    0  0.53769724961E+01  0.43490660693E+01  0.33082400189E+01  0.76662025268E+01  0.51100000000E-03 0. -1.
        -11    1    3    3    0    0 -0.18780980699E+02  0.73980586139E+01  0.10286007031E+02  0.22655207970E+02  0.51100000000E-03 0.  1.
         12    1    3    3    0    0 -0.13633191340E+02 -0.11667499892E+01  0.14869962421E+02  0.20207448974E+02  0.00000000000E+00 0. -1.
</event>
<event>
 7    1  0.2891523E-011  0.5052887E+02  0.7816164E-02  0.1300439E+00
        -11   -1    0    0    0    0  0.00000000000E+00  0.00000000000E+00  0.45593999997E+02  0.45594000000E+02  0.51100000000E-03 0.  1.
         11   -1    0    0    0    0 -0.00000000000E+00 -0.00000000000E+00 -0.45593999997E+02  0.45594000000E+02  0.51100000000E-03 0. -1.
    9900012    2    1    2    0    0 -0.26810556412E+02 -0.28054882111E+02  0.12135989974E+02  0.50528873127E+02  0.30000040358E+02 0.  0.
         12    1    1    2    0    0  0.26810556412E+02  0.28054882111E+02 -0.12135989974E+02  0.40659126873E+02  0.00000000000E+00 0. -1.
         11    1    3    3    0    0 -0.14044277633E+02 -0.14803940735E+02  0.15237008099E+02  0.25466935654E+02  0.51100000000E-03 0. -1.
        -11    1    3    3    0    0  0.31713054614E+01  0.11379445944E+01 -0.15085837401E-01  0.33693210107E+01  0.51100000000E-03 0.  1.
         12    1    3    3    0    0 -0.15937584240E+02 -0.14388885971E+02 -0.30859322885E+01  0.21692616463E+02  0.00000000000E+00 0. -1.
</event>
<event>
 7    1  0.2891523E-011  0.5052886E+02  0.7816164E-02  0.1300439E+00
        -11   -1    0    0    0    0  0.00000000000E+00  0.00000000000E+00  0.45593999997E+02  0.45594000000E+02  0.51100000000E-03 0.  1.
         11   -1    0    0    0    0 -0.00000000000E+00 -0.00000000000E+00 -0.45593999997E+02  0.45594000000E+02  0.51100000000E-03 0. -1.
    9900012    2    1    2    0    0 -0.20231275689E+02 -0.20558144594E+02  0.28656998422E+02  0.50528863466E+02  0.30000010991E+02 0.  0.
         12    1    1    2    0    0  0.20231275689E+02  0.20558144594E+02 -0.28656998422E+02  0.40659136534E+02  0.00000000000E+00 0. -1.
         11    1    3    3    0    0  0.86808214747E+00  0.11284853497E+01  0.93077185910E+00  0.17009945074E+01  0.51100000000E-03 0. -1.
        -11    1    3    3    0    0 -0.27376779270E+02 -0.16726662151E+02  0.20704441004E+02  0.38183021717E+02  0.51100000000E-03 0.  1.
        -12    1    3    3    0    0  0.62774214336E+01 -0.49599677925E+01  0.70217855587E+01  0.10644847241E+02  0.00000000000E+00 0.  1.
</event>
<event>
 7    1  0.2891523E-011  0.5052888E+02  0.7816164E-02  0.1300439E+00
        -11   -1    0    0    0    0  0.00000000000E+00  0.00000000000E+00  0.45593999997E+02  0.45594000000E+02  0.51100000000E-03 0. -1.
         11   -1    0    0    0    0 -0.00000000000E+00 -0.00000000000E+00 -0.45593999997E+02  0.45594000000E+02  0.51100000000E-03 0.  1.
    9900012    2    1    2    0    0 -0.10432738834E+02  0.34168111736E+02 -0.19412940430E+02  0.50528878572E+02  0.30000056907E+02 0.  0.
         12    1    1    2    0    0  0.10432738834E+02 -0.34168111736E+02  0.19412940430E+02  0.40659121428E+02  0.00000000000E+00 0. -1.
         11    1    3    3    0    0 -0.63437312504E+01  0.17404910438E+02 -0.73908183238E+01  0.19944874763E+02  0.51100000000E-03 0. -1.
        -11    1    3    3    0    0 -0.50099306421E+01 -0.14237913763E+01 -0.11203918451E+02  0.12355337950E+02  0.51100000000E-03 0.  1.
        -12    1    3    3    0    0  0.92092305900E+00  0.18186992674E+02 -0.81820365469E+00  0.18228665860E+02  0.00000000000E+00 0.  1.
</event>
<event>
 7    1  0.2891523E-011  0.5052888E+02  0.7816164E-02  0.1300439E+00
        -11   -1    0    0    0    0  0.00000000000E+00  0.00000000000E+00  0.45593999997E+02  0.45594000000E+02  0.51100000000E-03 0. -1.
         11   -1    0    0    0    0 -0.00000000000E+00 -0.00000000000E+00 -0.45593999997E+02  0.45594000000E+02  0.51100000000E-03 0.  1.
    9900012    2    1    2    0    0  0.32433921980E+02 -0.21046712291E+02  0.12579364898E+02  0.50528882763E+02  0.30000069646E+02 0.  0.
         12    1    1    2    0    0 -0.32433921980E+02  0.21046712291E+02 -0.12579364898E+02  0.40659117237E+02  0.00000000000E+00 0. -1.
         11    1    3    3    0    0  0.24930941662E+02 -0.24595244494E+00  0.58365622420E+01  0.25606206354E+02  0.51100000000E-03 0. -1.
        -11    1    3    3    0    0  0.82316564621E+00 -0.12175599723E+02  0.68865608690E+01  0.14012407044E+02  0.51100000000E-03 0.  1.
         12    1    3    3    0    0  0.66798146711E+01 -0.86251601231E+01 -0.14375821253E+00  0.10910269365E+02  0.00000000000E+00 0. -1.
</event>
<event>
 7    1  0.2891523E-011  0.5052880E+02  0.7816164E-02  0.1300439E+00
        -11   -1    0    0    0    0  0.00000000000E+00  0.00000000000E+00  0.45593999997E+02  0.45594000000E+02  0.51100000000E-03 0.  1.
         11   -1    0    0    0    0 -0.00000000000E+00 -0.00000000000E+00 -0.45593999997E+02  0.45594000000E+02  0.51100000000E-03 0. -1.
    9900012    2    1    2    0    0 -0.19660548164E+02 -0.35582241546E+02 -0.73335419519E+00  0.50528795926E+02  0.29999805697E+02 0.  0.
         12    1    1    2    0    0  0.19660548164E+02  0.35582241546E+02  0.73335419519E+00  0.40659204074E+02  0.00000000000E+00 0. -1.
         11    1    3    3    0    0 -0.53017099531E+00 -0.93854115311E+00 -0.12141516081E+01  0.16236086871E+01  0.51100000000E-03 0. -1.
        -11    1    3    3    0    0 -0.24951704733E+02 -0.28186534652E+02 -0.59234614758E+01  0.38107160757E+02  0.51100000000E-03 0.  1.
        -12    1    3    3    0    0  0.58213275644E+01 -0.64571657401E+01  0.64042588887E+01  0.10798026483E+02  0.00000000000E+00 0.  1.
</event>
<event>
 7    1  0.2891523E-011  0.5052885E+02  0.7816164E-02  0.1300439E+00
        -11   -1    0    0    0    0  0.00000000000E+00  0.00000000000E+00  0.45593999997E+02  0.45594000000E+02  0.51100000000E-03 0. -1.
         11   -1    0    0    0    0 -0.00000000000E+00 -0.00000000000E+00 -0.45593999997E+02  0.45594000000E+02  0.51100000000E-03 0.  1.
    9900012    2    1    2    0    0  0.57737284295E+01 -0.39007813557E+02 -0.99106359381E+01  0.50528853880E+02  0.29999981854E+02 0.  0.
         12    1    1    2    0    0 -0.57737284295E+01  0.39007813557E+02  0.99106359381E+01  0.40659146120E+02  0.00000000000E+00 0. -1.
         11    1    3    3    0    0  0.99245978896E-01 -0.33685697798E+02 -0.16175242523E+01  0.33724656720E+02  0.51100000000E-03 0. -1.
        -11    1    3    3    0    0  0.71416774194E+01 -0.71964058765E+01 -0.97064832725E+01  0.14035940712E+02  0.51100000000E-03 0.  1.
        -12    1    3    3    0    0 -0.14671949688E+01  0.18742901172E+01  0.14133715867E+01  0.27682564480E+01  0.00000000000E+00 0.  1.
</event>
<event>
 7    1  0.2891523E-011  0.5052884E+02  0.7816164E-02  0.1300439E+00
        -11   -1    0    0    0    0  0.00000000000E+00  0.00000000000E+00  0.45593999997E+02  0.45594000000E+02  0.51100000000E-03 0. -1.
         11   -1    0    0    0    0 -0.00000000000E+00 -0.00000000000E+00 -0.45593999997E+02  0.45594000000E+02  0.51100000000E-03 0.  1.
    9900012    2    1    2    0    0  0.26513670666E+02  0.19305437469E+02 -0.24031081412E+02  0.50528837172E+02  0.29999931068E+02 0.  0.
         12    1    1    2    0    0 -0.26513670666E+02 -0.19305437469E+02  0.24031081412E+02  0.40659162828E+02  0.00000000000E+00 0. -1.
         11    1    3    3    0    0  0.55509765330E+01  0.80036352960E+01  0.19645659419E+01  0.99363493307E+01  0.51100000000E-03 0. -1.
        -11    1    3    3    0    0  0.11795628554E+01  0.73546459432E+01 -0.16890118352E+02  0.18459639316E+02  0.51100000000E-03 0.  1.
        -12    1    3    3    0    0  0.19783131277E+02  0.39471562300E+01 -0.91055290018E+01  0.22132848525E+02  0.00000000000E+00 0.  1.
</event>
<event>
 7    1  0.2891523E-011  0.5052891E+02  0.7816164E-02  0.1300439E+00
        -11   -1    0    0    0    0  0.00000000000E+00  0.00000000000E+00  0.45593999997E+02  0.45594000000E+02  0.51100000000E-03 0.  1.
         11   -1    0    0    0    0 -0.00000000000E+00 -0.00000000000E+00 -0.45593999997E+02  0.45594000000E+02  0.51100000000E-03 0. -1.
    9900012    2    1    2    0    0 -0.33885177086E+02  0.22422759812E+02  0.14752238841E+01  0.50528909143E+02  0.30000149832E+02 0.  0.
         12    1    1    2    0    0  0.33885177086E+02 -0.22422759812E+02 -0.14752238841E+01  0.40659090857E+02  0.00000000000E+00 0. -1.
         11    1    3    3    0    0 -0.22939954934E+02  0.20519656425E+02  0.10388330334E+02  0.32484076708E+02  0.51100000000E-03 0. -1.
        -11    1    3    3    0    0 -0.22212580315E+01  0.56132657240E+01 -0.47927520223E+01  0.77079965970E+01  0.51100000000E-03 0.  1.
         12    1    3    3    0    0 -0.87239641207E+01 -0.37101623364E+01 -0.41203544278E+01  0.10336835838E+02  0.00000000000E+00 0. -1.
</event>
<event>
 7    1  0.2891523E-011  0.5052886E+02  0.7816164E-02  0.1300439E+00
        -11   -1    0    0    0    0  0.00000000000E+00  0.00000000000E+00  0.45593999997E+02  0.45594000000E+02  0.51100000000E-03 0. -1.
         11   -1    0    0    0    0 -0.00000000000E+00 -0.00000000000E+00 -0.45593999997E+02  0.45594000000E+02  0.51100000000E-03 0.  1.
    9900012    2    1    2    0    0  0.33357721680E+01  0.19932909415E+02 -0.35280552987E+02  0.50528859911E+02  0.30000000186E+02 0.  0.
         12    1    1    2    0    0 -0.33357721680E+01 -0.19932909415E+02  0.35280552987E+02  0.40659140089E+02  0.00000000000E+00 0. -1.
         11    1    3    3    0    0 -0.14589814087E+01  0.77865613788E+01  0.16215557922E+01  0.80863222979E+01  0.51100000000E-03 0. -1.
        -11    1    3    3    0    0  0.84891987038E+01  0.32209967636E+01 -0.27509383276E+02  0.28969078053E+02  0.51100000000E-03 0.  1.
        -12    1    3    3    0    0 -0.36944451271E+01  0.89253512726E+01 -0.93927255033E+01  0.13473459560E+02  0.00000000000E+00 0.  1.
</event>
<event>
 7    1  0.2891523E-011  0.5052886E+02  0.7816164E-02  0.1300439E+00
        -11   -1    0    0    0    0  0.00000000000E+00  0.00000000000E+00  0.45593999997E+02  0.45594000000E+02  0.51100000000E-03 0. -1.
         11   -1    0    0    0    0 -0.00000000000E+00 -0.00000000000E+00 -0.45593999997E+02  0.45594000000E+02  0.51100000000E-03 0.  1.
    9900012    2    1    2    0    0 -0.64262367789E+01 -0.16183148512E+02 -0.36742000093E+02  0.50528863441E+02  0.30000010915E+02 0.  0.
         12    1    1    2    0    0  0.64262367789E+01  0.16183148512E+02  0.36742000093E+02  0.40659136559E+02  0.00000000000E+00 0. -1.
         11    1    3    3    0    0  0.53443967228E+01 -0.79895533394E+01 -0.13364250328E+02  0.16462038937E+02  0.51100000000E-03 0. -1.
        -11    1    3    3    0    0 -0.15093452705E+02 -0.13422399039E+00 -0.19135059600E+02  0.24371722073E+02  0.51100000000E-03 0.  1.
         12    1    3    3    0    0  0.33228192032E+01 -0.80593711820E+01 -0.42426901654E+01  0.96951024310E+01  0.00000000000E+00 0. -1.
</event>
<event>
 7    1  0.2891523E-011  0.5052885E+02  0.7816164E-02  0.1300439E+00
        -11   -1    0    0    0    0  0.00000000000E+00  0.00000000000E+00  0.45593999997E+02  0.45594000000E+02  0.51100000000E-03 0.  1.
         11   -1    0    0    0    0 -0.00000000000E+00 -0.00000000000E+00 -0.45593999997E+02  0.45594000000E+02  0.51100000000E-03 0. -1.
    9900012    2    1    2    0    0  0.32550841119E+01 -0.67985460363E+00  0.40522936686E+02  0.50528853766E+02  0.29999981506E+02 0.  0.
         12    1    1    2    0    0 -0.32550841119E+01  0.67985460363E+00 -0.40522936686E+02  0.40659146234E+02  0.00000000000E+00 0. -1.
         11    1    3    3    0    0  0.38353344079E+01 -0.21527041712E+01  0.80716940008E+01  0.91921798053E+01  0.51100000000E-03 0. -1.
        -11    1    3    3    0    0 -0.99610353098E+01  0.83595949315E+01  0.11449032187E+02  0.17325859001E+02  0.51100000000E-03 0.  1.
        -12    1    3    3    0    0  0.93807850138E+01 -0.68867453639E+01  0.21002210498E+02  0.24010814959E+02  0.00000000000E+00 0.  1.
</event>
<event>
 7    1  0.2891523E-011  0.5052885E+02  0.7816164E-02  0.1300439E+00
        -11   -1    0    0    0    0  0.00000000000E+00  0.00000000000E+00  0.45593999997E+02  0.45594000000E+02  0.51100000000E-03 0.  1.
         11   -1    0    0    0    0 -0.00000000000E+00 -0.00000000000E+00 -0.45593999997E+02  0.45594000000E+02  0.51100000000E-03 0. -1.
    9900012    2    1    2    0    0  0.14530675503E+01 -0.35879174119E+02  0.19071969427E+02  0.50528849018E+02  0.29999967074E+02 0.  0.
         12    1    1    2    0    0 -0.14530675503E+01  0.35879174119E+02 -0.19071969427E+02  0.40659150982E+02  0.00000000000E+00 0. -1.
         11    1    3    3    0    0  0.14302142790E+01  0.21506319495E+01 -0.46033244635E+01  0.52783829952E+01  0.51100000000E-03 0. -1.
        -11    1    3    3    0    0  0.29611056431E+01 -0.26463711859E+02  0.16444662512E+02  0.31297334030E+02  0.51100000000E-03 0.  1.
         12    1    3    3    0    0 -0.29382523719E+01 -0.11566094209E+02  0.72306313793E+01  0.13953131992E+02  0.00000000000E+00 0. -1.
</event>
<event>
 7    1  0.2891523E-011  0.5052886E+02  0.7816164E-02  0.1300439E+00
        -11   -1    0    0    0    0  0.00000000000E+00  0.00000000000E+00  0.45593999997E+02  0.45594000000E+02  0.51100000000E-03 0.  1.
         11   -1    0    0    0    0 -0.00000000000E+00 -0.00000000000E+00 -0.45593999997E+02  0.45594000000E+02  0.51100000000E-03 0. -1.
    9900012    2    1    2    0    0  0.24142972734E+02 -0.25519510194E+02  0.20470403211E+02  0.50528856618E+02  0.29999990175E+02 0.  0.
         12    1    1    2    0    0 -0.24142972734E+02  0.25519510194E+02 -0.20470403211E+02  0.40659143382E+02  0.00000000000E+00 0. -1.
         11    1    3    3    0    0  0.61865183968E+01  0.17526729890E+01  0.81751452974E+01  0.10400859261E+02  0.51100000000E-03 0. -1.
        -11    1    3    3    0    0  0.81819502978E+01 -0.21223784392E+02 -0.72763108018E+00  0.22757916904E+02  0.51100000000E-03 0.  1.
        -12    1    3    3    0    0  0.97745040396E+01 -0.60483987910E+01  0.13022888994E+02  0.17370080452E+02  0.00000000000E+00 0.  1.
</event>
<event>
 7    1  0.2891523E-011  0.5052886E+02  0.7816164E-02  0.1300439E+00
        -11   -1    0    0    0    0  0.00000000000E+00  0.00000000000E+00  0.45593999997E+02  0.45594000000E+02  0.51100000000E-03 0.  1.
         11   -1    0    0    0    0 -0.00000000000E+00 -0.00000000000E+00 -0.45593999997E+02  0.45594000000E+02  0.51100000000E-03 0. -1.
    9900012    2    1    2    0    0  0.11835001869E+02 -0.28999819099E+02  0.25925058646E+02  0.50528862738E+02  0.30000008779E+02 0.  0.
         12    1    1    2    0    0 -0.11835001869E+02  0.28999819099E+02 -0.25925058646E+02  0.40659137262E+02  0.00000000000E+00 0. -1.
         11    1    3    3    0    0 -0.57720224963E+01 -0.20159039763E+02  0.11376261992E+02  0.23856287746E+02  0.51100000000E-03 0. -1.
        -11    1    3    3    0    0  0.10361739674E+02 -0.10517450011E+02  0.81645104019E+01  0.16871325798E+02  0.51100000000E-03 0.  1.
         12    1    3    3    0    0  0.72452846914E+01  0.16766706747E+01  0.63842862527E+01  0.98012491943E+01  0.00000000000E+00 0. -1.
</event>
<event>
 7    1  0.2891523E-011  0.5052886E+02  0.7816164E-02  0.1300439E+00
        -11   -1    0    0    0    0  0.00000000000E+00  0.00000000000E+00  0.45593999997E+02  0.45594000000E+02  0.51100000000E-03 0.  1.
         11   -1    0    0    0    0 -0.00000000000E+00 -0.00000000000E+00 -0.45593999997E+02  0.45594000000E+02  0.51100000000E-03 0. -1.
    9900012    2    1    2    0    0  0.44140561568E+01  0.34888659028E+02  0.20407434114E+02  0.50528858498E+02  0.29999995892E+02 0.  0.
         12    1    1    2    0    0 -0.44140561568E+01 -0.34888659028E+02 -0.20407434114E+02  0.40659141502E+02  0.00000000000E+00 0. -1.
         11    1    3    3    0    0 -0.23381350271E+01  0.25877787127E+01  0.10809577111E+02  0.11358275910E+02  0.51100000000E-03 0. -1.
        -11    1    3    3    0    0  0.41373427710E+01  0.51664258948E+01 -0.49559270988E+01  0.82686622498E+01  0.51100000000E-03 0.  1.
        -12    1    3    3    0    0  0.26148484129E+01  0.27134454421E+02  0.14553784102E+02  0.30901920339E+02  0.00000000000E+00 0.  1.
</event>
<event>
 7    1  0.2891523E-011  0.5052885E+02  0.7816164E-02  0.1300439E+00
        -11   -1    0    0    0    0  0.00000000000E+00  0.00000000000E+00  0.45593999997E+02  0.45594000000E+02  0.51100000000E-03 0.  1.
         11   -1    0    0    0    0 -0.00000000000E+00 -0.00000000000E+00 -0.45593999997E+02  0.45594000000E+02  0.51100000000E-03 0. -1.
    9900012    2    1    2    0    0 -0.33812511323E+02 -0.77500047945E+01  0.21208904333E+02  0.50528854420E+02  0.29999983496E+02 0.  0.
         12    1    1    2    0    0  0.33812511323E+02  0.77500047945E+01 -0.21208904333E+02  0.40659145580E+02  0.00000000000E+00 0. -1.
         11    1    3    3    0    0 -0.14497421045E+02  0.30504354287E+01 -0.38889123713E+01  0.15316788598E+02  0.51100000000E-03 0. -1.
        -11    1    3    3    0    0 -0.12509137999E+02 -0.11948648749E+02  0.20912860524E+02  0.27140310904E+02  0.51100000000E-03 0.  1.
         12    1    3    3    0    0 -0.68059522777E+01  0.11482085252E+01  0.41849561804E+01  0.80717549180E+01  0.00000000000E+00 0. -1.
</event>
<event>
 7    1  0.2891523E-011  0.5052886E+02  0.7816164E-02  0.1300439E+00
        -11   -1    0    0    0    0  0.00000000000E+00  0.00000000000E+00  0.45593999997E+02  0.45594000000E+02  0.51100000000E-03 0. -1.
         11   -1    0    0    0    0 -0.00000000000E+00 -0.00000000000E+00 -0.45593999997E+02  0.45594000000E+02  0.51100000000E-03 0.  1.
    9900012    2    1    2    0    0  0.37725919470E+02 -0.39030775725E+01 -0.14652199531E+02  0.50528856312E+02  0.29999989245E+02 0.  0.
         12    1    1    2    0    0 -0.37725919470E+02  0.39030775725E+01  0.14652199531E+02  0.40659143688E+02  0.00000000000E+00 0. -1.
         11    1    3    3    0    0  0.11585038281E+01  0.46244976208E+01 -0.87099757677E+01  0.99293397313E+01  0.51100000000E-03 0. -1.
        -11    1    3    3    0    0  0.32869547835E+02 -0.39772187212E+01 -0.13240301257E+01  0.33135758625E+02  0.51100000000E-03 0.  1.
        -12    1    3    3    0    0  0.36978678066E+01 -0.45503564720E+01 -0.46181936372E+01  0.74637579548E+01  0.00000000000E+00 0.  1.
</event>
<event>
 7    1  0.2891523E-011  0.5052886E+02  0.7816164E-02  0.1300439E+00
        -11   -1    0    0    0    0  0.00000000000E+00  0.00000000000E+00  0.45593999997E+02  0.45594000000E+02  0.51100000000E-03 0.  1.
         11   -1    0    0    0    0 -0.00000000000E+00 -0.00000000000E+00 -0.45593999997E+02  0.45594000000E+02  0.51100000000E-03 0. -1.
    9900012    2    1    2    0    0 -0.24754832732E+02 -0.32062363753E+01  0.32094916394E+02  0.50528863836E+02  0.30000012115E+02 0.  0.
         12    1    1    2    0    0  0.24754832732E+02  0.32062363753E+01 -0.32094916394E+02  0.40659136164E+02  0.00000000000E+00 0. -1.
         11    1    3    3    0    0 -0.12513641839E+02 -0.63098281002E+01 -0.14411979005E+01  0.14088371601E+02  0.51100000000E-03 0. -1.
        -11    1    3    3    0    0 -0.93223579233E+01  0.59928506324E+00  0.16361115533E+02  0.18840159277E+02  0.51100000000E-03 0.  1.
         12    1    3    3    0    0 -0.29188329698E+01  0.25043066616E+01  0.17174998762E+02  0.17600332958E+02  0.00000000000E+00 0. -1.
</event>
<event>
 7    1  0.2891523E-011  0.5052885E+02  0.7816164E-02  0.1300439E+00
        -11   -1    0    0    0    0  0.00000000000E+00  0.00000000000E+00  0.45593999997E+02  0.45594000000E+02  0.51100000000E-03 0.  1.
         11   -1    0    0    0    0 -0.00000000000E+00 -0.00000000000E+00 -0.45593999997E+02  0.45594000000E+02  0.51100000000E-03 0. -1.
    9900012    2    1    2    0    0 -0.38625864097E+02 -0.72614113501E+01  0.10415407062E+02  0.50528853719E+02  0.29999981365E+02 0.  0.
         12    1    1    2    0    0  0.38625864097E+02  0.72614113501E+01 -0.10415407062E+02  0.40659146281E+02  0.00000000000E+00 0. -1.
         11    1    3    3    0    0 -0.19372997093E+02 -0.16517752589E+01 -0.87851034343E+01  0.21335871683E+02  0.51100000000E-03 0. -1.
        -11    1    3    3    0    0 -0.67529933633E+01 -0.23160665479E+00  0.15968974392E+01  0.69431003665E+01  0.51100000000E-03 0.  1.
         12    1    3    3    0    0 -0.12499873641E+02 -0.53780294364E+01  0.17603613057E+02  0.22249881670E+02  0.00000000000E+00 0. -1.
</event>
<event>
 7    1  0.2891523E-011  0.5052888E+02  0.7816164E-02  0.1300439E+00
        -11   -1    0    0    0    0  0.00000000000E+00  0.00000000000E+00  0.45593999997E+02  0.45594000000E+02  0.51100000000E-03 0.  1.
         11   -1    0    0    0    0 -0.00000000000E+00 -0.00000000000E+00 -0.45593999997E+02  0.45594000000E+02  0.51100000000E-03 0. -1.
    9900012    2    1    2    0    0 -0.14798003290E+02  0.31825111278E+02  0.20526709768E+02  0.50528875279E+02  0.30000046897E+02 0.  0.
         12    1    1    2    0    0  0.14798003290E+02 -0.31825111278E+02 -0.20526709768E+02  0.40659124721E+02  0.00000000000E+00 0. -1.
         11    1    3    3    0    0 -0.16870653627E+01  0.70727947302E+00 -0.24059716331E+01  0.30224383453E+01  0.51100000000E-03 0. -1.
        -11    1    3    3    0    0  0.44556166845E+01  0.20473735036E+02  0.13321901725E+02  0.24829406199E+02  0.51100000000E-03 0.  1.
        -12    1    3    3    0    0 -0.17566554611E+02  0.10644096769E+02  0.96107796763E+01  0.22677030734E+02  0.00000000000E+00 0.  1.
</event>
<event>
 7    1  0.2891523E-011  0.5052886E+02  0.7816164E-02  0.1300439E+00
        -11   -1    0    0    0    0  0.00000000000E+00  0.00000000000E+00  0.45593999997E+02  0.45594000000E+02  0.51100000000E-03 0. -1.
         11   -1    0    0    0    0 -0.00000000000E+00 -0.00000000000E+00 -0.45593999997E+02  0.45594000000E+02  0.51100000000E-03 0.  1.
    9900012    2    1    2    0    0  0.23829362202E+02  0.18631564476E+02 -0.27169693105E+02  0.50528856856E+02  0.29999990900E+02 0.  0.
         12    1    1    2    0    0 -0.23829362202E+02 -0.18631564476E+02  0.27169693105E+02  0.40659143144E+02  0.00000000000E+00 0. -1.
         11    1    3    3    0    0  0.82355950013E+01 -0.46462910718E+01  0.16313615604E+01  0.95955399302E+01  0.51100000000E-03 0. -1.
        -11    1    3    3    0    0  0.78898944555E+01  0.11651144642E+02 -0.89643771365E+01  0.16684114112E+02  0.51100000000E-03 0.  1.
         12    1    3    3    0    0  0.77038727451E+01  0.11626710906E+02 -0.19836677529E+02  0.24249202814E+02  0.00000000000E+00 0. -1.
</event>
<event>
 7    1  0.2891523E-011  0.5052885E+02  0.7816164E-02  0.1300439E+00
        -11   -1    0    0    0    0  0.00000000000E+00  0.00000000000E+00  0.45593999997E+02  0.45594000000E+02  0.51100000000E-03 0.  1.
         11   -1    0    0    0    0 -0.00000000000E+00 -0.00000000000E+00 -0.45593999997E+02  0.45594000000E+02  0.51100000000E-03 0. -1.
    9900012    2    1    2    0    0 -0.30104918924E+02 -0.25747452650E+02  0.91612825637E+01  0.50528849005E+02  0.29999967036E+02 0.  0.
         12    1    1    2    0    0  0.30104918924E+02  0.25747452650E+02 -0.91612825637E+01  0.40659150995E+02  0.00000000000E+00 0. -1.
         11    1    3    3    0    0 -0.15179681472E+02  0.10638692278E+01  0.49342081519E+01  0.15996904628E+02  0.51100000000E-03 0. -1.
        -11    1    3    3    0    0 -0.17673426324E+02 -0.18859742352E+02  0.35926758770E+01  0.26094965029E+02  0.51100000000E-03 0.  1.
         12    1    3    3    0    0  0.27481888720E+01 -0.79515795255E+01  0.63439853486E+00  0.84369793485E+01  0.00000000000E+00 0. -1.
</event>
<event>
 7    1  0.2891523E-011  0.5052886E+02  0.7816164E-02  0.1300439E+00
        -11   -1    0    0    0    0  0.00000000000E+00  0.00000000000E+00  0.45593999997E+02  0.45594000000E+02  0.51100000000E-03 0. -1.
         11   -1    0    0    0    0 -0.00000000000E+00 -0.00000000000E+00 -0.45593999997E+02  0.45594000000E+02  0.51100000000E-03 0.  1.
    9900012    2    1    2    0    0 -0.27112711057E+02  0.29524379563E+02 -0.68101292587E+01  0.50528856502E+02  0.29999989823E+02 0.  0.
         12    1    1    2    0    0  0.27112711057E+02 -0.29524379563E+02  0.68101292587E+01  0.40659143498E+02  0.00000000000E+00 0. -1.
         11    1    3    3    0    0 -0.22978980805E+02  0.19064615017E+02 -0.13389147023E+02  0.32722505449E+02  0.51100000000E-03 0. -1.
        -11    1    3    3    0    0 -0.68578811232E+01  0.83671209442E+01  0.86004993170E+01  0.13820558424E+02  0.51100000000E-03 0.  1.
         12    1    3    3    0    0  0.27241508708E+01  0.20926436021E+01 -0.20214815522E+01  0.39857926286E+01  0.00000000000E+00 0. -1.
</event>
<event>
 7    1  0.2891523E-011  0.5052887E+02  0.7816164E-02  0.1300439E+00
        -11   -1    0    0    0    0  0.00000000000E+00  0.00000000000E+00  0.45593999997E+02  0.45594000000E+02  0.51100000000E-03 0.  1.
         11   -1    0    0    0    0 -0.00000000000E+00 -0.00000000000E+00 -0.45593999997E+02  0.45594000000E+02  0.51100000000E-03 0. -1.
    9900012    2    1    2    0    0 -0.24117687156E+02  0.19524482194E+02  0.26273497781E+02  0.50528869115E+02  0.30000028162E+02 0.  0.
         12    1    1    2    0    0  0.24117687156E+02 -0.19524482194E+02 -0.26273497781E+02  0.40659130885E+02  0.00000000000E+00 0. -1.
         11    1    3    3    0    0  0.20619749205E+01  0.23327921075E+01  0.73883787283E+01  0.80175931602E+01  0.51100000000E-03 0. -1.
        -11    1    3    3    0    0 -0.20131124417E+02  0.21902892480E+02  0.11585657723E+02  0.31925324344E+02  0.51100000000E-03 0.  1.
        -12    1    3    3    0    0 -0.60485376592E+01 -0.47112023941E+01  0.72994613295E+01  0.10585951611E+02  0.00000000000E+00 0.  1.
</event>
<event>
 7    1  0.2891523E-011  0.5052886E+02  0.7816164E-02  0.1300439E+00
        -11   -1    0    0    0    0  0.00000000000E+00  0.00000000000E+00  0.45593999997E+02  0.45594000000E+02  0.51100000000E-03 0.  1.
         11   -1    0    0    0    0 -0.00000000000E+00 -0.00000000000E+00 -0.45593999997E+02  0.45594000000E+02  0.51100000000E-03 0. -1.
    9900012    2    1    2    0    0  0.48068781964E+01 -0.38807607274E+02  0.11136841279E+02  0.50528859650E+02  0.29999999391E+02 0.  0.
         12    1    1    2    0    0 -0.48068781964E+01  0.38807607274E+02 -0.11136841279E+02  0.40659140350E+02  0.00000000000E+00 0. -1.
         11    1    3    3    0    0  0.78693717611E+01 -0.58320955008E+00 -0.35757439463E+01  0.86633186669E+01  0.51100000000E-03 0. -1.
        -11    1    3    3    0    0 -0.20026544821E+01 -0.18678733017E+02  0.11508424357E+02  0.22030649639E+02  0.51100000000E-03 0.  1.
         12    1    3    3    0    0 -0.10598390826E+01 -0.19545664707E+02  0.32041608687E+01  0.19834891343E+02  0.00000000000E+00 0. -1.
</event>
<event>
 7    1  0.2891523E-011  0.5052886E+02  0.7816164E-02  0.1300439E+00
        -11   -1    0    0    0    0  0.00000000000E+00  0.00000000000E+00  0.45593999997E+02  0.45594000000E+02  0.51100000000E-03 0. -1.
         11   -1    0    0    0    0 -0.00000000000E+00 -0.00000000000E+00 -0.45593999997E+02  0.45594000000E+02  0.51100000000E-03 0.  1.
    9900012    2    1    2    0    0 -0.25147809910E+02  0.20445800831E+00 -0.31948579291E+02  0.50528857546E+02  0.29999992998E+02 0.  0.
         12    1    1    2    0    0  0.25147809910E+02 -0.20445800831E+00  0.31948579291E+02  0.40659142454E+02  0.00000000000E+00 0. -1.
         11    1    3    3    0    0 -0.13376330401E+02 -0.17791805132E+01 -0.53350749991E+01  0.14510503913E+02  0.51100000000E-03 0.  1.
        -11    1    3    3    0    0  0.28234472659E+01  0.75332970787E+01 -0.54466012950E+01  0.97153427766E+01  0.51100000000E-03 0. -1.
        -12    1    3    3    0    0 -0.14594926775E+02 -0.55496585572E+01 -0.21166902997E+02  0.26303010857E+02  0.00000000000E+00 0.  1.
</event>
<event>
 7    1  0.2891523E-011  0.5052888E+02  0.7816164E-02  0.1300439E+00
        -11   -1    0    0    0    0  0.00000000000E+00  0.00000000000E+00  0.45593999997E+02  0.45594000000E+02  0.51100000000E-03 0. -1.
         11   -1    0    0    0    0 -0.00000000000E+00 -0.00000000000E+00 -0.45593999997E+02  0.45594000000E+02  0.51100000000E-03 0.  1.
    9900012    2    1    2    0    0  0.12819072720E+02 -0.37904091718E+02 -0.72191028341E+01  0.50528877530E+02  0.30000053739E+02 0.  0.
         12    1    1    2    0    0 -0.12819072720E+02  0.37904091718E+02  0.72191028341E+01  0.40659122470E+02  0.00000000000E+00 0. -1.
         11    1    3    3    0    0  0.23688850734E+01 -0.41524578154E+01  0.78830821136E+01  0.92194092148E+01  0.51100000000E-03 0. -1.
        -11    1    3    3    0    0  0.96228662831E+01 -0.30064690540E+02 -0.69486073002E+01  0.32322876055E+02  0.51100000000E-03 0.  1.
         12    1    3    3    0    0  0.82732136349E+00 -0.36869433621E+01 -0.81535776475E+01  0.89865922600E+01  0.00000000000E+00 0. -1.
</event>
<event>
 7    1  0.2891523E-011  0.5052887E+02  0.7816164E-02  0.1300439E+00
        -11   -1    0    0    0    0  0.00000000000E+00  0.00000000000E+00  0.45593999997E+02  0.45594000000E+02  0.51100000000E-03 0.  1.
         11   -1    0    0    0    0 -0.00000000000E+00 -0.00000000000E+00 -0.45593999997E+02  0.45594000000E+02  0.51100000000E-03 0. -1.
    9900012    2    1    2    0    0  0.37254143259E+02  0.72211720499E+01  0.14599588860E+02  0.50528874202E+02  0.30000043625E+02 0.  0.
         12    1    1    2    0    0 -0.37254143259E+02 -0.72211720499E+01 -0.14599588860E+02  0.40659125798E+02  0.00000000000E+00 0. -1.
         11    1    3    3    0    0  0.11119991748E+02 -0.27306861939E+01  0.19039449912E+01  0.11607578144E+02  0.51100000000E-03 0. -1.
        -11    1    3    3    0    0  0.18186297199E+02  0.12935954091E+02  0.18204685296E+02  0.28800883338E+02  0.51100000000E-03 0.  1.
        -12    1    3    3    0    0  0.79478543120E+01 -0.29840958471E+01 -0.55090414271E+01  0.10120412721E+02  0.00000000000E+00 0.  1.
</event>
<event>
 7    1  0.2891523E-011  0.5052886E+02  0.7816164E-02  0.1300439E+00
        -11   -1    0    0    0    0  0.00000000000E+00  0.00000000000E+00  0.45593999997E+02  0.45594000000E+02  0.51100000000E-03 0.  1.
         11   -1    0    0    0    0 -0.00000000000E+00 -0.00000000000E+00 -0.45593999997E+02  0.45594000000E+02  0.51100000000E-03 0. -1.
    9900012    2    1    2    0    0 -0.12744194704E+02  0.38175527567E+02 -0.57775701405E+01  0.50528859326E+02  0.29999998406E+02 0.  0.
         12    1    1    2    0    0  0.12744194704E+02 -0.38175527567E+02  0.57775701405E+01  0.40659140674E+02  0.00000000000E+00 0. -1.
         11    1    3    3    0    0  0.46235271413E+01  0.21031055324E+01 -0.63177098425E+01  0.81063872361E+01  0.51100000000E-03 0. -1.
        -11    1    3    3    0    0 -0.15455981620E+01  0.19209445650E+02 -0.46397333124E+00  0.19277109414E+02  0.51100000000E-03 0.  1.
         12    1    3    3    0    0 -0.15822123683E+02  0.16862976385E+02  0.10041130332E+01  0.23145362675E+02  0.00000000000E+00 0. -1.
</event>
<event>
 7    1  0.2891523E-011  0.5052886E+02  0.7816164E-02  0.1300439E+00
        -11   -1    0    0    0    0  0.00000000000E+00  0.00000000000E+00  0.45593999997E+02  0.45594000000E+02  0.51100000000E-03 0. -1.
         11   -1    0    0    0    0 -0.00000000000E+00 -0.00000000000E+00 -0.45593999997E+02  0.45594000000E+02  0.51100000000E-03 0.  1.
    9900012    2    1    2    0    0 -0.11382755611E+02 -0.33977006924E+02 -0.19213577914E+02  0.50528859563E+02  0.29999999128E+02 0.  0.
         12    1    1    2    0    0  0.11382755611E+02  0.33977006924E+02  0.19213577914E+02  0.40659140437E+02  0.00000000000E+00 0. -1.
         11    1    3    3    0    0 -0.15430952509E+02 -0.22590250197E+02 -0.20198825158E+02  0.34006267618E+02  0.51100000000E-03 0. -1.
        -11    1    3    3    0    0  0.58410089009E+01 -0.11372810974E+02 -0.20979012357E+01  0.12956056664E+02  0.51100000000E-03 0.  1.
         12    1    3    3    0    0 -0.17928120022E+01 -0.13945753399E-01  0.30831484798E+01  0.35665352806E+01  0.00000000000E+00 0. -1.
</event>
<event>
 7    1  0.2891523E-011  0.5052888E+02  0.7816164E-02  0.1300439E+00
        -11   -1    0    0    0    0  0.00000000000E+00  0.00000000000E+00  0.45593999997E+02  0.45594000000E+02  0.51100000000E-03 0.  1.
         11   -1    0    0    0    0 -0.00000000000E+00 -0.00000000000E+00 -0.45593999997E+02  0.45594000000E+02  0.51100000000E-03 0. -1.
    9900012    2    1    2    0    0  0.21947344678E+02  0.19498682734E+02  0.28129691236E+02  0.50528879304E+02  0.30000059132E+02 0.  0.
         12    1    1    2    0    0 -0.21947344678E+02 -0.19498682734E+02 -0.28129691236E+02  0.40659120696E+02  0.00000000000E+00 0. -1.
         11    1    3    3    0    0  0.59682405672E+01  0.40288770261E+01  0.36976835291E+01  0.80947272530E+01  0.51100000000E-03 0. -1.
        -11    1    3    3    0    0  0.53065220466E+01 -0.25533075561E+01 -0.40005411010E+01  0.71191913213E+01  0.51100000000E-03 0.  1.
        -12    1    3    3    0    0  0.10672582064E+02  0.18023113264E+02  0.28432548808E+02  0.35314960730E+02  0.00000000000E+00 0.  1.
</event>
<event>
 7    1  0.2891523E-011  0.5052886E+02  0.7816164E-02  0.1300439E+00
        -11   -1    0    0    0    0  0.00000000000E+00  0.00000000000E+00  0.45593999997E+02  0.45594000000E+02  0.51100000000E-03 0. -1.
         11   -1    0    0    0    0 -0.00000000000E+00 -0.00000000000E+00 -0.45593999997E+02  0.45594000000E+02  0.51100000000E-03 0.  1.
    9900012    2    1    2    0    0  0.38183813034E+02 -0.11623375662E+02  0.77497771549E+01  0.50528862213E+02  0.30000007183E+02 0.  0.
         12    1    1    2    0    0 -0.38183813034E+02  0.11623375662E+02 -0.77497771549E+01  0.40659137787E+02  0.00000000000E+00 0. -1.
         11    1    3    3    0    0  0.28500620933E+02 -0.18765129190E+01  0.11458166850E+02  0.30774929441E+02  0.51100000000E-03 0. -1.
        -11    1    3    3    0    0  0.11509876440E+02 -0.80968719211E+01 -0.69406720811E+01  0.15691064966E+02  0.51100000000E-03 0.  1.
         12    1    3    3    0    0 -0.18266843382E+01 -0.16499908221E+01  0.32322823863E+01  0.40628678060E+01  0.00000000000E+00 0. -1.
</event>
<event>
 7    1  0.2891523E-011  0.5052886E+02  0.7816164E-02  0.1300439E+00
        -11   -1    0    0    0    0  0.00000000000E+00  0.00000000000E+00  0.45593999997E+02  0.45594000000E+02  0.51100000000E-03 0.  1.
         11   -1    0    0    0    0 -0.00000000000E+00 -0.00000000000E+00 -0.45593999997E+02  0.45594000000E+02  0.51100000000E-03 0. -1.
    9900012    2    1    2    0    0  0.61015137745E+01  0.20605974337E+02  0.34515657816E+02  0.50528864702E+02  0.30000014747E+02 0.  0.
         12    1    1    2    0    0 -0.61015137745E+01 -0.20605974337E+02 -0.34515657816E+02  0.40659135298E+02  0.00000000000E+00 0. -1.
         11    1    3    3    0    0  0.99948954562E+01  0.17050910843E+02  0.34760347090E+02  0.39986413015E+02  0.51100000000E-03 0. -1.
        -11    1    3    3    0    0 -0.19917756512E+01  0.65196620740E+01  0.81193772988E+00  0.68653045775E+01  0.51100000000E-03 0.  1.
         12    1    3    3    0    0 -0.19016060305E+01 -0.29645985797E+01 -0.10566270037E+01  0.36771471087E+01  0.00000000000E+00 0. -1.
</event>
<event>
 7    1  0.2891523E-011  0.5052886E+02  0.7816164E-02  0.1300439E+00
        -11   -1    0    0    0    0  0.00000000000E+00  0.00000000000E+00  0.45593999997E+02  0.45594000000E+02  0.51100000000E-03 0. -1.
         11   -1    0    0    0    0 -0.00000000000E+00 -0.00000000000E+00 -0.45593999997E+02  0.45594000000E+02  0.51100000000E-03 0.  1.
    9900012    2    1    2    0    0 -0.39782825671E+02  0.20410727094E+01 -0.81440891388E+01  0.50528863461E+02  0.30000010977E+02 0.  0.
         12    1    1    2    0    0  0.39782825671E+02 -0.20410727094E+01  0.81440891388E+01  0.40659136539E+02  0.00000000000E+00 0. -1.
         11    1    3    3    0    0 -0.45435483165E+01  0.38662018027E+01  0.38580940668E+01  0.71046631006E+01  0.51100000000E-03 0. -1.
        -11    1    3    3    0    0 -0.29970693243E+02  0.54618846991E+01 -0.14984894428E+02  0.33950282756E+02  0.51100000000E-03 0.  1.
        -12    1    3    3    0    0 -0.52685841111E+01 -0.72870137924E+01  0.29827112222E+01  0.94739176047E+01  0.00000000000E+00 0.  1.
</event>
<event>
 7    1  0.2891523E-011  0.5052887E+02  0.7816164E-02  0.1300439E+00
        -11   -1    0    0    0    0  0.00000000000E+00  0.00000000000E+00  0.45593999997E+02  0.45594000000E+02  0.51100000000E-03 0. -1.
         11   -1    0    0    0    0 -0.00000000000E+00 -0.00000000000E+00 -0.45593999997E+02  0.45594000000E+02  0.51100000000E-03 0.  1.
    9900012    2    1    2    0    0 -0.82195274369E+01  0.16565462166E+02 -0.36210352692E+02  0.50528870519E+02  0.30000032431E+02 0.  0.
         12    1    1    2    0    0  0.82195274369E+01 -0.16565462166E+02  0.36210352692E+02  0.40659129481E+02  0.00000000000E+00 0. -1.
         11    1    3    3    0    0 -0.57325766317E+01 -0.32740537749E+01 -0.22641091826E+02  0.23583911938E+02  0.51100000000E-03 0. -1.
        -11    1    3    3    0    0 -0.92381271690E+00  0.13676422805E+02 -0.21503930187E+01  0.13875235532E+02  0.51100000000E-03 0.  1.
        -12    1    3    3    0    0 -0.15631380883E+01  0.61630931367E+01 -0.11418867846E+02  0.13069723049E+02  0.00000000000E+00 0.  1.
</event>
<event>
 7    1  0.2891523E-011  0.5052887E+02  0.7816164E-02  0.1300439E+00
        -11   -1    0    0    0    0  0.00000000000E+00  0.00000000000E+00  0.45593999997E+02  0.45594000000E+02  0.51100000000E-03 0. -1.
         11   -1    0    0    0    0 -0.00000000000E+00 -0.00000000000E+00 -0.45593999997E+02  0.45594000000E+02  0.51100000000E-03 0.  1.
    9900012    2    1    2    0    0 -0.31188772965E+02  0.24361426952E+02 -0.93244880210E+01  0.50528871148E+02  0.30000034341E+02 0.  0.
         12    1    1    2    0    0  0.31188772965E+02 -0.24361426952E+02  0.93244880210E+01  0.40659128852E+02  0.00000000000E+00 0. -1.
         11    1    3    3    0    0 -0.71082295825E+01  0.11363589638E+02  0.52886166743E+01  0.14409287417E+02  0.51100000000E-03 0. -1.
        -11    1    3    3    0    0 -0.12678685494E+02  0.12199194993E+02 -0.16974990378E+02  0.24448307158E+02  0.51100000000E-03 0.  1.
        -12    1    3    3    0    0 -0.11401857888E+02  0.79864232039E+00  0.23618856823E+01  0.11671276573E+02  0.00000000000E+00 0.  1.
</event>
<event>
 7    1  0.2891523E-011  0.5052885E+02  0.7816164E-02  0.1300439E+00
        -11   -1    0    0    0    0  0.00000000000E+00  0.00000000000E+00  0.45593999997E+02  0.45594000000E+02  0.51100000000E-03 0.  1.
         11   -1    0    0    0    0 -0.00000000000E+00 -0.00000000000E+00 -0.45593999997E+02  0.45594000000E+02  0.51100000000E-03 0. -1.
    9900012    2    1    2    0    0 -0.32898090070E+02 -0.22217542021E+02 -0.87899144129E+01  0.50528854668E+02  0.29999984249E+02 0.  0.
         12    1    1    2    0    0  0.32898090070E+02  0.22217542021E+02  0.87899144129E+01  0.40659145332E+02  0.00000000000E+00 0. -1.
         11    1    3    3    0    0 -0.10678121281E+02  0.46004005222E+01 -0.89490795751E+01  0.14672149964E+02  0.51100000000E-03 0. -1.
        -11    1    3    3    0    0 -0.22677905340E+02 -0.24899142935E+02  0.10435135895E+01  0.33694860593E+02  0.51100000000E-03 0.  1.
        -12    1    3    3    0    0  0.45793655089E+00 -0.19187996085E+01 -0.88434842731E+00  0.21618441116E+01  0.00000000000E+00 0.  1.
</event>
<event>
 7    1  0.2891523E-011  0.5052886E+02  0.7816164E-02  0.1300439E+00
        -11   -1    0    0    0    0  0.00000000000E+00  0.00000000000E+00  0.45593999997E+02  0.45594000000E+02  0.51100000000E-03 0.  1.
         11   -1    0    0    0    0 -0.00000000000E+00 -0.00000000000E+00 -0.45593999997E+02  0.45594000000E+02  0.51100000000E-03 0. -1.
    9900012    2    1    2    0    0  0.37984541876E+02 -0.10891374352E+02  0.95769526596E+01  0.50528862293E+02  0.30000007427E+02 0.  0.
         12    1    1    2    0    0 -0.37984541876E+02  0.10891374352E+02 -0.95769526596E+01  0.40659137707E+02  0.00000000000E+00 0. -1.
         11    1    3    3    0    0  0.10186409428E+02  0.46328628305E+01 -0.66612417463E+01  0.13022998768E+02  0.51100000000E-03 0. -1.
        -11    1    3    3    0    0  0.13290449128E+02 -0.10567529149E+02  0.29842476914E+01  0.17239908494E+02  0.51100000000E-03 0.  1.
         12    1    3    3    0    0  0.14507683320E+02 -0.49567080337E+01  0.13253946714E+02  0.20265955032E+02  0.00000000000E+00 0. -1.
</event>
<event>
 7    1  0.2891523E-011  0.5052892E+02  0.7816164E-02  0.1300439E+00
        -11   -1    0    0    0    0  0.00000000000E+00  0.00000000000E+00  0.45593999997E+02  0.45594000000E+02  0.51100000000E-03 0.  1.
         11   -1    0    0    0    0 -0.00000000000E+00 -0.00000000000E+00 -0.45593999997E+02  0.45594000000E+02  0.51100000000E-03 0. -1.
    9900012    2    1    2    0    0 -0.22036583422E+02 -0.19824734306E+02  0.27830371118E+02  0.50528921607E+02  0.30000187716E+02 0.  0.
         12    1    1    2    0    0  0.22036583422E+02  0.19824734306E+02 -0.27830371118E+02  0.40659078393E+02  0.00000000000E+00 0. -1.
         11    1    3    3    0    0 -0.81693557971E+01 -0.20491498494E+01 -0.13046615490E+01  0.85228828024E+01  0.51100000000E-03 0. -1.
        -11    1    3    3    0    0 -0.58172827447E+00 -0.57430084669E+01  0.21947957806E+02  0.22694347450E+02  0.51100000000E-03 0.  1.
        -12    1    3    3    0    0 -0.13285499350E+02 -0.12032575989E+02  0.71870748611E+01  0.19311691355E+02  0.00000000000E+00 0.  1.
</event>
<event>
 7    1  0.2891523E-011  0.5052886E+02  0.7816164E-02  0.1300439E+00
        -11   -1    0    0    0    0  0.00000000000E+00  0.00000000000E+00  0.45593999997E+02  0.45594000000E+02  0.51100000000E-03 0.  1.
         11   -1    0    0    0    0 -0.00000000000E+00 -0.00000000000E+00 -0.45593999997E+02  0.45594000000E+02  0.51100000000E-03 0. -1.
    9900012    2    1    2    0    0  0.19756430151E+02 -0.28514599281E+02 -0.21207706703E+02  0.50528859231E+02  0.29999998120E+02 0.  0.
         12    1    1    2    0    0 -0.19756430151E+02  0.28514599281E+02  0.21207706703E+02  0.40659140769E+02  0.00000000000E+00 0. -1.
         11    1    3    3    0    0 -0.44537835183E+01 -0.26536344930E+01 -0.91373302899E+01  0.10505654132E+02  0.51100000000E-03 0. -1.
        -11    1    3    3    0    0  0.23466067189E+02 -0.24977029899E+02 -0.72021040209E+01  0.35019689240E+02  0.51100000000E-03 0.  1.
        -12    1    3    3    0    0  0.74414648003E+00 -0.88393488854E+00 -0.48682723920E+01  0.50035158593E+01  0.00000000000E+00 0.  1.
</event>
<event>
 7    1  0.2891523E-011  0.5052881E+02  0.7816164E-02  0.1300439E+00
        -11   -1    0    0    0    0  0.00000000000E+00  0.00000000000E+00  0.45593999997E+02  0.45594000000E+02  0.51100000000E-03 0. -1.
         11   -1    0    0    0    0 -0.00000000000E+00 -0.00000000000E+00 -0.45593999997E+02  0.45594000000E+02  0.51100000000E-03 0.  1.
    9900012    2    1    2    0    0  0.19727359775E+02 -0.29358545769E+02 -0.20051848695E+02  0.50528811992E+02  0.29999854532E+02 0.  0.
         12    1    1    2    0    0 -0.19727359775E+02  0.29358545769E+02  0.20051848695E+02  0.40659188008E+02  0.00000000000E+00 0. -1.
         11    1    3    3    0    0 -0.19508976365E+01 -0.11242111565E+01 -0.37855996105E+01  0.44046131481E+01  0.51100000000E-03 0. -1.
        -11    1    3    3    0    0  0.12451784485E+02 -0.18529256650E+02  0.31421728233E+01  0.22544479129E+02  0.51100000000E-03 0.  1.
        -12    1    3    3    0    0  0.92264729267E+01 -0.97050779616E+01 -0.19408421908E+02  0.23579719716E+02  0.00000000000E+00 0.  1.
</event>
<event>
 7    1  0.2891523E-011  0.5052885E+02  0.7816164E-02  0.1300439E+00
        -11   -1    0    0    0    0  0.00000000000E+00  0.00000000000E+00  0.45593999997E+02  0.45594000000E+02  0.51100000000E-03 0.  1.
         11   -1    0    0    0    0 -0.00000000000E+00 -0.00000000000E+00 -0.45593999997E+02  0.45594000000E+02  0.51100000000E-03 0. -1.
    9900012    2    1    2    0    0  0.17271615697E+02  0.87498148387E+01  0.35753295234E+02  0.50528854798E+02  0.29999984644E+02 0.  0.
         12    1    1    2    0    0 -0.17271615697E+02 -0.87498148387E+01 -0.35753295234E+02  0.40659145202E+02  0.00000000000E+00 0. -1.
         11    1    3    3    0    0  0.50761915118E+01  0.13616126017E+01 -0.18984242382E+01  0.55879982097E+01  0.51100000000E-03 0. -1.
        -11    1    3    3    0    0  0.22069646935E+01  0.85226822069E+01  0.32448125835E+02  0.33621238461E+02  0.51100000000E-03 0.  1.
        -12    1    3    3    0    0  0.99884594915E+01 -0.11344799698E+01  0.52035936370E+01  0.11319618128E+02  0.00000000000E+00 0.  1.
</event>
<event>
 7    1  0.2891523E-011  0.5052886E+02  0.7816164E-02  0.1300439E+00
        -11   -1    0    0    0    0  0.00000000000E+00  0.00000000000E+00  0.45593999997E+02  0.45594000000E+02  0.51100000000E-03 0.  1.
         11   -1    0    0    0    0 -0.00000000000E+00 -0.00000000000E+00 -0.45593999997E+02  0.45594000000E+02  0.51100000000E-03 0. -1.
    9900012    2    1    2    0    0  0.16250433330E+02  0.27604288422E+02  0.25041811835E+02  0.50528860036E+02  0.30000000564E+02 0.  0.
         12    1    1    2    0    0 -0.16250433330E+02 -0.27604288422E+02 -0.25041811835E+02  0.40659139964E+02  0.00000000000E+00 0. -1.
         11    1    3    3    0    0  0.11564135342E+02  0.79598267120E+00  0.94351162931E+01  0.14946044104E+02  0.51100000000E-03 0. -1.
        -11    1    3    3    0    0 -0.51687604407E+01  0.12941599035E+02  0.26183951434E+01  0.14179459209E+02  0.51100000000E-03 0.  1.
        -12    1    3    3    0    0  0.98550584281E+01  0.13866706716E+02  0.12988300399E+02  0.21403356723E+02  0.00000000000E+00 0.  1.
</event>
<event>
 7    1  0.2891523E-011  0.5052887E+02  0.7816164E-02  0.1300439E+00
        -11   -1    0    0    0    0  0.00000000000E+00  0.00000000000E+00  0.45593999997E+02  0.45594000000E+02  0.51100000000E-03 0. -1.
         11   -1    0    0    0    0 -0.00000000000E+00 -0.00000000000E+00 -0.45593999997E+02  0.45594000000E+02  0.51100000000E-03 0.  1.
    9900012    2    1    2    0    0 -0.15255783132E+02 -0.25884751041E+02 -0.27393528764E+02  0.50528872198E+02  0.30000037534E+02 0.  0.
         12    1    1    2    0    0  0.15255783132E+02  0.25884751041E+02  0.27393528764E+02  0.40659127802E+02  0.00000000000E+00 0. -1.
         11    1    3    3    0    0 -0.60345194408E+01 -0.14916372523E+01  0.23698553958E+01  0.66525650266E+01  0.51100000000E-03 0. -1.
        -11    1    3    3    0    0  0.26281040629E+01 -0.13766879007E+02 -0.22201064789E+02  0.26254926520E+02  0.51100000000E-03 0.  1.
         12    1    3    3    0    0 -0.11849367754E+02 -0.10626234781E+02 -0.75623193714E+01  0.17621380652E+02  0.00000000000E+00 0. -1.
</event>
<event>
 7    1  0.2891523E-011  0.5052885E+02  0.7816164E-02  0.1300439E+00
        -11   -1    0    0    0    0  0.00000000000E+00  0.00000000000E+00  0.45593999997E+02  0.45594000000E+02  0.51100000000E-03 0. -1.
         11   -1    0    0    0    0 -0.00000000000E+00 -0.00000000000E+00 -0.45593999997E+02  0.45594000000E+02  0.51100000000E-03 0.  1.
    9900012    2    1    2    0    0 -0.35926041887E+02  0.53050827080E+00 -0.19031663151E+02  0.50528854325E+02  0.29999983207E+02 0.  0.
         12    1    1    2    0    0  0.35926041887E+02 -0.53050827080E+00  0.19031663151E+02  0.40659145675E+02  0.00000000000E+00 0. -1.
         11    1    3    3    0    0 -0.21806746465E+02 -0.65136743528E-01 -0.34186190736E+00  0.21809523242E+02  0.51100000000E-03 0. -1.
        -11    1    3    3    0    0 -0.10040598512E+02  0.68549327760E+01 -0.17261522386E+02  0.21113120972E+02  0.51100000000E-03 0.  1.
        -12    1    3    3    0    0 -0.40786969099E+01 -0.62592877617E+01 -0.14282788577E+01  0.76062101116E+01  0.00000000000E+00 0.  1.
</event>
<event>
 7    1  0.2891523E-011  0.5052885E+02  0.7816164E-02  0.1300439E+00
        -11   -1    0    0    0    0  0.00000000000E+00  0.00000000000E+00  0.45593999997E+02  0.45594000000E+02  0.51100000000E-03 0. -1.
         11   -1    0    0    0    0 -0.00000000000E+00 -0.00000000000E+00 -0.45593999997E+02  0.45594000000E+02  0.51100000000E-03 0.  1.
    9900012    2    1    2    0    0  0.11319017800E+02 -0.38490367534E+02  0.65983024327E+01  0.50528854020E+02  0.29999982278E+02 0.  0.
         12    1    1    2    0    0 -0.11319017800E+02  0.38490367534E+02 -0.65983024327E+01  0.40659145980E+02  0.00000000000E+00 0. -1.
         11    1    3    3    0    0  0.34041713669E+01 -0.23311227202E+01 -0.41025552740E+01  0.58183739885E+01  0.51100000000E-03 0. -1.
        -11    1    3    3    0    0  0.84848178097E+01 -0.39279941768E+02  0.93307099735E+01  0.41254916161E+02  0.51100000000E-03 0.  1.
        -12    1    3    3    0    0 -0.56997137612E+00  0.31206969544E+01  0.13701477333E+01  0.34555638704E+01  0.00000000000E+00 0.  1.
</event>
<event>
 7    1  0.2891523E-011  0.5052887E+02  0.7816164E-02  0.1300439E+00
        -11   -1    0    0    0    0  0.00000000000E+00  0.00000000000E+00  0.45593999997E+02  0.45594000000E+02  0.51100000000E-03 0.  1.
         11   -1    0    0    0    0 -0.00000000000E+00 -0.00000000000E+00 -0.45593999997E+02  0.45594000000E+02  0.51100000000E-03 0. -1.
    9900012    2    1    2    0    0  0.26926316529E+02  0.23939126721E+02  0.18842947885E+02  0.50528868246E+02  0.30000025520E+02 0.  0.
         12    1    1    2    0    0 -0.26926316529E+02 -0.23939126721E+02 -0.18842947885E+02  0.40659131754E+02  0.00000000000E+00 0. -1.
         11    1    3    3    0    0  0.20801736953E+02  0.22338448946E+02  0.12055655837E+02  0.32818552672E+02  0.51100000000E-03 0.  1.
        -11    1    3    3    0    0  0.53364082606E+01  0.19086805903E+01  0.11553957256E+02  0.12869119755E+02  0.51100000000E-03 0. -1.
         12    1    3    3    0    0  0.78817131599E+00 -0.30800281477E+00 -0.47666652082E+01  0.48411958196E+01  0.00000000000E+00 0. -1.
</event>
<event>
 7    1  0.2891523E-011  0.5052886E+02  0.7816164E-02  0.1300439E+00
        -11   -1    0    0    0    0  0.00000000000E+00  0.00000000000E+00  0.45593999997E+02  0.45594000000E+02  0.51100000000E-03 0. -1.
         11   -1    0    0    0    0 -0.00000000000E+00 -0.00000000000E+00 -0.45593999997E+02  0.45594000000E+02  0.51100000000E-03 0.  1.
    9900012    2    1    2    0    0 -0.24516369552E+02  0.28424506472E+02 -0.15625639002E+02  0.50528861563E+02  0.30000005207E+02 0.  0.
         12    1    1    2    0    0  0.24516369552E+02 -0.28424506472E+02  0.15625639002E+02  0.40659138437E+02  0.00000000000E+00 0. -1.
         11    1    3    3    0    0 -0.58258361508E+01  0.16644361507E+02  0.60930514357E+01  0.18657449260E+02  0.51100000000E-03 0. -1.
        -11    1    3    3    0    0 -0.19134831607E+02  0.12216218112E+02 -0.21189270311E+02  0.31054193632E+02  0.51100000000E-03 0.  1.
        -12    1    3    3    0    0  0.44429820577E+00 -0.43607314670E+00 -0.52942012694E+00  0.81721867070E+00  0.00000000000E+00 0.  1.
</event>
<event>
 7    1  0.2891523E-011  0.5052886E+02  0.7816164E-02  0.1300439E+00
        -11   -1    0    0    0    0  0.00000000000E+00  0.00000000000E+00  0.45593999997E+02  0.45594000000E+02  0.51100000000E-03 0.  1.
         11   -1    0    0    0    0 -0.00000000000E+00 -0.00000000000E+00 -0.45593999997E+02  0.45594000000E+02  0.51100000000E-03 0. -1.
    9900012    2    1    2    0    0  0.26562937692E+02 -0.30400443106E+02  0.48362005450E+01  0.50528862828E+02  0.30000009051E+02 0.  0.
         12    1    1    2    0    0 -0.26562937692E+02  0.30400443106E+02 -0.48362005450E+01  0.40659137172E+02  0.00000000000E+00 0. -1.
         11    1    3    3    0    0 -0.30094455544E+01 -0.82214425005E+00  0.49623611692E+01  0.58615452184E+01  0.51100000000E-03 0. -1.
        -11    1    3    3    0    0  0.26090939283E+02 -0.26604645257E+02  0.52216828342E+01  0.37627253870E+02  0.51100000000E-03 0.  1.
         12    1    3    3    0    0  0.34814439633E+01 -0.29736535990E+01 -0.53478434584E+01  0.70400637392E+01  0.00000000000E+00 0. -1.
</event>
<event>
 7    1  0.2891523E-011  0.5052886E+02  0.7816164E-02  0.1300439E+00
        -11   -1    0    0    0    0  0.00000000000E+00  0.00000000000E+00  0.45593999997E+02  0.45594000000E+02  0.51100000000E-03 0.  1.
         11   -1    0    0    0    0 -0.00000000000E+00 -0.00000000000E+00 -0.45593999997E+02  0.45594000000E+02  0.51100000000E-03 0. -1.
    9900012    2    1    2    0    0  0.23939811307E+02 -0.31701861459E+02  0.86627211704E+01  0.50528864207E+02  0.30000013244E+02 0.  0.
         12    1    1    2    0    0 -0.23939811307E+02  0.31701861459E+02 -0.86627211704E+01  0.40659135793E+02  0.00000000000E+00 0. -1.
         11    1    3    3    0    0  0.16430330858E+02 -0.23890134136E+02  0.13985542694E+02  0.32191453615E+02  0.51100000000E-03 0.  1.
        -11    1    3    3    0    0  0.18847633040E+00  0.35800059216E+01 -0.28325800229E+01  0.45689687647E+01  0.51100000000E-03 0. -1.
         12    1    3    3    0    0  0.73210041185E+01 -0.11391733245E+02 -0.24902415012E+01  0.13768441827E+02  0.00000000000E+00 0. -1.
</event>
<event>
 7    1  0.2891523E-011  0.5052886E+02  0.7816164E-02  0.1300439E+00
        -11   -1    0    0    0    0  0.00000000000E+00  0.00000000000E+00  0.45593999997E+02  0.45594000000E+02  0.51100000000E-03 0. -1.
         11   -1    0    0    0    0 -0.00000000000E+00 -0.00000000000E+00 -0.45593999997E+02  0.45594000000E+02  0.51100000000E-03 0.  1.
    9900012    2    1    2    0    0  0.24252024166E+02 -0.21482762946E+02 -0.24566158341E+02  0.50528856925E+02  0.29999991108E+02 0.  0.
         12    1    1    2    0    0 -0.24252024166E+02  0.21482762946E+02  0.24566158341E+02  0.40659143075E+02  0.00000000000E+00 0. -1.
         11    1    3    3    0    0  0.61592329207E+01 -0.14657474954E+02 -0.50594564101E+01  0.16684598336E+02  0.51100000000E-03 0. -1.
        -11    1    3    3    0    0  0.54547810456E+01  0.56645828617E+01 -0.12450447343E+02  0.14726023718E+02  0.51100000000E-03 0.  1.
        -12    1    3    3    0    0  0.12638010200E+02 -0.12489870853E+02 -0.70562545887E+01  0.19118234871E+02  0.00000000000E+00 0.  1.
</event>
<event>
 7    1  0.2891523E-011  0.5052886E+02  0.7816164E-02  0.1300439E+00
        -11   -1    0    0    0    0  0.00000000000E+00  0.00000000000E+00  0.45593999997E+02  0.45594000000E+02  0.51100000000E-03 0.  1.
         11   -1    0    0    0    0 -0.00000000000E+00 -0.00000000000E+00 -0.45593999997E+02  0.45594000000E+02  0.51100000000E-03 0. -1.
    9900012    2    1    2    0    0  0.34356395347E+02  0.94595083822E+00  0.21723472214E+02  0.50528856266E+02  0.29999989105E+02 0.  0.
         12    1    1    2    0    0 -0.34356395347E+02 -0.94595083822E+00 -0.21723472214E+02  0.40659143734E+02  0.00000000000E+00 0. -1.
         11    1    3    3    0    0 -0.13515711990E+01 -0.14731002070E+01  0.14162283198E+01  0.24499942532E+01  0.51100000000E-03 0. -1.
        -11    1    3    3    0    0  0.37803969226E+02  0.24855945391E+01  0.12346642270E+02  0.39846679222E+02  0.51100000000E-03 0.  1.
        -12    1    3    3    0    0 -0.20960026802E+01 -0.66543493939E-01  0.79606016243E+01  0.82321827903E+01  0.00000000000E+00 0.  1.
</event>
<event>
 7    1  0.2891523E-011  0.5052886E+02  0.7816164E-02  0.1300439E+00
        -11   -1    0    0    0    0  0.00000000000E+00  0.00000000000E+00  0.45593999997E+02  0.45594000000E+02  0.51100000000E-03 0. -1.
         11   -1    0    0    0    0 -0.00000000000E+00 -0.00000000000E+00 -0.45593999997E+02  0.45594000000E+02  0.51100000000E-03 0.  1.
    9900012    2    1    2    0    0  0.24069781224E+02 -0.21115703669E+02 -0.25058691277E+02  0.50528864272E+02  0.30000013442E+02 0.  0.
         12    1    1    2    0    0 -0.24069781224E+02  0.21115703669E+02  0.25058691277E+02  0.40659135728E+02  0.00000000000E+00 0. -1.
         11    1    3    3    0    0  0.53971799022E+01 -0.92745372889E+01  0.45223716339E+01  0.11644674245E+02  0.51100000000E-03 0. -1.
        -11    1    3    3    0    0  0.14865528516E+02 -0.49632321427E+01 -0.25737402520E+02  0.30133561026E+02  0.51100000000E-03 0.  1.
        -12    1    3    3    0    0  0.38070728053E+01 -0.68779342373E+01 -0.38436603912E+01  0.87506290014E+01  0.00000000000E+00 0.  1.
</event>
<event>
 7    1  0.2891523E-011  0.5052885E+02  0.7816164E-02  0.1300439E+00
        -11   -1    0    0    0    0  0.00000000000E+00  0.00000000000E+00  0.45593999997E+02  0.45594000000E+02  0.51100000000E-03 0.  1.
         11   -1    0    0    0    0 -0.00000000000E+00 -0.00000000000E+00 -0.45593999997E+02  0.45594000000E+02  0.51100000000E-03 0. -1.
    9900012    2    1    2    0    0 -0.79063790218E+01  0.12097386170E+02  0.38004063160E+02  0.50528850992E+02  0.29999973076E+02 0.  0.
         12    1    1    2    0    0  0.79063790218E+01 -0.12097386170E+02 -0.38004063160E+02  0.40659149008E+02  0.00000000000E+00 0. -1.
         11    1    3    3    0    0 -0.10815208565E+02  0.72844826604E+01  0.94744168157E+01  0.16118219449E+02  0.51100000000E-03 0. -1.
        -11    1    3    3    0    0  0.39541183173E+01  0.77071540900E+01  0.29835683836E+02  0.31067721289E+02  0.51100000000E-03 0.  1.
        -12    1    3    3    0    0 -0.10452887742E+01 -0.28942505800E+01 -0.13060374925E+01  0.33429102550E+01  0.00000000000E+00 0.  1.
</event>
<event>
 7    1  0.2891523E-011  0.5052885E+02  0.7816164E-02  0.1300439E+00
        -11   -1    0    0    0    0  0.00000000000E+00  0.00000000000E+00  0.45593999997E+02  0.45594000000E+02  0.51100000000E-03 0. -1.
         11   -1    0    0    0    0 -0.00000000000E+00 -0.00000000000E+00 -0.45593999997E+02  0.45594000000E+02  0.51100000000E-03 0.  1.
    9900012    2    1    2    0    0 -0.97355483201E+01  0.18177246807E+02 -0.35042447243E+02  0.50528852058E+02  0.29999976315E+02 0.  0.
         12    1    1    2    0    0  0.97355483201E+01 -0.18177246807E+02  0.35042447243E+02  0.40659147942E+02  0.00000000000E+00 0. -1.
         11    1    3    3    0    0 -0.52377018178E+01  0.66711639122E+01  0.11970107201E+01  0.85656747078E+01  0.51100000000E-03 0. -1.
        -11    1    3    3    0    0 -0.41868866132E+01 -0.18747508972E+01 -0.21788242485E+02  0.22265943081E+02  0.51100000000E-03 0.  1.
         12    1    3    3    0    0 -0.31095988910E+00  0.13380833792E+02 -0.14451215478E+02  0.19697234269E+02  0.00000000000E+00 0. -1.
</event>
<event>
 7    1  0.2891523E-011  0.5052886E+02  0.7816164E-02  0.1300439E+00
        -11   -1    0    0    0    0  0.00000000000E+00  0.00000000000E+00  0.45593999997E+02  0.45594000000E+02  0.51100000000E-03 0.  1.
         11   -1    0    0    0    0 -0.00000000000E+00 -0.00000000000E+00 -0.45593999997E+02  0.45594000000E+02  0.51100000000E-03 0. -1.
    9900012    2    1    2    0    0 -0.10272509272E+02  0.82263833384E+01  0.38470352918E+02  0.50528857324E+02  0.29999992321E+02 0.  0.
         12    1    1    2    0    0  0.10272509272E+02 -0.82263833384E+01 -0.38470352918E+02  0.40659142676E+02  0.00000000000E+00 0. -1.
         11    1    3    3    0    0  0.33942333120E+01  0.12894027706E+02  0.12773892455E+02  0.18464807039E+02  0.51100000000E-03 0. -1.
        -11    1    3    3    0    0 -0.11596055849E+02 -0.27715010312E+01  0.85061650864E+01  0.14645974667E+02  0.51100000000E-03 0.  1.
         12    1    3    3    0    0 -0.20706867349E+01 -0.18961433368E+01  0.17190295376E+02  0.17418075618E+02  0.00000000000E+00 0. -1.
</event>
<event>
 7    1  0.2891523E-011  0.5052885E+02  0.7816164E-02  0.1300439E+00
        -11   -1    0    0    0    0  0.00000000000E+00  0.00000000000E+00  0.45593999997E+02  0.45594000000E+02  0.51100000000E-03 0.  1.
         11   -1    0    0    0    0 -0.00000000000E+00 -0.00000000000E+00 -0.45593999997E+02  0.45594000000E+02  0.51100000000E-03 0. -1.
    9900012    2    1    2    0    0 -0.19772359798E+02 -0.79377888250E+00  0.35518865857E+02  0.50528854305E+02  0.29999983144E+02 0.  0.
         12    1    1    2    0    0  0.19772359798E+02  0.79377888250E+00 -0.35518865857E+02  0.40659145695E+02  0.00000000000E+00 0. -1.
         11    1    3    3    0    0 -0.88852861192E+01 -0.14093962908E+02  0.24303985486E+02  0.29466452291E+02  0.51100000000E-03 0. -1.
        -11    1    3    3    0    0 -0.85656468903E+01  0.68406427635E+01  0.70644142693E+01  0.13041113806E+02  0.51100000000E-03 0.  1.
         12    1    3    3    0    0 -0.23214267885E+01  0.64595412617E+01  0.41504661019E+01  0.80212882075E+01  0.00000000000E+00 0. -1.
</event>
<event>
 7    1  0.2891523E-011  0.5052886E+02  0.7816164E-02  0.1300439E+00
        -11   -1    0    0    0    0  0.00000000000E+00  0.00000000000E+00  0.45593999997E+02  0.45594000000E+02  0.51100000000E-03 0. -1.
         11   -1    0    0    0    0 -0.00000000000E+00 -0.00000000000E+00 -0.45593999997E+02  0.45594000000E+02  0.51100000000E-03 0.  1.
    9900012    2    1    2    0    0  0.15585792864E+02  0.35622219567E+02 -0.11887233463E+02  0.50528858525E+02  0.29999995972E+02 0.  0.
         12    1    1    2    0    0 -0.15585792864E+02 -0.35622219567E+02  0.11887233463E+02  0.40659141475E+02  0.00000000000E+00 0. -1.
         11    1    3    3    0    0  0.20167620839E+02  0.19535969297E+02 -0.13757426887E+02  0.31267456268E+02  0.51100000000E-03 0. -1.
        -11    1    3    3    0    0 -0.67786819865E+00  0.11890543252E+01 -0.28436383815E+01  0.31558889380E+01  0.51100000000E-03 0.  1.
         12    1    3    3    0    0 -0.39039597765E+01  0.14897195945E+02  0.47138318049E+01  0.16105513318E+02  0.00000000000E+00 0. -1.
</event>
<event>
 7    1  0.2891523E-011  0.5052887E+02  0.7816164E-02  0.1300439E+00
        -11   -1    0    0    0    0  0.00000000000E+00  0.00000000000E+00  0.45593999997E+02  0.45594000000E+02  0.51100000000E-03 0. -1.
         11   -1    0    0    0    0 -0.00000000000E+00 -0.00000000000E+00 -0.45593999997E+02  0.45594000000E+02  0.51100000000E-03 0.  1.
    9900012    2    1    2    0    0 -0.29567807261E+02  0.10922354470E+01 -0.27887569498E+02  0.50528871419E+02  0.30000035164E+02 0.  0.
         12    1    1    2    0    0  0.29567807261E+02 -0.10922354470E+01  0.27887569498E+02  0.40659128581E+02  0.00000000000E+00 0. -1.
         11    1    3    3    0    0 -0.90313819369E+01 -0.22783354978E+01 -0.19404644655E+00  0.93163472786E+01  0.51100000000E-03 0. -1.
        -11    1    3    3    0    0 -0.10425619455E+02  0.12322870193E+02 -0.19889666889E+02  0.25615337594E+02  0.51100000000E-03 0.  1.
        -12    1    3    3    0    0 -0.10110805869E+02 -0.89522992486E+01 -0.78038561627E+01  0.15597186546E+02  0.00000000000E+00 0.  1.
</event>
<event>
 7    1  0.2891523E-011  0.5052885E+02  0.7816164E-02  0.1300439E+00
        -11   -1    0    0    0    0  0.00000000000E+00  0.00000000000E+00  0.45593999997E+02  0.45594000000E+02  0.51100000000E-03 0.  1.
         11   -1    0    0    0    0 -0.00000000000E+00 -0.00000000000E+00 -0.45593999997E+02  0.45594000000E+02  0.51100000000E-03 0. -1.
    9900012    2    1    2    0    0  0.19300019950E+01  0.74574098959E+01  0.39922778015E+02  0.50528854971E+02  0.29999985169E+02 0.  0.
         12    1    1    2    0    0 -0.19300019950E+01 -0.74574098959E+01 -0.39922778015E+02  0.40659145029E+02  0.00000000000E+00 0. -1.
         11    1    3    3    0    0  0.19765208932E+01 -0.86067989226E+01  0.21730571794E+02  0.23456371700E+02  0.51100000000E-03 0. -1.
        -11    1    3    3    0    0  0.21373713119E+00  0.10935981135E+02  0.18951801343E+02  0.21881776468E+02  0.51100000000E-03 0.  1.
         12    1    3    3    0    0 -0.26025602931E+00  0.51282276833E+01 -0.75959512269E+00  0.51907068038E+01  0.00000000000E+00 0. -1.
</event>
<event>
 7    1  0.2891523E-011  0.5052885E+02  0.7816164E-02  0.1300439E+00
        -11   -1    0    0    0    0  0.00000000000E+00  0.00000000000E+00  0.45593999997E+02  0.45594000000E+02  0.51100000000E-03 0.  1.
         11   -1    0    0    0    0 -0.00000000000E+00 -0.00000000000E+00 -0.45593999997E+02  0.45594000000E+02  0.51100000000E-03 0. -1.
    9900012    2    1    2    0    0  0.26772205773E+02  0.29278587418E+02 -0.88982833419E+01  0.50528854293E+02  0.29999983110E+02 0.  0.
         12    1    1    2    0    0 -0.26772205773E+02 -0.29278587418E+02  0.88982833419E+01  0.40659145707E+02  0.00000000000E+00 0. -1.
         11    1    3    3    0    0  0.20707912363E+02  0.23232526741E+02 -0.12290307283E+02  0.33460717066E+02  0.51100000000E-03 0. -1.
        -11    1    3    3    0    0  0.96307602807E+01  0.14316411426E-01  0.28320718071E+01  0.10038544692E+02  0.51100000000E-03 0.  1.
         12    1    3    3    0    0 -0.35664668707E+01  0.60317442656E+01  0.55995213398E+00  0.70295925357E+01  0.00000000000E+00 0. -1.
</event>
<event>
 7    1  0.2891523E-011  0.5052887E+02  0.7816164E-02  0.1300439E+00
        -11   -1    0    0    0    0  0.00000000000E+00  0.00000000000E+00  0.45593999997E+02  0.45594000000E+02  0.51100000000E-03 0.  1.
         11   -1    0    0    0    0 -0.00000000000E+00 -0.00000000000E+00 -0.45593999997E+02  0.45594000000E+02  0.51100000000E-03 0. -1.
    9900012    2    1    2    0    0  0.21333684393E+02 -0.46699959222E+01  0.34296210854E+02  0.50528867808E+02  0.30000024188E+02 0.  0.
         12    1    1    2    0    0 -0.21333684393E+02  0.46699959222E+01 -0.34296210854E+02  0.40659132192E+02  0.00000000000E+00 0. -1.
         11    1    3    3    0    0  0.17348470817E+02 -0.10054173121E+02  0.60377188849E+01  0.20940627652E+02  0.51100000000E-03 0. -1.
        -11    1    3    3    0    0  0.12989765236E+01  0.58861791896E+01  0.20084383518E+02  0.20969427913E+02  0.51100000000E-03 0.  1.
         12    1    3    3    0    0  0.26862370521E+01 -0.50200199033E+00  0.81741084513E+01  0.86188122426E+01  0.00000000000E+00 0. -1.
</event>
<event>
 7    1  0.2891523E-011  0.5052885E+02  0.7816164E-02  0.1300439E+00
        -11   -1    0    0    0    0  0.00000000000E+00  0.00000000000E+00  0.45593999997E+02  0.45594000000E+02  0.51100000000E-03 0.  1.
         11   -1    0    0    0    0 -0.00000000000E+00 -0.00000000000E+00 -0.45593999997E+02  0.45594000000E+02  0.51100000000E-03 0. -1.
    9900012    2    1    2    0    0  0.11902484192E+02  0.29051541021E+02  0.25836119795E+02  0.50528852792E+02  0.29999978546E+02 0.  0.
         12    1    1    2    0    0 -0.11902484192E+02 -0.29051541021E+02 -0.25836119795E+02  0.40659147208E+02  0.00000000000E+00 0. -1.
         11    1    3    3    0    0 -0.58085272786E+01  0.37784898550E+01 -0.16732493354E+01  0.71285158575E+01  0.51100000000E-03 0. -1.
        -11    1    3    3    0    0  0.17030377760E+02  0.13583917893E+02  0.19256318244E+02  0.29075116243E+02  0.51100000000E-03 0.  1.
        -12    1    3    3    0    0  0.68063371080E+00  0.11689133273E+02  0.82530508861E+01  0.14325220691E+02  0.00000000000E+00 0.  1.
</event>
<event>
 7    1  0.2891523E-011  0.5052883E+02  0.7816164E-02  0.1300439E+00
        -11   -1    0    0    0    0  0.00000000000E+00  0.00000000000E+00  0.45593999997E+02  0.45594000000E+02  0.51100000000E-03 0. -1.
         11   -1    0    0    0    0 -0.00000000000E+00 -0.00000000000E+00 -0.45593999997E+02  0.45594000000E+02  0.51100000000E-03 0.  1.
    9900012    2    1    2    0    0 -0.82514476985E+00  0.30121328674E+02 -0.27298227122E+02  0.50528825033E+02  0.29999894170E+02 0.  0.
         12    1    1    2    0    0  0.82514476985E+00 -0.30121328674E+02  0.27298227122E+02  0.40659174967E+02  0.00000000000E+00 0. -1.
         11    1    3    3    0    0 -0.85793620828E+01  0.63622138715E+01  0.21982859230E+01  0.10904846645E+02  0.51100000000E-03 0. -1.
        -11    1    3    3    0    0  0.21185004502E+01  0.12682388286E+02 -0.91475961021E+01  0.15780035852E+02  0.51100000000E-03 0.  1.
         12    1    3    3    0    0  0.56357168627E+01  0.11076726517E+02 -0.20348916943E+02  0.23843942536E+02  0.00000000000E+00 0. -1.
</event>
<event>
 7    1  0.2891523E-011  0.5052886E+02  0.7816164E-02  0.1300439E+00
        -11   -1    0    0    0    0  0.00000000000E+00  0.00000000000E+00  0.45593999997E+02  0.45594000000E+02  0.51100000000E-03 0. -1.
         11   -1    0    0    0    0 -0.00000000000E+00 -0.00000000000E+00 -0.45593999997E+02  0.45594000000E+02  0.51100000000E-03 0.  1.
    9900012    2    1    2    0    0  0.10687439367E+01  0.32939954361E+02 -0.23811400011E+02  0.50528861084E+02  0.30000003750E+02 0.  0.
         12    1    1    2    0    0 -0.10687439367E+01 -0.32939954361E+02  0.23811400011E+02  0.40659138916E+02  0.00000000000E+00 0. -1.
         11    1    3    3    0    0  0.74240005736E+01  0.39672947230E+01  0.22500621155E+01  0.87130931201E+01  0.51100000000E-03 0. -1.
        -11    1    3    3    0    0 -0.10657607022E+02  0.22787566248E+02 -0.19613245366E+02  0.31898858240E+02  0.51100000000E-03 0.  1.
         12    1    3    3    0    0  0.43023503848E+01  0.61850933907E+01 -0.64482167603E+01  0.99169097240E+01  0.00000000000E+00 0. -1.
</event>
<event>
 7    1  0.2891523E-011  0.5052886E+02  0.7816164E-02  0.1300439E+00
        -11   -1    0    0    0    0  0.00000000000E+00  0.00000000000E+00  0.45593999997E+02  0.45594000000E+02  0.51100000000E-03 0.  1.
         11   -1    0    0    0    0 -0.00000000000E+00 -0.00000000000E+00 -0.45593999997E+02  0.45594000000E+02  0.51100000000E-03 0. -1.
    9900012    2    1    2    0    0  0.27821093406E+02  0.16843964297E+01  0.29602616788E+02  0.50528863876E+02  0.30000012239E+02 0.  0.
         12    1    1    2    0    0 -0.27821093406E+02 -0.16843964297E+01 -0.29602616788E+02  0.40659136124E+02  0.00000000000E+00 0. -1.
         11    1    3    3    0    0  0.27862464352E+02  0.28163244848E+01  0.21311975504E+02  0.35191602741E+02  0.51100000000E-03 0. -1.
        -11    1    3    3    0    0 -0.26019909920E+01 -0.15408363063E+00  0.11106125000E+02  0.11407896899E+02  0.51100000000E-03 0.  1.
        -12    1    3    3    0    0  0.25606200463E+01 -0.97784442444E+00 -0.28154837165E+01  0.39293642358E+01  0.00000000000E+00 0.  1.
</event>
<event>
 7    1  0.2891523E-011  0.5052886E+02  0.7816164E-02  0.1300439E+00
        -11   -1    0    0    0    0  0.00000000000E+00  0.00000000000E+00  0.45593999997E+02  0.45594000000E+02  0.51100000000E-03 0.  1.
         11   -1    0    0    0    0 -0.00000000000E+00 -0.00000000000E+00 -0.45593999997E+02  0.45594000000E+02  0.51100000000E-03 0. -1.
    9900012    2    1    2    0    0 -0.39040915061E+02  0.66626419757E+01 -0.91968401343E+01  0.50528859388E+02  0.29999998594E+02 0.  0.
         12    1    1    2    0    0  0.39040915061E+02 -0.66626419757E+01  0.91968401343E+01  0.40659140612E+02  0.00000000000E+00 0. -1.
         11    1    3    3    0    0 -0.16022772730E+02  0.12372914115E+02 -0.14536864037E+02  0.24922653670E+02  0.51100000000E-03 0. -1.
        -11    1    3    3    0    0 -0.20416262261E+02 -0.39363840057E+01  0.71338843942E+01  0.21982065203E+02  0.51100000000E-03 0.  1.
         12    1    3    3    0    0 -0.26018800696E+01 -0.17738881340E+01 -0.17938604912E+01  0.36241405147E+01  0.00000000000E+00 0. -1.
</event>
<event>
 7    1  0.2891523E-011  0.5052884E+02  0.7816164E-02  0.1300439E+00
        -11   -1    0    0    0    0  0.00000000000E+00  0.00000000000E+00  0.45593999997E+02  0.45594000000E+02  0.51100000000E-03 0. -1.
         11   -1    0    0    0    0 -0.00000000000E+00 -0.00000000000E+00 -0.45593999997E+02  0.45594000000E+02  0.51100000000E-03 0.  1.
    9900012    2    1    2    0    0  0.36391447086E+02  0.13306294084E+02  0.12319587354E+02  0.50528842165E+02  0.29999946244E+02 0.  0.
         12    1    1    2    0    0 -0.36391447086E+02 -0.13306294084E+02 -0.12319587354E+02  0.40659157835E+02  0.00000000000E+00 0. -1.
         11    1    3    3    0    0  0.28914063321E+02  0.82441031129E+01  0.10567093763E+02  0.31869291876E+02  0.51100000000E-03 0.  1.
        -11    1    3    3    0    0 -0.33034237477E+01 -0.30939817003E+01  0.24049621370E+01  0.51253462673E+01  0.51100000000E-03 0. -1.
         12    1    3    3    0    0  0.10780807513E+02  0.81561726715E+01 -0.65246854558E+00  0.13534204021E+02  0.00000000000E+00 0. -1.
</event>
<event>
 7    1  0.2891523E-011  0.5052887E+02  0.7816164E-02  0.1300439E+00
        -11   -1    0    0    0    0  0.00000000000E+00  0.00000000000E+00  0.45593999997E+02  0.45594000000E+02  0.51100000000E-03 0.  1.
         11   -1    0    0    0    0 -0.00000000000E+00 -0.00000000000E+00 -0.45593999997E+02  0.45594000000E+02  0.51100000000E-03 0. -1.
    9900012    2    1    2    0    0  0.19536880054E+01 -0.13680516419E+02  0.38238609066E+02  0.50528872494E+02  0.30000038432E+02 0.  0.
         12    1    1    2    0    0 -0.19536880054E+01  0.13680516419E+02 -0.38238609066E+02  0.40659127506E+02  0.00000000000E+00 0. -1.
         11    1    3    3    0    0  0.14038799147E+02 -0.86254729155E+01  0.23410654702E+02  0.28627703687E+02  0.51100000000E-03 0. -1.
        -11    1    3    3    0    0 -0.84438871527E+01 -0.64005383969E+01  0.14563856347E+02  0.18010331313E+02  0.51100000000E-03 0.  1.
         12    1    3    3    0    0 -0.36412239891E+01  0.13454948934E+01  0.26409801575E+00  0.38908374945E+01  0.00000000000E+00 0. -1.
</event>
<event>
 7    1  0.2891523E-011  0.5052886E+02  0.7816164E-02  0.1300439E+00
        -11   -1    0    0    0    0  0.00000000000E+00  0.00000000000E+00  0.45593999997E+02  0.45594000000E+02  0.51100000000E-03 0.  1.
         11   -1    0    0    0    0 -0.00000000000E+00 -0.00000000000E+00 -0.45593999997E+02  0.45594000000E+02  0.51100000000E-03 0. -1.
    9900012    2    1    2    0    0 -0.36460646660E+01  0.30448223543E+02  0.26697901338E+02  0.50528855391E+02  0.29999986447E+02 0.  0.
         12    1    1    2    0    0  0.36460646660E+01 -0.30448223543E+02 -0.26697901338E+02  0.40659144609E+02  0.00000000000E+00 0. -1.
         11    1    3    3    0    0 -0.17804633155E+00  0.40028771226E+01 -0.65899164474E+01  0.77124396140E+01  0.51100000000E-03 0. -1.
        -11    1    3    3    0    0 -0.35653985279E+01  0.16015603362E+02  0.18610801754E+02  0.24810754924E+02  0.51100000000E-03 0.  1.
        -12    1    3    3    0    0  0.97380193533E-01  0.10429743058E+02  0.14677016032E+02  0.18005660853E+02  0.00000000000E+00 0.  1.
</event>
<event>
 7    1  0.2891523E-011  0.5052886E+02  0.7816164E-02  0.1300439E+00
        -11   -1    0    0    0    0  0.00000000000E+00  0.00000000000E+00  0.45593999997E+02  0.45594000000E+02  0.51100000000E-03 0.  1.
         11   -1    0    0    0    0 -0.00000000000E+00 -0.00000000000E+00 -0.45593999997E+02  0.45594000000E+02  0.51100000000E-03 0. -1.
    9900012    2    1    2    0    0 -0.25941553278E+02  0.15199469215E+02  0.27371111656E+02  0.50528858295E+02  0.29999995275E+02 0.  0.
         12    1    1    2    0    0  0.25941553278E+02 -0.15199469215E+02 -0.27371111656E+02  0.40659141705E+02  0.00000000000E+00 0. -1.
         11    1    3    3    0    0  0.32504229138E+00 -0.24018943768E+01  0.11751498153E+02  0.11998852370E+02  0.51100000000E-03 0. -1.
        -11    1    3    3    0    0 -0.24074046298E+02  0.84615136893E+01  0.91032665500E+01  0.27092921238E+02  0.51100000000E-03 0.  1.
         12    1    3    3    0    0 -0.21925492716E+01  0.91398499026E+01  0.65163469527E+01  0.11437084688E+02  0.00000000000E+00 0. -1.
</event>
<event>
 7    1  0.2891523E-011  0.5052886E+02  0.7816164E-02  0.1300439E+00
        -11   -1    0    0    0    0  0.00000000000E+00  0.00000000000E+00  0.45593999997E+02  0.45594000000E+02  0.51100000000E-03 0.  1.
         11   -1    0    0    0    0 -0.00000000000E+00 -0.00000000000E+00 -0.45593999997E+02  0.45594000000E+02  0.51100000000E-03 0. -1.
    9900012    2    1    2    0    0 -0.12697248021E+02  0.22989191174E+02  0.31039370823E+02  0.50528861307E+02  0.30000004430E+02 0.  0.
         12    1    1    2    0    0  0.12697248021E+02 -0.22989191174E+02 -0.31039370823E+02  0.40659138693E+02  0.00000000000E+00 0. -1.
         11    1    3    3    0    0 -0.91649170813E+01  0.88367267713E+00  0.13440556657E+01  0.93050023321E+01  0.51100000000E-03 0. -1.
        -11    1    3    3    0    0 -0.10299375926E+02  0.16937530805E+02  0.23193419528E+02  0.30510519561E+02  0.51100000000E-03 0.  1.
         12    1    3    3    0    0  0.67670449863E+01  0.51679876925E+01  0.65018956292E+01  0.10713339414E+02  0.00000000000E+00 0. -1.
</event>
<event>
 7    1  0.2891523E-011  0.5052886E+02  0.7816164E-02  0.1300439E+00
        -11   -1    0    0    0    0  0.00000000000E+00  0.00000000000E+00  0.45593999997E+02  0.45594000000E+02  0.51100000000E-03 0. -1.
         11   -1    0    0    0    0 -0.00000000000E+00 -0.00000000000E+00 -0.45593999997E+02  0.45594000000E+02  0.51100000000E-03 0.  1.
    9900012    2    1    2    0    0  0.18427516621E+02 -0.33175789187E+02  0.14593115025E+02  0.50528863719E+02  0.30000011760E+02 0.  0.
         12    1    1    2    0    0 -0.18427516621E+02  0.33175789187E+02 -0.14593115025E+02  0.40659136281E+02  0.00000000000E+00 0. -1.
         11    1    3    3    0    0 -0.33742708466E+01  0.15888856124E+01  0.17043993641E+00  0.37335387060E+01  0.51100000000E-03 0. -1.
        -11    1    3    3    0    0  0.12358013498E+02 -0.26265386617E+02  0.21119016824E+01  0.29104143360E+02  0.51100000000E-03 0.  1.
        -12    1    3    3    0    0  0.94437739701E+01 -0.84992881821E+01  0.12310773406E+02  0.17691181652E+02  0.00000000000E+00 0.  1.
</event>
<event>
 7    1  0.2891523E-011  0.5052874E+02  0.7816164E-02  0.1300439E+00
        -11   -1    0    0    0    0  0.00000000000E+00  0.00000000000E+00  0.45593999997E+02  0.45594000000E+02  0.51100000000E-03 0.  1.
         11   -1    0    0    0    0 -0.00000000000E+00 -0.00000000000E+00 -0.45593999997E+02  0.45594000000E+02  0.51100000000E-03 0. -1.
    9900012    2    1    2    0    0  0.32274754017E+02 -0.22782978694E+02 -0.96151570609E+01  0.50528743854E+02  0.29999647415E+02 0.  0.
         12    1    1    2    0    0 -0.32274754017E+02  0.22782978694E+02  0.96151570609E+01  0.40659256146E+02  0.00000000000E+00 0. -1.
         11    1    3    3    0    0  0.99144512674E+01 -0.51267015959E+01 -0.11060304281E+02  0.15713361965E+02  0.51100000000E-03 0. -1.
        -11    1    3    3    0    0  0.14704171445E+02 -0.69731102491E+01  0.10030328474E+02  0.19116600482E+02  0.51100000000E-03 0.  1.
        -12    1    3    3    0    0  0.76561313053E+01 -0.10683166849E+02 -0.85851812536E+01  0.15698781407E+02  0.00000000000E+00 0.  1.
</event>
<event>
 7    1  0.2891523E-011  0.5052886E+02  0.7816164E-02  0.1300439E+00
        -11   -1    0    0    0    0  0.00000000000E+00  0.00000000000E+00  0.45593999997E+02  0.45594000000E+02  0.51100000000E-03 0. -1.
         11   -1    0    0    0    0 -0.00000000000E+00 -0.00000000000E+00 -0.45593999997E+02  0.45594000000E+02  0.51100000000E-03 0.  1.
    9900012    2    1    2    0    0 -0.81067077518E+01  0.34376850632E+02 -0.20141473816E+02  0.50528861576E+02  0.30000005246E+02 0.  0.
         12    1    1    2    0    0  0.81067077518E+01 -0.34376850632E+02  0.20141473816E+02  0.40659138424E+02  0.00000000000E+00 0. -1.
         11    1    3    3    0    0  0.16624552638E+01  0.12631626517E+01  0.85469429605E+00  0.22560673726E+01  0.51100000000E-03 0. -1.
        -11    1    3    3    0    0 -0.19499402601E+01  0.34884831431E+02 -0.19820591029E+02  0.40169759272E+02  0.51100000000E-03 0.  1.
        -12    1    3    3    0    0 -0.78192227554E+01 -0.17711434508E+01 -0.11755770829E+01  0.81030349314E+01  0.00000000000E+00 0.  1.
</event>
<event>
 7    1  0.2891523E-011  0.5052885E+02  0.7816164E-02  0.1300439E+00
        -11   -1    0    0    0    0  0.00000000000E+00  0.00000000000E+00  0.45593999997E+02  0.45594000000E+02  0.51100000000E-03 0.  1.
         11   -1    0    0    0    0 -0.00000000000E+00 -0.00000000000E+00 -0.45593999997E+02  0.45594000000E+02  0.51100000000E-03 0. -1.
    9900012    2    1    2    0    0  0.17341294473E+02 -0.15122150599E+02  0.33522628045E+02  0.50528849446E+02  0.29999968375E+02 0.  0.
         12    1    1    2    0    0 -0.17341294473E+02  0.15122150599E+02 -0.33522628045E+02  0.40659150554E+02  0.00000000000E+00 0. -1.
         11    1    3    3    0    0  0.27056345904E+01  0.10569896470E+01 -0.12443298711E+01  0.31600700530E+01  0.51100000000E-03 0. -1.
        -11    1    3    3    0    0 -0.15898917753E+01 -0.15585351417E+02  0.20137791521E+02  0.25513948778E+02  0.51100000000E-03 0.  1.
        -12    1    3    3    0    0  0.16225551658E+02 -0.59378882923E+00  0.14629166396E+02  0.21854830615E+02  0.00000000000E+00 0.  1.
</event>
<event>
 7    1  0.2891523E-011  0.5052885E+02  0.7816164E-02  0.1300439E+00
        -11   -1    0    0    0    0  0.00000000000E+00  0.00000000000E+00  0.45593999997E+02  0.45594000000E+02  0.51100000000E-03 0.  1.
         11   -1    0    0    0    0 -0.00000000000E+00 -0.00000000000E+00 -0.45593999997E+02  0.45594000000E+02  0.51100000000E-03 0. -1.
    9900012    2    1    2    0    0  0.28627362206E+01  0.22500730898E+02  0.33744453100E+02  0.50528852633E+02  0.29999978063E+02 0.  0.
         12    1    1    2    0    0 -0.28627362206E+01 -0.22500730898E+02 -0.33744453100E+02  0.40659147367E+02  0.00000000000E+00 0. -1.
         11    1    3    3    0    0 -0.36776881604E+01  0.14691622015E+02  0.77758850597E+01  0.17024498123E+02  0.51100000000E-03 0. -1.
        -11    1    3    3    0    0  0.13006924185E+02  0.63419214047E+01  0.16525079828E+02  0.21965388853E+02  0.51100000000E-03 0.  1.
        -12    1    3    3    0    0 -0.64664998042E+01  0.14671874781E+01  0.94434882122E+01  0.11538965657E+02  0.00000000000E+00 0.  1.
</event>
<event>
 7    1  0.2891523E-011  0.5052885E+02  0.7816164E-02  0.1300439E+00
        -11   -1    0    0    0    0  0.00000000000E+00  0.00000000000E+00  0.45593999997E+02  0.45594000000E+02  0.51100000000E-03 0.  1.
         11   -1    0    0    0    0 -0.00000000000E+00 -0.00000000000E+00 -0.45593999997E+02  0.45594000000E+02  0.51100000000E-03 0. -1.
    9900012    2    1    2    0    0  0.19019629298E+01  0.22032226995E+02  0.34119352214E+02  0.50528847465E+02  0.29999962354E+02 0.  0.
         12    1    1    2    0    0 -0.19019629298E+01 -0.22032226995E+02 -0.34119352214E+02  0.40659152535E+02  0.00000000000E+00 0. -1.
         11    1    3    3    0    0 -0.28193572212E+01  0.23244012505E+01 -0.47002887490E+01  0.59535141638E+01  0.51100000000E-03 0. -1.
        -11    1    3    3    0    0  0.54027489576E+01  0.73780172868E+01  0.20898839171E+02  0.22811977432E+02  0.51100000000E-03 0.  1.
         12    1    3    3    0    0 -0.68142880664E+00  0.12329808458E+02  0.17920801792E+02  0.21763355869E+02  0.00000000000E+00 0. -1.
</event>
<event>
 7    1  0.2891523E-011  0.5052886E+02  0.7816164E-02  0.1300439E+00
        -11   -1    0    0    0    0  0.00000000000E+00  0.00000000000E+00  0.45593999997E+02  0.45594000000E+02  0.51100000000E-03 0. -1.
         11   -1    0    0    0    0 -0.00000000000E+00 -0.00000000000E+00 -0.45593999997E+02  0.45594000000E+02  0.51100000000E-03 0.  1.
    9900012    2    1    2    0    0  0.18714121727E+02  0.34526450987E+02 -0.10529551995E+02  0.50528860376E+02  0.30000001598E+02 0.  0.
         12    1    1    2    0    0 -0.18714121727E+02 -0.34526450987E+02  0.10529551995E+02  0.40659139624E+02  0.00000000000E+00 0. -1.
         11    1    3    3    0    0  0.49922082045E+01  0.92541381776E+01  0.45803959301E+01  0.11469143094E+02  0.51100000000E-03 0. -1.
        -11    1    3    3    0    0  0.14729987105E+02  0.54175503929E+01 -0.97233396128E+01  0.18462548736E+02  0.51100000000E-03 0.  1.
        -12    1    3    3    0    0 -0.10080735825E+01  0.19854762417E+02 -0.53866083126E+01  0.20597168545E+02  0.00000000000E+00 0.  1.
</event>
<event>
 7    1  0.2891523E-011  0.5052886E+02  0.7816164E-02  0.1300439E+00
        -11   -1    0    0    0    0  0.00000000000E+00  0.00000000000E+00  0.45593999997E+02  0.45594000000E+02  0.51100000000E-03 0.  1.
         11   -1    0    0    0    0 -0.00000000000E+00 -0.00000000000E+00 -0.45593999997E+02  0.45594000000E+02  0.51100000000E-03 0. -1.
    9900012    2    1    2    0    0 -0.21804297909E+02  0.28497289371E+02  0.19121789383E+02  0.50528859109E+02  0.29999997749E+02 0.  0.
         12    1    1    2    0    0  0.21804297909E+02 -0.28497289371E+02 -0.19121789383E+02  0.40659140891E+02  0.00000000000E+00 0. -1.
         11    1    3    3    0    0 -0.68094126189E+01 -0.25557494837E+00  0.44944578710E+01  0.81629388448E+01  0.51100000000E-03 0. -1.
        -11    1    3    3    0    0 -0.16774703772E+02  0.31894225434E+02  0.12335030786E+02  0.38089175462E+02  0.51100000000E-03 0.  1.
        -12    1    3    3    0    0  0.17798184820E+01 -0.31413611149E+01  0.22923007267E+01  0.42767448024E+01  0.00000000000E+00 0.  1.
</event>
<event>
 7    1  0.2891523E-011  0.5052886E+02  0.7816164E-02  0.1300439E+00
        -11   -1    0    0    0    0  0.00000000000E+00  0.00000000000E+00  0.45593999997E+02  0.45594000000E+02  0.51100000000E-03 0.  1.
         11   -1    0    0    0    0 -0.00000000000E+00 -0.00000000000E+00 -0.45593999997E+02  0.45594000000E+02  0.51100000000E-03 0. -1.
    9900012    2    1    2    0    0  0.28112813946E+02  0.81348406830E+01  0.28225160575E+02  0.50528860432E+02  0.30000001769E+02 0.  0.
         12    1    1    2    0    0 -0.28112813946E+02 -0.81348406830E+01 -0.28225160575E+02  0.40659139568E+02  0.00000000000E+00 0. -1.
         11    1    3    3    0    0 -0.41051797012E+01  0.84968119415E+01  0.77073797262E+01  0.12184088643E+02  0.51100000000E-03 0. -1.
        -11    1    3    3    0    0  0.19058359515E+02 -0.84481544052E+00  0.10321736900E+02  0.21690390347E+02  0.51100000000E-03 0.  1.
         12    1    3    3    0    0  0.13159634132E+02  0.48284418197E+00  0.10196043949E+02  0.16654381442E+02  0.00000000000E+00 0. -1.
</event>
<event>
 7    1  0.2891523E-011  0.5052879E+02  0.7816164E-02  0.1300439E+00
        -11   -1    0    0    0    0  0.00000000000E+00  0.00000000000E+00  0.45593999997E+02  0.45594000000E+02  0.51100000000E-03 0.  1.
         11   -1    0    0    0    0 -0.00000000000E+00 -0.00000000000E+00 -0.45593999997E+02  0.45594000000E+02  0.51100000000E-03 0. -1.
    9900012    2    1    2    0    0  0.15352642387E+02 -0.37649225226E+02 -0.62285775948E-01  0.50528786186E+02  0.29999776091E+02 0.  0.
         12    1    1    2    0    0 -0.15352642387E+02  0.37649225226E+02  0.62285775948E-01  0.40659213814E+02  0.00000000000E+00 0. -1.
         11    1    3    3    0    0  0.15026269608E+02 -0.13406664538E+02  0.61281589449E+01  0.21049507469E+02  0.51100000000E-03 0. -1.
        -11    1    3    3    0    0 -0.48964230326E+01 -0.89945740717E+01  0.33190764982E+01  0.10765388535E+02  0.51100000000E-03 0.  1.
         12    1    3    3    0    0  0.52227958118E+01 -0.15247986616E+02 -0.95095212190E+01  0.18713890182E+02  0.00000000000E+00 0. -1.
</event>
<event>
 7    1  0.2891523E-011  0.5052879E+02  0.7816164E-02  0.1300439E+00
        -11   -1    0    0    0    0  0.00000000000E+00  0.00000000000E+00  0.45593999997E+02  0.45594000000E+02  0.51100000000E-03 0. -1.
         11   -1    0    0    0    0 -0.00000000000E+00 -0.00000000000E+00 -0.45593999997E+02  0.45594000000E+02  0.51100000000E-03 0.  1.
    9900012    2    1    2    0    0  0.23001618686E+02  0.19937938318E+02 -0.26955068752E+02  0.50528787293E+02  0.29999779456E+02 0.  0.
         12    1    1    2    0    0 -0.23001618686E+02 -0.19937938318E+02  0.26955068752E+02  0.40659212707E+02  0.00000000000E+00 0. -1.
         11    1    3    3    0    0  0.85541309807E+01  0.12173993720E+02  0.20341350498E+01  0.15017222965E+02  0.51100000000E-03 0. -1.
        -11    1    3    3    0    0  0.27872712666E+01  0.19881008751E+00 -0.16780943248E+02  0.17012009379E+02  0.51100000000E-03 0.  1.
        -12    1    3    3    0    0  0.11660216438E+02  0.75651345100E+01 -0.12208260553E+02  0.18499554948E+02  0.00000000000E+00 0.  1.
</event>
<event>
 7    1  0.2891523E-011  0.5052886E+02  0.7816164E-02  0.1300439E+00
        -11   -1    0    0    0    0  0.00000000000E+00  0.00000000000E+00  0.45593999997E+02  0.45594000000E+02  0.51100000000E-03 0. -1.
         11   -1    0    0    0    0 -0.00000000000E+00 -0.00000000000E+00 -0.45593999997E+02  0.45594000000E+02  0.51100000000E-03 0.  1.
    9900012    2    1    2    0    0 -0.71654918173E+01 -0.31256144667E+02 -0.24997498312E+02  0.50528858663E+02  0.29999996391E+02 0.  0.
         12    1    1    2    0    0  0.71654918173E+01  0.31256144667E+02  0.24997498312E+02  0.40659141337E+02  0.00000000000E+00 0. -1.
         11    1    3    3    0    0 -0.11939647155E+02 -0.21871222682E+02 -0.78205542993E+01  0.26116405296E+02  0.51100000000E-03 0. -1.
        -11    1    3    3    0    0 -0.66418268913E+00 -0.81954231917E+01 -0.16952219136E+02  0.18841014671E+02  0.51100000000E-03 0.  1.
         12    1    3    3    0    0  0.54383380269E+01 -0.11894987932E+01 -0.22472487756E+00  0.55714386961E+01  0.00000000000E+00 0. -1.
</event>
<event>
 7    1  0.2891523E-011  0.5052886E+02  0.7816164E-02  0.1300439E+00
        -11   -1    0    0    0    0  0.00000000000E+00  0.00000000000E+00  0.45593999997E+02  0.45594000000E+02  0.51100000000E-03 0. -1.
         11   -1    0    0    0    0 -0.00000000000E+00 -0.00000000000E+00 -0.45593999997E+02  0.45594000000E+02  0.51100000000E-03 0.  1.
    9900012    2    1    2    0    0 -0.30678075844E+01 -0.37228392763E+02 -0.16056173282E+02  0.50528863615E+02  0.30000011445E+02 0.  0.
         12    1    1    2    0    0  0.30678075844E+01  0.37228392763E+02  0.16056173282E+02  0.40659136385E+02  0.00000000000E+00 0. -1.
         11    1    3    3    0    0 -0.12064397438E+02 -0.18018333714E+02 -0.12651602246E+02  0.25105239992E+02  0.51100000000E-03 0.  1.
        -11    1    3    3    0    0  0.92671210030E+01 -0.66157485679E+01  0.22649540284E+01  0.11609378873E+02  0.51100000000E-03 0. -1.
        -12    1    3    3    0    0 -0.27053114953E+00 -0.12594310481E+02 -0.56695250642E+01  0.13814244751E+02  0.00000000000E+00 0.  1.
</event>
<event>
 7    1  0.2891523E-011  0.5052893E+02  0.7816164E-02  0.1300439E+00
        -11   -1    0    0    0    0  0.00000000000E+00  0.00000000000E+00  0.45593999997E+02  0.45594000000E+02  0.51100000000E-03 0. -1.
         11   -1    0    0    0    0 -0.00000000000E+00 -0.00000000000E+00 -0.45593999997E+02  0.45594000000E+02  0.51100000000E-03 0.  1.
    9900012    2    1    2    0    0 -0.24362658185E+02  0.27232313988E+02 -0.17833168626E+02  0.50528930382E+02  0.30000214387E+02 0.  0.
         12    1    1    2    0    0  0.24362658185E+02 -0.27232313988E+02  0.17833168626E+02  0.40659069618E+02  0.00000000000E+00 0. -1.
         11    1    3    3    0    0 -0.24539479370E+02  0.15862319169E+02 -0.58321423422E+00  0.29225662632E+02  0.51100000000E-03 0. -1.
        -11    1    3    3    0    0  0.14732940337E+01  0.85916111187E+01 -0.15473157204E+02  0.17759644452E+02  0.51100000000E-03 0.  1.
         12    1    3    3    0    0 -0.12964728494E+01  0.27783836994E+01 -0.17767971882E+01  0.35436232980E+01  0.00000000000E+00 0. -1.
</event>
<event>
 7    1  0.2891523E-011  0.5052885E+02  0.7816164E-02  0.1300439E+00
        -11   -1    0    0    0    0  0.00000000000E+00  0.00000000000E+00  0.45593999997E+02  0.45594000000E+02  0.51100000000E-03 0. -1.
         11   -1    0    0    0    0 -0.00000000000E+00 -0.00000000000E+00 -0.45593999997E+02  0.45594000000E+02  0.51100000000E-03 0.  1.
    9900012    2    1    2    0    0 -0.19526895032E+02 -0.31226981809E+02 -0.17226222419E+02  0.50528846525E+02  0.29999959498E+02 0.  0.
         12    1    1    2    0    0  0.19526895032E+02  0.31226981809E+02  0.17226222419E+02  0.40659153475E+02  0.00000000000E+00 0. -1.
         11    1    3    3    0    0 -0.22847909659E+02 -0.30905715852E+02 -0.14318411656E+02  0.41014718830E+02  0.51100000000E-03 0. -1.
        -11    1    3    3    0    0  0.51903953942E+01 -0.17373645971E+01 -0.41419849762E+01  0.68640133956E+01  0.51100000000E-03 0.  1.
         12    1    3    3    0    0 -0.18693807666E+01  0.14160986405E+01  0.12341742134E+01  0.26501142993E+01  0.00000000000E+00 0. -1.
</event>
<event>
 7    1  0.2891523E-011  0.5052886E+02  0.7816164E-02  0.1300439E+00
        -11   -1    0    0    0    0  0.00000000000E+00  0.00000000000E+00  0.45593999997E+02  0.45594000000E+02  0.51100000000E-03 0.  1.
         11   -1    0    0    0    0 -0.00000000000E+00 -0.00000000000E+00 -0.45593999997E+02  0.45594000000E+02  0.51100000000E-03 0. -1.
    9900012    2    1    2    0    0  0.32159053404E+02 -0.24848160954E+02 -0.12368874968E+01  0.50528859462E+02  0.29999998820E+02 0.  0.
         12    1    1    2    0    0 -0.32159053404E+02  0.24848160954E+02  0.12368874968E+01  0.40659140538E+02  0.00000000000E+00 0. -1.
         11    1    3    3    0    0  0.24312766653E+02 -0.60890063967E+01 -0.13045799718E+00  0.25063990918E+02  0.51100000000E-03 0. -1.
        -11    1    3    3    0    0 -0.16281325709E+01 -0.56687038269E+01  0.54458929036E+01  0.80276253353E+01  0.51100000000E-03 0.  1.
        -12    1    3    3    0    0  0.94744193221E+01 -0.13090450731E+02 -0.65523224033E+01  0.17437243208E+02  0.00000000000E+00 0.  1.
</event>
<event>
 7    1  0.2891523E-011  0.5052892E+02  0.7816164E-02  0.1300439E+00
        -11   -1    0    0    0    0  0.00000000000E+00  0.00000000000E+00  0.45593999997E+02  0.45594000000E+02  0.51100000000E-03 0.  1.
         11   -1    0    0    0    0 -0.00000000000E+00 -0.00000000000E+00 -0.45593999997E+02  0.45594000000E+02  0.51100000000E-03 0. -1.
    9900012    2    1    2    0    0  0.15365531743E+02  0.31755381818E+02  0.20215257975E+02  0.50528923582E+02  0.30000193719E+02 0.  0.
         12    1    1    2    0    0 -0.15365531743E+02 -0.31755381818E+02 -0.20215257975E+02  0.40659076418E+02  0.00000000000E+00 0. -1.
         11    1    3    3    0    0 -0.85190729903E+01  0.70930853811E+01  0.31747378759E+01  0.11531063510E+02  0.51100000000E-03 0. -1.
        -11    1    3    3    0    0  0.11560000425E+02  0.15554223545E+02  0.12312945206E+02  0.22960315760E+02  0.51100000000E-03 0.  1.
         12    1    3    3    0    0  0.12324604309E+02  0.91080728920E+01  0.47275748939E+01  0.16037544312E+02  0.00000000000E+00 0. -1.
</event>
<event>
 7    1  0.2891523E-011  0.5052886E+02  0.7816164E-02  0.1300439E+00
        -11   -1    0    0    0    0  0.00000000000E+00  0.00000000000E+00  0.45593999997E+02  0.45594000000E+02  0.51100000000E-03 0.  1.
         11   -1    0    0    0    0 -0.00000000000E+00 -0.00000000000E+00 -0.45593999997E+02  0.45594000000E+02  0.51100000000E-03 0. -1.
    9900012    2    1    2    0    0  0.91248876806E+01 -0.39621077667E+02  0.26829994719E+00  0.50528863812E+02  0.30000012044E+02 0.  0.
         12    1    1    2    0    0 -0.91248876806E+01  0.39621077667E+02 -0.26829994719E+00  0.40659136188E+02  0.00000000000E+00 0. -1.
         11    1    3    3    0    0  0.12314674513E+02 -0.10989489605E+02 -0.95083484361E+01  0.19048065003E+02  0.51100000000E-03 0. -1.
        -11    1    3    3    0    0  0.15108672064E+01 -0.82745725340E+00  0.46156235161E+00  0.17833802979E+01  0.51100000000E-03 0.  1.
         12    1    3    3    0    0 -0.47006540389E+01 -0.27804130809E+02  0.93150860317E+01  0.29697418511E+02  0.00000000000E+00 0. -1.
</event>
<event>
 7    1  0.2891523E-011  0.5052886E+02  0.7816164E-02  0.1300439E+00
        -11   -1    0    0    0    0  0.00000000000E+00  0.00000000000E+00  0.45593999997E+02  0.45594000000E+02  0.51100000000E-03 0. -1.
         11   -1    0    0    0    0 -0.00000000000E+00 -0.00000000000E+00 -0.45593999997E+02  0.45594000000E+02  0.51100000000E-03 0.  1.
    9900012    2    1    2    0    0  0.16273375469E+02  0.30145411426E+02 -0.21899713492E+02  0.50528855515E+02  0.29999986823E+02 0.  0.
         12    1    1    2    0    0 -0.16273375469E+02 -0.30145411426E+02  0.21899713492E+02  0.40659144485E+02  0.00000000000E+00 0. -1.
         11    1    3    3    0    0 -0.34261226646E+01  0.59978777818E-01  0.32950136395E+00  0.34424533950E+01  0.51100000000E-03 0. -1.
        -11    1    3    3    0    0  0.15275060855E+02  0.28029889970E+02 -0.25796909723E+02  0.41042450796E+02  0.51100000000E-03 0.  1.
        -12    1    3    3    0    0  0.44244372787E+01  0.20555426785E+01  0.35676948671E+01  0.60439513235E+01  0.00000000000E+00 0.  1.
</event>
<event>
 7    1  0.2891523E-011  0.5052885E+02  0.7816164E-02  0.1300439E+00
        -11   -1    0    0    0    0  0.00000000000E+00  0.00000000000E+00  0.45593999997E+02  0.45594000000E+02  0.51100000000E-03 0. -1.
         11   -1    0    0    0    0 -0.00000000000E+00 -0.00000000000E+00 -0.45593999997E+02  0.45594000000E+02  0.51100000000E-03 0.  1.
    9900012    2    1    2    0    0 -0.29686228288E+02 -0.27623807571E+02 -0.29697617266E+01  0.50528851221E+02  0.29999973771E+02 0.  0.
         12    1    1    2    0    0  0.29686228288E+02  0.27623807571E+02  0.29697617266E+01  0.40659148779E+02  0.00000000000E+00 0. -1.
         11    1    3    3    0    0 -0.91777729193E+01 -0.34617734783E+00  0.85137562084E+01  0.12523394091E+02  0.51100000000E-03 0. -1.
        -11    1    3    3    0    0 -0.89376028621E+01 -0.44788815082E+01 -0.65920597356E+01  0.11974822600E+02  0.51100000000E-03 0.  1.
         12    1    3    3    0    0 -0.11570852507E+02 -0.22798748715E+02 -0.48914581995E+01  0.26030634530E+02  0.00000000000E+00 0. -1.
</event>
<event>
 7    1  0.2891523E-011  0.5052884E+02  0.7816164E-02  0.1300439E+00
        -11   -1    0    0    0    0  0.00000000000E+00  0.00000000000E+00  0.45593999997E+02  0.45594000000E+02  0.51100000000E-03 0. -1.
         11   -1    0    0    0    0 -0.00000000000E+00 -0.00000000000E+00 -0.45593999997E+02  0.45594000000E+02  0.51100000000E-03 0.  1.
    9900012    2    1    2    0    0  0.29495793448E+02  0.26731629262E+02 -0.82816344746E+01  0.50528839854E+02  0.29999939221E+02 0.  0.
         12    1    1    2    0    0 -0.29495793448E+02 -0.26731629262E+02  0.82816344746E+01  0.40659160146E+02  0.00000000000E+00 0. -1.
         11    1    3    3    0    0 -0.31724881891E+00  0.31430257389E+01  0.14434046559E+01  0.34731361722E+01  0.51100000000E-03 0. -1.
        -11    1    3    3    0    0  0.24709401160E+02  0.25204777722E+02 -0.16045854936E+02  0.38772474600E+02  0.51100000000E-03 0.  1.
        -12    1    3    3    0    0  0.51036411073E+01 -0.16161741985E+01  0.63208158050E+01  0.82832290825E+01  0.00000000000E+00 0.  1.
</event>
<event>
 7    1  0.2891523E-011  0.5052881E+02  0.7816164E-02  0.1300439E+00
        -11   -1    0    0    0    0  0.00000000000E+00  0.00000000000E+00  0.45593999997E+02  0.45594000000E+02  0.51100000000E-03 0.  1.
         11   -1    0    0    0    0 -0.00000000000E+00 -0.00000000000E+00 -0.45593999997E+02  0.45594000000E+02  0.51100000000E-03 0. -1.
    9900012    2    1    2    0    0 -0.27755990846E+01 -0.22843730328E+02  0.33520586127E+02  0.50528810880E+02  0.29999851151E+02 0.  0.
         12    1    1    2    0    0  0.27755990846E+01  0.22843730328E+02 -0.33520586127E+02  0.40659189120E+02  0.00000000000E+00 0. -1.
         11    1    3    3    0    0 -0.16062008166E+01 -0.12351333832E+01  0.12852239655E+02  0.13010976134E+02  0.51100000000E-03 0. -1.
        -11    1    3    3    0    0 -0.93421720059E+01 -0.15432303071E+02  0.48641678357E+01  0.18684011477E+02  0.51100000000E-03 0.  1.
        -12    1    3    3    0    0  0.81727737379E+01 -0.61762938735E+01  0.15804178637E+02  0.18833823270E+02  0.00000000000E+00 0.  1.
</event>
<event>
 7    1  0.2891523E-011  0.5052886E+02  0.7816164E-02  0.1300439E+00
        -11   -1    0    0    0    0  0.00000000000E+00  0.00000000000E+00  0.45593999997E+02  0.45594000000E+02  0.51100000000E-03 0.  1.
         11   -1    0    0    0    0 -0.00000000000E+00 -0.00000000000E+00 -0.45593999997E+02  0.45594000000E+02  0.51100000000E-03 0. -1.
    9900012    2    1    2    0    0  0.34376049741E+02  0.92419854097E+01  0.19647863477E+02  0.50528860446E+02  0.30000001811E+02 0.  0.
         12    1    1    2    0    0 -0.34376049741E+02 -0.92419854097E+01 -0.19647863477E+02  0.40659139554E+02  0.00000000000E+00 0. -1.
         11    1    3    3    0    0 -0.45073407907E+01  0.27809030670E+01  0.36758762439E+01  0.64468293985E+01  0.51100000000E-03 0. -1.
        -11    1    3    3    0    0  0.15257736904E+02  0.73148496933E+00  0.12052621401E+02  0.19457628031E+02  0.51100000000E-03 0.  1.
         12    1    3    3    0    0  0.23625653627E+02  0.57295973734E+01  0.39193658317E+01  0.24624403016E+02  0.00000000000E+00 0. -1.
</event>
<event>
 7    1  0.2891523E-011  0.5052886E+02  0.7816164E-02  0.1300439E+00
        -11   -1    0    0    0    0  0.00000000000E+00  0.00000000000E+00  0.45593999997E+02  0.45594000000E+02  0.51100000000E-03 0. -1.
         11   -1    0    0    0    0 -0.00000000000E+00 -0.00000000000E+00 -0.45593999997E+02  0.45594000000E+02  0.51100000000E-03 0.  1.
    9900012    2    1    2    0    0  0.33287466316E+02  0.22730472431E+02 -0.53325091781E+01  0.50528862714E+02  0.30000008706E+02 0.  0.
         12    1    1    2    0    0 -0.33287466316E+02 -0.22730472431E+02  0.53325091781E+01  0.40659137286E+02  0.00000000000E+00 0. -1.
         11    1    3    3    0    0  0.23535035889E+02  0.15960574766E+02 -0.14812261897E+02  0.32063077892E+02  0.51100000000E-03 0. -1.
        -11    1    3    3    0    0  0.41270179196E+01 -0.18669158887E+01  0.10188822553E+00  0.45307872733E+01  0.51100000000E-03 0.  1.
         12    1    3    3    0    0  0.56254125080E+01  0.86368135531E+01  0.93778644930E+01  0.13934997549E+02  0.00000000000E+00 0. -1.
</event>
<event>
 7    1  0.2891523E-011  0.5052887E+02  0.7816164E-02  0.1300439E+00
        -11   -1    0    0    0    0  0.00000000000E+00  0.00000000000E+00  0.45593999997E+02  0.45594000000E+02  0.51100000000E-03 0.  1.
         11   -1    0    0    0    0 -0.00000000000E+00 -0.00000000000E+00 -0.45593999997E+02  0.45594000000E+02  0.51100000000E-03 0. -1.
    9900012    2    1    2    0    0 -0.27075970580E+02 -0.61039357479E+01  0.29711928598E+02  0.50528869224E+02  0.30000028493E+02 0.  0.
         12    1    1    2    0    0  0.27075970580E+02  0.61039357479E+01 -0.29711928598E+02  0.40659130776E+02  0.00000000000E+00 0. -1.
         11    1    3    3    0    0 -0.25361286674E+01 -0.52331281262E+01  0.13415479329E+01  0.59680256132E+01  0.51100000000E-03 0. -1.
        -11    1    3    3    0    0 -0.80207947869E+01  0.63047309229E+01  0.23926098430E+02  0.26010401138E+02  0.51100000000E-03 0.  1.
        -12    1    3    3    0    0 -0.16519047125E+02 -0.71755385445E+01  0.44442822352E+01  0.18550442472E+02  0.00000000000E+00 0.  1.
</event>
<event>
 7    1  0.2891523E-011  0.5052887E+02  0.7816164E-02  0.1300439E+00
        -11   -1    0    0    0    0  0.00000000000E+00  0.00000000000E+00  0.45593999997E+02  0.45594000000E+02  0.51100000000E-03 0.  1.
         11   -1    0    0    0    0 -0.00000000000E+00 -0.00000000000E+00 -0.45593999997E+02  0.45594000000E+02  0.51100000000E-03 0. -1.
    9900012    2    1    2    0    0 -0.10916891749E+02 -0.37732921904E+02 -0.10498220080E+02  0.50528873771E+02  0.30000042313E+02 0.  0.
         12    1    1    2    0    0  0.10916891749E+02  0.37732921904E+02  0.10498220080E+02  0.40659126229E+02  0.00000000000E+00 0. -1.
         11    1    3    3    0    0  0.69546916149E+01 -0.13355855368E+02 -0.91064921250E+01  0.17597579582E+02  0.51100000000E-03 0. -1.
        -11    1    3    3    0    0 -0.17067564089E+01 -0.96299257945E+01  0.37157157094E+01  0.10462075881E+02  0.51100000000E-03 0.  1.
         12    1    3    3    0    0 -0.16164826956E+02 -0.14747140742E+02 -0.51074436645E+01  0.22469218307E+02  0.00000000000E+00 0. -1.
</event>
<event>
 7    1  0.2891523E-011  0.5052886E+02  0.7816164E-02  0.1300439E+00
        -11   -1    0    0    0    0  0.00000000000E+00  0.00000000000E+00  0.45593999997E+02  0.45594000000E+02  0.51100000000E-03 0. -1.
         11   -1    0    0    0    0 -0.00000000000E+00 -0.00000000000E+00 -0.45593999997E+02  0.45594000000E+02  0.51100000000E-03 0.  1.
    9900012    2    1    2    0    0  0.32190749522E+02 -0.21006808653E+01 -0.24748911688E+02  0.50528857798E+02  0.29999993763E+02 0.  0.
         12    1    1    2    0    0 -0.32190749522E+02  0.21006808653E+01  0.24748911688E+02  0.40659142202E+02  0.00000000000E+00 0. -1.
         11    1    3    3    0    0  0.17373871742E+02  0.11624139217E+02 -0.79066912786E+01  0.22349223679E+02  0.51100000000E-03 0. -1.
        -11    1    3    3    0    0  0.11840324596E+01 -0.23900431361E+01 -0.78690779405E+01  0.83088282539E+01  0.51100000000E-03 0.  1.
         12    1    3    3    0    0  0.13632845320E+02 -0.11334776946E+02 -0.89731424687E+01  0.19870805865E+02  0.00000000000E+00 0. -1.
</event>
<event>
 7    1  0.2891523E-011  0.5052886E+02  0.7816164E-02  0.1300439E+00
        -11   -1    0    0    0    0  0.00000000000E+00  0.00000000000E+00  0.45593999997E+02  0.45594000000E+02  0.51100000000E-03 0.  1.
         11   -1    0    0    0    0 -0.00000000000E+00 -0.00000000000E+00 -0.45593999997E+02  0.45594000000E+02  0.51100000000E-03 0. -1.
    9900012    2    1    2    0    0  0.33607780290E+02  0.11561202717E+02  0.19748966819E+02  0.50528855952E+02  0.29999988151E+02 0.  0.
         12    1    1    2    0    0 -0.33607780290E+02 -0.11561202717E+02 -0.19748966819E+02  0.40659144048E+02  0.00000000000E+00 0. -1.
         11    1    3    3    0    0  0.14669412138E+02  0.69628426518E+00  0.88897956376E+01  0.17166972097E+02  0.51100000000E-03 0. -1.
        -11    1    3    3    0    0  0.47421293275E+00  0.70046538236E+01  0.12594217148E+02  0.14418888963E+02  0.51100000000E-03 0.  1.
        -12    1    3    3    0    0  0.18464155219E+02  0.38602646286E+01 -0.17350459661E+01  0.18942994892E+02  0.00000000000E+00 0.  1.
</event>
<event>
 7    1  0.2891523E-011  0.5052886E+02  0.7816164E-02  0.1300439E+00
        -11   -1    0    0    0    0  0.00000000000E+00  0.00000000000E+00  0.45593999997E+02  0.45594000000E+02  0.51100000000E-03 0. -1.
         11   -1    0    0    0    0 -0.00000000000E+00 -0.00000000000E+00 -0.45593999997E+02  0.45594000000E+02  0.51100000000E-03 0.  1.
    9900012    2    1    2    0    0 -0.34816253465E+02  0.17340756617E+02 -0.11844516120E+02  0.50528857024E+02  0.29999991411E+02 0.  0.
         12    1    1    2    0    0  0.34816253465E+02 -0.17340756617E+02  0.11844516120E+02  0.40659142976E+02  0.00000000000E+00 0. -1.
         11    1    3    3    0    0  0.16416846517E+01 -0.16606190456E+01  0.11022881394E+01  0.25822129102E+01  0.51100000000E-03 0. -1.
        -11    1    3    3    0    0 -0.29776971507E+02  0.23240316588E+02 -0.79856915441E+01  0.38607662671E+02  0.51100000000E-03 0.  1.
        -12    1    3    3    0    0 -0.66809666100E+01 -0.42389409257E+01 -0.49611127151E+01  0.93389814427E+01  0.00000000000E+00 0.  1.
</event>
<event>
 7    1  0.2891523E-011  0.5052883E+02  0.7816164E-02  0.1300439E+00
        -11   -1    0    0    0    0  0.00000000000E+00  0.00000000000E+00  0.45593999997E+02  0.45594000000E+02  0.51100000000E-03 0. -1.
         11   -1    0    0    0    0 -0.00000000000E+00 -0.00000000000E+00 -0.45593999997E+02  0.45594000000E+02  0.51100000000E-03 0.  1.
    9900012    2    1    2    0    0  0.16153248750E+02 -0.35631559491E+01 -0.37142217560E+02  0.50528833127E+02  0.29999918774E+02 0.  0.
         12    1    1    2    0    0 -0.16153248750E+02  0.35631559491E+01  0.37142217560E+02  0.40659166873E+02  0.00000000000E+00 0. -1.
         11    1    3    3    0    0  0.16545188664E+01  0.21210190583E+01  0.11601053876E+01  0.29295049576E+01  0.51100000000E-03 0. -1.
        -11    1    3    3    0    0  0.15228318591E+02  0.46867362069E+01 -0.31124349396E+02  0.34965587497E+02  0.51100000000E-03 0.  1.
        -12    1    3    3    0    0 -0.72958870744E+00 -0.10370911214E+02 -0.71779735514E+01  0.12633740673E+02  0.00000000000E+00 0.  1.
</event>
<event>
 7    1  0.2891523E-011  0.5052878E+02  0.7816164E-02  0.1300439E+00
        -11   -1    0    0    0    0  0.00000000000E+00  0.00000000000E+00  0.45593999997E+02  0.45594000000E+02  0.51100000000E-03 0.  1.
         11   -1    0    0    0    0 -0.00000000000E+00 -0.00000000000E+00 -0.45593999997E+02  0.45594000000E+02  0.51100000000E-03 0. -1.
    9900012    2    1    2    0    0 -0.35879217855E+02  0.16883854185E+02  0.89882862355E+01  0.50528780929E+02  0.29999760109E+02 0.  0.
         12    1    1    2    0    0  0.35879217855E+02 -0.16883854185E+02 -0.89882862355E+01  0.40659219071E+02  0.00000000000E+00 0. -1.
         11    1    3    3    0    0 -0.20835520065E+02  0.45974361445E+01 -0.70564948982E+01  0.22473304963E+02  0.51100000000E-03 0. -1.
        -11    1    3    3    0    0 -0.17547608064E+01  0.83287234300E+01  0.93961413506E+01  0.12678102855E+02  0.51100000000E-03 0.  1.
         12    1    3    3    0    0 -0.13288936984E+02  0.39576946100E+01  0.66486397831E+01  0.15377373110E+02  0.00000000000E+00 0. -1.
</event>
<event>
 7    1  0.2891523E-011  0.5052884E+02  0.7816164E-02  0.1300439E+00
        -11   -1    0    0    0    0  0.00000000000E+00  0.00000000000E+00  0.45593999997E+02  0.45594000000E+02  0.51100000000E-03 0.  1.
         11   -1    0    0    0    0 -0.00000000000E+00 -0.00000000000E+00 -0.45593999997E+02  0.45594000000E+02  0.51100000000E-03 0. -1.
    9900012    2    1    2    0    0  0.14944793788E+02 -0.80825671866E+01  0.36939033014E+02  0.50528844651E+02  0.29999953801E+02 0.  0.
         12    1    1    2    0    0 -0.14944793788E+02  0.80825671866E+01 -0.36939033014E+02  0.40659155349E+02  0.00000000000E+00 0. -1.
         11    1    3    3    0    0  0.75072539719E+01 -0.13980195241E+02  0.44757786492E+01  0.16487489680E+02  0.51100000000E-03 0. -1.
        -11    1    3    3    0    0  0.12794860425E+01  0.33281984501E+01  0.11880215488E+02  0.12403769981E+02  0.51100000000E-03 0.  1.
         12    1    3    3    0    0  0.61580537737E+01  0.25694296041E+01  0.20583038877E+02  0.21637584990E+02  0.00000000000E+00 0. -1.
</event>
<event>
 7    1  0.2891523E-011  0.5052887E+02  0.7816164E-02  0.1300439E+00
        -11   -1    0    0    0    0  0.00000000000E+00  0.00000000000E+00  0.45593999997E+02  0.45594000000E+02  0.51100000000E-03 0.  1.
         11   -1    0    0    0    0 -0.00000000000E+00 -0.00000000000E+00 -0.45593999997E+02  0.45594000000E+02  0.51100000000E-03 0. -1.
    9900012    2    1    2    0    0  0.22611210967E+02 -0.28487903849E+02  0.18175181839E+02  0.50528871111E+02  0.30000034230E+02 0.  0.
         12    1    1    2    0    0 -0.22611210967E+02  0.28487903849E+02 -0.18175181839E+02  0.40659128889E+02  0.00000000000E+00 0. -1.
         11    1    3    3    0    0  0.26494766483E+01  0.32487617724E+01 -0.26144958292E+01  0.49406242790E+01  0.51100000000E-03 0. -1.
        -11    1    3    3    0    0  0.15757491171E+02 -0.30799094509E+02  0.22140208357E+02  0.41073976883E+02  0.51100000000E-03 0.  1.
         12    1    3    3    0    0  0.42042431477E+01 -0.93757111243E+00 -0.13505306896E+01  0.45142699497E+01  0.00000000000E+00 0. -1.
</event>
<event>
 7    1  0.2891523E-011  0.5052886E+02  0.7816164E-02  0.1300439E+00
        -11   -1    0    0    0    0  0.00000000000E+00  0.00000000000E+00  0.45593999997E+02  0.45594000000E+02  0.51100000000E-03 0.  1.
         11   -1    0    0    0    0 -0.00000000000E+00 -0.00000000000E+00 -0.45593999997E+02  0.45594000000E+02  0.51100000000E-03 0. -1.
    9900012    2    1    2    0    0 -0.34343051728E+02 -0.37947050924E+01  0.21431774109E+02  0.50528856746E+02  0.29999990564E+02 0.  0.
         12    1    1    2    0    0  0.34343051728E+02  0.37947050924E+01 -0.21431774109E+02  0.40659143254E+02  0.00000000000E+00 0. -1.
         11    1    3    3    0    0 -0.12752024966E+02 -0.12053693910E+02  0.17057465853E+02  0.24471673813E+02  0.51100000000E-03 0. -1.
        -11    1    3    3    0    0 -0.21135369384E+02  0.46662016523E+01  0.53713690256E+01  0.22300871784E+02  0.51100000000E-03 0.  1.
         12    1    3    3    0    0 -0.45565737696E+00  0.35927871657E+01 -0.99706076961E+00  0.37563111481E+01  0.00000000000E+00 0. -1.
</event>
<event>
 7    1  0.2891523E-011  0.5052885E+02  0.7816164E-02  0.1300439E+00
        -11   -1    0    0    0    0  0.00000000000E+00  0.00000000000E+00  0.45593999997E+02  0.45594000000E+02  0.51100000000E-03 0.  1.
         11   -1    0    0    0    0 -0.00000000000E+00 -0.00000000000E+00 -0.45593999997E+02  0.45594000000E+02  0.51100000000E-03 0. -1.
    9900012    2    1    2    0    0 -0.39959347917E+02  0.74578237114E+01 -0.89322684869E+00  0.50528850050E+02  0.29999970212E+02 0.  0.
         12    1    1    2    0    0  0.39959347917E+02 -0.74578237114E+01  0.89322684869E+00  0.40659149950E+02  0.00000000000E+00 0. -1.
         11    1    3    3    0    0 -0.21305402365E+02  0.42143616526E+01  0.12754878456E+02  0.25186661922E+02  0.51100000000E-03 0. -1.
        -11    1    3    3    0    0 -0.79942554810E+01  0.43593451715E+01 -0.11041632648E+02  0.14311871394E+02  0.51100000000E-03 0.  1.
         12    1    3    3    0    0 -0.10659690071E+02 -0.11158831127E+01 -0.26064726573E+01  0.11030316733E+02  0.00000000000E+00 0. -1.
</event>
<event>
 7    1  0.2891523E-011  0.5052886E+02  0.7816164E-02  0.1300439E+00
        -11   -1    0    0    0    0  0.00000000000E+00  0.00000000000E+00  0.45593999997E+02  0.45594000000E+02  0.51100000000E-03 0. -1.
         11   -1    0    0    0    0 -0.00000000000E+00 -0.00000000000E+00 -0.45593999997E+02  0.45594000000E+02  0.51100000000E-03 0.  1.
    9900012    2    1    2    0    0 -0.30556153939E+02 -0.26735500647E+02 -0.21680065327E+01  0.50528858460E+02  0.29999995776E+02 0.  0.
         12    1    1    2    0    0  0.30556153939E+02  0.26735500647E+02  0.21680065327E+01  0.40659141540E+02  0.00000000000E+00 0. -1.
         11    1    3    3    0    0 -0.14477621547E+02  0.10897480172E+01 -0.90357354874E+01  0.17100689824E+02  0.51100000000E-03 0. -1.
        -11    1    3    3    0    0 -0.12656824844E+02 -0.23037240531E+02  0.79144178973E+01  0.27450822890E+02  0.51100000000E-03 0.  1.
        -12    1    3    3    0    0 -0.34217075483E+01 -0.47880081329E+01 -0.10466889425E+01  0.59773457461E+01  0.00000000000E+00 0.  1.
</event>
<event>
 7    1  0.2891523E-011  0.5052886E+02  0.7816164E-02  0.1300439E+00
        -11   -1    0    0    0    0  0.00000000000E+00  0.00000000000E+00  0.45593999997E+02  0.45594000000E+02  0.51100000000E-03 0.  1.
         11   -1    0    0    0    0 -0.00000000000E+00 -0.00000000000E+00 -0.45593999997E+02  0.45594000000E+02  0.51100000000E-03 0. -1.
    9900012    2    1    2    0    0  0.15253353212E+02  0.24221018875E+02  0.28876344000E+02  0.50528858563E+02  0.29999996089E+02 0.  0.
         12    1    1    2    0    0 -0.15253353212E+02 -0.24221018875E+02 -0.28876344000E+02  0.40659141437E+02  0.00000000000E+00 0. -1.
         11    1    3    3    0    0 -0.12058935304E+01 -0.35339439104E+01 -0.16409506892E+01  0.40786833898E+01  0.51100000000E-03 0. -1.
        -11    1    3    3    0    0  0.18423641060E+02  0.25108366716E+02  0.29744101041E+02  0.43064744003E+02  0.51100000000E-03 0.  1.
        -12    1    3    3    0    0 -0.19643943177E+01  0.26465960695E+01  0.77319364823E+00  0.33854311702E+01  0.00000000000E+00 0.  1.
</event>
<event>
 7    1  0.2891523E-011  0.5052886E+02  0.7816164E-02  0.1300439E+00
        -11   -1    0    0    0    0  0.00000000000E+00  0.00000000000E+00  0.45593999997E+02  0.45594000000E+02  0.51100000000E-03 0. -1.
         11   -1    0    0    0    0 -0.00000000000E+00 -0.00000000000E+00 -0.45593999997E+02  0.45594000000E+02  0.51100000000E-03 0.  1.
    9900012    2    1    2    0    0 -0.14917264214E+02  0.23594879673E+02 -0.29562179661E+02  0.50528860994E+02  0.30000003478E+02 0.  0.
         12    1    1    2    0    0  0.14917264214E+02 -0.23594879673E+02  0.29562179661E+02  0.40659139006E+02  0.00000000000E+00 0. -1.
         11    1    3    3    0    0 -0.20558039874E+01 -0.45051995651E+01  0.25699658966E+01  0.55792363390E+01  0.51100000000E-03 0. -1.
        -11    1    3    3    0    0 -0.27562250405E+01  0.97922762343E+01 -0.13772705555E+02  0.17122291578E+02  0.51100000000E-03 0.  1.
         12    1    3    3    0    0 -0.10105235186E+02  0.18307803004E+02 -0.18359440003E+02  0.27827333077E+02  0.00000000000E+00 0. -1.
</event>
<event>
 7    1  0.2891523E-011  0.5052884E+02  0.7816164E-02  0.1300439E+00
        -11   -1    0    0    0    0  0.00000000000E+00  0.00000000000E+00  0.45593999997E+02  0.45594000000E+02  0.51100000000E-03 0. -1.
         11   -1    0    0    0    0 -0.00000000000E+00 -0.00000000000E+00 -0.45593999997E+02  0.45594000000E+02  0.51100000000E-03 0.  1.
    9900012    2    1    2    0    0 -0.27335035711E+02 -0.10910463251E+02 -0.28052179739E+02  0.50528841452E+02  0.29999944078E+02 0.  0.
         12    1    1    2    0    0  0.27335035711E+02  0.10910463251E+02  0.28052179739E+02  0.40659158548E+02  0.00000000000E+00 0. -1.
         11    1    3    3    0    0 -0.16251570585E+02 -0.27178236589E+01 -0.11968514013E+02  0.20365299896E+02  0.51100000000E-03 0. -1.
        -11    1    3    3    0    0  0.41473045076E+01 -0.15139938053E+01  0.26212110891E+01  0.51344970304E+01  0.51100000000E-03 0.  1.
        -12    1    3    3    0    0 -0.15230769634E+02 -0.66786457870E+01 -0.18704876815E+02  0.25029044526E+02  0.00000000000E+00 0.  1.
</event>
<event>
 7    1  0.2891523E-011  0.5052886E+02  0.7816164E-02  0.1300439E+00
        -11   -1    0    0    0    0  0.00000000000E+00  0.00000000000E+00  0.45593999997E+02  0.45594000000E+02  0.51100000000E-03 0.  1.
         11   -1    0    0    0    0 -0.00000000000E+00 -0.00000000000E+00 -0.45593999997E+02  0.45594000000E+02  0.51100000000E-03 0. -1.
    9900012    2    1    2    0    0 -0.20580693676E+02 -0.32835299845E+02  0.12306264384E+02  0.50528855749E+02  0.29999987535E+02 0.  0.
         12    1    1    2    0    0  0.20580693676E+02  0.32835299845E+02 -0.12306264384E+02  0.40659144251E+02  0.00000000000E+00 0. -1.
         11    1    3    3    0    0  0.53568058337E+01 -0.20850010127E+01  0.58533036448E+01  0.82038869923E+01  0.51100000000E-03 0. -1.
        -11    1    3    3    0    0 -0.15483966063E+02 -0.25738750017E+02  0.64982330414E+01  0.30732124730E+02  0.51100000000E-03 0.  1.
         12    1    3    3    0    0 -0.10453533447E+02 -0.50115488154E+01 -0.45272301862E-01  0.11592844027E+02  0.00000000000E+00 0. -1.
</event>
<event>
 7    1  0.2891523E-011  0.5052885E+02  0.7816164E-02  0.1300439E+00
        -11   -1    0    0    0    0  0.00000000000E+00  0.00000000000E+00  0.45593999997E+02  0.45594000000E+02  0.51100000000E-03 0.  1.
         11   -1    0    0    0    0 -0.00000000000E+00 -0.00000000000E+00 -0.45593999997E+02  0.45594000000E+02  0.51100000000E-03 0. -1.
    9900012    2    1    2    0    0  0.14226321825E+02  0.37418056445E+02  0.71180680984E+01  0.50528854974E+02  0.29999985178E+02 0.  0.
         12    1    1    2    0    0 -0.14226321825E+02 -0.37418056445E+02 -0.71180680984E+01  0.40659145026E+02  0.00000000000E+00 0. -1.
         11    1    3    3    0    0 -0.55816047279E+01  0.25689179562E+02  0.65094489827E+01  0.27082488516E+02  0.51100000000E-03 0. -1.
        -11    1    3    3    0    0  0.65857939979E+01  0.17220639871E+01  0.86838190730E+00  0.68623810996E+01  0.51100000000E-03 0.  1.
         12    1    3    3    0    0  0.13222132555E+02  0.10006812896E+02 -0.25976279165E+00  0.16583985358E+02  0.00000000000E+00 0. -1.
</event>
<event>
 7    1  0.2891523E-011  0.5052886E+02  0.7816164E-02  0.1300439E+00
        -11   -1    0    0    0    0  0.00000000000E+00  0.00000000000E+00  0.45593999997E+02  0.45594000000E+02  0.51100000000E-03 0.  1.
         11   -1    0    0    0    0 -0.00000000000E+00 -0.00000000000E+00 -0.45593999997E+02  0.45594000000E+02  0.51100000000E-03 0. -1.
    9900012    2    1    2    0    0 -0.35176942589E+02  0.17783337190E+02  0.99750244438E+01  0.50528862230E+02  0.30000007235E+02 0.  0.
         12    1    1    2    0    0  0.35176942589E+02 -0.17783337190E+02 -0.99750244438E+01  0.40659137770E+02  0.00000000000E+00 0. -1.
         11    1    3    3    0    0 -0.84202002532E+00  0.70471324624E+01 -0.56863199656E+01  0.90942459103E+01  0.51100000000E-03 0. -1.
        -11    1    3    3    0    0 -0.30287740546E+02  0.61163328143E+01  0.16825818436E+02  0.35183304574E+02  0.51100000000E-03 0.  1.
        -12    1    3    3    0    0 -0.40471820182E+01  0.46198719130E+01 -0.11644740264E+01  0.62513117454E+01  0.00000000000E+00 0.  1.
</event>
<event>
 7    1  0.2891523E-011  0.5052886E+02  0.7816164E-02  0.1300439E+00
        -11   -1    0    0    0    0  0.00000000000E+00  0.00000000000E+00  0.45593999997E+02  0.45594000000E+02  0.51100000000E-03 0. -1.
         11   -1    0    0    0    0 -0.00000000000E+00 -0.00000000000E+00 -0.45593999997E+02  0.45594000000E+02  0.51100000000E-03 0.  1.
    9900012    2    1    2    0    0 -0.34161257463E+02 -0.11626207296E+02 -0.18735135118E+02  0.50528862091E+02  0.30000006813E+02 0.  0.
         12    1    1    2    0    0  0.34161257463E+02  0.11626207296E+02  0.18735135118E+02  0.40659137909E+02  0.00000000000E+00 0. -1.
         11    1    3    3    0    0 -0.15308064381E+01 -0.49276077475E+01  0.25339924101E+01  0.57485480132E+01  0.51100000000E-03 0. -1.
        -11    1    3    3    0    0 -0.23044907161E+02  0.73782531450E-01 -0.23410420542E+02  0.32849976866E+02  0.51100000000E-03 0.  1.
        -12    1    3    3    0    0 -0.95855438645E+01 -0.67723820803E+01  0.21412930138E+01  0.11930337212E+02  0.00000000000E+00 0.  1.
</event>
<event>
 7    1  0.2891523E-011  0.5052886E+02  0.7816164E-02  0.1300439E+00
        -11   -1    0    0    0    0  0.00000000000E+00  0.00000000000E+00  0.45593999997E+02  0.45594000000E+02  0.51100000000E-03 0.  1.
         11   -1    0    0    0    0 -0.00000000000E+00 -0.00000000000E+00 -0.45593999997E+02  0.45594000000E+02  0.51100000000E-03 0. -1.
    9900012    2    1    2    0    0  0.22031003364E+02 -0.34171787296E+02  0.29887789820E+00  0.50528862229E+02  0.30000007233E+02 0.  0.
         12    1    1    2    0    0 -0.22031003364E+02  0.34171787296E+02 -0.29887789820E+00  0.40659137771E+02  0.00000000000E+00 0. -1.
         11    1    3    3    0    0  0.23747025940E+01 -0.31820353240E+01 -0.10502406922E+01  0.41070143640E+01  0.51100000000E-03 0.  1.
        -11    1    3    3    0    0  0.20528342804E+02 -0.81056232659E+01 -0.50557441423E+01  0.22642317370E+02  0.51100000000E-03 0. -1.
        -12    1    3    3    0    0 -0.87204203368E+00 -0.22884128706E+02  0.64048627327E+01  0.23779530496E+02  0.00000000000E+00 0.  1.
</event>
<event>
 7    1  0.2891523E-011  0.5052886E+02  0.7816164E-02  0.1300439E+00
        -11   -1    0    0    0    0  0.00000000000E+00  0.00000000000E+00  0.45593999997E+02  0.45594000000E+02  0.51100000000E-03 0.  1.
         11   -1    0    0    0    0 -0.00000000000E+00 -0.00000000000E+00 -0.45593999997E+02  0.45594000000E+02  0.51100000000E-03 0. -1.
    9900012    2    1    2    0    0  0.16883555883E+02 -0.35214022423E+02  0.11317412587E+02  0.50528860042E+02  0.30000000583E+02 0.  0.
         12    1    1    2    0    0 -0.16883555883E+02  0.35214022423E+02 -0.11317412587E+02  0.40659139958E+02  0.00000000000E+00 0. -1.
         11    1    3    3    0    0 -0.18831601574E-01  0.10070488486E+01  0.15421821949E+01  0.18419631364E+01  0.51100000000E-03 0. -1.
        -11    1    3    3    0    0  0.22932571773E+02 -0.32591646379E+02  0.11427709354E+02  0.41457337145E+02  0.51100000000E-03 0.  1.
        -12    1    3    3    0    0 -0.60301842886E+01 -0.36294248925E+01 -0.16524789618E+01  0.72295597601E+01  0.00000000000E+00 0.  1.
</event>
<event>
 7    1  0.2891523E-011  0.5052885E+02  0.7816164E-02  0.1300439E+00
        -11   -1    0    0    0    0  0.00000000000E+00  0.00000000000E+00  0.45593999997E+02  0.45594000000E+02  0.51100000000E-03 0.  1.
         11   -1    0    0    0    0 -0.00000000000E+00 -0.00000000000E+00 -0.45593999997E+02  0.45594000000E+02  0.51100000000E-03 0. -1.
    9900012    2    1    2    0    0  0.10801659765E+02  0.21427631997E+02  0.32822964395E+02  0.50528852710E+02  0.29999978297E+02 0.  0.
         12    1    1    2    0    0 -0.10801659765E+02 -0.21427631997E+02 -0.32822964395E+02  0.40659147290E+02  0.00000000000E+00 0. -1.
         11    1    3    3    0    0  0.14953772693E+02  0.12459384490E+02  0.20940055704E+02  0.28589115284E+02  0.51100000000E-03 0. -1.
        -11    1    3    3    0    0 -0.50742692542E+01  0.10021670501E+02  0.14872859381E+02  0.18638241186E+02  0.51100000000E-03 0.  1.
        -12    1    3    3    0    0  0.92215632684E+00 -0.10534229940E+01 -0.29899506893E+01  0.33014962396E+01  0.00000000000E+00 0.  1.
</event>
<event>
 7    1  0.2891523E-011  0.5052885E+02  0.7816164E-02  0.1300439E+00
        -11   -1    0    0    0    0  0.00000000000E+00  0.00000000000E+00  0.45593999997E+02  0.45594000000E+02  0.51100000000E-03 0.  1.
         11   -1    0    0    0    0 -0.00000000000E+00 -0.00000000000E+00 -0.45593999997E+02  0.45594000000E+02  0.51100000000E-03 0. -1.
    9900012    2    1    2    0    0 -0.12837733214E+02  0.38455111232E+02 -0.30924467134E+01  0.50528853420E+02  0.29999980457E+02 0.  0.
         12    1    1    2    0    0  0.12837733214E+02 -0.38455111232E+02  0.30924467134E+01  0.40659146580E+02  0.00000000000E+00 0. -1.
         11    1    3    3    0    0 -0.86105934299E+01 -0.11885397278E+01 -0.10268559772E+01  0.87526784105E+01  0.51100000000E-03 0. -1.
        -11    1    3    3    0    0  0.16805359354E+01  0.29430429162E+02  0.12992800908E+01  0.29506990539E+02  0.51100000000E-03 0.  1.
        -12    1    3    3    0    0 -0.59076757195E+01  0.10213221798E+02 -0.33648708270E+01  0.12269184471E+02  0.00000000000E+00 0.  1.
</event>
<event>
 7    1  0.2891523E-011  0.5052888E+02  0.7816164E-02  0.1300439E+00
        -11   -1    0    0    0    0  0.00000000000E+00  0.00000000000E+00  0.45593999997E+02  0.45594000000E+02  0.51100000000E-03 0. -1.
         11   -1    0    0    0    0 -0.00000000000E+00 -0.00000000000E+00 -0.45593999997E+02  0.45594000000E+02  0.51100000000E-03 0.  1.
    9900012    2    1    2    0    0  0.99558769568E+01 -0.41961463358E+01 -0.39197409209E+02  0.50528880251E+02  0.30000062011E+02 0.  0.
         12    1    1    2    0    0 -0.99558769568E+01  0.41961463358E+01  0.39197409209E+02  0.40659119749E+02  0.00000000000E+00 0. -1.
         11    1    3    3    0    0  0.19277446847E+01  0.10970185331E+02 -0.24709742984E+02  0.27104106042E+02  0.51100000000E-03 0. -1.
        -11    1    3    3    0    0  0.35632803869E+01 -0.73070129871E+01 -0.11128807706E+02  0.13781863703E+02  0.51100000000E-03 0.  1.
         12    1    3    3    0    0  0.44648518851E+01 -0.78593186796E+01 -0.33588585189E+01  0.96429105054E+01  0.00000000000E+00 0. -1.
</event>
<event>
 7    1  0.2891523E-011  0.5052886E+02  0.7816164E-02  0.1300439E+00
        -11   -1    0    0    0    0  0.00000000000E+00  0.00000000000E+00  0.45593999997E+02  0.45594000000E+02  0.51100000000E-03 0.  1.
         11   -1    0    0    0    0 -0.00000000000E+00 -0.00000000000E+00 -0.45593999997E+02  0.45594000000E+02  0.51100000000E-03 0. -1.
    9900012    2    1    2    0    0  0.31262374805E+02 -0.25812812029E+02  0.30867323352E+01  0.50528864990E+02  0.30000015623E+02 0.  0.
         12    1    1    2    0    0 -0.31262374805E+02  0.25812812029E+02 -0.30867323352E+01  0.40659135010E+02  0.00000000000E+00 0. -1.
         11    1    3    3    0    0  0.13749850245E+02  0.11642338420E+01 -0.52474639450E+01  0.14763119600E+02  0.51100000000E-03 0. -1.
        -11    1    3    3    0    0  0.44087527535E+01 -0.11368465263E+02  0.93424585497E+01  0.15361010230E+02  0.51100000000E-03 0.  1.
         12    1    3    3    0    0  0.13103771806E+02 -0.15608580607E+02 -0.10082622695E+01  0.20404735159E+02  0.00000000000E+00 0. -1.
</event>
<event>
 7    1  0.2891523E-011  0.5052887E+02  0.7816164E-02  0.1300439E+00
        -11   -1    0    0    0    0  0.00000000000E+00  0.00000000000E+00  0.45593999997E+02  0.45594000000E+02  0.51100000000E-03 0.  1.
         11   -1    0    0    0    0 -0.00000000000E+00 -0.00000000000E+00 -0.45593999997E+02  0.45594000000E+02  0.51100000000E-03 0. -1.
    9900012    2    1    2    0    0  0.14045825495E+02  0.24372912190E+02  0.29357129340E+02  0.50528866886E+02  0.30000021387E+02 0.  0.
         12    1    1    2    0    0 -0.14045825495E+02 -0.24372912190E+02 -0.29357129340E+02  0.40659133114E+02  0.00000000000E+00 0. -1.
         11    1    3    3    0    0 -0.45995598832E+01  0.18595262559E+02  0.21677663239E+02  0.28928546879E+02  0.51100000000E-03 0. -1.
        -11    1    3    3    0    0  0.14865648594E+02  0.57659168240E+01  0.79386936686E+01  0.17811686118E+02  0.51100000000E-03 0.  1.
         12    1    3    3    0    0  0.37797367844E+01  0.11732807555E-01 -0.25922756733E+00  0.37886338896E+01  0.00000000000E+00 0. -1.
</event>
<event>
 7    1  0.2891523E-011  0.5052886E+02  0.7816164E-02  0.1300439E+00
        -11   -1    0    0    0    0  0.00000000000E+00  0.00000000000E+00  0.45593999997E+02  0.45594000000E+02  0.51100000000E-03 0.  1.
         11   -1    0    0    0    0 -0.00000000000E+00 -0.00000000000E+00 -0.45593999997E+02  0.45594000000E+02  0.51100000000E-03 0. -1.
    9900012    2    1    2    0    0  0.31106933048E+02  0.15022729666E+02  0.21443920798E+02  0.50528862903E+02  0.30000009280E+02 0.  0.
         12    1    1    2    0    0 -0.31106933048E+02 -0.15022729666E+02 -0.21443920798E+02  0.40659137097E+02  0.00000000000E+00 0. -1.
         11    1    3    3    0    0  0.82486579377E+01  0.43457567749E+01 -0.54701211576E+01  0.10809633919E+02  0.51100000000E-03 0. -1.
        -11    1    3    3    0    0  0.51304402690E+01  0.15361514919E+01  0.16233151739E+02  0.17093753081E+02  0.51100000000E-03 0.  1.
        -12    1    3    3    0    0  0.17727834841E+02  0.91408213989E+01  0.10680890217E+02  0.22625475903E+02  0.00000000000E+00 0.  1.
</event>
<event>
 7    1  0.2891523E-011  0.5052887E+02  0.7816164E-02  0.1300439E+00
        -11   -1    0    0    0    0  0.00000000000E+00  0.00000000000E+00  0.45593999997E+02  0.45594000000E+02  0.51100000000E-03 0.  1.
         11   -1    0    0    0    0 -0.00000000000E+00 -0.00000000000E+00 -0.45593999997E+02  0.45594000000E+02  0.51100000000E-03 0. -1.
    9900012    2    1    2    0    0 -0.28955353005E+02 -0.24861837914E+02  0.14022897421E+02  0.50528866903E+02  0.30000021440E+02 0.  0.
         12    1    1    2    0    0  0.28955353005E+02  0.24861837914E+02 -0.14022897421E+02  0.40659133097E+02  0.00000000000E+00 0. -1.
         11    1    3    3    0    0 -0.47684617728E+01 -0.10012085541E+02  0.15255053560E+01  0.11194072155E+02  0.51100000000E-03 0. -1.
        -11    1    3    3    0    0 -0.30273932095E+01 -0.62104440223E+01  0.14830397996E+02  0.16360789394E+02  0.51100000000E-03 0.  1.
        -12    1    3    3    0    0 -0.21159498023E+02 -0.86393083499E+01 -0.23330059312E+01  0.22974005354E+02  0.00000000000E+00 0.  1.
</event>
<event>
 7    1  0.2891523E-011  0.5052885E+02  0.7816164E-02  0.1300439E+00
        -11   -1    0    0    0    0  0.00000000000E+00  0.00000000000E+00  0.45593999997E+02  0.45594000000E+02  0.51100000000E-03 0. -1.
         11   -1    0    0    0    0 -0.00000000000E+00 -0.00000000000E+00 -0.45593999997E+02  0.45594000000E+02  0.51100000000E-03 0.  1.
    9900012    2    1    2    0    0  0.34086476563E+02 -0.18893151915E+02  0.11589965990E+02  0.50528851147E+02  0.29999973546E+02 0.  0.
         12    1    1    2    0    0 -0.34086476563E+02  0.18893151915E+02 -0.11589965990E+02  0.40659148853E+02  0.00000000000E+00 0. -1.
         11    1    3    3    0    0  0.24871318873E+02 -0.97188040259E+01  0.12428674307E+02  0.29453515910E+02  0.51100000000E-03 0. -1.
        -11    1    3    3    0    0 -0.36459654258E+01  0.64219649598E+00  0.26136041777E+01  0.45317112975E+01  0.51100000000E-03 0.  1.
         12    1    3    3    0    0  0.12861123116E+02 -0.98165443856E+01 -0.34523124950E+01  0.16543623939E+02  0.00000000000E+00 0. -1.
</event>
<event>
 7    1  0.2891523E-011  0.5052889E+02  0.7816164E-02  0.1300439E+00
        -11   -1    0    0    0    0  0.00000000000E+00  0.00000000000E+00  0.45593999997E+02  0.45594000000E+02  0.51100000000E-03 0. -1.
         11   -1    0    0    0    0 -0.00000000000E+00 -0.00000000000E+00 -0.45593999997E+02  0.45594000000E+02  0.51100000000E-03 0.  1.
    9900012    2    1    2    0    0  0.36793475747E+02  0.17164077181E+02  0.21904409298E+01  0.50528887436E+02  0.30000083850E+02 0.  0.
         12    1    1    2    0    0 -0.36793475747E+02 -0.17164077181E+02 -0.21904409298E+01  0.40659112564E+02  0.00000000000E+00 0. -1.
         11    1    3    3    0    0  0.49714217232E+01  0.10787130784E+02  0.57081678394E+01  0.13178027350E+02  0.51100000000E-03 0. -1.
        -11    1    3    3    0    0  0.21337093213E+02 -0.19529600931E+00  0.55044598962E+01  0.22036532539E+02  0.51100000000E-03 0.  1.
        -12    1    3    3    0    0  0.10484960811E+02  0.65722424063E+01 -0.90221868058E+01  0.15314327547E+02  0.00000000000E+00 0.  1.
</event>
<event>
 7    1  0.2891523E-011  0.5052889E+02  0.7816164E-02  0.1300439E+00
        -11   -1    0    0    0    0  0.00000000000E+00  0.00000000000E+00  0.45593999997E+02  0.45594000000E+02  0.51100000000E-03 0.  1.
         11   -1    0    0    0    0 -0.00000000000E+00 -0.00000000000E+00 -0.45593999997E+02  0.45594000000E+02  0.51100000000E-03 0. -1.
    9900012    2    1    2    0    0 -0.29663259545E+02  0.24945546293E+02  0.12287133999E+02  0.50528893903E+02  0.30000103508E+02 0.  0.
         12    1    1    2    0    0  0.29663259545E+02 -0.24945546293E+02 -0.12287133999E+02  0.40659106097E+02  0.00000000000E+00 0. -1.
         11    1    3    3    0    0 -0.92861129750E+01  0.12868023508E+02  0.16909180134E+02  0.23189184898E+02  0.51100000000E-03 0.  1.
        -11    1    3    3    0    0 -0.17434554019E+02  0.11435453539E+02 -0.84254188639E+01  0.22488240366E+02  0.51100000000E-03 0. -1.
         12    1    3    3    0    0 -0.29425925512E+01  0.64206924640E+00  0.38033727287E+01  0.48514686388E+01  0.00000000000E+00 0. -1.
</event>
<event>
 7    1  0.2891523E-011  0.5052886E+02  0.7816164E-02  0.1300439E+00
        -11   -1    0    0    0    0  0.00000000000E+00  0.00000000000E+00  0.45593999997E+02  0.45594000000E+02  0.51100000000E-03 0. -1.
         11   -1    0    0    0    0 -0.00000000000E+00 -0.00000000000E+00 -0.45593999997E+02  0.45594000000E+02  0.51100000000E-03 0.  1.
    9900012    2    1    2    0    0  0.51308141964E+01  0.20544468383E+02 -0.34709723984E+02  0.50528863580E+02  0.30000011336E+02 0.  0.
         12    1    1    2    0    0 -0.51308141964E+01 -0.20544468383E+02  0.34709723984E+02  0.40659136420E+02  0.00000000000E+00 0. -1.
         11    1    3    3    0    0  0.82464984646E+00  0.11323490091E+02 -0.29297594362E+02  0.31420542816E+02  0.51100000000E-03 0.  1.
        -11    1    3    3    0    0 -0.17533902670E+01  0.58126543137E+01  0.41001833601E+01  0.73261744073E+01  0.51100000000E-03 0. -1.
        -12    1    3    3    0    0  0.60595546169E+01  0.34083239782E+01 -0.95123129820E+01  0.11782146356E+02  0.00000000000E+00 0.  1.
</event>
<event>
 7    1  0.2891523E-011  0.5052886E+02  0.7816164E-02  0.1300439E+00
        -11   -1    0    0    0    0  0.00000000000E+00  0.00000000000E+00  0.45593999997E+02  0.45594000000E+02  0.51100000000E-03 0.  1.
         11   -1    0    0    0    0 -0.00000000000E+00 -0.00000000000E+00 -0.45593999997E+02  0.45594000000E+02  0.51100000000E-03 0. -1.
    9900012    2    1    2    0    0 -0.74965384435E+01 -0.15574442444E+02  0.36802236594E+02  0.50528856325E+02  0.29999989284E+02 0.  0.
         12    1    1    2    0    0  0.74965384435E+01  0.15574442444E+02 -0.36802236594E+02  0.40659143675E+02  0.00000000000E+00 0. -1.
         11    1    3    3    0    0 -0.35379276469E+01 -0.66818977058E+01  0.61235744990E+01  0.97294837423E+01  0.51100000000E-03 0. -1.
        -11    1    3    3    0    0  0.31614111654E+01  0.69048291447E+01  0.17347142466E+02  0.18936592568E+02  0.51100000000E-03 0.  1.
        -12    1    3    3    0    0 -0.71200219620E+01 -0.15797373883E+02  0.13331519629E+02  0.21862780014E+02  0.00000000000E+00 0.  1.
</event>
<event>
 7    1  0.2891523E-011  0.5052886E+02  0.7816164E-02  0.1300439E+00
        -11   -1    0    0    0    0  0.00000000000E+00  0.00000000000E+00  0.45593999997E+02  0.45594000000E+02  0.51100000000E-03 0. -1.
         11   -1    0    0    0    0 -0.00000000000E+00 -0.00000000000E+00 -0.45593999997E+02  0.45594000000E+02  0.51100000000E-03 0.  1.
    9900012    2    1    2    0    0 -0.13391676751E+02  0.11843275134E+02 -0.36518014257E+02  0.50528861576E+02  0.30000005247E+02 0.  0.
         12    1    1    2    0    0  0.13391676751E+02 -0.11843275134E+02  0.36518014257E+02  0.40659138424E+02  0.00000000000E+00 0. -1.
         11    1    3    3    0    0  0.23715256697E+01 -0.45567571238E+00 -0.82665500047E+00  0.25524758780E+01  0.51100000000E-03 0. -1.
        -11    1    3    3    0    0 -0.10721492406E+02  0.48829172116E+01 -0.37075872924E+02  0.38902617305E+02  0.51100000000E-03 0.  1.
        -12    1    3    3    0    0 -0.50417100154E+01  0.74160336348E+01  0.13845136676E+01  0.90737683929E+01  0.00000000000E+00 0.  1.
</event>
<event>
 7    1  0.2891523E-011  0.5052886E+02  0.7816164E-02  0.1300439E+00
        -11   -1    0    0    0    0  0.00000000000E+00  0.00000000000E+00  0.45593999997E+02  0.45594000000E+02  0.51100000000E-03 0. -1.
         11   -1    0    0    0    0 -0.00000000000E+00 -0.00000000000E+00 -0.45593999997E+02  0.45594000000E+02  0.51100000000E-03 0.  1.
    9900012    2    1    2    0    0  0.18558236675E+02 -0.34435430536E+02 -0.11088678966E+02  0.50528858028E+02  0.29999994463E+02 0.  0.
         12    1    1    2    0    0 -0.18558236675E+02  0.34435430536E+02  0.11088678966E+02  0.40659141972E+02  0.00000000000E+00 0. -1.
         11    1    3    3    0    0 -0.24734168641E+01 -0.13124088483E+02  0.45340711348E+01  0.14103804125E+02  0.51100000000E-03 0. -1.
        -11    1    3    3    0    0  0.20540669659E+02 -0.21291763091E+02 -0.17575402230E+02  0.34411524950E+02  0.51100000000E-03 0.  1.
        -12    1    3    3    0    0  0.49098388053E+00 -0.19578961993E-01  0.19526521295E+01  0.20135289532E+01  0.00000000000E+00 0.  1.
</event>
<event>
 7    1  0.2891523E-011  0.5052886E+02  0.7816164E-02  0.1300439E+00
        -11   -1    0    0    0    0  0.00000000000E+00  0.00000000000E+00  0.45593999997E+02  0.45594000000E+02  0.51100000000E-03 0.  1.
         11   -1    0    0    0    0 -0.00000000000E+00 -0.00000000000E+00 -0.45593999997E+02  0.45594000000E+02  0.51100000000E-03 0. -1.
    9900012    2    1    2    0    0  0.12706576901E+02 -0.97143170770E+01  0.37381020871E+02  0.50528858664E+02  0.29999996396E+02 0.  0.
         12    1    1    2    0    0 -0.12706576901E+02  0.97143170770E+01 -0.37381020871E+02  0.40659141336E+02  0.00000000000E+00 0. -1.
         11    1    3    3    0    0  0.10425120250E+01  0.70422832067E+00 -0.12097664292E+01  0.17453664155E+01  0.51100000000E-03 0. -1.
        -11    1    3    3    0    0  0.16024261742E+01 -0.96449257909E+01  0.37359079746E+02  0.38617265606E+02  0.51100000000E-03 0.  1.
        -12    1    3    3    0    0  0.10061638702E+02 -0.77361960674E+00  0.12317075541E+01  0.10166226643E+02  0.00000000000E+00 0.  1.
</event>
<event>
 7    1  0.2891523E-011  0.5052886E+02  0.7816164E-02  0.1300439E+00
        -11   -1    0    0    0    0  0.00000000000E+00  0.00000000000E+00  0.45593999997E+02  0.45594000000E+02  0.51100000000E-03 0. -1.
         11   -1    0    0    0    0 -0.00000000000E+00 -0.00000000000E+00 -0.45593999997E+02  0.45594000000E+02  0.51100000000E-03 0.  1.
    9900012    2    1    2    0    0 -0.33238984553E+02 -0.71208353659E+01 -0.22307606601E+02  0.50528859543E+02  0.29999999065E+02 0.  0.
         12    1    1    2    0    0  0.33238984553E+02  0.71208353659E+01  0.22307606601E+02  0.40659140457E+02  0.00000000000E+00 0. -1.
         11    1    3    3    0    0 -0.62267941511E+00 -0.59826179402E+01 -0.13904187547E+02  0.15149451431E+02  0.51100000000E-03 0. -1.
        -11    1    3    3    0    0 -0.29196845187E+02 -0.37309739264E+01 -0.95373088187E+01  0.30940849941E+02  0.51100000000E-03 0.  1.
         12    1    3    3    0    0 -0.34194599515E+01  0.25927565006E+01  0.11338897643E+01  0.44385581701E+01  0.00000000000E+00 0. -1.
</event>
<event>
 7    1  0.2891523E-011  0.5052887E+02  0.7816164E-02  0.1300439E+00
        -11   -1    0    0    0    0  0.00000000000E+00  0.00000000000E+00  0.45593999997E+02  0.45594000000E+02  0.51100000000E-03 0.  1.
         11   -1    0    0    0    0 -0.00000000000E+00 -0.00000000000E+00 -0.45593999997E+02  0.45594000000E+02  0.51100000000E-03 0. -1.
    9900012    2    1    2    0    0  0.43111450078E+01 -0.15712185648E+02  0.37251932317E+02  0.50528865596E+02  0.30000017465E+02 0.  0.
         12    1    1    2    0    0 -0.43111450078E+01  0.15712185648E+02 -0.37251932317E+02  0.40659134404E+02  0.00000000000E+00 0. -1.
         11    1    3    3    0    0 -0.46990756124E+00 -0.11405273562E+02  0.11872027405E+02  0.16469551091E+02  0.51100000000E-03 0. -1.
        -11    1    3    3    0    0 -0.17824323345E+01  0.73850605386E+01  0.15950671508E+02  0.17667487258E+02  0.51100000000E-03 0.  1.
        -12    1    3    3    0    0  0.65634849034E+01 -0.11691972625E+02  0.94292334040E+01  0.16391827248E+02  0.00000000000E+00 0.  1.
</event>
<event>
 7    1  0.2891523E-011  0.5052886E+02  0.7816164E-02  0.1300439E+00
        -11   -1    0    0    0    0  0.00000000000E+00  0.00000000000E+00  0.45593999997E+02  0.45594000000E+02  0.51100000000E-03 0.  1.
         11   -1    0    0    0    0 -0.00000000000E+00 -0.00000000000E+00 -0.45593999997E+02  0.45594000000E+02  0.51100000000E-03 0. -1.
    9900012    2    1    2    0    0  0.11247932528E+02  0.85269199472E+01  0.38130583468E+02  0.50528859016E+02  0.29999997465E+02 0.  0.
         12    1    1    2    0    0 -0.11247932528E+02 -0.85269199472E+01 -0.38130583468E+02  0.40659140984E+02  0.00000000000E+00 0. -1.
         11    1    3    3    0    0 -0.15378044910E+01  0.49497002995E+01  0.28900704474E+01  0.59343814471E+01  0.51100000000E-03 0. -1.
        -11    1    3    3    0    0  0.69954224818E+01 -0.91114870700E+01  0.24264078504E+02  0.26845868178E+02  0.51100000000E-03 0.  1.
        -12    1    3    3    0    0  0.57903145375E+01  0.12688706718E+02  0.10976434516E+02  0.17748609391E+02  0.00000000000E+00 0.  1.
</event>
<event>
 7    1  0.2891523E-011  0.5052886E+02  0.7816164E-02  0.1300439E+00
        -11   -1    0    0    0    0  0.00000000000E+00  0.00000000000E+00  0.45593999997E+02  0.45594000000E+02  0.51100000000E-03 0.  1.
         11   -1    0    0    0    0 -0.00000000000E+00 -0.00000000000E+00 -0.45593999997E+02  0.45594000000E+02  0.51100000000E-03 0. -1.
    9900012    2    1    2    0    0 -0.87905277949E+01 -0.34631645427E+02 -0.19404668634E+02  0.50528863158E+02  0.30000010057E+02 0.  0.
         12    1    1    2    0    0  0.87905277949E+01  0.34631645427E+02  0.19404668634E+02  0.40659136842E+02  0.00000000000E+00 0. -1.
         11    1    3    3    0    0  0.79648641929E+00 -0.13091435277E+02 -0.20664361684E+02  0.24475210158E+02  0.51100000000E-03 0. -1.
        -11    1    3    3    0    0 -0.54622171909E+01 -0.20608919576E+02  0.29024471301E+01  0.21517146240E+02  0.51100000000E-03 0.  1.
         12    1    3    3    0    0 -0.41247970232E+01 -0.93129057504E+00 -0.16427540797E+01  0.45365067601E+01  0.00000000000E+00 0. -1.
</event>
<event>
 7    1  0.2891523E-011  0.5052886E+02  0.7816164E-02  0.1300439E+00
        -11   -1    0    0    0    0  0.00000000000E+00  0.00000000000E+00  0.45593999997E+02  0.45594000000E+02  0.51100000000E-03 0. -1.
         11   -1    0    0    0    0 -0.00000000000E+00 -0.00000000000E+00 -0.45593999997E+02  0.45594000000E+02  0.51100000000E-03 0.  1.
    9900012    2    1    2    0    0 -0.35386366630E+02 -0.15508040166E+00 -0.20023647498E+02  0.50528862622E+02  0.30000008427E+02 0.  0.
         12    1    1    2    0    0  0.35386366630E+02  0.15508040166E+00  0.20023647498E+02  0.40659137378E+02  0.00000000000E+00 0. -1.
         11    1    3    3    0    0 -0.13778416439E+02  0.12446694978E+02 -0.45427789170E+01  0.19115486287E+02  0.51100000000E-03 0. -1.
        -11    1    3    3    0    0 -0.13868887634E+02 -0.11053289254E+02 -0.52568763626E+01  0.18497459201E+02  0.51100000000E-03 0.  1.
        -12    1    3    3    0    0 -0.77390625567E+01 -0.15484861260E+01 -0.10223992218E+02  0.12915917134E+02  0.00000000000E+00 0.  1.
</event>
<event>
 7    1  0.2891523E-011  0.5052887E+02  0.7816164E-02  0.1300439E+00
        -11   -1    0    0    0    0  0.00000000000E+00  0.00000000000E+00  0.45593999997E+02  0.45594000000E+02  0.51100000000E-03 0. -1.
         11   -1    0    0    0    0 -0.00000000000E+00 -0.00000000000E+00 -0.45593999997E+02  0.45594000000E+02  0.51100000000E-03 0.  1.
    9900012    2    1    2    0    0 -0.93990641987E+01  0.64041629828E+01 -0.39035994286E+02  0.50528873580E+02  0.30000041735E+02 0.  0.
         12    1    1    2    0    0  0.93990641987E+01 -0.64041629828E+01  0.39035994286E+02  0.40659126420E+02  0.00000000000E+00 0. -1.
         11    1    3    3    0    0 -0.12012861531E+02 -0.19977029740E+01 -0.42492366720E+01  0.12897894088E+02  0.51100000000E-03 0. -1.
        -11    1    3    3    0    0 -0.16329769668E+01 -0.19239305833E+01 -0.11918335523E+02  0.12182563136E+02  0.51100000000E-03 0.  1.
         12    1    3    3    0    0  0.42467742994E+01  0.10325796540E+02 -0.22868422091E+02  0.25448416357E+02  0.00000000000E+00 0. -1.
</event>
<event>
 7    1  0.2891523E-011  0.5052885E+02  0.7816164E-02  0.1300439E+00
        -11   -1    0    0    0    0  0.00000000000E+00  0.00000000000E+00  0.45593999997E+02  0.45594000000E+02  0.51100000000E-03 0.  1.
         11   -1    0    0    0    0 -0.00000000000E+00 -0.00000000000E+00 -0.45593999997E+02  0.45594000000E+02  0.51100000000E-03 0. -1.
    9900012    2    1    2    0    0  0.25417163142E+02 -0.21304286681E+02  0.23521511887E+02  0.50528851772E+02  0.29999975446E+02 0.  0.
         12    1    1    2    0    0 -0.25417163142E+02  0.21304286681E+02 -0.23521511887E+02  0.40659148228E+02  0.00000000000E+00 0. -1.
         11    1    3    3    0    0  0.41087242725E+01 -0.86701922526E+01  0.15814362084E+01  0.97239287115E+01  0.51100000000E-03 0. -1.
        -11    1    3    3    0    0  0.95469510597E+01  0.39285281055E+01  0.17015950932E+02  0.19902768501E+02  0.51100000000E-03 0.  1.
        -12    1    3    3    0    0  0.11761487810E+02 -0.16562622534E+02  0.49241247464E+01  0.20902154560E+02  0.00000000000E+00 0.  1.
</event>
<event>
 7    1  0.2891523E-011  0.5052886E+02  0.7816164E-02  0.1300439E+00
        -11   -1    0    0    0    0  0.00000000000E+00  0.00000000000E+00  0.45593999997E+02  0.45594000000E+02  0.51100000000E-03 0.  1.
         11   -1    0    0    0    0 -0.00000000000E+00 -0.00000000000E+00 -0.45593999997E+02  0.45594000000E+02  0.51100000000E-03 0. -1.
    9900012    2    1    2    0    0 -0.66284891161E+01 -0.38717813060E+02 -0.10495685811E+02  0.50528864043E+02  0.30000012746E+02 0.  0.
         12    1    1    2    0    0  0.66284891161E+01  0.38717813060E+02  0.10495685811E+02  0.40659135957E+02  0.00000000000E+00 0. -1.
         11    1    3    3    0    0 -0.26754737376E+01 -0.44429416441E+01 -0.11191378590E+02  0.12334700855E+02  0.51100000000E-03 0. -1.
        -11    1    3    3    0    0 -0.36028551788E+01 -0.12882029387E+02  0.79998479715E+01  0.15586045502E+02  0.51100000000E-03 0.  1.
         12    1    3    3    0    0 -0.35016019967E+00 -0.21392842029E+02 -0.73041551921E+01  0.22608117686E+02  0.00000000000E+00 0. -1.
</event>
<event>
 7    1  0.2891523E-011  0.5052885E+02  0.7816164E-02  0.1300439E+00
        -11   -1    0    0    0    0  0.00000000000E+00  0.00000000000E+00  0.45593999997E+02  0.45594000000E+02  0.51100000000E-03 0. -1.
         11   -1    0    0    0    0 -0.00000000000E+00 -0.00000000000E+00 -0.45593999997E+02  0.45594000000E+02  0.51100000000E-03 0.  1.
    9900012    2    1    2    0    0 -0.10386216245E+02 -0.38017414175E+02 -0.99984556740E+01  0.50528851161E+02  0.29999973588E+02 0.  0.
         12    1    1    2    0    0  0.10386216245E+02  0.38017414175E+02  0.99984556740E+01  0.40659148839E+02  0.00000000000E+00 0. -1.
         11    1    3    3    0    0  0.68319596702E+01 -0.12344467559E+02 -0.43485306172E+01  0.14763850143E+02  0.51100000000E-03 0. -1.
        -11    1    3    3    0    0 -0.17106288418E+02 -0.23162816967E+02 -0.10215911616E+02  0.30553331139E+02  0.51100000000E-03 0.  1.
         12    1    3    3    0    0 -0.11188749756E+00 -0.25101296491E+01  0.45659865587E+01  0.52116698785E+01  0.00000000000E+00 0. -1.
</event>
<event>
 7    1  0.2891523E-011  0.5052886E+02  0.7816164E-02  0.1300439E+00
        -11   -1    0    0    0    0  0.00000000000E+00  0.00000000000E+00  0.45593999997E+02  0.45594000000E+02  0.51100000000E-03 0. -1.
         11   -1    0    0    0    0 -0.00000000000E+00 -0.00000000000E+00 -0.45593999997E+02  0.45594000000E+02  0.51100000000E-03 0.  1.
    9900012    2    1    2    0    0 -0.25696173568E+02  0.15930792081E+02 -0.27186064502E+02  0.50528861108E+02  0.30000003822E+02 0.  0.
         12    1    1    2    0    0  0.25696173568E+02 -0.15930792081E+02  0.27186064502E+02  0.40659138892E+02  0.00000000000E+00 0. -1.
         11    1    3    3    0    0 -0.52187590513E+01  0.14846546968E+02 -0.26521884899E+01  0.15958994547E+02  0.51100000000E-03 0. -1.
        -11    1    3    3    0    0 -0.42022702164E+01  0.44800767802E+00 -0.15244557314E+02  0.15819491579E+02  0.51100000000E-03 0.  1.
         12    1    3    3    0    0 -0.16275144301E+02  0.63623743551E+00 -0.92893186972E+01  0.18750374981E+02  0.00000000000E+00 0. -1.
</event>
<event>
 7    1  0.2891523E-011  0.5052886E+02  0.7816164E-02  0.1300439E+00
        -11   -1    0    0    0    0  0.00000000000E+00  0.00000000000E+00  0.45593999997E+02  0.45594000000E+02  0.51100000000E-03 0.  1.
         11   -1    0    0    0    0 -0.00000000000E+00 -0.00000000000E+00 -0.45593999997E+02  0.45594000000E+02  0.51100000000E-03 0. -1.
    9900012    2    1    2    0    0  0.34382802146E+02 -0.42974138023E+01  0.21272528104E+02  0.50528864486E+02  0.30000014092E+02 0.  0.
         12    1    1    2    0    0 -0.34382802146E+02  0.42974138023E+01 -0.21272528104E+02  0.40659135514E+02  0.00000000000E+00 0. -1.
         11    1    3    3    0    0  0.11882941136E+02 -0.13488291135E+01  0.16639556883E+01  0.12074451491E+02  0.51100000000E-03 0.  1.
        -11    1    3    3    0    0 -0.42654346778E+01 -0.11781724611E+01 -0.11083435955E+01  0.45618471177E+01  0.51100000000E-03 0. -1.
        -12    1    3    3    0    0  0.26765295688E+02 -0.17704122277E+01  0.20716916011E+02  0.33892565877E+02  0.00000000000E+00 0.  1.
</event>
<event>
 7    1  0.2891523E-011  0.5052886E+02  0.7816164E-02  0.1300439E+00
        -11   -1    0    0    0    0  0.00000000000E+00  0.00000000000E+00  0.45593999997E+02  0.45594000000E+02  0.51100000000E-03 0.  1.
         11   -1    0    0    0    0 -0.00000000000E+00 -0.00000000000E+00 -0.45593999997E+02  0.45594000000E+02  0.51100000000E-03 0. -1.
    9900012    2    1    2    0    0 -0.15740186111E+02 -0.49796129864E+01  0.37156633518E+02  0.50528863035E+02  0.30000009682E+02 0.  0.
         12    1    1    2    0    0  0.15740186111E+02  0.49796129864E+01 -0.37156633518E+02  0.40659136965E+02  0.00000000000E+00 0. -1.
         11    1    3    3    0    0  0.47640961273E+01 -0.70803154189E+01  0.29054462699E+01  0.90149374168E+01  0.51100000000E-03 0. -1.
        -11    1    3    3    0    0 -0.12538333500E+02 -0.41495386982E+01  0.21486845271E+02  0.25221280664E+02  0.51100000000E-03 0.  1.
         12    1    3    3    0    0 -0.79659487383E+01  0.62502411307E+01  0.12764341977E+02  0.16292644954E+02  0.00000000000E+00 0. -1.
</event>
<event>
 7    1  0.2891523E-011  0.5052887E+02  0.7816164E-02  0.1300439E+00
        -11   -1    0    0    0    0  0.00000000000E+00  0.00000000000E+00  0.45593999997E+02  0.45594000000E+02  0.51100000000E-03 0. -1.
         11   -1    0    0    0    0 -0.00000000000E+00 -0.00000000000E+00 -0.45593999997E+02  0.45594000000E+02  0.51100000000E-03 0.  1.
    9900012    2    1    2    0    0 -0.96340051760E+01 -0.20968345353E+02 -0.33476550216E+02  0.50528868468E+02  0.30000026195E+02 0.  0.
         12    1    1    2    0    0  0.96340051760E+01  0.20968345353E+02  0.33476550216E+02  0.40659131532E+02  0.00000000000E+00 0. -1.
         11    1    3    3    0    0 -0.25866413470E+01 -0.15646402001E+02 -0.41792733569E+01  0.16400211434E+02  0.51100000000E-03 0. -1.
        -11    1    3    3    0    0 -0.35866920273E+01  0.49024740262E+01 -0.15234023705E+02  0.16400429561E+02  0.51100000000E-03 0.  1.
         12    1    3    3    0    0 -0.34606718018E+01 -0.10224417378E+02 -0.14063253154E+02  0.17728227473E+02  0.00000000000E+00 0. -1.
</event>
<event>
 7    1  0.2891523E-011  0.5052886E+02  0.7816164E-02  0.1300439E+00
        -11   -1    0    0    0    0  0.00000000000E+00  0.00000000000E+00  0.45593999997E+02  0.45594000000E+02  0.51100000000E-03 0.  1.
         11   -1    0    0    0    0 -0.00000000000E+00 -0.00000000000E+00 -0.45593999997E+02  0.45594000000E+02  0.51100000000E-03 0. -1.
    9900012    2    1    2    0    0  0.36534938843E+02  0.13641415457E+02  0.11501113706E+02  0.50528860948E+02  0.30000003338E+02 0.  0.
         12    1    1    2    0    0 -0.36534938843E+02 -0.13641415457E+02 -0.11501113706E+02  0.40659139052E+02  0.00000000000E+00 0. -1.
         11    1    3    3    0    0  0.15049769609E+02  0.20260604244E+01  0.14356804812E+02  0.20897806842E+02  0.51100000000E-03 0. -1.
        -11    1    3    3    0    0  0.21157840005E+02  0.74745739748E+01 -0.72527373002E+01  0.23582316434E+02  0.51100000000E-03 0.  1.
        -12    1    3    3    0    0  0.32732922933E+00  0.41407810574E+01  0.43970461950E+01  0.60487376725E+01  0.00000000000E+00 0.  1.
</event>
<event>
 7    1  0.2891523E-011  0.5052898E+02  0.7816164E-02  0.1300438E+00
        -11   -1    0    0    0    0  0.00000000000E+00  0.00000000000E+00  0.45593999997E+02  0.45594000000E+02  0.51100000000E-03 0.  1.
         11   -1    0    0    0    0 -0.00000000000E+00 -0.00000000000E+00 -0.45593999997E+02  0.45594000000E+02  0.51100000000E-03 0. -1.
    9900012    2    1    2    0    0  0.28463689467E+02  0.17596130800E+02  0.23094376800E+02  0.50528982833E+02  0.30000373817E+02 0.  0.
         12    1    1    2    0    0 -0.28463689467E+02 -0.17596130800E+02 -0.23094376800E+02  0.40659017167E+02  0.00000000000E+00 0. -1.
         11    1    3    3    0    0  0.45547792736E+01  0.80998368293E+01 -0.43693077095E+01  0.10268603655E+02  0.51100000000E-03 0. -1.
        -11    1    3    3    0    0  0.16991728774E+02  0.12779449278E+02  0.16621768859E+02  0.26987337232E+02  0.51100000000E-03 0.  1.
         12    1    3    3    0    0  0.69171814196E+01 -0.32831553074E+01  0.10841915650E+02  0.13273041947E+02  0.00000000000E+00 0. -1.
</event>
<event>
 7    1  0.2891523E-011  0.5052884E+02  0.7816164E-02  0.1300439E+00
        -11   -1    0    0    0    0  0.00000000000E+00  0.00000000000E+00  0.45593999997E+02  0.45594000000E+02  0.51100000000E-03 0. -1.
         11   -1    0    0    0    0 -0.00000000000E+00 -0.00000000000E+00 -0.45593999997E+02  0.45594000000E+02  0.51100000000E-03 0.  1.
    9900012    2    1    2    0    0  0.75411456781E+01  0.37509903735E+02 -0.13758828799E+02  0.50528842036E+02  0.29999945854E+02 0.  0.
         12    1    1    2    0    0 -0.75411456781E+01 -0.37509903735E+02  0.13758828799E+02  0.40659157964E+02  0.00000000000E+00 0. -1.
         11    1    3    3    0    0 -0.32015332675E+01  0.26161902054E+01 -0.11017715763E+00  0.41359890862E+01  0.51100000000E-03 0. -1.
        -11    1    3    3    0    0  0.43427973229E+01  0.27804460124E+02 -0.20347506407E+02  0.34727063058E+02  0.51100000000E-03 0.  1.
        -12    1    3    3    0    0  0.63998816227E+01  0.70892534061E+01  0.66988547658E+01  0.11665789892E+02  0.00000000000E+00 0.  1.
</event>
<event>
 7    1  0.2891523E-011  0.5052886E+02  0.7816164E-02  0.1300439E+00
        -11   -1    0    0    0    0  0.00000000000E+00  0.00000000000E+00  0.45593999997E+02  0.45594000000E+02  0.51100000000E-03 0.  1.
         11   -1    0    0    0    0 -0.00000000000E+00 -0.00000000000E+00 -0.45593999997E+02  0.45594000000E+02  0.51100000000E-03 0. -1.
    9900012    2    1    2    0    0 -0.80447747712E+00 -0.40045402061E+02  0.69917120472E+01  0.50528862680E+02  0.30000008603E+02 0.  0.
         12    1    1    2    0    0  0.80447747712E+00  0.40045402061E+02 -0.69917120472E+01  0.40659137320E+02  0.00000000000E+00 0. -1.
         11    1    3    3    0    0 -0.32094102995E+01 -0.12297226377E+02  0.88845430605E+01  0.15506682324E+02  0.51100000000E-03 0. -1.
        -11    1    3    3    0    0  0.11280620870E+02 -0.14985252497E+02 -0.44251555783E+01  0.19271538646E+02  0.51100000000E-03 0.  1.
        -12    1    3    3    0    0 -0.88756880480E+01 -0.12762923186E+02  0.25323245650E+01  0.15750641710E+02  0.00000000000E+00 0.  1.
</event>
<event>
 7    1  0.2891523E-011  0.5052886E+02  0.7816164E-02  0.1300439E+00
        -11   -1    0    0    0    0  0.00000000000E+00  0.00000000000E+00  0.45593999997E+02  0.45594000000E+02  0.51100000000E-03 0.  1.
         11   -1    0    0    0    0 -0.00000000000E+00 -0.00000000000E+00 -0.45593999997E+02  0.45594000000E+02  0.51100000000E-03 0. -1.
    9900012    2    1    2    0    0  0.18831299172E+02  0.33642791582E+02 -0.12911644916E+02  0.50528857997E+02  0.29999994369E+02 0.  0.
         12    1    1    2    0    0 -0.18831299172E+02 -0.33642791582E+02  0.12911644916E+02  0.40659142003E+02  0.00000000000E+00 0. -1.
         11    1    3    3    0    0 -0.54310677470E+01  0.16869864951E+02 -0.93830677912E+01  0.20053199290E+02  0.51100000000E-03 0. -1.
        -11    1    3    3    0    0  0.71066096884E+01  0.76681487226E+01  0.10913250659E+01  0.10511679064E+02  0.51100000000E-03 0.  1.
         12    1    3    3    0    0  0.17155757230E+02  0.91047779084E+01 -0.46199021911E+01  0.19963979642E+02  0.00000000000E+00 0. -1.
</event>
<event>
 7    1  0.2891523E-011  0.5052886E+02  0.7816164E-02  0.1300439E+00
        -11   -1    0    0    0    0  0.00000000000E+00  0.00000000000E+00  0.45593999997E+02  0.45594000000E+02  0.51100000000E-03 0.  1.
         11   -1    0    0    0    0 -0.00000000000E+00 -0.00000000000E+00 -0.45593999997E+02  0.45594000000E+02  0.51100000000E-03 0. -1.
    9900012    2    1    2    0    0 -0.58251449195E+01 -0.29230361014E+02  0.27655364673E+02  0.50528861870E+02  0.30000006139E+02 0.  0.
         12    1    1    2    0    0  0.58251449195E+01  0.29230361014E+02 -0.27655364673E+02  0.40659138130E+02  0.00000000000E+00 0. -1.
         11    1    3    3    0    0  0.82635554421E+01 -0.13961970586E+01  0.28125348728E+01  0.88400264391E+01  0.51100000000E-03 0. -1.
        -11    1    3    3    0    0 -0.28011965687E+01 -0.10029202294E+02  0.15397957556E+02  0.18588402245E+02  0.51100000000E-03 0.  1.
         12    1    3    3    0    0 -0.11287503793E+02 -0.17804961661E+02  0.94448722435E+01  0.23100433185E+02  0.00000000000E+00 0. -1.
</event>
<event>
 7    1  0.2891523E-011  0.5052885E+02  0.7816164E-02  0.1300439E+00
        -11   -1    0    0    0    0  0.00000000000E+00  0.00000000000E+00  0.45593999997E+02  0.45594000000E+02  0.51100000000E-03 0.  1.
         11   -1    0    0    0    0 -0.00000000000E+00 -0.00000000000E+00 -0.45593999997E+02  0.45594000000E+02  0.51100000000E-03 0. -1.
    9900012    2    1    2    0    0 -0.27924109187E+02 -0.48637903052E+01  0.29150542456E+02  0.50528850286E+02  0.29999970928E+02 0.  0.
         12    1    1    2    0    0  0.27924109187E+02  0.48637903052E+01 -0.29150542456E+02  0.40659149714E+02  0.00000000000E+00 0. -1.
         11    1    3    3    0    0 -0.73636523797E+00 -0.12249588597E+02  0.91080415699E+01  0.15282377958E+02  0.51100000000E-03 0. -1.
        -11    1    3    3    0    0 -0.90637753211E+01  0.33947939233E+01  0.32250242174E+01  0.10201834654E+02  0.51100000000E-03 0.  1.
         12    1    3    3    0    0 -0.18123968628E+02  0.39910043681E+01  0.16817476669E+02  0.25044637673E+02  0.00000000000E+00 0. -1.
</event>
<event>
 7    1  0.2891523E-011  0.5052886E+02  0.7816164E-02  0.1300439E+00
        -11   -1    0    0    0    0  0.00000000000E+00  0.00000000000E+00  0.45593999997E+02  0.45594000000E+02  0.51100000000E-03 0. -1.
         11   -1    0    0    0    0 -0.00000000000E+00 -0.00000000000E+00 -0.45593999997E+02  0.45594000000E+02  0.51100000000E-03 0.  1.
    9900012    2    1    2    0    0  0.14338977230E+02  0.17147507403E+02 -0.33963543217E+02  0.50528861470E+02  0.30000004925E+02 0.  0.
         12    1    1    2    0    0 -0.14338977230E+02 -0.17147507403E+02  0.33963543217E+02  0.40659138530E+02  0.00000000000E+00 0. -1.
         11    1    3    3    0    0  0.11020912871E+01  0.50782816621E+01  0.51684685126E+01  0.73291620852E+01  0.51100000000E-03 0. -1.
        -11    1    3    3    0    0  0.85817042349E+01  0.55041397555E+01 -0.20161844703E+02  0.22592945450E+02  0.51100000000E-03 0.  1.
         12    1    3    3    0    0  0.46551817077E+01  0.65650859852E+01 -0.18970167027E+02  0.20606753935E+02  0.00000000000E+00 0. -1.
</event>
<event>
 7    1  0.2891523E-011  0.5052886E+02  0.7816164E-02  0.1300439E+00
        -11   -1    0    0    0    0  0.00000000000E+00  0.00000000000E+00  0.45593999997E+02  0.45594000000E+02  0.51100000000E-03 0. -1.
         11   -1    0    0    0    0 -0.00000000000E+00 -0.00000000000E+00 -0.45593999997E+02  0.45594000000E+02  0.51100000000E-03 0.  1.
    9900012    2    1    2    0    0  0.27386150288E+02  0.20732639944E+02 -0.21755967471E+02  0.50528859487E+02  0.29999998898E+02 0.  0.
         12    1    1    2    0    0 -0.27386150288E+02 -0.20732639944E+02  0.21755967471E+02  0.40659140513E+02  0.00000000000E+00 0. -1.
         11    1    3    3    0    0  0.97590881428E+01 -0.41574907522E+01 -0.39115074027E+01  0.11305946274E+02  0.51100000000E-03 0. -1.
        -11    1    3    3    0    0  0.12009740244E+02  0.16381999578E+02 -0.20319811421E+02  0.28731489822E+02  0.51100000000E-03 0.  1.
        -12    1    3    3    0    0  0.56173219010E+01  0.85081311177E+01  0.24753513530E+01  0.10491423391E+02  0.00000000000E+00 0.  1.
</event>
<event>
 7    1  0.2891523E-011  0.5052886E+02  0.7816164E-02  0.1300439E+00
        -11   -1    0    0    0    0  0.00000000000E+00  0.00000000000E+00  0.45593999997E+02  0.45594000000E+02  0.51100000000E-03 0.  1.
         11   -1    0    0    0    0 -0.00000000000E+00 -0.00000000000E+00 -0.45593999997E+02  0.45594000000E+02  0.51100000000E-03 0. -1.
    9900012    2    1    2    0    0  0.31629530763E+02 -0.67078199160E+01  0.24652455504E+02  0.50528860478E+02  0.30000001909E+02 0.  0.
         12    1    1    2    0    0 -0.31629530763E+02  0.67078199160E+01 -0.24652455504E+02  0.40659139522E+02  0.00000000000E+00 0. -1.
         11    1    3    3    0    0  0.19052148019E+01  0.64939377708E+01  0.55822544409E+01  0.87728351242E+01  0.51100000000E-03 0. -1.
        -11    1    3    3    0    0  0.16864187898E+02 -0.65507131735E+01  0.35627592669E+00  0.18095292463E+02  0.51100000000E-03 0.  1.
        -12    1    3    3    0    0  0.12860128063E+02 -0.66510445134E+01  0.18713925136E+02  0.23660732890E+02  0.00000000000E+00 0.  1.
</event>
<event>
 7    1  0.2891523E-011  0.5052890E+02  0.7816164E-02  0.1300439E+00
        -11   -1    0    0    0    0  0.00000000000E+00  0.00000000000E+00  0.45593999997E+02  0.45594000000E+02  0.51100000000E-03 0. -1.
         11   -1    0    0    0    0 -0.00000000000E+00 -0.00000000000E+00 -0.45593999997E+02  0.45594000000E+02  0.51100000000E-03 0.  1.
    9900012    2    1    2    0    0  0.61279001096E+01 -0.36793408532E+02 -0.16181964913E+02  0.50528904343E+02  0.30000135241E+02 0.  0.
         12    1    1    2    0    0 -0.61279001096E+01  0.36793408532E+02  0.16181964913E+02  0.40659095657E+02  0.00000000000E+00 0. -1.
         11    1    3    3    0    0 -0.52894427252E+01 -0.21696876562E+02 -0.17014046524E+02  0.28075085686E+02  0.51100000000E-03 0. -1.
        -11    1    3    3    0    0  0.12420361652E+02 -0.11626522167E+02 -0.29018690594E+01  0.17258686090E+02  0.51100000000E-03 0.  1.
        -12    1    3    3    0    0 -0.10030188169E+01 -0.34700098035E+01  0.37339506704E+01  0.51951325674E+01  0.00000000000E+00 0.  1.
</event>
<event>
 7    1  0.2891523E-011  0.5052886E+02  0.7816164E-02  0.1300439E+00
        -11   -1    0    0    0    0  0.00000000000E+00  0.00000000000E+00  0.45593999997E+02  0.45594000000E+02  0.51100000000E-03 0.  1.
         11   -1    0    0    0    0 -0.00000000000E+00 -0.00000000000E+00 -0.45593999997E+02  0.45594000000E+02  0.51100000000E-03 0. -1.
    9900012    2    1    2    0    0  0.29522680321E+02 -0.25161923884E+02  0.12184201423E+02  0.50528857963E+02  0.29999994263E+02 0.  0.
         12    1    1    2    0    0 -0.29522680321E+02  0.25161923884E+02 -0.12184201423E+02  0.40659142037E+02  0.00000000000E+00 0. -1.
         11    1    3    3    0    0 -0.27489710685E+01 -0.59915264820E+01 -0.56724629816E+01  0.86966699408E+01  0.51100000000E-03 0. -1.
        -11    1    3    3    0    0  0.24529557641E+02 -0.12387537902E+02  0.13996112940E+02  0.30838960277E+02  0.51100000000E-03 0.  1.
         12    1    3    3    0    0  0.77420937493E+01 -0.67828595003E+01  0.38605514650E+01  0.10993227744E+02  0.00000000000E+00 0. -1.
</event>
<event>
 7    1  0.2891523E-011  0.5052885E+02  0.7816164E-02  0.1300439E+00
        -11   -1    0    0    0    0  0.00000000000E+00  0.00000000000E+00  0.45593999997E+02  0.45594000000E+02  0.51100000000E-03 0.  1.
         11   -1    0    0    0    0 -0.00000000000E+00 -0.00000000000E+00 -0.45593999997E+02  0.45594000000E+02  0.51100000000E-03 0. -1.
    9900012    2    1    2    0    0  0.95474743537E+01 -0.35795929099E+02  0.16753026177E+02  0.50528847369E+02  0.29999962062E+02 0.  0.
         12    1    1    2    0    0 -0.95474743537E+01  0.35795929099E+02 -0.16753026177E+02  0.40659152631E+02  0.00000000000E+00 0. -1.
         11    1    3    3    0    0 -0.58012834464E+01 -0.30371850577E+02  0.10934261797E+02  0.32797290718E+02  0.51100000000E-03 0. -1.
        -11    1    3    3    0    0  0.15343967251E+02 -0.52451607555E+01  0.61599319026E+01  0.17346290776E+02  0.51100000000E-03 0.  1.
        -12    1    3    3    0    0  0.47905487010E-02 -0.17891776635E+00 -0.34116752270E+00  0.38526587575E+00  0.00000000000E+00 0.  1.
</event>
<event>
 7    1  0.2891523E-011  0.5052886E+02  0.7816164E-02  0.1300439E+00
        -11   -1    0    0    0    0  0.00000000000E+00  0.00000000000E+00  0.45593999997E+02  0.45594000000E+02  0.51100000000E-03 0. -1.
         11   -1    0    0    0    0 -0.00000000000E+00 -0.00000000000E+00 -0.45593999997E+02  0.45594000000E+02  0.51100000000E-03 0.  1.
    9900012    2    1    2    0    0  0.76895754798E+01 -0.33961464049E+02 -0.20991783276E+02  0.50528861095E+02  0.30000003784E+02 0.  0.
         12    1    1    2    0    0 -0.76895754798E+01  0.33961464049E+02  0.20991783276E+02  0.40659138905E+02  0.00000000000E+00 0. -1.
         11    1    3    3    0    0  0.46067582591E+01 -0.73063818399E+01  0.29606992559E+01  0.91307818720E+01  0.51100000000E-03 0. -1.
        -11    1    3    3    0    0  0.57619393288E+01 -0.23283375743E+02 -0.27005301346E+02  0.36119272305E+02  0.51100000000E-03 0.  1.
        -12    1    3    3    0    0 -0.26791221082E+01 -0.33717064659E+01  0.30528188140E+01  0.52788069177E+01  0.00000000000E+00 0.  1.
</event>
<event>
 7    1  0.2891523E-011  0.5052884E+02  0.7816164E-02  0.1300439E+00
        -11   -1    0    0    0    0  0.00000000000E+00  0.00000000000E+00  0.45593999997E+02  0.45594000000E+02  0.51100000000E-03 0.  1.
         11   -1    0    0    0    0 -0.00000000000E+00 -0.00000000000E+00 -0.45593999997E+02  0.45594000000E+02  0.51100000000E-03 0. -1.
    9900012    2    1    2    0    0  0.79249625244E+01  0.70735544675E+01  0.39246995935E+02  0.50528844896E+02  0.29999954547E+02 0.  0.
         12    1    1    2    0    0 -0.79249625244E+01 -0.70735544675E+01 -0.39246995935E+02  0.40659155104E+02  0.00000000000E+00 0. -1.
         11    1    3    3    0    0  0.51886188907E+01 -0.39154890170E+01  0.14885957596E+02  0.16243292586E+02  0.51100000000E-03 0. -1.
        -11    1    3    3    0    0 -0.73553732263E+01  0.40211421712E+01  0.17508552113E+01  0.85636787592E+01  0.51100000000E-03 0.  1.
        -12    1    3    3    0    0  0.10091716860E+02  0.69679013133E+01  0.22610183128E+02  0.25721873551E+02  0.00000000000E+00 0.  1.
</event>
<event>
 7    1  0.2891523E-011  0.5052887E+02  0.7816164E-02  0.1300439E+00
        -11   -1    0    0    0    0  0.00000000000E+00  0.00000000000E+00  0.45593999997E+02  0.45594000000E+02  0.51100000000E-03 0.  1.
         11   -1    0    0    0    0 -0.00000000000E+00 -0.00000000000E+00 -0.45593999997E+02  0.45594000000E+02  0.51100000000E-03 0. -1.
    9900012    2    1    2    0    0 -0.10663992648E+02 -0.39223191334E+02 -0.99284514572E+00  0.50528865490E+02  0.30000017144E+02 0.  0.
         12    1    1    2    0    0  0.10663992648E+02  0.39223191334E+02  0.99284514572E+00  0.40659134510E+02  0.00000000000E+00 0. -1.
         11    1    3    3    0    0  0.12705784863E+00 -0.18864846846E+02 -0.13028562152E+02  0.22926884267E+02  0.51100000000E-03 0. -1.
        -11    1    3    3    0    0 -0.77038529444E+01 -0.74789749720E+01  0.18529673613E+01  0.10895774645E+02  0.51100000000E-03 0.  1.
         12    1    3    3    0    0 -0.30871975527E+01 -0.12879369516E+02  0.10182749645E+02  0.16706206577E+02  0.00000000000E+00 0. -1.
</event>
<event>
 7    1  0.2891523E-011  0.5052886E+02  0.7816164E-02  0.1300439E+00
        -11   -1    0    0    0    0  0.00000000000E+00  0.00000000000E+00  0.45593999997E+02  0.45594000000E+02  0.51100000000E-03 0.  1.
         11   -1    0    0    0    0 -0.00000000000E+00 -0.00000000000E+00 -0.45593999997E+02  0.45594000000E+02  0.51100000000E-03 0. -1.
    9900012    2    1    2    0    0  0.65015173292E+01 -0.19306688617E+02  0.35187323269E+02  0.50528859924E+02  0.30000000225E+02 0.  0.
         12    1    1    2    0    0 -0.65015173292E+01  0.19306688617E+02 -0.35187323269E+02  0.40659140076E+02  0.00000000000E+00 0. -1.
         11    1    3    3    0    0  0.53654503428E+01 -0.16044815403E+02  0.90901388562E+01  0.19205592503E+02  0.51100000000E-03 0. -1.
        -11    1    3    3    0    0 -0.57691684202E+01 -0.44624044549E+01  0.22060886214E+02  0.23235297687E+02  0.51100000000E-03 0.  1.
        -12    1    3    3    0    0  0.69052354065E+01  0.12005312411E+01  0.40362981985E+01  0.80879697346E+01  0.00000000000E+00 0.  1.
</event>
<event>
 7    1  0.2891523E-011  0.5052886E+02  0.7816164E-02  0.1300439E+00
        -11   -1    0    0    0    0  0.00000000000E+00  0.00000000000E+00  0.45593999997E+02  0.45594000000E+02  0.51100000000E-03 0.  1.
         11   -1    0    0    0    0 -0.00000000000E+00 -0.00000000000E+00 -0.45593999997E+02  0.45594000000E+02  0.51100000000E-03 0. -1.
    9900012    2    1    2    0    0 -0.29086770466E+02  0.23199970469E+02  0.16397774953E+02  0.50528857494E+02  0.29999992839E+02 0.  0.
         12    1    1    2    0    0  0.29086770466E+02 -0.23199970469E+02 -0.16397774953E+02  0.40659142506E+02  0.00000000000E+00 0. -1.
         11    1    3    3    0    0 -0.12289624603E+02 -0.47709290537E+01  0.59139095175E+01  0.14448908711E+02  0.51100000000E-03 0.  1.
        -11    1    3    3    0    0 -0.15721569689E+02  0.27782455414E+02  0.73447621858E+01  0.32756344639E+02  0.51100000000E-03 0. -1.
         12    1    3    3    0    0 -0.10755761741E+01  0.18844410913E+00  0.31391032497E+01  0.33236041432E+01  0.00000000000E+00 0. -1.
</event>
<event>
 7    1  0.2891523E-011  0.5052890E+02  0.7816164E-02  0.1300439E+00
        -11   -1    0    0    0    0  0.00000000000E+00  0.00000000000E+00  0.45593999997E+02  0.45594000000E+02  0.51100000000E-03 0. -1.
         11   -1    0    0    0    0 -0.00000000000E+00 -0.00000000000E+00 -0.45593999997E+02  0.45594000000E+02  0.51100000000E-03 0.  1.
    9900012    2    1    2    0    0  0.19803941842E+02  0.30111753714E+02  0.18821487727E+02  0.50528902316E+02  0.30000129079E+02 0.  0.
         12    1    1    2    0    0 -0.19803941842E+02 -0.30111753714E+02 -0.18821487727E+02  0.40659097684E+02  0.00000000000E+00 0. -1.
         11    1    3    3    0    0  0.16948951183E+01  0.12790286006E+02  0.19398710870E+02  0.23297512083E+02  0.51100000000E-03 0. -1.
        -11    1    3    3    0    0  0.18061694124E+01  0.74527360755E+01 -0.25285151064E+01  0.80745843151E+01  0.51100000000E-03 0.  1.
         12    1    3    3    0    0  0.16302877311E+02  0.98687316324E+01  0.19512919643E+01  0.19156805918E+02  0.00000000000E+00 0. -1.
</event>
<event>
 7    1  0.2891523E-011  0.5052886E+02  0.7816164E-02  0.1300439E+00
        -11   -1    0    0    0    0  0.00000000000E+00  0.00000000000E+00  0.45593999997E+02  0.45594000000E+02  0.51100000000E-03 0.  1.
         11   -1    0    0    0    0 -0.00000000000E+00 -0.00000000000E+00 -0.45593999997E+02  0.45594000000E+02  0.51100000000E-03 0. -1.
    9900012    2    1    2    0    0 -0.19385392122E+02 -0.30210336897E+02  0.19097328288E+02  0.50528857967E+02  0.29999994276E+02 0.  0.
         12    1    1    2    0    0  0.19385392122E+02  0.30210336897E+02 -0.19097328288E+02  0.40659142033E+02  0.00000000000E+00 0. -1.
         11    1    3    3    0    0 -0.11062837903E+02 -0.13548949306E+01  0.23924360580E+01  0.11399380391E+02  0.51100000000E-03 0. -1.
        -11    1    3    3    0    0 -0.33909439460E+01 -0.22847172858E+02  0.20127097948E+02  0.30636446930E+02  0.51100000000E-03 0.  1.
        -12    1    3    3    0    0 -0.49316102729E+01 -0.60082691087E+01 -0.34222057186E+01  0.84930306456E+01  0.00000000000E+00 0.  1.
</event>
<event>
 7    1  0.2891523E-011  0.5052886E+02  0.7816164E-02  0.1300439E+00
        -11   -1    0    0    0    0  0.00000000000E+00  0.00000000000E+00  0.45593999997E+02  0.45594000000E+02  0.51100000000E-03 0.  1.
         11   -1    0    0    0    0 -0.00000000000E+00 -0.00000000000E+00 -0.45593999997E+02  0.45594000000E+02  0.51100000000E-03 0. -1.
    9900012    2    1    2    0    0 -0.34365945179E+02  0.87659705173E+00  0.21711268770E+02  0.50528858321E+02  0.29999995353E+02 0.  0.
         12    1    1    2    0    0  0.34365945179E+02 -0.87659705173E+00 -0.21711268770E+02  0.40659141679E+02  0.00000000000E+00 0. -1.
         11    1    3    3    0    0 -0.19690386349E+02 -0.19713300670E+01  0.26374551670E+02  0.32972934854E+02  0.51100000000E-03 0. -1.
        -11    1    3    3    0    0 -0.10623744212E+02  0.21367884705E+01  0.62676717043E+00  0.10854613922E+02  0.51100000000E-03 0.  1.
         12    1    3    3    0    0 -0.40518146182E+01  0.71113864829E+00 -0.52900500706E+01  0.67013095456E+01  0.00000000000E+00 0. -1.
</event>
<event>
 7    1  0.2891523E-011  0.5052890E+02  0.7816164E-02  0.1300439E+00
        -11   -1    0    0    0    0  0.00000000000E+00  0.00000000000E+00  0.45593999997E+02  0.45594000000E+02  0.51100000000E-03 0. -1.
         11   -1    0    0    0    0 -0.00000000000E+00 -0.00000000000E+00 -0.45593999997E+02  0.45594000000E+02  0.51100000000E-03 0.  1.
    9900012    2    1    2    0    0  0.24730048316E+02  0.26552419267E+02 -0.18345467891E+02  0.50528899533E+02  0.30000120620E+02 0.  0.
         12    1    1    2    0    0 -0.24730048316E+02 -0.26552419267E+02  0.18345467891E+02  0.40659100467E+02  0.00000000000E+00 0. -1.
         11    1    3    3    0    0 -0.23542469399E+01  0.76494834961E-01 -0.30112485509E+01  0.38230809840E+01  0.51100000000E-03 0. -1.
        -11    1    3    3    0    0  0.27386308916E+02  0.27762157481E+02 -0.87185177550E+01  0.39959477676E+02  0.51100000000E-03 0.  1.
        -12    1    3    3    0    0 -0.30201365945E+00 -0.12862330492E+01 -0.66157015854E+01  0.67463408730E+01  0.00000000000E+00 0.  1.
</event>
<event>
 7    1  0.2891523E-011  0.5052886E+02  0.7816164E-02  0.1300439E+00
        -11   -1    0    0    0    0  0.00000000000E+00  0.00000000000E+00  0.45593999997E+02  0.45594000000E+02  0.51100000000E-03 0.  1.
         11   -1    0    0    0    0 -0.00000000000E+00 -0.00000000000E+00 -0.45593999997E+02  0.45594000000E+02  0.51100000000E-03 0. -1.
    9900012    2    1    2    0    0 -0.33972836109E+02 -0.60135541058E+01  0.21513936585E+02  0.50528857194E+02  0.29999991927E+02 0.  0.
         12    1    1    2    0    0  0.33972836109E+02  0.60135541058E+01 -0.21513936585E+02  0.40659142806E+02  0.00000000000E+00 0. -1.
         11    1    3    3    0    0 -0.12824161094E+02 -0.13133809396E+02  0.95620883381E+01  0.20697574512E+02  0.51100000000E-03 0. -1.
        -11    1    3    3    0    0 -0.77272718675E+01  0.69128276758E+01  0.12691191797E+02  0.16387930513E+02  0.51100000000E-03 0.  1.
        -12    1    3    3    0    0 -0.13421403148E+02  0.20742761486E+00 -0.73934354983E+00  0.13443352170E+02  0.00000000000E+00 0.  1.
</event>
<event>
 7    1  0.2891523E-011  0.5052888E+02  0.7816164E-02  0.1300439E+00
        -11   -1    0    0    0    0  0.00000000000E+00  0.00000000000E+00  0.45593999997E+02  0.45594000000E+02  0.51100000000E-03 0. -1.
         11   -1    0    0    0    0 -0.00000000000E+00 -0.00000000000E+00 -0.45593999997E+02  0.45594000000E+02  0.51100000000E-03 0.  1.
    9900012    2    1    2    0    0  0.10048040805E+02 -0.33913780529E+02 -0.20051349823E+02  0.50528877241E+02  0.30000052863E+02 0.  0.
         12    1    1    2    0    0 -0.10048040805E+02  0.33913780529E+02  0.20051349823E+02  0.40659122759E+02  0.00000000000E+00 0. -1.
         11    1    3    3    0    0  0.53096412702E+00 -0.17149752027E+02 -0.22577807429E+02  0.28357596972E+02  0.51100000000E-03 0. -1.
        -11    1    3    3    0    0  0.14458812684E+01 -0.13070496768E+02  0.15791815263E+01  0.13244707356E+02  0.51100000000E-03 0.  1.
        -12    1    3    3    0    0  0.80711954091E+01 -0.36935317345E+01  0.94727607892E+00  0.89265729133E+01  0.00000000000E+00 0.  1.
</event>
<event>
 7    1  0.2891523E-011  0.5052885E+02  0.7816164E-02  0.1300439E+00
        -11   -1    0    0    0    0  0.00000000000E+00  0.00000000000E+00  0.45593999997E+02  0.45594000000E+02  0.51100000000E-03 0.  1.
         11   -1    0    0    0    0 -0.00000000000E+00 -0.00000000000E+00 -0.45593999997E+02  0.45594000000E+02  0.51100000000E-03 0. -1.
    9900012    2    1    2    0    0  0.12103004008E+02 -0.38532665196E+02  0.46816469578E+01  0.50528845909E+02  0.29999957625E+02 0.  0.
         12    1    1    2    0    0 -0.12103004008E+02  0.38532665196E+02 -0.46816469578E+01  0.40659154091E+02  0.00000000000E+00 0. -1.
         11    1    3    3    0    0  0.11983679912E+02 -0.21316262075E+02  0.64987931100E+01  0.25302686127E+02  0.51100000000E-03 0.  1.
        -11    1    3    3    0    0  0.49922332159E+01 -0.61233095157E+01 -0.83214675482E+01  0.11474499306E+02  0.51100000000E-03 0. -1.
        -12    1    3    3    0    0 -0.48729091198E+01 -0.11093093605E+02  0.65043213960E+01  0.13751660476E+02  0.00000000000E+00 0.  1.
</event>
<event>
 7    1  0.2891523E-011  0.5052886E+02  0.7816164E-02  0.1300439E+00
        -11   -1    0    0    0    0  0.00000000000E+00  0.00000000000E+00  0.45593999997E+02  0.45594000000E+02  0.51100000000E-03 0. -1.
         11   -1    0    0    0    0 -0.00000000000E+00 -0.00000000000E+00 -0.45593999997E+02  0.45594000000E+02  0.51100000000E-03 0.  1.
    9900012    2    1    2    0    0 -0.15163603715E+02  0.19460091443E+02 -0.32319275668E+02  0.50528860606E+02  0.30000002297E+02 0.  0.
         12    1    1    2    0    0  0.15163603715E+02 -0.19460091443E+02  0.32319275668E+02  0.40659139394E+02  0.00000000000E+00 0. -1.
         11    1    3    3    0    0 -0.69898647383E+01  0.22998747958E+02 -0.11854856360E+02  0.26801832704E+02  0.51100000000E-03 0.  1.
        -11    1    3    3    0    0 -0.54135979531E+01 -0.29121755385E+01 -0.47736503547E+01  0.77830294318E+01  0.51100000000E-03 0. -1.
         12    1    3    3    0    0 -0.27601410237E+01 -0.62648097670E+00 -0.15690768953E+02  0.15943998470E+02  0.00000000000E+00 0. -1.
</event>
<event>
 7    1  0.2891523E-011  0.5052886E+02  0.7816164E-02  0.1300439E+00
        -11   -1    0    0    0    0  0.00000000000E+00  0.00000000000E+00  0.45593999997E+02  0.45594000000E+02  0.51100000000E-03 0. -1.
         11   -1    0    0    0    0 -0.00000000000E+00 -0.00000000000E+00 -0.45593999997E+02  0.45594000000E+02  0.51100000000E-03 0.  1.
    9900012    2    1    2    0    0  0.20040455176E+02 -0.35284552699E+02 -0.25585723810E+01  0.50528858402E+02  0.29999995600E+02 0.  0.
         12    1    1    2    0    0 -0.20040455176E+02  0.35284552699E+02  0.25585723810E+01  0.40659141598E+02  0.00000000000E+00 0. -1.
         11    1    3    3    0    0 -0.55944043845E+01 -0.13480010351E+02 -0.74143990985E+01  0.16370136033E+02  0.51100000000E-03 0. -1.
        -11    1    3    3    0    0  0.21647419759E+02 -0.19263219721E+02  0.32213867460E+01  0.29155784145E+02  0.51100000000E-03 0.  1.
         12    1    3    3    0    0  0.39874398011E+01 -0.25413226270E+01  0.16344399715E+01  0.50029382249E+01  0.00000000000E+00 0. -1.
</event>
<event>
 7    1  0.2891523E-011  0.5052885E+02  0.7816164E-02  0.1300439E+00
        -11   -1    0    0    0    0  0.00000000000E+00  0.00000000000E+00  0.45593999997E+02  0.45594000000E+02  0.51100000000E-03 0.  1.
         11   -1    0    0    0    0 -0.00000000000E+00 -0.00000000000E+00 -0.45593999997E+02  0.45594000000E+02  0.51100000000E-03 0. -1.
    9900012    2    1    2    0    0  0.28155278674E+02  0.19030838710E+02  0.22322045978E+02  0.50528852494E+02  0.29999977641E+02 0.  0.
         12    1    1    2    0    0 -0.28155278674E+02 -0.19030838710E+02 -0.22322045978E+02  0.40659147506E+02  0.00000000000E+00 0. -1.
         11    1    3    3    0    0 -0.22077998190E+01 -0.17709649210E+01  0.97895729989E+01  0.10190507178E+02  0.51100000000E-03 0. -1.
        -11    1    3    3    0    0  0.64953183203E+00  0.35553285110E+01  0.29657002339E+01  0.46752144935E+01  0.51100000000E-03 0.  1.
         12    1    3    3    0    0  0.29713546661E+02  0.17246475120E+02  0.95667727455E+01  0.35663130822E+02  0.00000000000E+00 0. -1.
</event>
<event>
 7    1  0.2891523E-011  0.5052888E+02  0.7816164E-02  0.1300439E+00
        -11   -1    0    0    0    0  0.00000000000E+00  0.00000000000E+00  0.45593999997E+02  0.45594000000E+02  0.51100000000E-03 0.  1.
         11   -1    0    0    0    0 -0.00000000000E+00 -0.00000000000E+00 -0.45593999997E+02  0.45594000000E+02  0.51100000000E-03 0. -1.
    9900012    2    1    2    0    0  0.11812767914E+02 -0.16402517341E+02  0.35278609124E+02  0.50528876514E+02  0.30000050652E+02 0.  0.
         12    1    1    2    0    0 -0.11812767914E+02  0.16402517341E+02 -0.35278609124E+02  0.40659123486E+02  0.00000000000E+00 0. -1.
         11    1    3    3    0    0  0.45695912694E+01 -0.24170017686E+02  0.24069023512E+02  0.34414950420E+02  0.51100000000E-03 0. -1.
        -11    1    3    3    0    0  0.76562684773E+01  0.61697947126E+01  0.10255415385E+02  0.14207686609E+02  0.51100000000E-03 0.  1.
         12    1    3    3    0    0 -0.41309183242E+00  0.15977056331E+01  0.95417022684E+00  0.19062394849E+01  0.00000000000E+00 0. -1.
</event>
<event>
 7    1  0.2891523E-011  0.5052887E+02  0.7816164E-02  0.1300439E+00
        -11   -1    0    0    0    0  0.00000000000E+00  0.00000000000E+00  0.45593999997E+02  0.45594000000E+02  0.51100000000E-03 0. -1.
         11   -1    0    0    0    0 -0.00000000000E+00 -0.00000000000E+00 -0.45593999997E+02  0.45594000000E+02  0.51100000000E-03 0.  1.
    9900012    2    1    2    0    0  0.36179555992E+02  0.70766945564E+01 -0.17150080315E+02  0.50528866556E+02  0.30000020384E+02 0.  0.
         12    1    1    2    0    0 -0.36179555992E+02 -0.70766945564E+01  0.17150080315E+02  0.40659133444E+02  0.00000000000E+00 0. -1.
         11    1    3    3    0    0  0.20017357534E+02  0.16949537252E+02 -0.42883413382E+01  0.26577646385E+02  0.51100000000E-03 0. -1.
        -11    1    3    3    0    0  0.13224857267E+02 -0.71000498559E+01 -0.63712962069E+01  0.16306470290E+02  0.51100000000E-03 0.  1.
         12    1    3    3    0    0  0.29373411909E+01 -0.27727928397E+01 -0.64904427696E+01  0.76447498814E+01  0.00000000000E+00 0. -1.
</event>
<event>
 7    1  0.2891523E-011  0.5052889E+02  0.7816164E-02  0.1300439E+00
        -11   -1    0    0    0    0  0.00000000000E+00  0.00000000000E+00  0.45593999997E+02  0.45594000000E+02  0.51100000000E-03 0. -1.
         11   -1    0    0    0    0 -0.00000000000E+00 -0.00000000000E+00 -0.45593999997E+02  0.45594000000E+02  0.51100000000E-03 0.  1.
    9900012    2    1    2    0    0  0.20862827948E+02  0.20767480927E+02 -0.28046697216E+02  0.50528891810E+02  0.30000097146E+02 0.  0.
         12    1    1    2    0    0 -0.20862827948E+02 -0.20767480927E+02  0.28046697216E+02  0.40659108190E+02  0.00000000000E+00 0. -1.
         11    1    3    3    0    0  0.93440860733E+01 -0.98623724459E+00 -0.54867739218E+01  0.10880684573E+02  0.51100000000E-03 0. -1.
        -11    1    3    3    0    0  0.43000908067E+01  0.24494064162E+02 -0.17707257750E+02  0.30528624886E+02  0.51100000000E-03 0.  1.
        -12    1    3    3    0    0  0.72186510680E+01 -0.27403459900E+01 -0.48526655440E+01  0.91195823516E+01  0.00000000000E+00 0.  1.
</event>
<event>
 7    1  0.2891523E-011  0.5052886E+02  0.7816164E-02  0.1300439E+00
        -11   -1    0    0    0    0  0.00000000000E+00  0.00000000000E+00  0.45593999997E+02  0.45594000000E+02  0.51100000000E-03 0. -1.
         11   -1    0    0    0    0 -0.00000000000E+00 -0.00000000000E+00 -0.45593999997E+02  0.45594000000E+02  0.51100000000E-03 0.  1.
    9900012    2    1    2    0    0  0.35503019656E+02 -0.84940029715E+01 -0.17904007089E+02  0.50528856366E+02  0.29999989411E+02 0.  0.
         12    1    1    2    0    0 -0.35503019656E+02  0.84940029715E+01  0.17904007089E+02  0.40659143634E+02  0.00000000000E+00 0. -1.
         11    1    3    3    0    0  0.10839839027E+02 -0.47345587693E+01 -0.10548620091E+01  0.11875642761E+02  0.51100000000E-03 0.  1.
        -11    1    3    3    0    0  0.24241627925E+01  0.87790331485E+01 -0.28847086663E+01  0.95535089165E+01  0.51100000000E-03 0. -1.
        -12    1    3    3    0    0  0.22239017836E+02 -0.12538477351E+02 -0.13964436414E+02  0.29099704688E+02  0.00000000000E+00 0.  1.
</event>
<event>
 7    1  0.2891523E-011  0.5052885E+02  0.7816164E-02  0.1300439E+00
        -11   -1    0    0    0    0  0.00000000000E+00  0.00000000000E+00  0.45593999997E+02  0.45594000000E+02  0.51100000000E-03 0. -1.
         11   -1    0    0    0    0 -0.00000000000E+00 -0.00000000000E+00 -0.45593999997E+02  0.45594000000E+02  0.51100000000E-03 0.  1.
    9900012    2    1    2    0    0  0.25520261341E+02  0.30483656884E+02 -0.85222960657E+01  0.50528848433E+02  0.29999965296E+02 0.  0.
         12    1    1    2    0    0 -0.25520261341E+02 -0.30483656884E+02  0.85222960657E+01  0.40659151567E+02  0.00000000000E+00 0. -1.
         11    1    3    3    0    0  0.11727516186E+02 -0.61340833167E+00 -0.59131239164E+01  0.13148229554E+02  0.51100000000E-03 0. -1.
        -11    1    3    3    0    0  0.15694495446E+02  0.26094844911E+02 -0.60121680607E+01  0.31038754538E+02  0.51100000000E-03 0.  1.
         12    1    3    3    0    0 -0.19017502906E+01  0.50022203042E+01  0.34029959115E+01  0.63418643405E+01  0.00000000000E+00 0. -1.
</event>
<event>
 7    1  0.2891523E-011  0.5052886E+02  0.7816164E-02  0.1300439E+00
        -11   -1    0    0    0    0  0.00000000000E+00  0.00000000000E+00  0.45593999997E+02  0.45594000000E+02  0.51100000000E-03 0.  1.
         11   -1    0    0    0    0 -0.00000000000E+00 -0.00000000000E+00 -0.45593999997E+02  0.45594000000E+02  0.51100000000E-03 0. -1.
    9900012    2    1    2    0    0 -0.29780879423E+02 -0.11317402851E+02 -0.25262251882E+02  0.50528858879E+02  0.29999997050E+02 0.  0.
         12    1    1    2    0    0  0.29780879423E+02  0.11317402851E+02  0.25262251882E+02  0.40659141121E+02  0.00000000000E+00 0. -1.
         11    1    3    3    0    0 -0.21399008661E+02  0.12855376121E+01 -0.21636275217E+02  0.30458144792E+02  0.51100000000E-03 0. -1.
        -11    1    3    3    0    0 -0.40710589121E+01 -0.14212162311E+02 -0.43552079881E+01  0.15411908223E+02  0.51100000000E-03 0.  1.
        -12    1    3    3    0    0 -0.43108118499E+01  0.16092218477E+01  0.72923132255E+00  0.46588058644E+01  0.00000000000E+00 0.  1.
</event>
<event>
 7    1  0.2891523E-011  0.5052887E+02  0.7816164E-02  0.1300439E+00
        -11   -1    0    0    0    0  0.00000000000E+00  0.00000000000E+00  0.45593999997E+02  0.45594000000E+02  0.51100000000E-03 0.  1.
         11   -1    0    0    0    0 -0.00000000000E+00 -0.00000000000E+00 -0.45593999997E+02  0.45594000000E+02  0.51100000000E-03 0. -1.
    9900012    2    1    2    0    0 -0.15190056407E+02  0.26904159120E+02  0.26430917360E+02  0.50528868380E+02  0.30000025929E+02 0.  0.
         12    1    1    2    0    0  0.15190056407E+02 -0.26904159120E+02 -0.26430917360E+02  0.40659131620E+02  0.00000000000E+00 0. -1.
         11    1    3    3    0    0  0.15941208033E+01  0.13684633182E+02  0.13048785386E+01  0.13838826349E+02  0.51100000000E-03 0. -1.
        -11    1    3    3    0    0 -0.12221425918E+01  0.21701863976E+01  0.14764461321E+02  0.14973064478E+02  0.51100000000E-03 0.  1.
        -12    1    3    3    0    0 -0.15562034618E+02  0.11049339540E+02  0.10361577500E+02  0.21716977553E+02  0.00000000000E+00 0.  1.
</event>
<event>
 7    1  0.2891523E-011  0.5052886E+02  0.7816164E-02  0.1300439E+00
        -11   -1    0    0    0    0  0.00000000000E+00  0.00000000000E+00  0.45593999997E+02  0.45594000000E+02  0.51100000000E-03 0.  1.
         11   -1    0    0    0    0 -0.00000000000E+00 -0.00000000000E+00 -0.45593999997E+02  0.45594000000E+02  0.51100000000E-03 0. -1.
    9900012    2    1    2    0    0 -0.26057707760E+02 -0.23297577339E+02  0.20769798254E+02  0.50528858800E+02  0.29999996810E+02 0.  0.
         12    1    1    2    0    0  0.26057707760E+02  0.23297577339E+02 -0.20769798254E+02  0.40659141200E+02  0.00000000000E+00 0. -1.
         11    1    3    3    0    0  0.45050257258E+01 -0.24675202463E+01  0.41419728838E+01  0.65984735043E+01  0.51100000000E-03 0.  1.
        -11    1    3    3    0    0 -0.21380149640E+02 -0.56539035787E+01  0.48569799803E+01  0.22642165954E+02  0.51100000000E-03 0. -1.
        -12    1    3    3    0    0 -0.91825838460E+01 -0.15176153514E+02  0.11770845390E+02  0.21288219342E+02  0.00000000000E+00 0.  1.
</event>
<event>
 7    1  0.2891523E-011  0.5052887E+02  0.7816164E-02  0.1300439E+00
        -11   -1    0    0    0    0  0.00000000000E+00  0.00000000000E+00  0.45593999997E+02  0.45594000000E+02  0.51100000000E-03 0. -1.
         11   -1    0    0    0    0 -0.00000000000E+00 -0.00000000000E+00 -0.45593999997E+02  0.45594000000E+02  0.51100000000E-03 0.  1.
    9900012    2    1    2    0    0 -0.28729844358E+02  0.21161918667E+02  0.19491900174E+02  0.50528869034E+02  0.30000027916E+02 0.  0.
         12    1    1    2    0    0  0.28729844358E+02 -0.21161918667E+02 -0.19491900174E+02  0.40659130966E+02  0.00000000000E+00 0. -1.
         11    1    3    3    0    0 -0.30104925485E+01  0.87783201289E+01 -0.40940091131E+01  0.10143119863E+02  0.51100000000E-03 0. -1.
        -11    1    3    3    0    0 -0.94928369469E+01  0.12566985776E+02  0.16074517789E+02  0.22504070903E+02  0.51100000000E-03 0.  1.
         12    1    3    3    0    0 -0.16226514863E+02 -0.18338723791E+00  0.75113914979E+01  0.17881678269E+02  0.00000000000E+00 0. -1.
</event>
<event>
 7    1  0.2891523E-011  0.5052886E+02  0.7816164E-02  0.1300439E+00
        -11   -1    0    0    0    0  0.00000000000E+00  0.00000000000E+00  0.45593999997E+02  0.45594000000E+02  0.51100000000E-03 0.  1.
         11   -1    0    0    0    0 -0.00000000000E+00 -0.00000000000E+00 -0.45593999997E+02  0.45594000000E+02  0.51100000000E-03 0. -1.
    9900012    2    1    2    0    0 -0.17287725040E+02 -0.36567944054E+02  0.41335202435E+01  0.50528856392E+02  0.29999989488E+02 0.  0.
         12    1    1    2    0    0  0.17287725040E+02  0.36567944054E+02 -0.41335202435E+01  0.40659143608E+02  0.00000000000E+00 0. -1.
         11    1    3    3    0    0 -0.13956979732E+02 -0.95873422891E+01 -0.10091317285E+02  0.19711648846E+02  0.51100000000E-03 0. -1.
        -11    1    3    3    0    0 -0.37691754915E+01 -0.21665646736E+02  0.11831011751E+02  0.24971579279E+02  0.51100000000E-03 0.  1.
         12    1    3    3    0    0  0.43843018375E+00 -0.53149550287E+01  0.23938257776E+01  0.58456282670E+01  0.00000000000E+00 0. -1.
</event>
<event>
 7    1  0.2891523E-011  0.5052891E+02  0.7816164E-02  0.1300439E+00
        -11   -1    0    0    0    0  0.00000000000E+00  0.00000000000E+00  0.45593999997E+02  0.45594000000E+02  0.51100000000E-03 0.  1.
         11   -1    0    0    0    0 -0.00000000000E+00 -0.00000000000E+00 -0.45593999997E+02  0.45594000000E+02  0.51100000000E-03 0. -1.
    9900012    2    1    2    0    0  0.31705810781E+01 -0.10674706527E+02  0.39104467135E+02  0.50528913762E+02  0.30000163871E+02 0.  0.
         12    1    1    2    0    0 -0.31705810781E+01  0.10674706527E+02 -0.39104467135E+02  0.40659086238E+02  0.00000000000E+00 0. -1.
         11    1    3    3    0    0 -0.15858366148E+01 -0.63605388259E+01 -0.38202079081E-01  0.65553635738E+01  0.51100000000E-03 0. -1.
        -11    1    3    3    0    0  0.95683930602E+01  0.31513123978E+01  0.13557571905E+02  0.16890608982E+02  0.51100000000E-03 0.  1.
        -12    1    3    3    0    0 -0.48119753672E+01 -0.74654800989E+01  0.25585097309E+02  0.27082941206E+02  0.00000000000E+00 0.  1.
</event>
<event>
 7    1  0.2891523E-011  0.5052889E+02  0.7816164E-02  0.1300439E+00
        -11   -1    0    0    0    0  0.00000000000E+00  0.00000000000E+00  0.45593999997E+02  0.45594000000E+02  0.51100000000E-03 0. -1.
         11   -1    0    0    0    0 -0.00000000000E+00 -0.00000000000E+00 -0.45593999997E+02  0.45594000000E+02  0.51100000000E-03 0.  1.
    9900012    2    1    2    0    0 -0.18782496336E+02 -0.12172574281E+02 -0.33944217348E+02  0.50528885098E+02  0.30000076743E+02 0.  0.
         12    1    1    2    0    0  0.18782496336E+02  0.12172574281E+02  0.33944217348E+02  0.40659114902E+02  0.00000000000E+00 0. -1.
         11    1    3    3    0    0 -0.26537296524E+00 -0.16284142749E+01 -0.25354351190E+00  0.16692634409E+01  0.51100000000E-03 0. -1.
        -11    1    3    3    0    0 -0.15689319473E+02 -0.17119734512E+02 -0.12247654174E+02  0.26253477643E+02  0.51100000000E-03 0.  1.
        -12    1    3    3    0    0 -0.28278038973E+01  0.65755745058E+01 -0.21443019662E+02  0.22606144014E+02  0.00000000000E+00 0.  1.
</event>
<event>
 7    1  0.2891523E-011  0.5052887E+02  0.7816164E-02  0.1300439E+00
        -11   -1    0    0    0    0  0.00000000000E+00  0.00000000000E+00  0.45593999997E+02  0.45594000000E+02  0.51100000000E-03 0.  1.
         11   -1    0    0    0    0 -0.00000000000E+00 -0.00000000000E+00 -0.45593999997E+02  0.45594000000E+02  0.51100000000E-03 0. -1.
    9900012    2    1    2    0    0 -0.20707718210E+02  0.34605876824E+02 -0.51757684211E+01  0.50528869623E+02  0.30000029706E+02 0.  0.
         12    1    1    2    0    0  0.20707718210E+02 -0.34605876824E+02  0.51757684211E+01  0.40659130377E+02  0.00000000000E+00 0. -1.
         11    1    3    3    0    0  0.22928577057E+01  0.10482584768E+02  0.54715022228E+01  0.12044879273E+02  0.51100000000E-03 0. -1.
        -11    1    3    3    0    0 -0.15594368026E+02  0.16979161694E+02 -0.14791014514E+02  0.27390698358E+02  0.51100000000E-03 0.  1.
         12    1    3    3    0    0 -0.74062078904E+01  0.71441303628E+01  0.41437438699E+01  0.11093291992E+02  0.00000000000E+00 0. -1.
</event>
<event>
 7    1  0.2891523E-011  0.5052878E+02  0.7816164E-02  0.1300439E+00
        -11   -1    0    0    0    0  0.00000000000E+00  0.00000000000E+00  0.45593999997E+02  0.45594000000E+02  0.51100000000E-03 0.  1.
         11   -1    0    0    0    0 -0.00000000000E+00 -0.00000000000E+00 -0.45593999997E+02  0.45594000000E+02  0.51100000000E-03 0. -1.
    9900012    2    1    2    0    0 -0.16084444374E+02  0.34306375388E+02 -0.14749095385E+02  0.50528775244E+02  0.29999742831E+02 0.  0.
         12    1    1    2    0    0  0.16084444374E+02 -0.34306375388E+02  0.14749095385E+02  0.40659224756E+02  0.00000000000E+00 0. -1.
         11    1    3    3    0    0  0.43216277950E+01  0.12619917277E+02 -0.70144686393E+01  0.15071215924E+02  0.51100000000E-03 0. -1.
        -11    1    3    3    0    0 -0.10875742433E+02  0.10145044011E+02  0.51179847525E+01  0.15728873438E+02  0.51100000000E-03 0.  1.
        -12    1    3    3    0    0 -0.95303297368E+01  0.11541414100E+02 -0.12852611498E+02  0.19728685882E+02  0.00000000000E+00 0.  1.
</event>
<event>
 7    1  0.2891523E-011  0.5052885E+02  0.7816164E-02  0.1300439E+00
        -11   -1    0    0    0    0  0.00000000000E+00  0.00000000000E+00  0.45593999997E+02  0.45594000000E+02  0.51100000000E-03 0.  1.
         11   -1    0    0    0    0 -0.00000000000E+00 -0.00000000000E+00 -0.45593999997E+02  0.45594000000E+02  0.51100000000E-03 0. -1.
    9900012    2    1    2    0    0  0.15727495964E+02 -0.37043834472E+02 -0.57936762216E+01  0.50528849912E+02  0.29999969793E+02 0.  0.
         12    1    1    2    0    0 -0.15727495964E+02  0.37043834472E+02  0.57936762216E+01  0.40659150088E+02  0.00000000000E+00 0. -1.
         11    1    3    3    0    0  0.50522163169E+01  0.35905351108E+01  0.11585635747E+01  0.63054818938E+01  0.51100000000E-03 0. -1.
        -11    1    3    3    0    0  0.32013785804E+01 -0.30029197749E+02 -0.78971453489E+01  0.31214843379E+02  0.51100000000E-03 0.  1.
        -12    1    3    3    0    0  0.74739010664E+01 -0.10605171834E+02  0.94490555257E+00  0.13008524639E+02  0.00000000000E+00 0.  1.
</event>
<event>
 7    1  0.2891523E-011  0.5052885E+02  0.7816164E-02  0.1300439E+00
        -11   -1    0    0    0    0  0.00000000000E+00  0.00000000000E+00  0.45593999997E+02  0.45594000000E+02  0.51100000000E-03 0.  1.
         11   -1    0    0    0    0 -0.00000000000E+00 -0.00000000000E+00 -0.45593999997E+02  0.45594000000E+02  0.51100000000E-03 0. -1.
    9900012    2    1    2    0    0 -0.37999180662E+02 -0.43591428851E+01  0.13792273487E+02  0.50528847702E+02  0.29999963074E+02 0.  0.
         12    1    1    2    0    0  0.37999180662E+02  0.43591428851E+01 -0.13792273487E+02  0.40659152298E+02  0.00000000000E+00 0. -1.
         11    1    3    3    0    0 -0.19186625185E+02  0.32260715848E+00 -0.76333413554E+01  0.20651841610E+02  0.51100000000E-03 0. -1.
        -11    1    3    3    0    0 -0.61027438196E+01  0.16889346830E+01  0.89423249701E+01  0.10957242291E+02  0.51100000000E-03 0.  1.
         12    1    3    3    0    0 -0.12709811657E+02 -0.63706847266E+01  0.12483289872E+02  0.18919763801E+02  0.00000000000E+00 0. -1.
</event>
<event>
 7    1  0.2891523E-011  0.5052886E+02  0.7816164E-02  0.1300439E+00
        -11   -1    0    0    0    0  0.00000000000E+00  0.00000000000E+00  0.45593999997E+02  0.45594000000E+02  0.51100000000E-03 0.  1.
         11   -1    0    0    0    0 -0.00000000000E+00 -0.00000000000E+00 -0.45593999997E+02  0.45594000000E+02  0.51100000000E-03 0. -1.
    9900012    2    1    2    0    0 -0.15891741574E+02  0.28358129645E+02  0.24422015259E+02  0.50528858389E+02  0.29999995560E+02 0.  0.
         12    1    1    2    0    0  0.15891741574E+02 -0.28358129645E+02 -0.24422015259E+02  0.40659141611E+02  0.00000000000E+00 0. -1.
         11    1    3    3    0    0 -0.94364635342E+01  0.25552009715E+01  0.65180951735E+01  0.11749955787E+02  0.51100000000E-03 0. -1.
        -11    1    3    3    0    0  0.78970444260E+01  0.11694981735E+02  0.92432152279E+01  0.16869289744E+02  0.51100000000E-03 0.  1.
        -12    1    3    3    0    0 -0.14352322466E+02  0.14107946939E+02  0.86607048574E+01  0.21909612859E+02  0.00000000000E+00 0.  1.
</event>
<event>
 7    1  0.2891523E-011  0.5052886E+02  0.7816164E-02  0.1300439E+00
        -11   -1    0    0    0    0  0.00000000000E+00  0.00000000000E+00  0.45593999997E+02  0.45594000000E+02  0.51100000000E-03 0.  1.
         11   -1    0    0    0    0 -0.00000000000E+00 -0.00000000000E+00 -0.45593999997E+02  0.45594000000E+02  0.51100000000E-03 0. -1.
    9900012    2    1    2    0    0  0.70860294970E+00  0.38259719001E+02  0.13742538273E+02  0.50528861121E+02  0.30000003863E+02 0.  0.
         12    1    1    2    0    0 -0.70860294970E+00 -0.38259719001E+02 -0.13742538273E+02  0.40659138879E+02  0.00000000000E+00 0. -1.
         11    1    3    3    0    0  0.37340699343E+01  0.71410574434E+01  0.12979734555E+02  0.15277810349E+02  0.51100000000E-03 0.  1.
        -11    1    3    3    0    0 -0.48425935884E+00  0.25702212346E+02 -0.58181688978E+01  0.26356959540E+02  0.51100000000E-03 0. -1.
         12    1    3    3    0    0 -0.25412076257E+01  0.54164492120E+01  0.65809726162E+01  0.88940912317E+01  0.00000000000E+00 0. -1.
</event>
<event>
 7    1  0.2891523E-011  0.5052886E+02  0.7816164E-02  0.1300439E+00
        -11   -1    0    0    0    0  0.00000000000E+00  0.00000000000E+00  0.45593999997E+02  0.45594000000E+02  0.51100000000E-03 0. -1.
         11   -1    0    0    0    0 -0.00000000000E+00 -0.00000000000E+00 -0.45593999997E+02  0.45594000000E+02  0.51100000000E-03 0.  1.
    9900012    2    1    2    0    0 -0.17869488222E+02 -0.16145706873E+02 -0.32759175499E+02  0.50528855406E+02  0.29999986492E+02 0.  0.
         12    1    1    2    0    0  0.17869488222E+02  0.16145706873E+02  0.32759175499E+02  0.40659144594E+02  0.00000000000E+00 0. -1.
         11    1    3    3    0    0  0.30920411606E+01  0.37608607927E+01 -0.39630811424E+01  0.62778025489E+01  0.51100000000E-03 0. -1.
        -11    1    3    3    0    0 -0.11324978610E+02 -0.16041475656E+02 -0.27495153111E+02  0.33787091124E+02  0.51100000000E-03 0.  1.
         12    1    3    3    0    0 -0.96365507721E+01 -0.38650920104E+01 -0.13009412453E+01  0.10463961733E+02  0.00000000000E+00 0. -1.
</event>
<event>
 7    1  0.2891523E-011  0.5052889E+02  0.7816164E-02  0.1300439E+00
        -11   -1    0    0    0    0  0.00000000000E+00  0.00000000000E+00  0.45593999997E+02  0.45594000000E+02  0.51100000000E-03 0. -1.
         11   -1    0    0    0    0 -0.00000000000E+00 -0.00000000000E+00 -0.45593999997E+02  0.45594000000E+02  0.51100000000E-03 0.  1.
    9900012    2    1    2    0    0 -0.12636118393E+02 -0.12207471008E+02 -0.36667011146E+02  0.50528886104E+02  0.30000079801E+02 0.  0.
         12    1    1    2    0    0  0.12636118393E+02  0.12207471008E+02  0.36667011146E+02  0.40659113896E+02  0.00000000000E+00 0. -1.
         11    1    3    3    0    0 -0.11438007119E+02 -0.12421101749E+02 -0.61350741318E+01  0.17965269560E+02  0.51100000000E-03 0. -1.
        -11    1    3    3    0    0 -0.25544092103E+00  0.55351308461E+01 -0.19608913789E+02  0.20376761858E+02  0.51100000000E-03 0.  1.
         12    1    3    3    0    0 -0.94267035328E+00 -0.53215001056E+01 -0.10923023225E+02  0.12186854686E+02  0.00000000000E+00 0. -1.
</event>
<event>
 7    1  0.2891523E-011  0.5052886E+02  0.7816164E-02  0.1300439E+00
        -11   -1    0    0    0    0  0.00000000000E+00  0.00000000000E+00  0.45593999997E+02  0.45594000000E+02  0.51100000000E-03 0.  1.
         11   -1    0    0    0    0 -0.00000000000E+00 -0.00000000000E+00 -0.45593999997E+02  0.45594000000E+02  0.51100000000E-03 0. -1.
    9900012    2    1    2    0    0 -0.16095770231E+02  0.36522465693E+02  0.77589666317E+01  0.50528857328E+02  0.29999992335E+02 0.  0.
         12    1    1    2    0    0  0.16095770231E+02 -0.36522465693E+02 -0.77589666317E+01  0.40659142672E+02  0.00000000000E+00 0. -1.
         11    1    3    3    0    0 -0.35908037545E+01  0.13495197379E+02  0.13215222791E+02  0.19226448907E+02  0.51100000000E-03 0. -1.
        -11    1    3    3    0    0 -0.19561134242E+01  0.18889244911E+02 -0.61186139127E+01  0.19951626237E+02  0.51100000000E-03 0.  1.
         12    1    3    3    0    0 -0.10548853052E+02  0.41380234022E+01  0.66235775378E+00  0.11350782184E+02  0.00000000000E+00 0. -1.
</event>
<event>
 7    1  0.2891523E-011  0.5052887E+02  0.7816164E-02  0.1300439E+00
        -11   -1    0    0    0    0  0.00000000000E+00  0.00000000000E+00  0.45593999997E+02  0.45594000000E+02  0.51100000000E-03 0. -1.
         11   -1    0    0    0    0 -0.00000000000E+00 -0.00000000000E+00 -0.45593999997E+02  0.45594000000E+02  0.51100000000E-03 0.  1.
    9900012    2    1    2    0    0  0.52155418966E+01  0.20029225181E+02 -0.34997048801E+02  0.50528866174E+02  0.30000019224E+02 0.  0.
         12    1    1    2    0    0 -0.52155418966E+01 -0.20029225181E+02  0.34997048801E+02  0.40659133826E+02  0.00000000000E+00 0. -1.
         11    1    3    3    0    0  0.34180691957E+01  0.17376535544E+01 -0.16836147663E+02  0.17267266874E+02  0.51100000000E-03 0. -1.
        -11    1    3    3    0    0 -0.54321701302E+01  0.17986837391E+02 -0.71872182631E+01  0.20116930637E+02  0.51100000000E-03 0.  1.
        -12    1    3    3    0    0  0.72296428311E+01  0.30473423626E+00 -0.10973682876E+02  0.13144668664E+02  0.00000000000E+00 0.  1.
</event>
<event>
 7    1  0.2891523E-011  0.5052885E+02  0.7816164E-02  0.1300439E+00
        -11   -1    0    0    0    0  0.00000000000E+00  0.00000000000E+00  0.45593999997E+02  0.45594000000E+02  0.51100000000E-03 0.  1.
         11   -1    0    0    0    0 -0.00000000000E+00 -0.00000000000E+00 -0.45593999997E+02  0.45594000000E+02  0.51100000000E-03 0. -1.
    9900012    2    1    2    0    0 -0.12977821170E+02 -0.19616885671E+02  0.33165049461E+02  0.50528849105E+02  0.29999967338E+02 0.  0.
         12    1    1    2    0    0  0.12977821170E+02  0.19616885671E+02 -0.33165049461E+02  0.40659150895E+02  0.00000000000E+00 0. -1.
         11    1    3    3    0    0 -0.71862949466E+01  0.62453201214E+00  0.84099441195E+01  0.11079712796E+02  0.51100000000E-03 0. -1.
        -11    1    3    3    0    0  0.72976234092E+01 -0.14080624357E+02  0.98048166558E+01  0.18645474508E+02  0.51100000000E-03 0.  1.
        -12    1    3    3    0    0 -0.13089149633E+02 -0.61607933263E+01  0.14950288686E+02  0.20803661801E+02  0.00000000000E+00 0.  1.
</event>
<event>
 7    1  0.2891523E-011  0.5052885E+02  0.7816164E-02  0.1300439E+00
        -11   -1    0    0    0    0  0.00000000000E+00  0.00000000000E+00  0.45593999997E+02  0.45594000000E+02  0.51100000000E-03 0. -1.
         11   -1    0    0    0    0 -0.00000000000E+00 -0.00000000000E+00 -0.45593999997E+02  0.45594000000E+02  0.51100000000E-03 0.  1.
    9900012    2    1    2    0    0 -0.21689833459E+02  0.25629664243E+02  0.22931157472E+02  0.50528849152E+02  0.29999967483E+02 0.  0.
         12    1    1    2    0    0  0.21689833459E+02 -0.25629664243E+02 -0.22931157472E+02  0.40659150848E+02  0.00000000000E+00 0. -1.
         11    1    3    3    0    0 -0.88549814764E+01 -0.14146694398E+01  0.62035176619E+01  0.10903926734E+02  0.51100000000E-03 0. -1.
        -11    1    3    3    0    0  0.17654582851E+01  0.92070355033E+01 -0.23937260817E+01  0.96755501410E+01  0.51100000000E-03 0.  1.
        -12    1    3    3    0    0 -0.14600310268E+02  0.17837298179E+02  0.19121365892E+02  0.29949372277E+02  0.00000000000E+00 0.  1.
</event>
<event>
 7    1  0.2891523E-011  0.5052886E+02  0.7816164E-02  0.1300439E+00
        -11   -1    0    0    0    0  0.00000000000E+00  0.00000000000E+00  0.45593999997E+02  0.45594000000E+02  0.51100000000E-03 0.  1.
         11   -1    0    0    0    0 -0.00000000000E+00 -0.00000000000E+00 -0.45593999997E+02  0.45594000000E+02  0.51100000000E-03 0. -1.
    9900012    2    1    2    0    0 -0.14727509167E+02 -0.36998163029E+02  0.82098784453E+01  0.50528859603E+02  0.29999999248E+02 0.  0.
         12    1    1    2    0    0  0.14727509167E+02  0.36998163029E+02 -0.82098784453E+01  0.40659140397E+02  0.00000000000E+00 0. -1.
         11    1    3    3    0    0 -0.38427638940E+01 -0.24480163533E+01 -0.43680540213E+01  0.63118550843E+01  0.51100000000E-03 0. -1.
        -11    1    3    3    0    0  0.66013356926E+01 -0.13389061449E+02  0.49211771502E+01  0.15718224589E+02  0.51100000000E-03 0.  1.
        -12    1    3    3    0    0 -0.17486080966E+02 -0.21161085226E+02  0.76567553164E+01  0.28498779929E+02  0.00000000000E+00 0.  1.
</event>
<event>
 7    1  0.2891523E-011  0.5052877E+02  0.7816164E-02  0.1300439E+00
        -11   -1    0    0    0    0  0.00000000000E+00  0.00000000000E+00  0.45593999997E+02  0.45594000000E+02  0.51100000000E-03 0. -1.
         11   -1    0    0    0    0 -0.00000000000E+00 -0.00000000000E+00 -0.45593999997E+02  0.45594000000E+02  0.51100000000E-03 0.  1.
    9900012    2    1    2    0    0 -0.24020829886E+02  0.10405794882E+02  0.31110962369E+02  0.50528772080E+02  0.29999733212E+02 0.  0.
         12    1    1    2    0    0  0.24020829886E+02 -0.10405794882E+02 -0.31110962369E+02  0.40659227920E+02  0.00000000000E+00 0. -1.
         11    1    3    3    0    0 -0.98142517913E+00 -0.63276418079E+01  0.42849495520E+01  0.77047413426E+01  0.51100000000E-03 0. -1.
        -11    1    3    3    0    0 -0.24197332082E+02  0.13495941890E+02  0.27801334393E+02  0.39250038493E+02  0.51100000000E-03 0.  1.
         12    1    3    3    0    0  0.11579273752E+01  0.32374947997E+01 -0.97532157574E+00  0.35739922441E+01  0.00000000000E+00 0. -1.
</event>
<event>
 7    1  0.2891523E-011  0.5052887E+02  0.7816164E-02  0.1300439E+00
        -11   -1    0    0    0    0  0.00000000000E+00  0.00000000000E+00  0.45593999997E+02  0.45594000000E+02  0.51100000000E-03 0.  1.
         11   -1    0    0    0    0 -0.00000000000E+00 -0.00000000000E+00 -0.45593999997E+02  0.45594000000E+02  0.51100000000E-03 0. -1.
    9900012    2    1    2    0    0  0.84435489719E+01 -0.55786829042E+01  0.39379559344E+02  0.50528869214E+02  0.30000028463E+02 0.  0.
         12    1    1    2    0    0 -0.84435489719E+01  0.55786829042E+01 -0.39379559344E+02  0.40659130786E+02  0.00000000000E+00 0. -1.
         11    1    3    3    0    0  0.12333240624E+02 -0.92315191966E+01  0.65074775779E+01  0.16723547341E+02  0.51100000000E-03 0. -1.
        -11    1    3    3    0    0 -0.52541678208E-01  0.40209050369E+01  0.17727118583E+02  0.18177490791E+02  0.51100000000E-03 0.  1.
         12    1    3    3    0    0 -0.38371499741E+01 -0.36806874454E+00  0.15144963183E+02  0.15627831082E+02  0.00000000000E+00 0. -1.
</event>
<event>
 7    1  0.2891523E-011  0.5052886E+02  0.7816164E-02  0.1300439E+00
        -11   -1    0    0    0    0  0.00000000000E+00  0.00000000000E+00  0.45593999997E+02  0.45594000000E+02  0.51100000000E-03 0.  1.
         11   -1    0    0    0    0 -0.00000000000E+00 -0.00000000000E+00 -0.45593999997E+02  0.45594000000E+02  0.51100000000E-03 0. -1.
    9900012    2    1    2    0    0 -0.39226179940E+02  0.11358601656E+01 -0.10638706222E+02  0.50528862761E+02  0.30000008847E+02 0.  0.
         12    1    1    2    0    0  0.39226179940E+02 -0.11358601656E+01  0.10638706222E+02  0.40659137239E+02  0.00000000000E+00 0. -1.
         11    1    3    3    0    0 -0.35835202013E+02 -0.68043640355E+01 -0.35923785985E+01  0.36651961169E+02  0.51100000000E-03 0. -1.
        -11    1    3    3    0    0  0.64098653119E+00  0.41651192850E+01  0.79204345212E+00  0.42879383721E+01  0.51100000000E-03 0.  1.
         12    1    3    3    0    0 -0.40319644576E+01  0.37751049161E+01 -0.78383710753E+01  0.95889632197E+01  0.00000000000E+00 0. -1.
</event>
<event>
 7    1  0.2891523E-011  0.5052885E+02  0.7816164E-02  0.1300439E+00
        -11   -1    0    0    0    0  0.00000000000E+00  0.00000000000E+00  0.45593999997E+02  0.45594000000E+02  0.51100000000E-03 0.  1.
         11   -1    0    0    0    0 -0.00000000000E+00 -0.00000000000E+00 -0.45593999997E+02  0.45594000000E+02  0.51100000000E-03 0. -1.
    9900012    2    1    2    0    0  0.16698054622E+01 -0.20527320068E+02  0.35057206173E+02  0.50528845753E+02  0.29999957150E+02 0.  0.
         12    1    1    2    0    0 -0.16698054622E+01  0.20527320068E+02 -0.35057206173E+02  0.40659154247E+02  0.00000000000E+00 0. -1.
         11    1    3    3    0    0 -0.41803989985E+01  0.32226086875E+01  0.23972831123E+01  0.57972328848E+01  0.51100000000E-03 0. -1.
        -11    1    3    3    0    0 -0.42663097808E+01 -0.18240770690E+02  0.17041714997E+02  0.25324832967E+02  0.51100000000E-03 0.  1.
        -12    1    3    3    0    0  0.10116514242E+02 -0.55091580651E+01  0.15618208064E+02  0.19406779901E+02  0.00000000000E+00 0.  1.
</event>
<event>
 7    1  0.2891523E-011  0.5052886E+02  0.7816164E-02  0.1300439E+00
        -11   -1    0    0    0    0  0.00000000000E+00  0.00000000000E+00  0.45593999997E+02  0.45594000000E+02  0.51100000000E-03 0. -1.
         11   -1    0    0    0    0 -0.00000000000E+00 -0.00000000000E+00 -0.45593999997E+02  0.45594000000E+02  0.51100000000E-03 0.  1.
    9900012    2    1    2    0    0  0.11823980201E+02  0.40361355615E+01 -0.38691971161E+02  0.50528861662E+02  0.30000005509E+02 0.  0.
         12    1    1    2    0    0 -0.11823980201E+02 -0.40361355615E+01  0.38691971161E+02  0.40659138338E+02  0.00000000000E+00 0. -1.
         11    1    3    3    0    0 -0.64219777839E+00  0.47950255481E+01 -0.58464397130E+01  0.75885140556E+01  0.51100000000E-03 0. -1.
        -11    1    3    3    0    0  0.13257768588E+02 -0.38709337018E+01 -0.46656437634E+01  0.14578092730E+02  0.51100000000E-03 0.  1.
        -12    1    3    3    0    0 -0.79159060941E+00  0.31120437153E+01 -0.28179887684E+02  0.28362254876E+02  0.00000000000E+00 0.  1.
</event>
<event>
 7    1  0.2893388E-011  0.5052887E+02  0.7816164E-02  0.1300439E+00
        -11   -1    0    0    0    0  0.00000000000E+00  0.00000000000E+00  0.45593999997E+02  0.45594000000E+02  0.51100000000E-03 0. -1.
         11   -1    0    0    0    0 -0.00000000000E+00 -0.00000000000E+00 -0.45593999997E+02  0.45594000000E+02  0.51100000000E-03 0.  1.
    9900012    2    1    2    0    0  0.23893528467E+02 -0.17724760173E+02 -0.27714560576E+02  0.50528871951E+02  0.30000036783E+02 0.  0.
         12    1    1    2    0    0 -0.23893528467E+02  0.17724760173E+02  0.27714560576E+02  0.40659128049E+02  0.00000000000E+00 0. -1.
         11    1    3    3    0    0 -0.49788294109E+01 -0.43316829043E+00 -0.17327068062E+01  0.52894848717E+01  0.51100000000E-03 0. -1.
        -11    1    3    3    0    0  0.13774286394E+02 -0.16765965519E+02 -0.17757976365E+02  0.28038799730E+02  0.51100000000E-03 0.  1.
        -12    1    3    3    0    0  0.15098071484E+02 -0.52562636346E+00 -0.82238774048E+01  0.17200587350E+02  0.00000000000E+00 0.  1.
</event>
<event>
 7    1  0.2891523E-011  0.5052887E+02  0.7816164E-02  0.1300439E+00
        -11   -1    0    0    0    0  0.00000000000E+00  0.00000000000E+00  0.45593999997E+02  0.45594000000E+02  0.51100000000E-03 0.  1.
         11   -1    0    0    0    0 -0.00000000000E+00 -0.00000000000E+00 -0.45593999997E+02  0.45594000000E+02  0.51100000000E-03 0. -1.
    9900012    2    1    2    0    0 -0.25209021059E+02 -0.90680306524E+01  0.30584982273E+02  0.50528867406E+02  0.30000022967E+02 0.  0.
         12    1    1    2    0    0  0.25209021059E+02  0.90680306524E+01 -0.30584982273E+02  0.40659132594E+02  0.00000000000E+00 0. -1.
         11    1    3    3    0    0  0.54174382605E+01 -0.94730472773E+00  0.33107184596E+01  0.64192585657E+01  0.51100000000E-03 0. -1.
        -11    1    3    3    0    0 -0.26893789133E+02 -0.82251542034E+01  0.16273589134E+02  0.32492441570E+02  0.51100000000E-03 0.  1.
         12    1    3    3    0    0 -0.37326701863E+01  0.10442827881E+00  0.11000674679E+02  0.11617167270E+02  0.00000000000E+00 0. -1.
</event>
<event>
 7    1  0.2891523E-011  0.5052886E+02  0.7816164E-02  0.1300439E+00
        -11   -1    0    0    0    0  0.00000000000E+00  0.00000000000E+00  0.45593999997E+02  0.45594000000E+02  0.51100000000E-03 0.  1.
         11   -1    0    0    0    0 -0.00000000000E+00 -0.00000000000E+00 -0.45593999997E+02  0.45594000000E+02  0.51100000000E-03 0. -1.
    9900012    2    1    2    0    0 -0.25378712991E+02  0.30218210052E+02  0.97952161072E+01  0.50528861416E+02  0.30000004760E+02 0.  0.
         12    1    1    2    0    0  0.25378712991E+02 -0.30218210052E+02 -0.97952161072E+01  0.40659138584E+02  0.00000000000E+00 0. -1.
         11    1    3    3    0    0 -0.53717894922E+01  0.71862654966E+01  0.14196956039E+02  0.16794406663E+02  0.51100000000E-03 0. -1.
        -11    1    3    3    0    0 -0.37366470196E+01  0.11132204273E+02 -0.65784672346E+01  0.13459744958E+02  0.51100000000E-03 0.  1.
         12    1    3    3    0    0 -0.16270276479E+02  0.11899740282E+02  0.21767273028E+01  0.20274709794E+02  0.00000000000E+00 0. -1.
</event>
<event>
 7    1  0.2891523E-011  0.5052886E+02  0.7816164E-02  0.1300439E+00
        -11   -1    0    0    0    0  0.00000000000E+00  0.00000000000E+00  0.45593999997E+02  0.45594000000E+02  0.51100000000E-03 0.  1.
         11   -1    0    0    0    0 -0.00000000000E+00 -0.00000000000E+00 -0.45593999997E+02  0.45594000000E+02  0.51100000000E-03 0. -1.
    9900012    2    1    2    0    0 -0.23300010586E+02 -0.53612413318E+01  0.32886654870E+02  0.50528862399E+02  0.30000007749E+02 0.  0.
         12    1    1    2    0    0  0.23300010586E+02  0.53612413318E+01 -0.32886654870E+02  0.40659137601E+02  0.00000000000E+00 0. -1.
         11    1    3    3    0    0 -0.20705641825E+01  0.53947939162E+01  0.11851729864E+02  0.13185391100E+02  0.51100000000E-03 0. -1.
        -11    1    3    3    0    0 -0.20112922064E+02 -0.12630109643E+02  0.23932405223E+02  0.33716603085E+02  0.51100000000E-03 0.  1.
         12    1    3    3    0    0 -0.11165243385E+01  0.18740743952E+01 -0.28974802168E+01  0.36268682143E+01  0.00000000000E+00 0. -1.
</event>
<event>
 7    1  0.2891523E-011  0.5052887E+02  0.7816164E-02  0.1300439E+00
        -11   -1    0    0    0    0  0.00000000000E+00  0.00000000000E+00  0.45593999997E+02  0.45594000000E+02  0.51100000000E-03 0.  1.
         11   -1    0    0    0    0 -0.00000000000E+00 -0.00000000000E+00 -0.45593999997E+02  0.45594000000E+02  0.51100000000E-03 0. -1.
    9900012    2    1    2    0    0  0.22425260341E+02  0.13328101394E+02  0.31187090789E+02  0.50528865479E+02  0.30000017108E+02 0.  0.
         12    1    1    2    0    0 -0.22425260341E+02 -0.13328101394E+02 -0.31187090789E+02  0.40659134521E+02  0.00000000000E+00 0. -1.
         11    1    3    3    0    0 -0.15640435536E+01 -0.46565966358E+01  0.16310223375E+01  0.51759403583E+01  0.51100000000E-03 0. -1.
        -11    1    3    3    0    0  0.19045279275E+02  0.95419319092E+01  0.10099245571E+02  0.23574687455E+02  0.51100000000E-03 0.  1.
         12    1    3    3    0    0  0.49440246200E+01  0.84427661203E+01  0.19456822880E+02  0.21778237665E+02  0.00000000000E+00 0. -1.
</event>
<event>
 7    1  0.2891523E-011  0.5052885E+02  0.7816164E-02  0.1300439E+00
        -11   -1    0    0    0    0  0.00000000000E+00  0.00000000000E+00  0.45593999997E+02  0.45594000000E+02  0.51100000000E-03 0. -1.
         11   -1    0    0    0    0 -0.00000000000E+00 -0.00000000000E+00 -0.45593999997E+02  0.45594000000E+02  0.51100000000E-03 0.  1.
    9900012    2    1    2    0    0 -0.24156387803E+02 -0.31604005735E+02 -0.84156173146E+01  0.50528845250E+02  0.29999955622E+02 0.  0.
         12    1    1    2    0    0  0.24156387803E+02  0.31604005735E+02  0.84156173146E+01  0.40659154750E+02  0.00000000000E+00 0. -1.
         11    1    3    3    0    0 -0.13076307393E+02 -0.63681354148E+01  0.59570601969E+00  0.14556710810E+02  0.51100000000E-03 0. -1.
        -11    1    3    3    0    0  0.63623696099E+01 -0.49192357669E+01 -0.23611748240E+01  0.83817524655E+01  0.51100000000E-03 0.  1.
        -12    1    3    3    0    0 -0.17442450020E+02 -0.20316634553E+02 -0.66501485103E+01  0.27590381974E+02  0.00000000000E+00 0.  1.
</event>
<event>
 7    1  0.2891523E-011  0.5052887E+02  0.7816164E-02  0.1300439E+00
        -11   -1    0    0    0    0  0.00000000000E+00  0.00000000000E+00  0.45593999997E+02  0.45594000000E+02  0.51100000000E-03 0.  1.
         11   -1    0    0    0    0 -0.00000000000E+00 -0.00000000000E+00 -0.45593999997E+02  0.45594000000E+02  0.51100000000E-03 0. -1.
    9900012    2    1    2    0    0  0.33032280288E+02 -0.21129037853E+02 -0.10751600847E+02  0.50528871844E+02  0.30000036457E+02 0.  0.
         12    1    1    2    0    0 -0.33032280288E+02  0.21129037853E+02  0.10751600847E+02  0.40659128156E+02  0.00000000000E+00 0. -1.
         11    1    3    3    0    0  0.24675653557E+01  0.55190608985E+01 -0.14167213044E+01  0.62093487180E+01  0.51100000000E-03 0. -1.
        -11    1    3    3    0    0  0.14899614098E+02 -0.18702869759E+02 -0.11656320251E+02  0.26601985632E+02  0.51100000000E-03 0.  1.
         12    1    3    3    0    0  0.15665100835E+02 -0.79452289922E+01  0.23214407082E+01  0.17717537494E+02  0.00000000000E+00 0. -1.
</event>
<event>
 7    1  0.2891523E-011  0.5052887E+02  0.7816164E-02  0.1300439E+00
        -11   -1    0    0    0    0  0.00000000000E+00  0.00000000000E+00  0.45593999997E+02  0.45594000000E+02  0.51100000000E-03 0.  1.
         11   -1    0    0    0    0 -0.00000000000E+00 -0.00000000000E+00 -0.45593999997E+02  0.45594000000E+02  0.51100000000E-03 0. -1.
    9900012    2    1    2    0    0 -0.25178221681E+02  0.28073506956E+02  0.15201985991E+02  0.50528867965E+02  0.30000024665E+02 0.  0.
         12    1    1    2    0    0  0.25178221681E+02 -0.28073506956E+02 -0.15201985991E+02  0.40659132035E+02  0.00000000000E+00 0. -1.
         11    1    3    3    0    0  0.32510007814E+01 -0.10592766918E+01 -0.15362616525E+00  0.34226706605E+01  0.51100000000E-03 0. -1.
        -11    1    3    3    0    0 -0.30700581964E+02  0.26268733868E+02  0.15879450546E+02  0.43413466365E+02  0.51100000000E-03 0.  1.
        -12    1    3    3    0    0  0.22713595016E+01  0.28640497797E+01 -0.52383839055E+00  0.36927309387E+01  0.00000000000E+00 0.  1.
</event>
<event>
 7    1  0.2891523E-011  0.5052886E+02  0.7816164E-02  0.1300439E+00
        -11   -1    0    0    0    0  0.00000000000E+00  0.00000000000E+00  0.45593999997E+02  0.45594000000E+02  0.51100000000E-03 0. -1.
         11   -1    0    0    0    0 -0.00000000000E+00 -0.00000000000E+00 -0.45593999997E+02  0.45594000000E+02  0.51100000000E-03 0.  1.
    9900012    2    1    2    0    0 -0.15119693791E+02  0.18869455329E+02 -0.32687980702E+02  0.50528861210E+02  0.30000004134E+02 0.  0.
         12    1    1    2    0    0  0.15119693791E+02 -0.18869455329E+02  0.32687980702E+02  0.40659138790E+02  0.00000000000E+00 0. -1.
         11    1    3    3    0    0 -0.18954704943E+02  0.18385487261E+01 -0.16917034861E+02  0.25472478671E+02  0.51100000000E-03 0. -1.
        -11    1    3    3    0    0  0.61057557856E+00  0.10736470509E+02 -0.43024029814E+01  0.11582541742E+02  0.51100000000E-03 0.  1.
         12    1    3    3    0    0  0.32244355729E+01  0.62944360943E+01 -0.11468542860E+02  0.13473840798E+02  0.00000000000E+00 0. -1.
</event>
<event>
 7    1  0.2891523E-011  0.5052885E+02  0.7816164E-02  0.1300439E+00
        -11   -1    0    0    0    0  0.00000000000E+00  0.00000000000E+00  0.45593999997E+02  0.45594000000E+02  0.51100000000E-03 0.  1.
         11   -1    0    0    0    0 -0.00000000000E+00 -0.00000000000E+00 -0.45593999997E+02  0.45594000000E+02  0.51100000000E-03 0. -1.
    9900012    2    1    2    0    0  0.39983357139E+02 -0.20023075065E+01  0.71055069312E+01  0.50528852048E+02  0.29999976284E+02 0.  0.
         12    1    1    2    0    0 -0.39983357139E+02  0.20023075065E+01 -0.71055069312E+01  0.40659147952E+02  0.00000000000E+00 0. -1.
         11    1    3    3    0    0  0.35306377573E+02 -0.56312098571E+01 -0.12131510682E+01  0.35773210054E+02  0.51100000000E-03 0. -1.
        -11    1    3    3    0    0  0.22829919033E+01  0.73091655513E+01  0.41894249168E+01  0.87285299153E+01  0.51100000000E-03 0.  1.
         12    1    3    3    0    0  0.23939876629E+01 -0.36802632007E+01  0.41292330826E+01  0.60271120785E+01  0.00000000000E+00 0. -1.
</event>
<event>
 7    1  0.2891523E-011  0.5052886E+02  0.7816164E-02  0.1300439E+00
        -11   -1    0    0    0    0  0.00000000000E+00  0.00000000000E+00  0.45593999997E+02  0.45594000000E+02  0.51100000000E-03 0.  1.
         11   -1    0    0    0    0 -0.00000000000E+00 -0.00000000000E+00 -0.45593999997E+02  0.45594000000E+02  0.51100000000E-03 0. -1.
    9900012    2    1    2    0    0  0.38544045427E-01  0.17544696626E+02  0.36678980766E+02  0.50528862092E+02  0.30000006816E+02 0.  0.
         12    1    1    2    0    0 -0.38544045427E-01 -0.17544696626E+02 -0.36678980766E+02  0.40659137908E+02  0.00000000000E+00 0. -1.
         11    1    3    3    0    0  0.24718091114E+01  0.47418865870E+00 -0.18266928336E+01  0.31099038790E+01  0.51100000000E-03 0. -1.
        -11    1    3    3    0    0 -0.23210933133E+01  0.18419504392E+02  0.40760320861E+02  0.44789165801E+02  0.51100000000E-03 0.  1.
        -12    1    3    3    0    0 -0.11217175267E+00 -0.13489964249E+01 -0.22546472614E+01  0.26297924120E+01  0.00000000000E+00 0.  1.
</event>
<event>
 7    1  0.2891523E-011  0.5052885E+02  0.7816164E-02  0.1300439E+00
        -11   -1    0    0    0    0  0.00000000000E+00  0.00000000000E+00  0.45593999997E+02  0.45594000000E+02  0.51100000000E-03 0.  1.
         11   -1    0    0    0    0 -0.00000000000E+00 -0.00000000000E+00 -0.45593999997E+02  0.45594000000E+02  0.51100000000E-03 0. -1.
    9900012    2    1    2    0    0 -0.16127922649E+02 -0.30094010559E+02  0.22077293035E+02  0.50528853080E+02  0.29999979423E+02 0.  0.
         12    1    1    2    0    0  0.16127922649E+02  0.30094010559E+02 -0.22077293035E+02  0.40659146920E+02  0.00000000000E+00 0. -1.
         11    1    3    3    0    0 -0.64820302836E+01 -0.19273245843E+01  0.19210555007E+01  0.70300605366E+01  0.51100000000E-03 0. -1.
        -11    1    3    3    0    0  0.65708891305E+01 -0.14072027648E+02  0.25879218881E+01  0.15744709780E+02  0.51100000000E-03 0.  1.
        -12    1    3    3    0    0 -0.16216781496E+02 -0.14094658327E+02  0.17568315646E+02  0.27754082764E+02  0.00000000000E+00 0.  1.
</event>
<event>
 7    1  0.2891523E-011  0.5052886E+02  0.7816164E-02  0.1300439E+00
        -11   -1    0    0    0    0  0.00000000000E+00  0.00000000000E+00  0.45593999997E+02  0.45594000000E+02  0.51100000000E-03 0.  1.
         11   -1    0    0    0    0 -0.00000000000E+00 -0.00000000000E+00 -0.45593999997E+02  0.45594000000E+02  0.51100000000E-03 0. -1.
    9900012    2    1    2    0    0 -0.90740697069E+00 -0.26521997295E+02  0.30804635920E+02  0.50528864224E+02  0.30000013294E+02 0.  0.
         12    1    1    2    0    0  0.90740697069E+00  0.26521997295E+02 -0.30804635920E+02  0.40659135776E+02  0.00000000000E+00 0. -1.
         11    1    3    3    0    0 -0.68843997999E+01  0.17046344080E+01  0.14544520828E+00  0.70937926133E+01  0.51100000000E-03 0. -1.
        -11    1    3    3    0    0  0.23808624251E+01 -0.13957356616E+02  0.75708735070E+01  0.16055978186E+02  0.51100000000E-03 0.  1.
         12    1    3    3    0    0  0.35961304041E+01 -0.14269275088E+02  0.23088317205E+02  0.27379093424E+02  0.00000000000E+00 0. -1.
</event>
<event>
 7    1  0.2891523E-011  0.5052886E+02  0.7816164E-02  0.1300439E+00
        -11   -1    0    0    0    0  0.00000000000E+00  0.00000000000E+00  0.45593999997E+02  0.45594000000E+02  0.51100000000E-03 0.  1.
         11   -1    0    0    0    0 -0.00000000000E+00 -0.00000000000E+00 -0.45593999997E+02  0.45594000000E+02  0.51100000000E-03 0. -1.
    9900012    2    1    2    0    0  0.31238491941E+02 -0.96907563364E+01  0.24153914733E+02  0.50528859157E+02  0.29999997895E+02 0.  0.
         12    1    1    2    0    0 -0.31238491941E+02  0.96907563364E+01 -0.24153914733E+02  0.40659140843E+02  0.00000000000E+00 0. -1.
         11    1    3    3    0    0  0.29552386681E+02  0.25555129580E+01  0.14093034629E+02  0.32840338463E+02  0.51100000000E-03 0. -1.
        -11    1    3    3    0    0 -0.22993630224E+01 -0.83732391835E+01  0.43203090430E+01  0.96986223362E+01  0.51100000000E-03 0.  1.
         12    1    3    3    0    0  0.39854682824E+01 -0.38730301109E+01  0.57405710610E+01  0.79898983583E+01  0.00000000000E+00 0. -1.
</event>
<event>
 7    1  0.3331809E-011  0.5052885E+02  0.7816164E-02  0.1300439E+00
        -11   -1    0    0    0    0  0.00000000000E+00  0.00000000000E+00  0.45593999997E+02  0.45594000000E+02  0.51100000000E-03 0. -1.
         11   -1    0    0    0    0 -0.00000000000E+00 -0.00000000000E+00 -0.45593999997E+02  0.45594000000E+02  0.51100000000E-03 0.  1.
    9900012    2    1    2    0    0  0.16373766256E+02  0.16942096003E+01 -0.37177896398E+02  0.50528849146E+02  0.29999967465E+02 0.  0.
         12    1    1    2    0    0 -0.16373766256E+02 -0.16942096003E+01  0.37177896398E+02  0.40659150854E+02  0.00000000000E+00 0. -1.
         11    1    3    3    0    0 -0.42353461092E+01  0.15449761715E+01 -0.28241328707E+01  0.53198528897E+01  0.51100000000E-03 0. -1.
        -11    1    3    3    0    0  0.20454193039E+02  0.73536344804E+01 -0.22128971832E+02  0.31018403369E+02  0.51100000000E-03 0.  1.
        -12    1    3    3    0    0  0.15491932572E+00 -0.72044010516E+01 -0.12224791695E+02  0.14190592887E+02  0.00000000000E+00 0.  1.
</event>
<event>
 7    1  0.2891523E-011  0.5052890E+02  0.7816164E-02  0.1300439E+00
        -11   -1    0    0    0    0  0.00000000000E+00  0.00000000000E+00  0.45593999997E+02  0.45594000000E+02  0.51100000000E-03 0. -1.
         11   -1    0    0    0    0 -0.00000000000E+00 -0.00000000000E+00 -0.45593999997E+02  0.45594000000E+02  0.51100000000E-03 0.  1.
    9900012    2    1    2    0    0  0.27869727691E+02 -0.26330164423E+02  0.13533773500E+02  0.50528901323E+02  0.30000126061E+02 0.  0.
         12    1    1    2    0    0 -0.27869727691E+02  0.26330164423E+02 -0.13533773500E+02  0.40659098677E+02  0.00000000000E+00 0. -1.
         11    1    3    3    0    0  0.26194244386E+02 -0.78715546715E+01  0.88577496380E+01  0.28749948535E+02  0.51100000000E-03 0. -1.
        -11    1    3    3    0    0  0.60779783698E+01 -0.11930596809E+02  0.26619459365E+01  0.13651626926E+02  0.51100000000E-03 0.  1.
         12    1    3    3    0    0 -0.44024950649E+01 -0.65280129424E+01  0.20140779256E+01  0.81273258618E+01  0.00000000000E+00 0. -1.
</event>
<event>
 7    1  0.2891523E-011  0.5052886E+02  0.7816164E-02  0.1300439E+00
        -11   -1    0    0    0    0  0.00000000000E+00  0.00000000000E+00  0.45593999997E+02  0.45594000000E+02  0.51100000000E-03 0.  1.
         11   -1    0    0    0    0 -0.00000000000E+00 -0.00000000000E+00 -0.45593999997E+02  0.45594000000E+02  0.51100000000E-03 0. -1.
    9900012    2    1    2    0    0 -0.32699784061E+02  0.24163616996E+02  0.95581116719E-01  0.50528863269E+02  0.30000010392E+02 0.  0.
         12    1    1    2    0    0  0.32699784061E+02 -0.24163616996E+02 -0.95581116719E-01  0.40659136731E+02  0.00000000000E+00 0. -1.
         11    1    3    3    0    0 -0.41441726088E+01 -0.56874748152E+01 -0.20305671670E+01  0.73242569361E+01  0.51100000000E-03 0. -1.
        -11    1    3    3    0    0 -0.19181759513E+02  0.17742105760E+02 -0.45098467040E+01  0.26515296196E+02  0.51100000000E-03 0.  1.
        -12    1    3    3    0    0 -0.93738519398E+01  0.12108986050E+02  0.66359949878E+01  0.16689310137E+02  0.00000000000E+00 0.  1.
</event>
<event>
 7    1  0.2891523E-011  0.5052886E+02  0.7816164E-02  0.1300439E+00
        -11   -1    0    0    0    0  0.00000000000E+00  0.00000000000E+00  0.45593999997E+02  0.45594000000E+02  0.51100000000E-03 0. -1.
         11   -1    0    0    0    0 -0.00000000000E+00 -0.00000000000E+00 -0.45593999997E+02  0.45594000000E+02  0.51100000000E-03 0.  1.
    9900012    2    1    2    0    0  0.38312812282E+02 -0.13590854471E+02 -0.76337201911E+00  0.50528860228E+02  0.30000001148E+02 0.  0.
         12    1    1    2    0    0 -0.38312812282E+02  0.13590854471E+02  0.76337201911E+00  0.40659139772E+02  0.00000000000E+00 0. -1.
         11    1    3    3    0    0  0.12612737822E+02  0.13289718586E+01 -0.12045251536E+02  0.17491009302E+02  0.51100000000E-03 0. -1.
        -11    1    3    3    0    0  0.24396744474E+02 -0.11249621300E+02  0.82548910505E+01  0.28105130259E+02  0.51100000000E-03 0.  1.
         12    1    3    3    0    0  0.13033299857E+01 -0.36702050293E+01  0.30269884664E+01  0.49327206676E+01  0.00000000000E+00 0. -1.
</event>
<event>
 7    1  0.2891523E-011  0.5052886E+02  0.7816164E-02  0.1300439E+00
        -11   -1    0    0    0    0  0.00000000000E+00  0.00000000000E+00  0.45593999997E+02  0.45594000000E+02  0.51100000000E-03 0.  1.
         11   -1    0    0    0    0 -0.00000000000E+00 -0.00000000000E+00 -0.45593999997E+02  0.45594000000E+02  0.51100000000E-03 0. -1.
    9900012    2    1    2    0    0 -0.18222433700E+01  0.39262931234E+01  0.40428078251E+02  0.50528857613E+02  0.29999993200E+02 0.  0.
         12    1    1    2    0    0  0.18222433700E+01 -0.39262931234E+01 -0.40428078251E+02  0.40659142387E+02  0.00000000000E+00 0. -1.
         11    1    3    3    0    0  0.15570648280E+01 -0.69446707619E+01 -0.12525177751E+01  0.72264586007E+01  0.51100000000E-03 0. -1.
        -11    1    3    3    0    0 -0.85433275704E+00  0.66775636682E+01  0.21109933562E+02  0.22157369796E+02  0.51100000000E-03 0.  1.
         12    1    3    3    0    0 -0.25249754410E+01  0.41934002170E+01  0.20570662464E+02  0.21145029216E+02  0.00000000000E+00 0. -1.
</event>
<event>
 7    1  0.2891523E-011  0.5052887E+02  0.7816164E-02  0.1300439E+00
        -11   -1    0    0    0    0  0.00000000000E+00  0.00000000000E+00  0.45593999997E+02  0.45594000000E+02  0.51100000000E-03 0. -1.
         11   -1    0    0    0    0 -0.00000000000E+00 -0.00000000000E+00 -0.45593999997E+02  0.45594000000E+02  0.51100000000E-03 0.  1.
    9900012    2    1    2    0    0  0.20628859965E+01  0.31902634148E+02 -0.25122330893E+02  0.50528867277E+02  0.30000022576E+02 0.  0.
         12    1    1    2    0    0 -0.20628859965E+01 -0.31902634148E+02  0.25122330893E+02  0.40659132723E+02  0.00000000000E+00 0. -1.
         11    1    3    3    0    0  0.14503002012E+01 -0.88260468384E+00 -0.10545583659E+01  0.19986133468E+01  0.51100000000E-03 0. -1.
        -11    1    3    3    0    0  0.69378657914E+01  0.24198568381E+02 -0.35718326580E+01  0.25425630419E+02  0.51100000000E-03 0.  1.
        -12    1    3    3    0    0 -0.63252799962E+01  0.85866704514E+01 -0.20495939869E+02  0.23104623511E+02  0.00000000000E+00 0.  1.
</event>
<event>
 7    1  0.2891523E-011  0.5052888E+02  0.7816164E-02  0.1300439E+00
        -11   -1    0    0    0    0  0.00000000000E+00  0.00000000000E+00  0.45593999997E+02  0.45594000000E+02  0.51100000000E-03 0.  1.
         11   -1    0    0    0    0 -0.00000000000E+00 -0.00000000000E+00 -0.45593999997E+02  0.45594000000E+02  0.51100000000E-03 0. -1.
    9900012    2    1    2    0    0  0.23063672381E+02  0.23634659675E+02 -0.23719912403E+02  0.50528875980E+02  0.30000049030E+02 0.  0.
         12    1    1    2    0    0 -0.23063672381E+02 -0.23634659675E+02  0.23719912403E+02  0.40659124020E+02  0.00000000000E+00 0. -1.
         11    1    3    3    0    0  0.53304856945E+01 -0.27286209009E+00 -0.46660207653E+01  0.70894486036E+01  0.51100000000E-03 0. -1.
        -11    1    3    3    0    0 -0.31855009040E+01  0.15495985703E+02 -0.11863489417E+02  0.19774108585E+02  0.51100000000E-03 0.  1.
        -12    1    3    3    0    0  0.20918687591E+02  0.84115360618E+01 -0.71904022203E+01  0.23665318792E+02  0.00000000000E+00 0.  1.
</event>
<event>
 7    1  0.2891523E-011  0.5052885E+02  0.7816164E-02  0.1300439E+00
        -11   -1    0    0    0    0  0.00000000000E+00  0.00000000000E+00  0.45593999997E+02  0.45594000000E+02  0.51100000000E-03 0.  1.
         11   -1    0    0    0    0 -0.00000000000E+00 -0.00000000000E+00 -0.45593999997E+02  0.45594000000E+02  0.51100000000E-03 0. -1.
    9900012    2    1    2    0    0  0.40226684285E+02  0.33191722738E+01 -0.48952748913E+01  0.50528846672E+02  0.29999959943E+02 0.  0.
         12    1    1    2    0    0 -0.40226684285E+02 -0.33191722738E+01  0.48952748913E+01  0.40659153328E+02  0.00000000000E+00 0. -1.
         11    1    3    3    0    0  0.36514298838E+02  0.61533393232E+01 -0.10573990513E+02  0.38509309006E+02  0.51100000000E-03 0. -1.
        -11    1    3    3    0    0  0.63037477279E+01 -0.35285138287E+01  0.59005598526E+01  0.93276069864E+01  0.51100000000E-03 0.  1.
         12    1    3    3    0    0 -0.25913622811E+01  0.69434677935E+00 -0.22184423048E+00  0.26919306797E+01  0.00000000000E+00 0. -1.
</event>
<event>
 7    1  0.2891523E-011  0.5052886E+02  0.7816164E-02  0.1300439E+00
        -11   -1    0    0    0    0  0.00000000000E+00  0.00000000000E+00  0.45593999997E+02  0.45594000000E+02  0.51100000000E-03 0. -1.
         11   -1    0    0    0    0 -0.00000000000E+00 -0.00000000000E+00 -0.45593999997E+02  0.45594000000E+02  0.51100000000E-03 0.  1.
    9900012    2    1    2    0    0  0.30579946064E+02  0.10016695801E+02 -0.24853542599E+02  0.50528857414E+02  0.29999992597E+02 0.  0.
         12    1    1    2    0    0 -0.30579946064E+02 -0.10016695801E+02  0.24853542599E+02  0.40659142586E+02  0.00000000000E+00 0. -1.
         11    1    3    3    0    0  0.95608261905E+01  0.75983001793E+01 -0.31393560583E+01  0.12609485310E+02  0.51100000000E-03 0. -1.
        -11    1    3    3    0    0 -0.12977967975E+01 -0.66103484437E+01 -0.27636715684E+01  0.72814053502E+01  0.51100000000E-03 0.  1.
        -12    1    3    3    0    0  0.22316916671E+02  0.90287440654E+01 -0.18950514972E+02  0.30637966754E+02  0.00000000000E+00 0.  1.
</event>
<event>
 7    1  0.2891523E-011  0.5052886E+02  0.7816164E-02  0.1300439E+00
        -11   -1    0    0    0    0  0.00000000000E+00  0.00000000000E+00  0.45593999997E+02  0.45594000000E+02  0.51100000000E-03 0. -1.
         11   -1    0    0    0    0 -0.00000000000E+00 -0.00000000000E+00 -0.45593999997E+02  0.45594000000E+02  0.51100000000E-03 0.  1.
    9900012    2    1    2    0    0 -0.25620965632E+02  0.28576468677E+02 -0.13420773091E+02  0.50528860901E+02  0.30000003193E+02 0.  0.
         12    1    1    2    0    0  0.25620965632E+02 -0.28576468677E+02  0.13420773091E+02  0.40659139099E+02  0.00000000000E+00 0. -1.
         11    1    3    3    0    0 -0.22369439012E+01 -0.26393469745E+01 -0.55772203000E+01  0.65631895451E+01  0.51100000000E-03 0. -1.
        -11    1    3    3    0    0 -0.15934799740E+02  0.31663666549E+02 -0.43086343626E+01  0.35708121659E+02  0.51100000000E-03 0.  1.
        -12    1    3    3    0    0 -0.74492219910E+01 -0.44785089787E+00 -0.35349184280E+01  0.82575496965E+01  0.00000000000E+00 0.  1.
</event>
<event>
 7    1  0.2891523E-011  0.5052886E+02  0.7816164E-02  0.1300439E+00
        -11   -1    0    0    0    0  0.00000000000E+00  0.00000000000E+00  0.45593999997E+02  0.45594000000E+02  0.51100000000E-03 0.  1.
         11   -1    0    0    0    0 -0.00000000000E+00 -0.00000000000E+00 -0.45593999997E+02  0.45594000000E+02  0.51100000000E-03 0. -1.
    9900012    2    1    2    0    0 -0.10903781038E+02  0.18631611441E+02  0.34454842316E+02  0.50528861485E+02  0.30000004969E+02 0.  0.
         12    1    1    2    0    0  0.10903781038E+02 -0.18631611441E+02 -0.34454842316E+02  0.40659138515E+02  0.00000000000E+00 0. -1.
         11    1    3    3    0    0 -0.10376637123E+02 -0.11865878351E+00  0.49145819845E+01  0.11482238206E+02  0.51100000000E-03 0. -1.
        -11    1    3    3    0    0  0.77498633615E+01  0.92050915310E+01  0.93902251663E+01  0.15263368604E+02  0.51100000000E-03 0.  1.
        -12    1    3    3    0    0 -0.82770072769E+01  0.95451786932E+01  0.20150035165E+02  0.23783254674E+02  0.00000000000E+00 0.  1.
</event>
<event>
 7    1  0.2891523E-011  0.5052879E+02  0.7816164E-02  0.1300439E+00
        -11   -1    0    0    0    0  0.00000000000E+00  0.00000000000E+00  0.45593999997E+02  0.45594000000E+02  0.51100000000E-03 0.  1.
         11   -1    0    0    0    0 -0.00000000000E+00 -0.00000000000E+00 -0.45593999997E+02  0.45594000000E+02  0.51100000000E-03 0. -1.
    9900012    2    1    2    0    0 -0.38087902295E+02  0.56398687006E+01 -0.13064251890E+02  0.50528793200E+02  0.29999797409E+02 0.  0.
         12    1    1    2    0    0  0.38087902295E+02 -0.56398687006E+01  0.13064251890E+02  0.40659206800E+02  0.00000000000E+00 0. -1.
         11    1    3    3    0    0 -0.94962930553E+01  0.50896888307E+01 -0.15255299113E+02  0.18676420039E+02  0.51100000000E-03 0. -1.
        -11    1    3    3    0    0 -0.26061014847E+02  0.49820951449E+01  0.29355272385E+01  0.26694851326E+02  0.51100000000E-03 0.  1.
         12    1    3    3    0    0 -0.25305943929E+01 -0.44319152750E+01 -0.74448001523E+00  0.51575218351E+01  0.00000000000E+00 0. -1.
</event>
<event>
 7    1  0.2891523E-011  0.5052894E+02  0.7816164E-02  0.1300439E+00
        -11   -1    0    0    0    0  0.00000000000E+00  0.00000000000E+00  0.45593999997E+02  0.45594000000E+02  0.51100000000E-03 0.  1.
         11   -1    0    0    0    0 -0.00000000000E+00 -0.00000000000E+00 -0.45593999997E+02  0.45594000000E+02  0.51100000000E-03 0. -1.
    9900012    2    1    2    0    0  0.56144489285E+01 -0.53706859432E+01  0.39909811687E+02  0.50528937380E+02  0.30000235658E+02 0.  0.
         12    1    1    2    0    0 -0.56144489285E+01  0.53706859432E+01 -0.39909811687E+02  0.40659062620E+02  0.00000000000E+00 0. -1.
         11    1    3    3    0    0 -0.83158251212E+01  0.57645740473E+01  0.17886863888E+02  0.20550502705E+02  0.51100000000E-03 0. -1.
        -11    1    3    3    0    0 -0.14177006697E+01 -0.54331562649E+00  0.28692350294E+01  0.32461634238E+01  0.51100000000E-03 0.  1.
         12    1    3    3    0    0  0.15347974719E+02 -0.10591944364E+02  0.19153712769E+02  0.26732271251E+02  0.00000000000E+00 0. -1.
</event>
<event>
 7    1  0.2891523E-011  0.5052886E+02  0.7816164E-02  0.1300439E+00
        -11   -1    0    0    0    0  0.00000000000E+00  0.00000000000E+00  0.45593999997E+02  0.45594000000E+02  0.51100000000E-03 0.  1.
         11   -1    0    0    0    0 -0.00000000000E+00 -0.00000000000E+00 -0.45593999997E+02  0.45594000000E+02  0.51100000000E-03 0. -1.
    9900012    2    1    2    0    0 -0.57352171861E+01  0.19599449338E+02  0.35158707851E+02  0.50528857507E+02  0.29999992879E+02 0.  0.
         12    1    1    2    0    0  0.57352171861E+01 -0.19599449338E+02 -0.35158707851E+02  0.40659142493E+02  0.00000000000E+00 0. -1.
         11    1    3    3    0    0  0.11278039709E+02  0.12646912345E+02  0.14149939620E+02  0.22076217137E+02  0.51100000000E-03 0. -1.
        -11    1    3    3    0    0 -0.15907777175E+02  0.62100898285E+01  0.16479854921E+02  0.23732008108E+02  0.51100000000E-03 0.  1.
         12    1    3    3    0    0 -0.11054797198E+01  0.74244716399E+00  0.45289133091E+01  0.47206322631E+01  0.00000000000E+00 0. -1.
</event>
<event>
 7    1  0.2891523E-011  0.5052886E+02  0.7816164E-02  0.1300439E+00
        -11   -1    0    0    0    0  0.00000000000E+00  0.00000000000E+00  0.45593999997E+02  0.45594000000E+02  0.51100000000E-03 0.  1.
         11   -1    0    0    0    0 -0.00000000000E+00 -0.00000000000E+00 -0.45593999997E+02  0.45594000000E+02  0.51100000000E-03 0. -1.
    9900012    2    1    2    0    0  0.17678515781E+02  0.23464164941E+02  0.28108163992E+02  0.50528857860E+02  0.29999993950E+02 0.  0.
         12    1    1    2    0    0 -0.17678515781E+02 -0.23464164941E+02 -0.28108163992E+02  0.40659142140E+02  0.00000000000E+00 0. -1.
         11    1    3    3    0    0  0.76104491689E+01 -0.22581468046E+01  0.75988933915E+01  0.10989146672E+02  0.51100000000E-03 0. -1.
        -11    1    3    3    0    0  0.14422309189E+02  0.23502038296E+02  0.20952921644E+02  0.34631975573E+02  0.51100000000E-03 0.  1.
        -12    1    3    3    0    0 -0.43542425773E+01  0.22202734494E+01 -0.44365104357E+00  0.49077356143E+01  0.00000000000E+00 0.  1.
</event>
<event>
 7    1  0.2891523E-011  0.5052886E+02  0.7816164E-02  0.1300439E+00
        -11   -1    0    0    0    0  0.00000000000E+00  0.00000000000E+00  0.45593999997E+02  0.45594000000E+02  0.51100000000E-03 0.  1.
         11   -1    0    0    0    0 -0.00000000000E+00 -0.00000000000E+00 -0.45593999997E+02  0.45594000000E+02  0.51100000000E-03 0. -1.
    9900012    2    1    2    0    0 -0.63807209832E+01  0.37446152902E+02 -0.14499569144E+02  0.50528862371E+02  0.30000007661E+02 0.  0.
         12    1    1    2    0    0  0.63807209832E+01 -0.37446152902E+02  0.14499569144E+02  0.40659137629E+02  0.00000000000E+00 0. -1.
         11    1    3    3    0    0  0.16121989596E+01 -0.49725023885E+01 -0.18420954018E+01  0.55424075292E+01  0.51100000000E-03 0. -1.
        -11    1    3    3    0    0 -0.74057872379E+01  0.38404396949E+02 -0.11505520697E+02  0.40769110812E+02  0.51100000000E-03 0.  1.
         12    1    3    3    0    0 -0.58713270494E+00  0.40142583415E+01 -0.11519530454E+01  0.42173440296E+01  0.00000000000E+00 0. -1.
</event>
<event>
 7    1  0.2891523E-011  0.5052886E+02  0.7816164E-02  0.1300439E+00
        -11   -1    0    0    0    0  0.00000000000E+00  0.00000000000E+00  0.45593999997E+02  0.45594000000E+02  0.51100000000E-03 0. -1.
         11   -1    0    0    0    0 -0.00000000000E+00 -0.00000000000E+00 -0.45593999997E+02  0.45594000000E+02  0.51100000000E-03 0.  1.
    9900012    2    1    2    0    0  0.16565039743E+02 -0.26949972559E+02  0.25543374881E+02  0.50528861262E+02  0.30000004291E+02 0.  0.
         12    1    1    2    0    0 -0.16565039743E+02  0.26949972559E+02 -0.25543374881E+02  0.40659138738E+02  0.00000000000E+00 0. -1.
         11    1    3    3    0    0  0.64788950957E+01 -0.18009383759E+01 -0.93674403770E-01  0.67251941124E+01  0.51100000000E-03 0. -1.
        -11    1    3    3    0    0  0.11035326290E+02 -0.16346995171E+02  0.28357528898E+02  0.34542034146E+02  0.51100000000E-03 0.  1.
        -12    1    3    3    0    0 -0.94918164253E+00 -0.88020390125E+01 -0.27204796135E+01  0.92616330037E+01  0.00000000000E+00 0.  1.
</event>
<event>
 7    1  0.2891523E-011  0.5052886E+02  0.7816164E-02  0.1300439E+00
        -11   -1    0    0    0    0  0.00000000000E+00  0.00000000000E+00  0.45593999997E+02  0.45594000000E+02  0.51100000000E-03 0. -1.
         11   -1    0    0    0    0 -0.00000000000E+00 -0.00000000000E+00 -0.45593999997E+02  0.45594000000E+02  0.51100000000E-03 0.  1.
    9900012    2    1    2    0    0  0.25255664563E+02  0.10488949922E+02 -0.30088188208E+02  0.50528859174E+02  0.29999997946E+02 0.  0.
         12    1    1    2    0    0 -0.25255664563E+02 -0.10488949922E+02  0.30088188208E+02  0.40659140826E+02  0.00000000000E+00 0. -1.
         11    1    3    3    0    0  0.10036522178E+02 -0.26694902985E+01 -0.24273440672E+02  0.26401853688E+02  0.51100000000E-03 0. -1.
        -11    1    3    3    0    0  0.16257882369E+02  0.14068047688E+02 -0.66608354341E+01  0.22507674998E+02  0.51100000000E-03 0.  1.
         12    1    3    3    0    0 -0.10387399835E+01 -0.90960746745E+00  0.84608789736E+00  0.16193304876E+01  0.00000000000E+00 0. -1.
</event>
<event>
 7    1  0.2891523E-011  0.5052885E+02  0.7816164E-02  0.1300439E+00
        -11   -1    0    0    0    0  0.00000000000E+00  0.00000000000E+00  0.45593999997E+02  0.45594000000E+02  0.51100000000E-03 0.  1.
         11   -1    0    0    0    0 -0.00000000000E+00 -0.00000000000E+00 -0.45593999997E+02  0.45594000000E+02  0.51100000000E-03 0. -1.
    9900012    2    1    2    0    0 -0.30554165411E+02 -0.22000133989E+02  0.15349379610E+02  0.50528851289E+02  0.29999973980E+02 0.  0.
         12    1    1    2    0    0  0.30554165411E+02  0.22000133989E+02 -0.15349379610E+02  0.40659148711E+02  0.00000000000E+00 0. -1.
         11    1    3    3    0    0 -0.49756747225E+01 -0.39305845180E+01 -0.22451233912E+01  0.67266197232E+01  0.51100000000E-03 0. -1.
        -11    1    3    3    0    0 -0.20247322293E+01 -0.79156494302E+01  0.16165821333E+02  0.18113277620E+02  0.51100000000E-03 0.  1.
        -12    1    3    3    0    0 -0.23553758459E+02 -0.10153900040E+02  0.14286816682E+01  0.25688953947E+02  0.00000000000E+00 0.  1.
</event>
<event>
 7    1  0.2891523E-011  0.5052887E+02  0.7816164E-02  0.1300439E+00
        -11   -1    0    0    0    0  0.00000000000E+00  0.00000000000E+00  0.45593999997E+02  0.45594000000E+02  0.51100000000E-03 0.  1.
         11   -1    0    0    0    0 -0.00000000000E+00 -0.00000000000E+00 -0.45593999997E+02  0.45594000000E+02  0.51100000000E-03 0. -1.
    9900012    2    1    2    0    0  0.19018024522E+02 -0.31786473976E+02 -0.16766034474E+02  0.50528866997E+02  0.30000021723E+02 0.  0.
         12    1    1    2    0    0 -0.19018024522E+02  0.31786473976E+02  0.16766034474E+02  0.40659133003E+02  0.00000000000E+00 0. -1.
         11    1    3    3    0    0 -0.94661675751E+00 -0.67030538777E+01 -0.51093311862E+01  0.84812899965E+01  0.51100000000E-03 0. -1.
        -11    1    3    3    0    0  0.12794552728E+02 -0.13350467206E+02  0.62062699581E+01  0.19505213180E+02  0.51100000000E-03 0.  1.
        -12    1    3    3    0    0  0.71700885519E+01 -0.11732952893E+02 -0.17862973246E+02  0.22542363821E+02  0.00000000000E+00 0.  1.
</event>
<event>
 7    1  0.2891523E-011  0.5052886E+02  0.7816164E-02  0.1300439E+00
        -11   -1    0    0    0    0  0.00000000000E+00  0.00000000000E+00  0.45593999997E+02  0.45594000000E+02  0.51100000000E-03 0. -1.
         11   -1    0    0    0    0 -0.00000000000E+00 -0.00000000000E+00 -0.45593999997E+02  0.45594000000E+02  0.51100000000E-03 0.  1.
    9900012    2    1    2    0    0  0.13195670107E+02  0.19838540790E+02 -0.32946509566E+02  0.50528857082E+02  0.29999991585E+02 0.  0.
         12    1    1    2    0    0 -0.13195670107E+02 -0.19838540790E+02  0.32946509566E+02  0.40659142918E+02  0.00000000000E+00 0. -1.
         11    1    3    3    0    0 -0.46464090574E+01 -0.17888512034E+01 -0.11300180927E+02  0.12348408602E+02  0.51100000000E-03 0. -1.
        -11    1    3    3    0    0  0.98774050320E+01  0.19422343653E+02 -0.10190715966E+02  0.24054963215E+02  0.51100000000E-03 0.  1.
        -12    1    3    3    0    0  0.79646741329E+01  0.22050483402E+01 -0.11455612673E+02  0.14125485264E+02  0.00000000000E+00 0.  1.
</event>
<event>
 7    1  0.2891523E-011  0.5052886E+02  0.7816164E-02  0.1300439E+00
        -11   -1    0    0    0    0  0.00000000000E+00  0.00000000000E+00  0.45593999997E+02  0.45594000000E+02  0.51100000000E-03 0. -1.
         11   -1    0    0    0    0 -0.00000000000E+00 -0.00000000000E+00 -0.45593999997E+02  0.45594000000E+02  0.51100000000E-03 0.  1.
    9900012    2    1    2    0    0 -0.31987291443E+02 -0.25050841180E+02 -0.15601701812E+01  0.50528860946E+02  0.30000003331E+02 0.  0.
         12    1    1    2    0    0  0.31987291443E+02  0.25050841180E+02  0.15601701812E+01  0.40659139054E+02  0.00000000000E+00 0. -1.
         11    1    3    3    0    0 -0.36619983976E+01 -0.24973028696E+00  0.43744724933E+01  0.57103946743E+01  0.51100000000E-03 0. -1.
        -11    1    3    3    0    0 -0.27718585255E+02 -0.26986014592E+02 -0.10182639942E+02  0.40003138733E+02  0.51100000000E-03 0.  1.
        -12    1    3    3    0    0 -0.60670779011E+00  0.21849036992E+01  0.42479972672E+01  0.48153275381E+01  0.00000000000E+00 0.  1.
</event>
<event>
 7    1  0.2891523E-011  0.5052885E+02  0.7816164E-02  0.1300439E+00
        -11   -1    0    0    0    0  0.00000000000E+00  0.00000000000E+00  0.45593999997E+02  0.45594000000E+02  0.51100000000E-03 0.  1.
         11   -1    0    0    0    0 -0.00000000000E+00 -0.00000000000E+00 -0.45593999997E+02  0.45594000000E+02  0.51100000000E-03 0. -1.
    9900012    2    1    2    0    0 -0.26793079267E+02  0.23280912959E+02  0.19831702670E+02  0.50528850531E+02  0.29999971673E+02 0.  0.
         12    1    1    2    0    0  0.26793079267E+02 -0.23280912959E+02 -0.19831702670E+02  0.40659149469E+02  0.00000000000E+00 0. -1.
         11    1    3    3    0    0 -0.46720302858E+01  0.69927036906E+01 -0.36151782494E+01  0.91539765093E+01  0.51100000000E-03 0. -1.
        -11    1    3    3    0    0 -0.16109550248E+02  0.20050533274E+02  0.22588584084E+02  0.34231354413E+02  0.51100000000E-03 0.  1.
        -12    1    3    3    0    0 -0.60114987329E+01 -0.37623240056E+01  0.85829683501E+00  0.71435196084E+01  0.00000000000E+00 0.  1.
</event>
<event>
 7    1  0.2891523E-011  0.5052883E+02  0.7816164E-02  0.1300439E+00
        -11   -1    0    0    0    0  0.00000000000E+00  0.00000000000E+00  0.45593999997E+02  0.45594000000E+02  0.51100000000E-03 0.  1.
         11   -1    0    0    0    0 -0.00000000000E+00 -0.00000000000E+00 -0.45593999997E+02  0.45594000000E+02  0.51100000000E-03 0. -1.
    9900012    2    1    2    0    0  0.37965944291E+02  0.21933737829E+01  0.14385570585E+02  0.50528825690E+02  0.29999896168E+02 0.  0.
         12    1    1    2    0    0 -0.37965944291E+02 -0.21933737829E+01 -0.14385570585E+02  0.40659174310E+02  0.00000000000E+00 0. -1.
         11    1    3    3    0    0  0.13179155002E+02 -0.63732310087E+01  0.14285390489E+02  0.20454353613E+02  0.51100000000E-03 0.  1.
        -11    1    3    3    0    0  0.23853408477E+02  0.96066842515E+01 -0.37419645480E+01  0.25986068906E+02  0.51100000000E-03 0. -1.
         12    1    3    3    0    0  0.93338081300E+00 -0.10400794599E+01  0.38421446437E+01  0.40884031710E+01  0.00000000000E+00 0. -1.
</event>
<event>
 7    1  0.2891523E-011  0.5052884E+02  0.7816164E-02  0.1300439E+00
        -11   -1    0    0    0    0  0.00000000000E+00  0.00000000000E+00  0.45593999997E+02  0.45594000000E+02  0.51100000000E-03 0. -1.
         11   -1    0    0    0    0 -0.00000000000E+00 -0.00000000000E+00 -0.45593999997E+02  0.45594000000E+02  0.51100000000E-03 0.  1.
    9900012    2    1    2    0    0 -0.57808477309E+01  0.37454857719E+02 -0.14726933666E+02  0.50528841838E+02  0.29999945251E+02 0.  0.
         12    1    1    2    0    0  0.57808477309E+01 -0.37454857719E+02  0.14726933666E+02  0.40659158162E+02  0.00000000000E+00 0. -1.
         11    1    3    3    0    0  0.71241439492E+01  0.47672059462E+01 -0.70499938014E+01  0.11098742830E+02  0.51100000000E-03 0. -1.
        -11    1    3    3    0    0 -0.39325657128E+01  0.20185809336E+02 -0.11516012111E+02  0.23570118939E+02  0.51100000000E-03 0.  1.
         12    1    3    3    0    0 -0.89724259673E+01  0.12501842437E+02  0.38390722464E+01  0.15859980069E+02  0.00000000000E+00 0. -1.
</event>
<event>
 7    1  0.2891523E-011  0.5052886E+02  0.7816164E-02  0.1300439E+00
        -11   -1    0    0    0    0  0.00000000000E+00  0.00000000000E+00  0.45593999997E+02  0.45594000000E+02  0.51100000000E-03 0.  1.
         11   -1    0    0    0    0 -0.00000000000E+00 -0.00000000000E+00 -0.45593999997E+02  0.45594000000E+02  0.51100000000E-03 0. -1.
    9900012    2    1    2    0    0  0.12990237883E+01  0.10607222921E+01  0.40624535478E+02  0.50528862314E+02  0.30000007489E+02 0.  0.
         12    1    1    2    0    0 -0.12990237883E+01 -0.10607222921E+01 -0.40624535478E+02  0.40659137686E+02  0.00000000000E+00 0. -1.
         11    1    3    3    0    0 -0.98779605122E+01  0.66489386589E+01  0.14991460050E+02  0.19144878267E+02  0.51100000000E-03 0. -1.
        -11    1    3    3    0    0  0.70852213532E+01  0.33959683821E+01  0.82467716067E+01  0.11390443585E+02  0.51100000000E-03 0.  1.
         12    1    3    3    0    0  0.40917629472E+01 -0.89841847489E+01  0.17386303821E+02  0.19993540461E+02  0.00000000000E+00 0. -1.
</event>
<event>
 7    1  0.2891523E-011  0.5052886E+02  0.7816164E-02  0.1300439E+00
        -11   -1    0    0    0    0  0.00000000000E+00  0.00000000000E+00  0.45593999997E+02  0.45594000000E+02  0.51100000000E-03 0. -1.
         11   -1    0    0    0    0 -0.00000000000E+00 -0.00000000000E+00 -0.45593999997E+02  0.45594000000E+02  0.51100000000E-03 0.  1.
    9900012    2    1    2    0    0  0.14377061164E+02 -0.33458087227E+01 -0.37884972865E+02  0.50528862125E+02  0.30000006916E+02 0.  0.
         12    1    1    2    0    0 -0.14377061164E+02  0.33458087227E+01  0.37884972865E+02  0.40659137875E+02  0.00000000000E+00 0. -1.
         11    1    3    3    0    0 -0.16791971331E+00  0.84402335056E-02  0.22775136247E+01  0.22837111988E+01  0.51100000000E-03 0. -1.
        -11    1    3    3    0    0  0.10532438855E+02  0.23401963612E+01 -0.39836122263E+02  0.41271363250E+02  0.51100000000E-03 0.  1.
        -12    1    3    3    0    0  0.40125420223E+01 -0.56944453174E+01 -0.32636422655E+00  0.69737876769E+01  0.00000000000E+00 0.  1.
</event>
<event>
 7    1  0.2891523E-011  0.5052887E+02  0.7816164E-02  0.1300439E+00
        -11   -1    0    0    0    0  0.00000000000E+00  0.00000000000E+00  0.45593999997E+02  0.45594000000E+02  0.51100000000E-03 0.  1.
         11   -1    0    0    0    0 -0.00000000000E+00 -0.00000000000E+00 -0.45593999997E+02  0.45594000000E+02  0.51100000000E-03 0. -1.
    9900012    2    1    2    0    0  0.14034683716E+02 -0.21944937839E+02  0.31218784118E+02  0.50528866640E+02  0.30000020639E+02 0.  0.
         12    1    1    2    0    0 -0.14034683716E+02  0.21944937839E+02 -0.31218784118E+02  0.40659133360E+02  0.00000000000E+00 0. -1.
         11    1    3    3    0    0 -0.50545733975E+01  0.16584835150E+01  0.15139103533E+01  0.55309316231E+01  0.51100000000E-03 0. -1.
        -11    1    3    3    0    0  0.70410585062E+01 -0.11689746445E+02  0.23064730887E+02  0.26799412083E+02  0.51100000000E-03 0.  1.
         12    1    3    3    0    0  0.12048198608E+02 -0.11913674910E+02  0.66401428773E+01  0.18198522934E+02  0.00000000000E+00 0. -1.
</event>
<event>
 7    1  0.2891523E-011  0.5052886E+02  0.7816164E-02  0.1300439E+00
        -11   -1    0    0    0    0  0.00000000000E+00  0.00000000000E+00  0.45593999997E+02  0.45594000000E+02  0.51100000000E-03 0.  1.
         11   -1    0    0    0    0 -0.00000000000E+00 -0.00000000000E+00 -0.45593999997E+02  0.45594000000E+02  0.51100000000E-03 0. -1.
    9900012    2    1    2    0    0 -0.20224625991E+02 -0.32577092924E+02  0.13522695624E+02  0.50528858632E+02  0.29999996297E+02 0.  0.
         12    1    1    2    0    0  0.20224625991E+02  0.32577092924E+02 -0.13522695624E+02  0.40659141368E+02  0.00000000000E+00 0. -1.
         11    1    3    3    0    0 -0.54383230914E+01 -0.28703974550E+02  0.48736491728E+00  0.29218676182E+02  0.51100000000E-03 0. -1.
        -11    1    3    3    0    0 -0.41266119726E+01  0.10740643636E+00  0.77132482683E+01  0.87484090910E+01  0.51100000000E-03 0.  1.
         12    1    3    3    0    0 -0.10659690927E+02 -0.39805248104E+01  0.53220824382E+01  0.12561773358E+02  0.00000000000E+00 0. -1.
</event>
<event>
 7    1  0.2891523E-011  0.5052886E+02  0.7816164E-02  0.1300439E+00
        -11   -1    0    0    0    0  0.00000000000E+00  0.00000000000E+00  0.45593999997E+02  0.45594000000E+02  0.51100000000E-03 0.  1.
         11   -1    0    0    0    0 -0.00000000000E+00 -0.00000000000E+00 -0.45593999997E+02  0.45594000000E+02  0.51100000000E-03 0. -1.
    9900012    2    1    2    0    0  0.31381687796E+02 -0.54347332367E+00  0.25846851886E+02  0.50528862717E+02  0.30000008716E+02 0.  0.
         12    1    1    2    0    0 -0.31381687796E+02  0.54347332367E+00 -0.25846851886E+02  0.40659137283E+02  0.00000000000E+00 0. -1.
         11    1    3    3    0    0  0.16758890071E+01  0.19389925221E+01 -0.94430880659E+00  0.27313028664E+01  0.51100000000E-03 0. -1.
        -11    1    3    3    0    0  0.32519429247E+02 -0.72561199401E+01  0.19384967898E+02  0.38547912210E+02  0.51100000000E-03 0.  1.
        -12    1    3    3    0    0 -0.28136304581E+01  0.47736540944E+01  0.74061927943E+01  0.92496476405E+01  0.00000000000E+00 0.  1.
</event>
<event>
 7    1  0.2891523E-011  0.5052886E+02  0.7816164E-02  0.1300439E+00
        -11   -1    0    0    0    0  0.00000000000E+00  0.00000000000E+00  0.45593999997E+02  0.45594000000E+02  0.51100000000E-03 0. -1.
         11   -1    0    0    0    0 -0.00000000000E+00 -0.00000000000E+00 -0.45593999997E+02  0.45594000000E+02  0.51100000000E-03 0.  1.
    9900012    2    1    2    0    0 -0.21022568397E+02  0.34163658724E+02 -0.66378850944E+01  0.50528862307E+02  0.30000007469E+02 0.  0.
         12    1    1    2    0    0  0.21022568397E+02 -0.34163658724E+02  0.66378850944E+01  0.40659137693E+02  0.00000000000E+00 0. -1.
         11    1    3    3    0    0 -0.85496647864E+01 -0.16956496278E+01  0.18231978863E+01  0.89048327561E+01  0.51100000000E-03 0. -1.
        -11    1    3    3    0    0 -0.97652690951E-01  0.20362728569E+02 -0.77243348754E+01  0.21778787853E+02  0.51100000000E-03 0.  1.
         12    1    3    3    0    0 -0.12375250919E+02  0.15496579783E+02 -0.73674810539E+00  0.19845241698E+02  0.00000000000E+00 0. -1.
</event>
<event>
 7    1  0.2891523E-011  0.5052880E+02  0.7816164E-02  0.1300439E+00
        -11   -1    0    0    0    0  0.00000000000E+00  0.00000000000E+00  0.45593999997E+02  0.45594000000E+02  0.51100000000E-03 0.  1.
         11   -1    0    0    0    0 -0.00000000000E+00 -0.00000000000E+00 -0.45593999997E+02  0.45594000000E+02  0.51100000000E-03 0. -1.
    9900012    2    1    2    0    0 -0.13652538494E+02  0.28167227607E+02  0.25949677642E+02  0.50528803155E+02  0.29999827668E+02 0.  0.
         12    1    1    2    0    0  0.13652538494E+02 -0.28167227607E+02 -0.25949677642E+02  0.40659196845E+02  0.00000000000E+00 0. -1.
         11    1    3    3    0    0 -0.11267091516E+02 -0.52889393221E+00  0.11465561704E+02  0.16083724241E+02  0.51100000000E-03 0. -1.
        -11    1    3    3    0    0  0.22153298401E+01  0.23139074823E+02  0.14170885048E+02  0.27223858163E+02  0.51100000000E-03 0.  1.
        -12    1    3    3    0    0 -0.46007768181E+01  0.55570467164E+01  0.31323088962E+00  0.72212207506E+01  0.00000000000E+00 0.  1.
</event>
<event>
 7    1  0.2891523E-011  0.5052887E+02  0.7816164E-02  0.1300439E+00
        -11   -1    0    0    0    0  0.00000000000E+00  0.00000000000E+00  0.45593999997E+02  0.45594000000E+02  0.51100000000E-03 0.  1.
         11   -1    0    0    0    0 -0.00000000000E+00 -0.00000000000E+00 -0.45593999997E+02  0.45594000000E+02  0.51100000000E-03 0. -1.
    9900012    2    1    2    0    0 -0.12783907849E+02 -0.38540026416E+02  0.20983955203E+01  0.50528865727E+02  0.30000017865E+02 0.  0.
         12    1    1    2    0    0  0.12783907849E+02  0.38540026416E+02 -0.20983955203E+01  0.40659134273E+02  0.00000000000E+00 0. -1.
         11    1    3    3    0    0 -0.89491485206E+01 -0.98660605058E+01 -0.60306404165E+01  0.14621731540E+02  0.51100000000E-03 0. -1.
        -11    1    3    3    0    0 -0.36849093644E+01 -0.26010859287E+02  0.13774860891E+02  0.29662942381E+02  0.51100000000E-03 0.  1.
        -12    1    3    3    0    0 -0.14984996450E+00 -0.26631066229E+01 -0.56458249540E+01  0.62441918058E+01  0.00000000000E+00 0.  1.
</event>
<event>
 7    1  0.2891523E-011  0.5052886E+02  0.7816164E-02  0.1300439E+00
        -11   -1    0    0    0    0  0.00000000000E+00  0.00000000000E+00  0.45593999997E+02  0.45594000000E+02  0.51100000000E-03 0. -1.
         11   -1    0    0    0    0 -0.00000000000E+00 -0.00000000000E+00 -0.45593999997E+02  0.45594000000E+02  0.51100000000E-03 0.  1.
    9900012    2    1    2    0    0 -0.24661514834E+02 -0.31693056670E+02 -0.63659814949E+01  0.50528857420E+02  0.29999992612E+02 0.  0.
         12    1    1    2    0    0  0.24661514834E+02  0.31693056670E+02  0.63659814949E+01  0.40659142580E+02  0.00000000000E+00 0. -1.
         11    1    3    3    0    0  0.37670278813E+00 -0.11449714981E+02  0.46816339897E+01  0.12375604034E+02  0.51100000000E-03 0. -1.
        -11    1    3    3    0    0 -0.98311544295E+01 -0.14945771480E+02 -0.12738610379E+02  0.21961326854E+02  0.51100000000E-03 0.  1.
         12    1    3    3    0    0 -0.15207063193E+02 -0.52975702087E+01  0.16909948941E+01  0.16191926531E+02  0.00000000000E+00 0. -1.
</event>
<event>
 7    1  0.2891523E-011  0.5052888E+02  0.7816164E-02  0.1300439E+00
        -11   -1    0    0    0    0  0.00000000000E+00  0.00000000000E+00  0.45593999997E+02  0.45594000000E+02  0.51100000000E-03 0.  1.
         11   -1    0    0    0    0 -0.00000000000E+00 -0.00000000000E+00 -0.45593999997E+02  0.45594000000E+02  0.51100000000E-03 0. -1.
    9900012    2    1    2    0    0  0.23136689463E+02  0.16700848794E+02  0.28964452543E+02  0.50528877274E+02  0.30000052962E+02 0.  0.
         12    1    1    2    0    0 -0.23136689463E+02 -0.16700848794E+02 -0.28964452543E+02  0.40659122726E+02  0.00000000000E+00 0. -1.
         11    1    3    3    0    0  0.59681735512E+01 -0.17856917560E+01  0.88668501958E+00  0.62923764326E+01  0.51100000000E-03 0. -1.
        -11    1    3    3    0    0 -0.34000467139E+01  0.10070424929E+02  0.37133205730E+01  0.11258886528E+02  0.51100000000E-03 0.  1.
        -12    1    3    3    0    0  0.20568562625E+02  0.84161156209E+01  0.24364446950E+02  0.32977614313E+02  0.00000000000E+00 0.  1.
</event>
<event>
 7    1  0.2891523E-011  0.5052886E+02  0.7816164E-02  0.1300439E+00
        -11   -1    0    0    0    0  0.00000000000E+00  0.00000000000E+00  0.45593999997E+02  0.45594000000E+02  0.51100000000E-03 0. -1.
         11   -1    0    0    0    0 -0.00000000000E+00 -0.00000000000E+00 -0.45593999997E+02  0.45594000000E+02  0.51100000000E-03 0.  1.
    9900012    2    1    2    0    0 -0.59877898673E+01 -0.33678020240E+02  0.21979597782E+02  0.50528863346E+02  0.30000010628E+02 0.  0.
         12    1    1    2    0    0  0.59877898673E+01  0.33678020240E+02 -0.21979597782E+02  0.40659136654E+02  0.00000000000E+00 0. -1.
         11    1    3    3    0    0 -0.38396845835E+01 -0.17392817396E+02  0.15121085111E+02  0.23364513474E+02  0.51100000000E-03 0. -1.
        -11    1    3    3    0    0 -0.12657070420E+01 -0.13213890923E+02 -0.55227147428E+01  0.14377388707E+02  0.51100000000E-03 0.  1.
        -12    1    3    3    0    0 -0.88239824179E+00 -0.30713119204E+01  0.12381227414E+02  0.12786961165E+02  0.00000000000E+00 0.  1.
</event>
<event>
 7    1  0.2891523E-011  0.5052891E+02  0.7816164E-02  0.1300439E+00
        -11   -1    0    0    0    0  0.00000000000E+00  0.00000000000E+00  0.45593999997E+02  0.45594000000E+02  0.51100000000E-03 0. -1.
         11   -1    0    0    0    0 -0.00000000000E+00 -0.00000000000E+00 -0.45593999997E+02  0.45594000000E+02  0.51100000000E-03 0.  1.
    9900012    2    1    2    0    0  0.23006933284E+02 -0.10918229665E+02 -0.31695981834E+02  0.50528905291E+02  0.30000138122E+02 0.  0.
         12    1    1    2    0    0 -0.23006933284E+02  0.10918229665E+02  0.31695981834E+02  0.40659094709E+02  0.00000000000E+00 0. -1.
         11    1    3    3    0    0 -0.40105636601E+01  0.41238830790E+01 -0.56738214571E+01  0.80798070960E+01  0.51100000000E-03 0. -1.
        -11    1    3    3    0    0  0.19909826663E+02 -0.14667065476E+02 -0.13835768352E+02  0.28336416386E+02  0.51100000000E-03 0.  1.
        -12    1    3    3    0    0  0.71076702809E+01 -0.37504726820E+00 -0.12186392025E+02  0.14112681809E+02  0.00000000000E+00 0.  1.
</event>
<event>
 7    1  0.2891523E-011  0.5052886E+02  0.7816164E-02  0.1300439E+00
        -11   -1    0    0    0    0  0.00000000000E+00  0.00000000000E+00  0.45593999997E+02  0.45594000000E+02  0.51100000000E-03 0. -1.
         11   -1    0    0    0    0 -0.00000000000E+00 -0.00000000000E+00 -0.45593999997E+02  0.45594000000E+02  0.51100000000E-03 0.  1.
    9900012    2    1    2    0    0  0.30969193802E+02 -0.22134767576E+02 -0.14287289655E+02  0.50528861469E+02  0.30000004921E+02 0.  0.
         12    1    1    2    0    0 -0.30969193802E+02  0.22134767576E+02  0.14287289655E+02  0.40659138531E+02  0.00000000000E+00 0. -1.
         11    1    3    3    0    0  0.20988479806E+02 -0.15909453104E+02 -0.56752237432E+00  0.26342912985E+02  0.51100000000E-03 0. -1.
        -11    1    3    3    0    0 -0.43651655890E+01 -0.24516148932E+00 -0.32032637370E+01  0.54199329890E+01  0.51100000000E-03 0.  1.
        -12    1    3    3    0    0  0.14345879585E+02 -0.59801529823E+01 -0.10516503543E+02  0.18766015495E+02  0.00000000000E+00 0.  1.
</event>
<event>
 7    1  0.3183211E-011  0.5052885E+02  0.7816164E-02  0.1300439E+00
        -11   -1    0    0    0    0  0.00000000000E+00  0.00000000000E+00  0.45593999997E+02  0.45594000000E+02  0.51100000000E-03 0. -1.
         11   -1    0    0    0    0 -0.00000000000E+00 -0.00000000000E+00 -0.45593999997E+02  0.45594000000E+02  0.51100000000E-03 0.  1.
    9900012    2    1    2    0    0 -0.95306175146E+01  0.38295617478E+02 -0.97867071105E+01  0.50528848210E+02  0.29999964620E+02 0.  0.
         12    1    1    2    0    0  0.95306175146E+01 -0.38295617478E+02  0.97867071105E+01  0.40659151790E+02  0.00000000000E+00 0. -1.
         11    1    3    3    0    0  0.23657730332E+01 -0.21884103591E+01  0.10893547909E+01  0.34018694957E+01  0.51100000000E-03 0. -1.
        -11    1    3    3    0    0 -0.44403212314E+01  0.29176667311E+02 -0.14813766196E+02  0.33021841819E+02  0.51100000000E-03 0.  1.
        -12    1    3    3    0    0 -0.74560693165E+01  0.11307360526E+02  0.39377042944E+01  0.14105136895E+02  0.00000000000E+00 0.  1.
</event>
<event>
 7    1  0.2891523E-011  0.5052886E+02  0.7816164E-02  0.1300439E+00
        -11   -1    0    0    0    0  0.00000000000E+00  0.00000000000E+00  0.45593999997E+02  0.45594000000E+02  0.51100000000E-03 0.  1.
         11   -1    0    0    0    0 -0.00000000000E+00 -0.00000000000E+00 -0.45593999997E+02  0.45594000000E+02  0.51100000000E-03 0. -1.
    9900012    2    1    2    0    0 -0.19805313213E+02 -0.34933703712E+02 -0.63680012918E+01  0.50528861704E+02  0.30000005636E+02 0.  0.
         12    1    1    2    0    0  0.19805313213E+02  0.34933703712E+02  0.63680012918E+01  0.40659138296E+02  0.00000000000E+00 0. -1.
         11    1    3    3    0    0 -0.16748479976E+01  0.25953920488E+01 -0.17506149686E+01  0.35504688045E+01  0.51100000000E-03 0. -1.
        -11    1    3    3    0    0 -0.21880208158E+02 -0.32816340917E+02 -0.77406409029E+01  0.40194194382E+02  0.51100000000E-03 0.  1.
        -12    1    3    3    0    0  0.37497429424E+01 -0.47127548443E+01  0.31232545798E+01  0.67841985177E+01  0.00000000000E+00 0.  1.
</event>
<event>
 7    1  0.2891523E-011  0.5052886E+02  0.7816164E-02  0.1300439E+00
        -11   -1    0    0    0    0  0.00000000000E+00  0.00000000000E+00  0.45593999997E+02  0.45594000000E+02  0.51100000000E-03 0.  1.
         11   -1    0    0    0    0 -0.00000000000E+00 -0.00000000000E+00 -0.45593999997E+02  0.45594000000E+02  0.51100000000E-03 0. -1.
    9900012    2    1    2    0    0 -0.19096594722E+02 -0.96794815518E+00  0.35882431555E+02  0.50528858987E+02  0.29999997377E+02 0.  0.
         12    1    1    2    0    0  0.19096594722E+02  0.96794815518E+00 -0.35882431555E+02  0.40659141013E+02  0.00000000000E+00 0. -1.
         11    1    3    3    0    0 -0.89932438741E+00 -0.76888372885E+01 -0.17306671531E+01  0.79323522526E+01  0.51100000000E-03 0. -1.
        -11    1    3    3    0    0 -0.89770979475E+01  0.31827227821E+01  0.13339812732E+02  0.16391113930E+02  0.51100000000E-03 0.  1.
         12    1    3    3    0    0 -0.92201723866E+01  0.35381663512E+01  0.24273285976E+02  0.26205392805E+02  0.00000000000E+00 0. -1.
</event>
<event>
 7    1  0.2891523E-011  0.5052887E+02  0.7816164E-02  0.1300439E+00
        -11   -1    0    0    0    0  0.00000000000E+00  0.00000000000E+00  0.45593999997E+02  0.45594000000E+02  0.51100000000E-03 0.  1.
         11   -1    0    0    0    0 -0.00000000000E+00 -0.00000000000E+00 -0.45593999997E+02  0.45594000000E+02  0.51100000000E-03 0. -1.
    9900012    2    1    2    0    0 -0.25203157337E+01  0.26394774276E+02  0.30824160510E+02  0.50528868533E+02  0.30000026394E+02 0.  0.
         12    1    1    2    0    0  0.25203157337E+01 -0.26394774276E+02 -0.30824160510E+02  0.40659131467E+02  0.00000000000E+00 0. -1.
         11    1    3    3    0    0  0.49039367893E+01  0.22571406584E+02  0.17534997677E+02  0.28999881638E+02  0.51100000000E-03 0.  1.
        -11    1    3    3    0    0 -0.11813533442E+02  0.28340214546E+01  0.78247254354E+01  0.14450521734E+02  0.51100000000E-03 0. -1.
        -12    1    3    3    0    0  0.43892809190E+01  0.98934623724E+00  0.54644373979E+01  0.70784651613E+01  0.00000000000E+00 0.  1.
</event>
<event>
 7    1  0.2891523E-011  0.5052886E+02  0.7816164E-02  0.1300439E+00
        -11   -1    0    0    0    0  0.00000000000E+00  0.00000000000E+00  0.45593999997E+02  0.45594000000E+02  0.51100000000E-03 0.  1.
         11   -1    0    0    0    0 -0.00000000000E+00 -0.00000000000E+00 -0.45593999997E+02  0.45594000000E+02  0.51100000000E-03 0. -1.
    9900012    2    1    2    0    0 -0.74976017005E+01  0.39958355517E+02  0.53080286094E+00  0.50528856396E+02  0.29999989503E+02 0.  0.
         12    1    1    2    0    0  0.74976017005E+01 -0.39958355517E+02 -0.53080286094E+00  0.40659143604E+02  0.00000000000E+00 0. -1.
         11    1    3    3    0    0 -0.92496629538E+01  0.15451925642E+02  0.65567032044E+01  0.19165297492E+02  0.51100000000E-03 0. -1.
        -11    1    3    3    0    0 -0.90752827406E+00  0.21598386546E+02 -0.11603077422E+02  0.24534573868E+02  0.51100000000E-03 0.  1.
        -12    1    3    3    0    0  0.26595895273E+01  0.29080433297E+01  0.55771770786E+01  0.68289850364E+01  0.00000000000E+00 0.  1.
</event>
<event>
 7    1  0.2891523E-011  0.5052886E+02  0.7816164E-02  0.1300439E+00
        -11   -1    0    0    0    0  0.00000000000E+00  0.00000000000E+00  0.45593999997E+02  0.45594000000E+02  0.51100000000E-03 0. -1.
         11   -1    0    0    0    0 -0.00000000000E+00 -0.00000000000E+00 -0.45593999997E+02  0.45594000000E+02  0.51100000000E-03 0.  1.
    9900012    2    1    2    0    0  0.46834363181E+01  0.20909981120E+02 -0.34554354762E+02  0.50528864259E+02  0.30000013401E+02 0.  0.
         12    1    1    2    0    0 -0.46834363181E+01 -0.20909981120E+02  0.34554354762E+02  0.40659135741E+02  0.00000000000E+00 0. -1.
         11    1    3    3    0    0 -0.71319129848E+01  0.16408236399E+02 -0.14749312138E+02  0.23186992331E+02  0.51100000000E-03 0. -1.
        -11    1    3    3    0    0  0.12643872403E+02  0.19718965396E+01 -0.76721700664E+01  0.14920391386E+02  0.51100000000E-03 0.  1.
        -12    1    3    3    0    0 -0.82852310022E+00  0.25298481814E+01 -0.12132872558E+02  0.12421480542E+02  0.00000000000E+00 0.  1.
</event>
<event>
 7    1  0.2891523E-011  0.5052877E+02  0.7816164E-02  0.1300439E+00
        -11   -1    0    0    0    0  0.00000000000E+00  0.00000000000E+00  0.45593999997E+02  0.45594000000E+02  0.51100000000E-03 0.  1.
         11   -1    0    0    0    0 -0.00000000000E+00 -0.00000000000E+00 -0.45593999997E+02  0.45594000000E+02  0.51100000000E-03 0. -1.
    9900012    2    1    2    0    0  0.12616932422E+02 -0.23922166066E+02  0.30359769717E+02  0.50528774352E+02  0.29999740120E+02 0.  0.
         12    1    1    2    0    0 -0.12616932422E+02  0.23922166066E+02 -0.30359769717E+02  0.40659225648E+02  0.00000000000E+00 0. -1.
         11    1    3    3    0    0  0.13998994168E+02 -0.22979804098E+02  0.13791567220E+02  0.30236576538E+02  0.51100000000E-03 0. -1.
        -11    1    3    3    0    0 -0.79102373112E+00 -0.47451372023E+01  0.19752991320E+01  0.52003704228E+01  0.51100000000E-03 0.  1.
         12    1    3    3    0    0 -0.59103801515E+00  0.38027752342E+01  0.14592903364E+02  0.15091827392E+02  0.00000000000E+00 0. -1.
</event>
<event>
 7    1  0.2891523E-011  0.5052885E+02  0.7816164E-02  0.1300439E+00
        -11   -1    0    0    0    0  0.00000000000E+00  0.00000000000E+00  0.45593999997E+02  0.45594000000E+02  0.51100000000E-03 0.  1.
         11   -1    0    0    0    0 -0.00000000000E+00 -0.00000000000E+00 -0.45593999997E+02  0.45594000000E+02  0.51100000000E-03 0. -1.
    9900012    2    1    2    0    0  0.20546107664E+02 -0.43137883509E+01  0.34819749614E+02  0.50528852527E+02  0.29999977741E+02 0.  0.
         12    1    1    2    0    0 -0.20546107664E+02  0.43137883509E+01 -0.34819749614E+02  0.40659147473E+02  0.00000000000E+00 0. -1.
         11    1    3    3    0    0 -0.65909604117E+01  0.60128632405E+00  0.18850439867E+01  0.68815474630E+01  0.51100000000E-03 0. -1.
        -11    1    3    3    0    0  0.56091705496E+01 -0.39482748667E+01  0.10477625971E+02  0.12523270936E+02  0.51100000000E-03 0.  1.
         12    1    3    3    0    0  0.21527897526E+02 -0.96679980822E+00  0.22457079656E+02  0.31124034129E+02  0.00000000000E+00 0. -1.
</event>
<event>
 7    1  0.2891523E-011  0.5052886E+02  0.7816164E-02  0.1300439E+00
        -11   -1    0    0    0    0  0.00000000000E+00  0.00000000000E+00  0.45593999997E+02  0.45594000000E+02  0.51100000000E-03 0.  1.
         11   -1    0    0    0    0 -0.00000000000E+00 -0.00000000000E+00 -0.45593999997E+02  0.45594000000E+02  0.51100000000E-03 0. -1.
    9900012    2    1    2    0    0  0.39251089646E+01 -0.40360594088E+02  0.29633974582E+01  0.50528858838E+02  0.29999996925E+02 0.  0.
         12    1    1    2    0    0 -0.39251089646E+01  0.40360594088E+02 -0.29633974582E+01  0.40659141162E+02  0.00000000000E+00 0. -1.
         11    1    3    3    0    0  0.65184431389E+01 -0.25285409942E+02 -0.63550466758E+01  0.26874312557E+02  0.51100000000E-03 0. -1.
        -11    1    3    3    0    0  0.17326307268E+01 -0.15516789452E+02  0.10884452004E+02  0.19032710259E+02  0.51100000000E-03 0.  1.
         12    1    3    3    0    0 -0.43259649011E+01  0.44160530575E+00 -0.15660078697E+01  0.46218360226E+01  0.00000000000E+00 0. -1.
</event>
<event>
 7    1  0.2891523E-011  0.5052886E+02  0.7816164E-02  0.1300439E+00
        -11   -1    0    0    0    0  0.00000000000E+00  0.00000000000E+00  0.45593999997E+02  0.45594000000E+02  0.51100000000E-03 0. -1.
         11   -1    0    0    0    0 -0.00000000000E+00 -0.00000000000E+00 -0.45593999997E+02  0.45594000000E+02  0.51100000000E-03 0.  1.
    9900012    2    1    2    0    0 -0.39268486801E+02 -0.75656952711E+01 -0.73424800057E+01  0.50528858184E+02  0.29999994937E+02 0.  0.
         12    1    1    2    0    0  0.39268486801E+02  0.75656952711E+01  0.73424800057E+01  0.40659141816E+02  0.00000000000E+00 0. -1.
         11    1    3    3    0    0 -0.58848458509E+01  0.44928945681E+00  0.54827364374E+01  0.80556607928E+01  0.51100000000E-03 0. -1.
        -11    1    3    3    0    0 -0.29818009729E+02  0.19029459110E+01 -0.83539585095E+01  0.31024563339E+02  0.51100000000E-03 0.  1.
        -12    1    3    3    0    0 -0.35656312208E+01 -0.99179306388E+01 -0.44712579336E+01  0.11448634053E+02  0.00000000000E+00 0.  1.
</event>
<event>
 7    1  0.2891523E-011  0.5052886E+02  0.7816164E-02  0.1300439E+00
        -11   -1    0    0    0    0  0.00000000000E+00  0.00000000000E+00  0.45593999997E+02  0.45594000000E+02  0.51100000000E-03 0.  1.
         11   -1    0    0    0    0 -0.00000000000E+00 -0.00000000000E+00 -0.45593999997E+02  0.45594000000E+02  0.51100000000E-03 0. -1.
    9900012    2    1    2    0    0  0.15308082541E+02  0.36220062067E+02  0.10340970332E+02  0.50528856445E+02  0.29999989651E+02 0.  0.
         12    1    1    2    0    0 -0.15308082541E+02 -0.36220062067E+02 -0.10340970332E+02  0.40659143555E+02  0.00000000000E+00 0. -1.
         11    1    3    3    0    0  0.65837714463E+01  0.30335177858E+02 -0.29460611993E+01  0.31180897020E+02  0.51100000000E-03 0.  1.
        -11    1    3    3    0    0  0.68897686950E+01  0.78898153200E+01  0.12877569548E+02  0.16599695665E+02  0.51100000000E-03 0. -1.
        -12    1    3    3    0    0  0.18345423993E+01 -0.20049311113E+01  0.40946198307E+00  0.27482637595E+01  0.00000000000E+00 0.  1.
</event>
<event>
 7    1  0.2891523E-011  0.5052894E+02  0.7816164E-02  0.1300439E+00
        -11   -1    0    0    0    0  0.00000000000E+00  0.00000000000E+00  0.45593999997E+02  0.45594000000E+02  0.51100000000E-03 0. -1.
         11   -1    0    0    0    0 -0.00000000000E+00 -0.00000000000E+00 -0.45593999997E+02  0.45594000000E+02  0.51100000000E-03 0.  1.
    9900012    2    1    2    0    0  0.16902160824E+02 -0.22879851442E+02 -0.29051478607E+02  0.50528941332E+02  0.30000247670E+02 0.  0.
         12    1    1    2    0    0 -0.16902160824E+02  0.22879851442E+02  0.29051478607E+02  0.40659058668E+02  0.00000000000E+00 0. -1.
         11    1    3    3    0    0 -0.45536739477E+01 -0.67800080650E+01 -0.90936819098E+01  0.12222909094E+02  0.51100000000E-03 0. -1.
        -11    1    3    3    0    0  0.24524291508E+02 -0.11438335372E+02 -0.17359037989E+02  0.32149845882E+02  0.51100000000E-03 0.  1.
        -12    1    3    3    0    0 -0.30684567361E+01 -0.46615080050E+01 -0.25987587078E+01  0.61561863554E+01  0.00000000000E+00 0.  1.
</event>
<event>
 7    1  0.2891523E-011  0.5052885E+02  0.7816164E-02  0.1300439E+00
        -11   -1    0    0    0    0  0.00000000000E+00  0.00000000000E+00  0.45593999997E+02  0.45594000000E+02  0.51100000000E-03 0.  1.
         11   -1    0    0    0    0 -0.00000000000E+00 -0.00000000000E+00 -0.45593999997E+02  0.45594000000E+02  0.51100000000E-03 0. -1.
    9900012    2    1    2    0    0 -0.11410623342E+01  0.32005770858E+02  0.25049855668E+02  0.50528847765E+02  0.29999963267E+02 0.  0.
         12    1    1    2    0    0  0.11410623342E+01 -0.32005770858E+02 -0.25049855668E+02  0.40659152235E+02  0.00000000000E+00 0. -1.
         11    1    3    3    0    0 -0.93202747305E+01  0.52691654461E+01 -0.47508739897E+00  0.10717151387E+02  0.51100000000E-03 0. -1.
        -11    1    3    3    0    0  0.64989754311E+01  0.24111614367E+02  0.15683718593E+02  0.29488737820E+02  0.51100000000E-03 0.  1.
         12    1    3    3    0    0  0.16802369652E+01  0.26249910448E+01  0.98412244741E+01  0.10322958558E+02  0.00000000000E+00 0. -1.
</event>
<event>
 7    1  0.2891523E-011  0.5052886E+02  0.7816164E-02  0.1300439E+00
        -11   -1    0    0    0    0  0.00000000000E+00  0.00000000000E+00  0.45593999997E+02  0.45594000000E+02  0.51100000000E-03 0. -1.
         11   -1    0    0    0    0 -0.00000000000E+00 -0.00000000000E+00 -0.45593999997E+02  0.45594000000E+02  0.51100000000E-03 0.  1.
    9900012    2    1    2    0    0  0.34841690876E+02  0.13975150994E+02 -0.15617866040E+02  0.50528855788E+02  0.29999987654E+02 0.  0.
         12    1    1    2    0    0 -0.34841690876E+02 -0.13975150994E+02  0.15617866040E+02  0.40659144212E+02  0.00000000000E+00 0. -1.
         11    1    3    3    0    0  0.60469713857E+01  0.42197400521E+01  0.55624045736E+01  0.92364719427E+01  0.51100000000E-03 0. -1.
        -11    1    3    3    0    0  0.25696929152E+02  0.14626410176E+02 -0.18860509280E+02  0.35071111374E+02  0.51100000000E-03 0.  1.
        -12    1    3    3    0    0  0.30977903381E+01 -0.48709992342E+01 -0.23197613337E+01  0.62212724714E+01  0.00000000000E+00 0.  1.
</event>
<event>
 7    1  0.2891523E-011  0.5052886E+02  0.7816164E-02  0.1300439E+00
        -11   -1    0    0    0    0  0.00000000000E+00  0.00000000000E+00  0.45593999997E+02  0.45594000000E+02  0.51100000000E-03 0. -1.
         11   -1    0    0    0    0 -0.00000000000E+00 -0.00000000000E+00 -0.45593999997E+02  0.45594000000E+02  0.51100000000E-03 0.  1.
    9900012    2    1    2    0    0  0.14395379965E+02  0.24307055460E+02 -0.29242195683E+02  0.50528856897E+02  0.29999991024E+02 0.  0.
         12    1    1    2    0    0 -0.14395379965E+02 -0.24307055460E+02  0.29242195683E+02  0.40659143103E+02  0.00000000000E+00 0. -1.
         11    1    3    3    0    0 -0.65604715376E+00  0.86619965881E+01  0.13659299352E+01  0.87935401067E+01  0.51100000000E-03 0. -1.
        -11    1    3    3    0    0  0.12671538526E+02  0.19815752788E+02 -0.26308011896E+02  0.35289423874E+02  0.51100000000E-03 0.  1.
        -12    1    3    3    0    0  0.23798885931E+01 -0.41706939164E+01 -0.43001137231E+01  0.64458929166E+01  0.00000000000E+00 0.  1.
</event>
<event>
 7    1  0.2891523E-011  0.5052887E+02  0.7816164E-02  0.1300439E+00
        -11   -1    0    0    0    0  0.00000000000E+00  0.00000000000E+00  0.45593999997E+02  0.45594000000E+02  0.51100000000E-03 0.  1.
         11   -1    0    0    0    0 -0.00000000000E+00 -0.00000000000E+00 -0.45593999997E+02  0.45594000000E+02  0.51100000000E-03 0. -1.
    9900012    2    1    2    0    0 -0.24905278368E+02 -0.31760481468E+02 -0.49156918177E+01  0.50528866958E+02  0.30000021607E+02 0.  0.
         12    1    1    2    0    0  0.24905278368E+02  0.31760481468E+02  0.49156918177E+01  0.40659133042E+02  0.00000000000E+00 0. -1.
         11    1    3    3    0    0 -0.37514243862E+00 -0.75153350853E+01  0.66964880896E+01  0.10072931365E+02  0.51100000000E-03 0. -1.
        -11    1    3    3    0    0 -0.26111740120E+02 -0.22329909418E+02 -0.13915281268E+02  0.37068623926E+02  0.51100000000E-03 0.  1.
        -12    1    3    3    0    0  0.15816041915E+01 -0.19152369643E+01  0.23031013611E+01  0.33873116667E+01  0.00000000000E+00 0.  1.
</event>
<event>
 7    1  0.2891523E-011  0.5052889E+02  0.7816164E-02  0.1300439E+00
        -11   -1    0    0    0    0  0.00000000000E+00  0.00000000000E+00  0.45593999997E+02  0.45594000000E+02  0.51100000000E-03 0. -1.
         11   -1    0    0    0    0 -0.00000000000E+00 -0.00000000000E+00 -0.45593999997E+02  0.45594000000E+02  0.51100000000E-03 0.  1.
    9900012    2    1    2    0    0  0.66329763597E+01  0.22804026197E+02 -0.33002170195E+02  0.50528890028E+02  0.30000091728E+02 0.  0.
         12    1    1    2    0    0 -0.66329763597E+01 -0.22804026197E+02  0.33002170195E+02  0.40659109972E+02  0.00000000000E+00 0. -1.
         11    1    3    3    0    0 -0.59731943531E+01  0.16209035702E+02 -0.59316034717E+01  0.18264605366E+02  0.51100000000E-03 0. -1.
        -11    1    3    3    0    0  0.16693832539E+01  0.47595855255E+01 -0.15220624514E+02  0.16034584674E+02  0.51100000000E-03 0.  1.
         12    1    3    3    0    0  0.10936787459E+02  0.18354049699E+01 -0.11849942209E+02  0.16229699988E+02  0.00000000000E+00 0. -1.
</event>
<event>
 7    1  0.2891523E-011  0.5052885E+02  0.7816164E-02  0.1300439E+00
        -11   -1    0    0    0    0  0.00000000000E+00  0.00000000000E+00  0.45593999997E+02  0.45594000000E+02  0.51100000000E-03 0. -1.
         11   -1    0    0    0    0 -0.00000000000E+00 -0.00000000000E+00 -0.45593999997E+02  0.45594000000E+02  0.51100000000E-03 0.  1.
    9900012    2    1    2    0    0 -0.20581182348E+02 -0.72057190044E+01 -0.34317038865E+02  0.50528848389E+02  0.29999965164E+02 0.  0.
         12    1    1    2    0    0  0.20581182348E+02  0.72057190044E+01  0.34317038865E+02  0.40659151611E+02  0.00000000000E+00 0. -1.
         11    1    3    3    0    0 -0.90134957066E+01  0.84334447475E+01 -0.23751824327E+02  0.26767802568E+02  0.51100000000E-03 0. -1.
        -11    1    3    3    0    0 -0.28406519926E+01 -0.72120201711E+01 -0.84138476732E+01  0.11440077431E+02  0.51100000000E-03 0.  1.
         12    1    3    3    0    0 -0.87270346493E+01 -0.84271435809E+01 -0.21513668645E+01  0.12320968391E+02  0.00000000000E+00 0. -1.
</event>
<event>
 7    1  0.2891523E-011  0.5052885E+02  0.7816164E-02  0.1300439E+00
        -11   -1    0    0    0    0  0.00000000000E+00  0.00000000000E+00  0.45593999997E+02  0.45594000000E+02  0.51100000000E-03 0. -1.
         11   -1    0    0    0    0 -0.00000000000E+00 -0.00000000000E+00 -0.45593999997E+02  0.45594000000E+02  0.51100000000E-03 0.  1.
    9900012    2    1    2    0    0 -0.26666902088E+02 -0.17103441261E+02 -0.25485579605E+02  0.50528854193E+02  0.29999982805E+02 0.  0.
         12    1    1    2    0    0  0.26666902088E+02  0.17103441261E+02  0.25485579605E+02  0.40659145807E+02  0.00000000000E+00 0. -1.
         11    1    3    3    0    0  0.45774770895E+01 -0.57425244828E+01  0.14527634590E+01  0.74860140175E+01  0.51100000000E-03 0. -1.
        -11    1    3    3    0    0 -0.13148879415E+02 -0.33915446493E+01 -0.13413175413E+02  0.19086877165E+02  0.51100000000E-03 0.  1.
         12    1    3    3    0    0 -0.18095499762E+02 -0.79693721293E+01 -0.13525167651E+02  0.23955963010E+02  0.00000000000E+00 0. -1.
</event>
<event>
 7    1  0.2891523E-011  0.5052888E+02  0.7816164E-02  0.1300439E+00
        -11   -1    0    0    0    0  0.00000000000E+00  0.00000000000E+00  0.45593999997E+02  0.45594000000E+02  0.51100000000E-03 0.  1.
         11   -1    0    0    0    0 -0.00000000000E+00 -0.00000000000E+00 -0.45593999997E+02  0.45594000000E+02  0.51100000000E-03 0. -1.
    9900012    2    1    2    0    0 -0.17836082239E+01  0.15847975288E+02  0.37400866544E+02  0.50528875596E+02  0.30000047861E+02 0.  0.
         12    1    1    2    0    0  0.17836082239E+01 -0.15847975288E+02 -0.37400866544E+02  0.40659124404E+02  0.00000000000E+00 0. -1.
         11    1    3    3    0    0  0.11716642224E+02 -0.27562733504E+00  0.12937543715E+02  0.17456681044E+02  0.51100000000E-03 0. -1.
        -11    1    3    3    0    0 -0.85132209928E+01  0.13262258187E+02  0.21341833060E+02  0.26529912599E+02  0.51100000000E-03 0.  1.
         12    1    3    3    0    0 -0.49870294551E+01  0.28613444364E+01  0.31214897692E+01  0.65422819527E+01  0.00000000000E+00 0. -1.
</event>
<event>
 7    1  0.2891523E-011  0.5052885E+02  0.7816164E-02  0.1300439E+00
        -11   -1    0    0    0    0  0.00000000000E+00  0.00000000000E+00  0.45593999997E+02  0.45594000000E+02  0.51100000000E-03 0.  1.
         11   -1    0    0    0    0 -0.00000000000E+00 -0.00000000000E+00 -0.45593999997E+02  0.45594000000E+02  0.51100000000E-03 0. -1.
    9900012    2    1    2    0    0 -0.90585166871E+01  0.39567379449E+02  0.23520832947E+01  0.50528849285E+02  0.29999967887E+02 0.  0.
         12    1    1    2    0    0  0.90585166871E+01 -0.39567379449E+02 -0.23520832947E+01  0.40659150715E+02  0.00000000000E+00 0. -1.
         11    1    3    3    0    0 -0.56695091538E+01 -0.17682960018E+01 -0.52153004727E+01  0.79037689792E+01  0.51100000000E-03 0. -1.
        -11    1    3    3    0    0 -0.52250102284E+01  0.33046120052E+02  0.61468865479E+01  0.34016628241E+02  0.51100000000E-03 0.  1.
         12    1    3    3    0    0  0.18360026951E+01  0.82895553987E+01  0.14204972195E+01  0.86084520650E+01  0.00000000000E+00 0. -1.
</event>
<event>
 7    1  0.2891523E-011  0.5052886E+02  0.7816164E-02  0.1300439E+00
        -11   -1    0    0    0    0  0.00000000000E+00  0.00000000000E+00  0.45593999997E+02  0.45594000000E+02  0.51100000000E-03 0.  1.
         11   -1    0    0    0    0 -0.00000000000E+00 -0.00000000000E+00 -0.45593999997E+02  0.45594000000E+02  0.51100000000E-03 0. -1.
    9900012    2    1    2    0    0 -0.39207848084E+02  0.66661476836E+01  0.84541541552E+01  0.50528860821E+02  0.30000002951E+02 0.  0.
         12    1    1    2    0    0  0.39207848084E+02 -0.66661476836E+01 -0.84541541552E+01  0.40659139179E+02  0.00000000000E+00 0. -1.
         11    1    3    3    0    0 -0.26446842349E+02  0.66306417250E+01  0.17630206583E+02  0.32468832199E+02  0.51100000000E-03 0. -1.
        -11    1    3    3    0    0 -0.99545554685E+01 -0.38261820729E+01 -0.73351166476E+01  0.12943599975E+02  0.51100000000E-03 0.  1.
         12    1    3    3    0    0 -0.28064502663E+01  0.38616880314E+01 -0.18409357802E+01  0.51164286466E+01  0.00000000000E+00 0. -1.
</event>
<event>
 7    1  0.2891523E-011  0.5052883E+02  0.7816164E-02  0.1300439E+00
        -11   -1    0    0    0    0  0.00000000000E+00  0.00000000000E+00  0.45593999997E+02  0.45594000000E+02  0.51100000000E-03 0. -1.
         11   -1    0    0    0    0 -0.00000000000E+00 -0.00000000000E+00 -0.45593999997E+02  0.45594000000E+02  0.51100000000E-03 0.  1.
    9900012    2    1    2    0    0 -0.40614777486E+02  0.18993841517E+01  0.45366952397E-02  0.50528833371E+02  0.29999919513E+02 0.  0.
         12    1    1    2    0    0  0.40614777486E+02 -0.18993841517E+01 -0.45366952397E-02  0.40659166629E+02  0.00000000000E+00 0. -1.
         11    1    3    3    0    0 -0.57640224479E+01 -0.99476020414E+01  0.42690849118E+01  0.12263923817E+02  0.51100000000E-03 0. -1.
        -11    1    3    3    0    0 -0.23346911683E+02  0.12330895743E+02 -0.16308827124E+01  0.26453526299E+02  0.51100000000E-03 0.  1.
         12    1    3    3    0    0 -0.11503843356E+02 -0.48390954991E+00 -0.26336655041E+01  0.11811383255E+02  0.00000000000E+00 0. -1.
</event>
<event>
 7    1  0.2891523E-011  0.5052885E+02  0.7816164E-02  0.1300439E+00
        -11   -1    0    0    0    0  0.00000000000E+00  0.00000000000E+00  0.45593999997E+02  0.45594000000E+02  0.51100000000E-03 0.  1.
         11   -1    0    0    0    0 -0.00000000000E+00 -0.00000000000E+00 -0.45593999997E+02  0.45594000000E+02  0.51100000000E-03 0. -1.
    9900012    2    1    2    0    0 -0.12995877650E+02 -0.28779993151E+02  0.25612210682E+02  0.50528853702E+02  0.29999981314E+02 0.  0.
         12    1    1    2    0    0  0.12995877650E+02  0.28779993151E+02 -0.25612210682E+02  0.40659146298E+02  0.00000000000E+00 0. -1.
         11    1    3    3    0    0 -0.13862092126E+02 -0.15008419958E+02  0.75356458418E+01  0.21776047076E+02  0.51100000000E-03 0. -1.
        -11    1    3    3    0    0 -0.73322144342E+00 -0.43181113140E+01  0.18640758388E+02  0.19148409138E+02  0.51100000000E-03 0.  1.
         12    1    3    3    0    0  0.15994359194E+01 -0.94534618787E+01 -0.56419354726E+00  0.96043974882E+01  0.00000000000E+00 0. -1.
</event>
<event>
 7    1  0.2891523E-011  0.5052885E+02  0.7816164E-02  0.1300439E+00
        -11   -1    0    0    0    0  0.00000000000E+00  0.00000000000E+00  0.45593999997E+02  0.45594000000E+02  0.51100000000E-03 0. -1.
         11   -1    0    0    0    0 -0.00000000000E+00 -0.00000000000E+00 -0.45593999997E+02  0.45594000000E+02  0.51100000000E-03 0.  1.
    9900012    2    1    2    0    0 -0.20437519440E+02  0.33730147408E+02 -0.98869228304E+01  0.50528852344E+02  0.29999977186E+02 0.  0.
         12    1    1    2    0    0  0.20437519440E+02 -0.33730147408E+02  0.98869228304E+01  0.40659147656E+02  0.00000000000E+00 0. -1.
         11    1    3    3    0    0 -0.17666129861E+01  0.14971803991E+02 -0.10570365676E+02  0.18412182569E+02  0.51100000000E-03 0. -1.
        -11    1    3    3    0    0 -0.19669368515E+02  0.16128513026E+02  0.59705847720E+01  0.26127779718E+02  0.51100000000E-03 0.  1.
        -12    1    3    3    0    0  0.99846206039E+00  0.26298303911E+01 -0.52871419266E+01  0.59888900578E+01  0.00000000000E+00 0.  1.
</event>
<event>
 7    1  0.2891523E-011  0.5052887E+02  0.7816164E-02  0.1300439E+00
        -11   -1    0    0    0    0  0.00000000000E+00  0.00000000000E+00  0.45593999997E+02  0.45594000000E+02  0.51100000000E-03 0. -1.
         11   -1    0    0    0    0 -0.00000000000E+00 -0.00000000000E+00 -0.45593999997E+02  0.45594000000E+02  0.51100000000E-03 0.  1.
    9900012    2    1    2    0    0  0.23414170516E+02 -0.13963769925E+02 -0.30165457400E+02  0.50528867303E+02  0.30000022656E+02 0.  0.
         12    1    1    2    0    0 -0.23414170516E+02  0.13963769925E+02  0.30165457400E+02  0.40659132697E+02  0.00000000000E+00 0. -1.
         11    1    3    3    0    0 -0.11572682501E+01 -0.52924453816E+01  0.35446826373E+01  0.64741040446E+01  0.51100000000E-03 0. -1.
        -11    1    3    3    0    0  0.10868096167E+02 -0.18404288525E+01 -0.22575132237E+02  0.25122485714E+02  0.51100000000E-03 0.  1.
         12    1    3    3    0    0  0.13703342599E+02 -0.68308956907E+01 -0.11135007801E+02  0.18932277545E+02  0.00000000000E+00 0. -1.
</event>
<event>
 7    1  0.2891523E-011  0.5052886E+02  0.7816164E-02  0.1300439E+00
        -11   -1    0    0    0    0  0.00000000000E+00  0.00000000000E+00  0.45593999997E+02  0.45594000000E+02  0.51100000000E-03 0. -1.
         11   -1    0    0    0    0 -0.00000000000E+00 -0.00000000000E+00 -0.45593999997E+02  0.45594000000E+02  0.51100000000E-03 0.  1.
    9900012    2    1    2    0    0 -0.17227325371E+02  0.10704745175E+02 -0.35239087306E+02  0.50528861017E+02  0.30000003547E+02 0.  0.
         12    1    1    2    0    0  0.17227325371E+02 -0.10704745175E+02  0.35239087306E+02  0.40659138983E+02  0.00000000000E+00 0. -1.
         11    1    3    3    0    0 -0.24353868824E+02  0.69467753641E+01 -0.17035003181E+02  0.30521467008E+02  0.51100000000E-03 0. -1.
        -11    1    3    3    0    0  0.20192530594E+01  0.21391601704E+01 -0.66451871681E+01  0.72671797771E+01  0.51100000000E-03 0.  1.
         12    1    3    3    0    0  0.51072903938E+01  0.16188096406E+01 -0.11558896956E+02  0.12740214232E+02  0.00000000000E+00 0. -1.
</event>
<event>
 7    1  0.2891523E-011  0.5052886E+02  0.7816164E-02  0.1300439E+00
        -11   -1    0    0    0    0  0.00000000000E+00  0.00000000000E+00  0.45593999997E+02  0.45594000000E+02  0.51100000000E-03 0. -1.
         11   -1    0    0    0    0 -0.00000000000E+00 -0.00000000000E+00 -0.45593999997E+02  0.45594000000E+02  0.51100000000E-03 0.  1.
    9900012    2    1    2    0    0  0.34580421598E+02  0.12646815077E+02 -0.17245810704E+02  0.50528862327E+02  0.30000007529E+02 0.  0.
         12    1    1    2    0    0 -0.34580421598E+02 -0.12646815077E+02  0.17245810704E+02  0.40659137673E+02  0.00000000000E+00 0. -1.
         11    1    3    3    0    0  0.21291351228E+02  0.82847646162E+01  0.30219271937E+01  0.23045411823E+02  0.51100000000E-03 0. -1.
        -11    1    3    3    0    0  0.12565567867E+02 -0.92771610559E+00 -0.10714322494E+02  0.16539373016E+02  0.51100000000E-03 0.  1.
         12    1    3    3    0    0  0.72350250360E+00  0.52897665663E+01 -0.95534154036E+01  0.10944077488E+02  0.00000000000E+00 0. -1.
</event>
<event>
 7    1  0.2891523E-011  0.5052886E+02  0.7816164E-02  0.1300439E+00
        -11   -1    0    0    0    0  0.00000000000E+00  0.00000000000E+00  0.45593999997E+02  0.45594000000E+02  0.51100000000E-03 0.  1.
         11   -1    0    0    0    0 -0.00000000000E+00 -0.00000000000E+00 -0.45593999997E+02  0.45594000000E+02  0.51100000000E-03 0. -1.
    9900012    2    1    2    0    0  0.22119145832E+01  0.94067328976E+01  0.39494135772E+02  0.50528856498E+02  0.29999989811E+02 0.  0.
         12    1    1    2    0    0 -0.22119145832E+01 -0.94067328976E+01 -0.39494135772E+02  0.40659143502E+02  0.00000000000E+00 0. -1.
         11    1    3    3    0    0  0.11117897805E+02 -0.28992527892E+01  0.97155138153E+01  0.15046744740E+02  0.51100000000E-03 0. -1.
        -11    1    3    3    0    0 -0.14472835098E+01  0.57901941450E+01  0.22263762708E+02  0.23049861344E+02  0.51100000000E-03 0.  1.
         12    1    3    3    0    0 -0.74586997116E+01  0.65157915419E+01  0.75148592487E+01  0.12432250413E+02  0.00000000000E+00 0. -1.
</event>
<event>
 7    1  0.2891523E-011  0.5052883E+02  0.7816164E-02  0.1300439E+00
        -11   -1    0    0    0    0  0.00000000000E+00  0.00000000000E+00  0.45593999997E+02  0.45594000000E+02  0.51100000000E-03 0.  1.
         11   -1    0    0    0    0 -0.00000000000E+00 -0.00000000000E+00 -0.45593999997E+02  0.45594000000E+02  0.51100000000E-03 0. -1.
    9900012    2    1    2    0    0  0.87568302389E+01  0.51541893359E+01  0.39369022859E+02  0.50528834928E+02  0.29999924246E+02 0.  0.
         12    1    1    2    0    0 -0.87568302389E+01 -0.51541893359E+01 -0.39369022859E+02  0.40659165072E+02  0.00000000000E+00 0. -1.
         11    1    3    3    0    0  0.14746790983E+01 -0.41308046209E+01  0.28556938112E+02  0.28891814409E+02  0.51100000000E-03 0. -1.
        -11    1    3    3    0    0  0.10187126628E+02  0.14779875884E+01  0.47626369002E+01  0.11342164994E+02  0.51100000000E-03 0.  1.
         12    1    3    3    0    0 -0.29049754878E+01  0.78070063683E+01  0.60494478467E+01  0.10294855524E+02  0.00000000000E+00 0. -1.
</event>
<event>
 7    1  0.2891523E-011  0.5052887E+02  0.7816164E-02  0.1300439E+00
        -11   -1    0    0    0    0  0.00000000000E+00  0.00000000000E+00  0.45593999997E+02  0.45594000000E+02  0.51100000000E-03 0. -1.
         11   -1    0    0    0    0 -0.00000000000E+00 -0.00000000000E+00 -0.45593999997E+02  0.45594000000E+02  0.51100000000E-03 0.  1.
    9900012    2    1    2    0    0 -0.26735711550E+02 -0.30494612404E+02 -0.29060724206E+01  0.50528869234E+02  0.30000028523E+02 0.  0.
         12    1    1    2    0    0  0.26735711550E+02  0.30494612404E+02  0.29060724206E+01  0.40659130766E+02  0.00000000000E+00 0. -1.
         11    1    3    3    0    0 -0.73263438092E+01 -0.14406507764E+02 -0.44780018652E+01  0.16771263534E+02  0.51100000000E-03 0. -1.
        -11    1    3    3    0    0 -0.20234824380E+02 -0.33622856356E+01 -0.17282473590E+01  0.20584944051E+02  0.51100000000E-03 0.  1.
        -12    1    3    3    0    0  0.82545663868E+00 -0.12725819004E+02  0.33001768036E+01  0.13172661649E+02  0.00000000000E+00 0.  1.
</event>
<event>
 7    1  0.2891523E-011  0.5052884E+02  0.7816164E-02  0.1300439E+00
        -11   -1    0    0    0    0  0.00000000000E+00  0.00000000000E+00  0.45593999997E+02  0.45594000000E+02  0.51100000000E-03 0.  1.
         11   -1    0    0    0    0 -0.00000000000E+00 -0.00000000000E+00 -0.45593999997E+02  0.45594000000E+02  0.51100000000E-03 0. -1.
    9900012    2    1    2    0    0 -0.25104766842E+02  0.18261849221E+02  0.26256866165E+02  0.50528837736E+02  0.29999932784E+02 0.  0.
         12    1    1    2    0    0  0.25104766842E+02 -0.18261849221E+02 -0.26256866165E+02  0.40659162264E+02  0.00000000000E+00 0. -1.
         11    1    3    3    0    0 -0.24278095028E+01  0.10558497360E+02  0.70514774776E+01  0.12926695647E+02  0.51100000000E-03 0. -1.
        -11    1    3    3    0    0 -0.23461104888E+02  0.73020233382E+01  0.72557611187E+01  0.25620090887E+02  0.51100000000E-03 0.  1.
        -12    1    3    3    0    0  0.78414754922E+00  0.40132852306E+00  0.11949627569E+02  0.11982051202E+02  0.00000000000E+00 0.  1.
</event>
<event>
 7    1  0.2891523E-011  0.5052886E+02  0.7816164E-02  0.1300439E+00
        -11   -1    0    0    0    0  0.00000000000E+00  0.00000000000E+00  0.45593999997E+02  0.45594000000E+02  0.51100000000E-03 0.  1.
         11   -1    0    0    0    0 -0.00000000000E+00 -0.00000000000E+00 -0.45593999997E+02  0.45594000000E+02  0.51100000000E-03 0. -1.
    9900012    2    1    2    0    0 -0.16371726773E+02 -0.34011970499E+02  0.15110201485E+02  0.50528858793E+02  0.29999996788E+02 0.  0.
         12    1    1    2    0    0  0.16371726773E+02  0.34011970499E+02 -0.15110201485E+02  0.40659141207E+02  0.00000000000E+00 0. -1.
         11    1    3    3    0    0 -0.63888287041E+01 -0.46414393203E+01 -0.69526315077E+01  0.10521367607E+02  0.51100000000E-03 0. -1.
        -11    1    3    3    0    0 -0.84498112768E+01 -0.29828838546E+02  0.18502311064E+02  0.36103939322E+02  0.51100000000E-03 0.  1.
         12    1    3    3    0    0 -0.15330867920E+01  0.45830736679E+00  0.35605219285E+01  0.39035518644E+01  0.00000000000E+00 0. -1.
</event>
<event>
 7    1  0.2891523E-011  0.5052887E+02  0.7816164E-02  0.1300439E+00
        -11   -1    0    0    0    0  0.00000000000E+00  0.00000000000E+00  0.45593999997E+02  0.45594000000E+02  0.51100000000E-03 0.  1.
         11   -1    0    0    0    0 -0.00000000000E+00 -0.00000000000E+00 -0.45593999997E+02  0.45594000000E+02  0.51100000000E-03 0. -1.
    9900012    2    1    2    0    0  0.18448376313E+02 -0.35554306832E+02 -0.69795103754E+01  0.50528869562E+02  0.30000029520E+02 0.  0.
         12    1    1    2    0    0 -0.18448376313E+02  0.35554306832E+02  0.69795103754E+01  0.40659130438E+02  0.00000000000E+00 0. -1.
         11    1    3    3    0    0  0.73411233995E+01 -0.16752424923E+02 -0.96794773652E+01  0.20693673330E+02  0.51100000000E-03 0. -1.
        -11    1    3    3    0    0  0.90044326543E+01 -0.14188320957E+02  0.11017516773E+02  0.20094126881E+02  0.51100000000E-03 0.  1.
        -12    1    3    3    0    0  0.21028202592E+01 -0.46135609521E+01 -0.83175497829E+01  0.97410693506E+01  0.00000000000E+00 0.  1.
</event>
<event>
 7    1  0.2891523E-011  0.5052886E+02  0.7816164E-02  0.1300439E+00
        -11   -1    0    0    0    0  0.00000000000E+00  0.00000000000E+00  0.45593999997E+02  0.45594000000E+02  0.51100000000E-03 0.  1.
         11   -1    0    0    0    0 -0.00000000000E+00 -0.00000000000E+00 -0.45593999997E+02  0.45594000000E+02  0.51100000000E-03 0. -1.
    9900012    2    1    2    0    0 -0.34402142547E+02  0.51844758186E+01  0.21042328279E+02  0.50528858583E+02  0.29999996149E+02 0.  0.
         12    1    1    2    0    0  0.34402142547E+02 -0.51844758186E+01 -0.21042328279E+02  0.40659141417E+02  0.00000000000E+00 0. -1.
         11    1    3    3    0    0  0.11570886981E+01 -0.61371673734E+01  0.47421678445E+01  0.78416728924E+01  0.51100000000E-03 0. -1.
        -11    1    3    3    0    0 -0.14885796199E+02  0.11428607066E+02  0.82778299571E+01  0.20511520105E+02  0.51100000000E-03 0.  1.
         12    1    3    3    0    0 -0.20673435047E+02 -0.10696387405E+00  0.80223304775E+01  0.22175665586E+02  0.00000000000E+00 0. -1.
</event>
<event>
 7    1  0.2891523E-011  0.5052885E+02  0.7816164E-02  0.1300439E+00
        -11   -1    0    0    0    0  0.00000000000E+00  0.00000000000E+00  0.45593999997E+02  0.45594000000E+02  0.51100000000E-03 0.  1.
         11   -1    0    0    0    0 -0.00000000000E+00 -0.00000000000E+00 -0.45593999997E+02  0.45594000000E+02  0.51100000000E-03 0. -1.
    9900012    2    1    2    0    0 -0.18715184574E+02  0.22914941439E+02  0.27889312434E+02  0.50528850687E+02  0.29999972148E+02 0.  0.
         12    1    1    2    0    0  0.18715184574E+02 -0.22914941439E+02 -0.27889312434E+02  0.40659149313E+02  0.00000000000E+00 0. -1.
         11    1    3    3    0    0 -0.17829658005E+02  0.21284424069E+02  0.23347968523E+02  0.36277417865E+02  0.51100000000E-03 0. -1.
        -11    1    3    3    0    0 -0.33655497234E+01 -0.33906944907E+01 -0.23887754691E+01  0.53413465131E+01  0.51100000000E-03 0.  1.
        -12    1    3    3    0    0  0.24800231546E+01  0.50212118607E+01  0.69301193807E+01  0.89100863087E+01  0.00000000000E+00 0.  1.
</event>
<event>
 7    1  0.2891523E-011  0.5052886E+02  0.7816164E-02  0.1300439E+00
        -11   -1    0    0    0    0  0.00000000000E+00  0.00000000000E+00  0.45593999997E+02  0.45594000000E+02  0.51100000000E-03 0. -1.
         11   -1    0    0    0    0 -0.00000000000E+00 -0.00000000000E+00 -0.45593999997E+02  0.45594000000E+02  0.51100000000E-03 0.  1.
    9900012    2    1    2    0    0 -0.36144636041E+02 -0.17307012636E+02 -0.68700827731E+01  0.50528862796E+02  0.30000008953E+02 0.  0.
         12    1    1    2    0    0  0.36144636041E+02  0.17307012636E+02  0.68700827731E+01  0.40659137204E+02  0.00000000000E+00 0. -1.
         11    1    3    3    0    0 -0.13166362620E+02  0.20228247055E+01  0.65138515323E+01  0.14828188915E+02  0.51100000000E-03 0. -1.
        -11    1    3    3    0    0 -0.23547687890E+02 -0.18823266292E+02 -0.93030871652E+01  0.31549269245E+02  0.51100000000E-03 0.  1.
        -12    1    3    3    0    0  0.56941446965E+00 -0.50657104939E+00 -0.40808471401E+01  0.41514046355E+01  0.00000000000E+00 0.  1.
</event>
<event>
 7    1  0.2891523E-011  0.5052885E+02  0.7816164E-02  0.1300439E+00
        -11   -1    0    0    0    0  0.00000000000E+00  0.00000000000E+00  0.45593999997E+02  0.45594000000E+02  0.51100000000E-03 0.  1.
         11   -1    0    0    0    0 -0.00000000000E+00 -0.00000000000E+00 -0.45593999997E+02  0.45594000000E+02  0.51100000000E-03 0. -1.
    9900012    2    1    2    0    0  0.66438954335E+00 -0.25112067330E+02  0.31970437995E+02  0.50528852879E+02  0.29999978810E+02 0.  0.
         12    1    1    2    0    0 -0.66438954335E+00  0.25112067330E+02 -0.31970437995E+02  0.40659147121E+02  0.00000000000E+00 0. -1.
         11    1    3    3    0    0  0.10858087255E+02 -0.65460775026E+01  0.48769578485E+01  0.13584325807E+02  0.51100000000E-03 0. -1.
        -11    1    3    3    0    0 -0.23866444277E+01 -0.16691313704E+02  0.15950325093E+02  0.23210103309E+02  0.51100000000E-03 0.  1.
         12    1    3    3    0    0 -0.78070532837E+01 -0.18746761229E+01  0.11143155054E+02  0.13734423763E+02  0.00000000000E+00 0. -1.
</event>
<event>
 7    1  0.2891523E-011  0.5052886E+02  0.7816164E-02  0.1300439E+00
        -11   -1    0    0    0    0  0.00000000000E+00  0.00000000000E+00  0.45593999997E+02  0.45594000000E+02  0.51100000000E-03 0.  1.
         11   -1    0    0    0    0 -0.00000000000E+00 -0.00000000000E+00 -0.45593999997E+02  0.45594000000E+02  0.51100000000E-03 0. -1.
    9900012    2    1    2    0    0  0.20076738804E+02 -0.34623015305E+02 -0.71649795054E+01  0.50528861284E+02  0.30000004360E+02 0.  0.
         12    1    1    2    0    0 -0.20076738804E+02  0.34623015305E+02  0.71649795054E+01  0.40659138716E+02  0.00000000000E+00 0. -1.
         11    1    3    3    0    0  0.16522626441E+02 -0.32761504986E+02 -0.58739782389E+01  0.37159346254E+02  0.51100000000E-03 0. -1.
        -11    1    3    3    0    0  0.21607068092E+01  0.19603738889E+01  0.50521323364E+01  0.58340175784E+01  0.51100000000E-03 0.  1.
         12    1    3    3    0    0  0.13934055531E+01 -0.38218842082E+01 -0.63431336029E+01  0.75354974514E+01  0.00000000000E+00 0. -1.
</event>
<event>
 7    1  0.2891523E-011  0.5052887E+02  0.7816164E-02  0.1300439E+00
        -11   -1    0    0    0    0  0.00000000000E+00  0.00000000000E+00  0.45593999997E+02  0.45594000000E+02  0.51100000000E-03 0. -1.
         11   -1    0    0    0    0 -0.00000000000E+00 -0.00000000000E+00 -0.45593999997E+02  0.45594000000E+02  0.51100000000E-03 0.  1.
    9900012    2    1    2    0    0 -0.31204060346E+02  0.12966938262E+02 -0.22612610150E+02  0.50528868089E+02  0.30000025044E+02 0.  0.
         12    1    1    2    0    0  0.31204060346E+02 -0.12966938262E+02  0.22612610150E+02  0.40659131911E+02  0.00000000000E+00 0. -1.
         11    1    3    3    0    0 -0.17559998663E+01 -0.59530043946E+01 -0.76168218667E+01  0.98253637318E+01  0.51100000000E-03 0. -1.
        -11    1    3    3    0    0 -0.20428818770E+02  0.20179042777E+02 -0.10827665609E+02  0.30688250953E+02  0.51100000000E-03 0.  1.
         12    1    3    3    0    0 -0.90192417094E+01 -0.12591001207E+01 -0.41681226739E+01  0.10015253404E+02  0.00000000000E+00 0. -1.
</event>
<event>
 7    1  0.2891523E-011  0.5052880E+02  0.7816164E-02  0.1300439E+00
        -11   -1    0    0    0    0  0.00000000000E+00  0.00000000000E+00  0.45593999997E+02  0.45594000000E+02  0.51100000000E-03 0.  1.
         11   -1    0    0    0    0 -0.00000000000E+00 -0.00000000000E+00 -0.45593999997E+02  0.45594000000E+02  0.51100000000E-03 0. -1.
    9900012    2    1    2    0    0 -0.81311131693E+01  0.39187089163E+02  0.71713059145E+01  0.50528799480E+02  0.29999816499E+02 0.  0.
         12    1    1    2    0    0  0.81311131693E+01 -0.39187089163E+02 -0.71713059145E+01  0.40659200520E+02  0.00000000000E+00 0. -1.
         11    1    3    3    0    0 -0.47555306099E+00 -0.13017225356E+01  0.26447912919E+01  0.29858924148E+01  0.51100000000E-03 0. -1.
        -11    1    3    3    0    0 -0.11994788505E+02  0.36980967825E+02  0.95517686712E+01  0.40033775959E+02  0.51100000000E-03 0.  1.
        -12    1    3    3    0    0  0.43392283963E+01  0.35078438736E+01 -0.50252540486E+01  0.75091311062E+01  0.00000000000E+00 0.  1.
</event>
<event>
 7    1  0.2891523E-011  0.5052883E+02  0.7816164E-02  0.1300439E+00
        -11   -1    0    0    0    0  0.00000000000E+00  0.00000000000E+00  0.45593999997E+02  0.45594000000E+02  0.51100000000E-03 0. -1.
         11   -1    0    0    0    0 -0.00000000000E+00 -0.00000000000E+00 -0.45593999997E+02  0.45594000000E+02  0.51100000000E-03 0.  1.
    9900012    2    1    2    0    0  0.40446284039E+02 -0.22119848014E+01 -0.35175828711E+01  0.50528829342E+02  0.29999907269E+02 0.  0.
         12    1    1    2    0    0 -0.40446284039E+02  0.22119848014E+01  0.35175828711E+01  0.40659170658E+02  0.00000000000E+00 0. -1.
         11    1    3    3    0    0 -0.27485766222E+01 -0.26075232576E+00 -0.64843205284E+00  0.28360411865E+01  0.51100000000E-03 0. -1.
        -11    1    3    3    0    0  0.29018908229E+02  0.78024545419E+01  0.95871984030E+00  0.30064837862E+02  0.51100000000E-03 0.  1.
        -12    1    3    3    0    0  0.14175952432E+02 -0.97536870175E+01 -0.38278706586E+01  0.17627950294E+02  0.00000000000E+00 0.  1.
</event>
<event>
 7    1  0.2891523E-011  0.5052886E+02  0.7816164E-02  0.1300439E+00
        -11   -1    0    0    0    0  0.00000000000E+00  0.00000000000E+00  0.45593999997E+02  0.45594000000E+02  0.51100000000E-03 0.  1.
         11   -1    0    0    0    0 -0.00000000000E+00 -0.00000000000E+00 -0.45593999997E+02  0.45594000000E+02  0.51100000000E-03 0. -1.
    9900012    2    1    2    0    0  0.22262875980E+02  0.15247832608E+02  0.30414360768E+02  0.50528863424E+02  0.30000010865E+02 0.  0.
         12    1    1    2    0    0 -0.22262875980E+02 -0.15247832608E+02 -0.30414360768E+02  0.40659136576E+02  0.00000000000E+00 0. -1.
         11    1    3    3    0    0  0.11612374939E+02 -0.48689934876E+00  0.61502685154E+01  0.13149529489E+02  0.51100000000E-03 0. -1.
        -11    1    3    3    0    0 -0.36667368839E+01  0.13419204909E+02  0.12565378078E+02  0.18745899452E+02  0.51100000000E-03 0.  1.
        -12    1    3    3    0    0  0.14317237925E+02  0.23155270473E+01  0.11698714175E+02  0.18633434483E+02  0.00000000000E+00 0.  1.
</event>
<event>
 7    1  0.2891523E-011  0.5052886E+02  0.7816164E-02  0.1300439E+00
        -11   -1    0    0    0    0  0.00000000000E+00  0.00000000000E+00  0.45593999997E+02  0.45594000000E+02  0.51100000000E-03 0. -1.
         11   -1    0    0    0    0 -0.00000000000E+00 -0.00000000000E+00 -0.45593999997E+02  0.45594000000E+02  0.51100000000E-03 0.  1.
    9900012    2    1    2    0    0 -0.37836783450E+02  0.79125548871E+01  0.12606935880E+02  0.50528861557E+02  0.30000005187E+02 0.  0.
         12    1    1    2    0    0  0.37836783450E+02 -0.79125548871E+01 -0.12606935880E+02  0.40659138443E+02  0.00000000000E+00 0. -1.
         11    1    3    3    0    0 -0.68534883363E+01  0.65350574734E+01 -0.69866115495E+01  0.11768178269E+02  0.51100000000E-03 0. -1.
        -11    1    3    3    0    0 -0.14298660957E+02  0.66116500616E+01  0.11427090378E+02  0.19461346728E+02  0.51100000000E-03 0.  1.
         12    1    3    3    0    0 -0.16684634157E+02 -0.52341526479E+01  0.81664570515E+01  0.19299336560E+02  0.00000000000E+00 0. -1.
</event>
<event>
 7    1  0.2891523E-011  0.5052886E+02  0.7816164E-02  0.1300439E+00
        -11   -1    0    0    0    0  0.00000000000E+00  0.00000000000E+00  0.45593999997E+02  0.45594000000E+02  0.51100000000E-03 0.  1.
         11   -1    0    0    0    0 -0.00000000000E+00 -0.00000000000E+00 -0.45593999997E+02  0.45594000000E+02  0.51100000000E-03 0. -1.
    9900012    2    1    2    0    0  0.23634662974E+02  0.26411106271E+02  0.19925397360E+02  0.50528864639E+02  0.30000014558E+02 0.  0.
         12    1    1    2    0    0 -0.23634662974E+02 -0.26411106271E+02 -0.19925397360E+02  0.40659135361E+02  0.00000000000E+00 0. -1.
         11    1    3    3    0    0  0.13710962941E+02  0.17957041688E+02  0.21712044540E+02  0.31334625087E+02  0.51100000000E-03 0. -1.
        -11    1    3    3    0    0  0.13430840390E+02  0.56715009105E+01 -0.74776381388E+00  0.14598374811E+02  0.51100000000E-03 0.  1.
         12    1    3    3    0    0 -0.35071403564E+01  0.27825636718E+01 -0.10388833668E+01  0.45958647409E+01  0.00000000000E+00 0. -1.
</event>
<event>
 7    1  0.2891523E-011  0.5052886E+02  0.7816164E-02  0.1300439E+00
        -11   -1    0    0    0    0  0.00000000000E+00  0.00000000000E+00  0.45593999997E+02  0.45594000000E+02  0.51100000000E-03 0. -1.
         11   -1    0    0    0    0 -0.00000000000E+00 -0.00000000000E+00 -0.45593999997E+02  0.45594000000E+02  0.51100000000E-03 0.  1.
    9900012    2    1    2    0    0  0.28549456845E+02 -0.28808693100E+02  0.28553426838E+01  0.50528864912E+02  0.30000015385E+02 0.  0.
         12    1    1    2    0    0 -0.28549456845E+02  0.28808693100E+02 -0.28553426838E+01  0.40659135088E+02  0.00000000000E+00 0. -1.
         11    1    3    3    0    0  0.93647657047E+01 -0.15202105034E+02 -0.98224995061E+01  0.20378526222E+02  0.51100000000E-03 0. -1.
        -11    1    3    3    0    0  0.14245362829E+02 -0.27464395597E+01  0.10769450587E+02  0.18068048002E+02  0.51100000000E-03 0.  1.
        -12    1    3    3    0    0  0.49393283113E+01 -0.10860148506E+02  0.19083916026E+01  0.12082290687E+02  0.00000000000E+00 0.  1.
</event>
<event>
 7    1  0.2891523E-011  0.5052886E+02  0.7816164E-02  0.1300439E+00
        -11   -1    0    0    0    0  0.00000000000E+00  0.00000000000E+00  0.45593999997E+02  0.45594000000E+02  0.51100000000E-03 0.  1.
         11   -1    0    0    0    0 -0.00000000000E+00 -0.00000000000E+00 -0.45593999997E+02  0.45594000000E+02  0.51100000000E-03 0. -1.
    9900012    2    1    2    0    0 -0.26158206203E+02 -0.10947924420E+02  0.29138574933E+02  0.50528863881E+02  0.30000012251E+02 0.  0.
         12    1    1    2    0    0  0.26158206203E+02  0.10947924420E+02 -0.29138574933E+02  0.40659136119E+02  0.00000000000E+00 0. -1.
         11    1    3    3    0    0 -0.32171806014E+01 -0.35083153995E+01 -0.20236693156E+01  0.51724042499E+01  0.51100000000E-03 0. -1.
        -11    1    3    3    0    0 -0.20870804722E+02 -0.14498638666E+02  0.22048786128E+02  0.33644464372E+02  0.51100000000E-03 0.  1.
        -12    1    3    3    0    0 -0.20702208800E+01  0.70590296457E+01  0.91134581199E+01  0.11711995258E+02  0.00000000000E+00 0.  1.
</event>
<event>
 7    1  0.2891523E-011  0.5052886E+02  0.7816164E-02  0.1300439E+00
        -11   -1    0    0    0    0  0.00000000000E+00  0.00000000000E+00  0.45593999997E+02  0.45594000000E+02  0.51100000000E-03 0. -1.
         11   -1    0    0    0    0 -0.00000000000E+00 -0.00000000000E+00 -0.45593999997E+02  0.45594000000E+02  0.51100000000E-03 0.  1.
    9900012    2    1    2    0    0 -0.33507062979E+01  0.38210712395E+02 -0.13486284691E+02  0.50528860201E+02  0.30000001067E+02 0.  0.
         12    1    1    2    0    0  0.33507062979E+01 -0.38210712395E+02  0.13486284691E+02  0.40659139799E+02  0.00000000000E+00 0. -1.
         11    1    3    3    0    0 -0.71693826408E+01  0.16913595792E+02  0.24200175937E+01  0.18529065154E+02  0.51100000000E-03 0. -1.
        -11    1    3    3    0    0  0.10381515316E+02  0.15074808295E+02 -0.13176279268E+02  0.22553049483E+02  0.51100000000E-03 0.  1.
         12    1    3    3    0    0 -0.65628389735E+01  0.62223083088E+01 -0.27300230166E+01  0.94467455641E+01  0.00000000000E+00 0. -1.
</event>
<event>
 7    1  0.2891523E-011  0.5052884E+02  0.7816164E-02  0.1300439E+00
        -11   -1    0    0    0    0  0.00000000000E+00  0.00000000000E+00  0.45593999997E+02  0.45594000000E+02  0.51100000000E-03 0.  1.
         11   -1    0    0    0    0 -0.00000000000E+00 -0.00000000000E+00 -0.45593999997E+02  0.45594000000E+02  0.51100000000E-03 0. -1.
    9900012    2    1    2    0    0 -0.31959490847E+02  0.11717127379E+02  0.22236613225E+02  0.50528842398E+02  0.29999946952E+02 0.  0.
         12    1    1    2    0    0  0.31959490847E+02 -0.11717127379E+02 -0.22236613225E+02  0.40659157602E+02  0.00000000000E+00 0. -1.
         11    1    3    3    0    0  0.39939713628E+01 -0.37563574555E+01  0.22936520292E+01  0.59433045078E+01  0.51100000000E-03 0. -1.
        -11    1    3    3    0    0 -0.31326617477E+02  0.13293624100E+02  0.14142670080E+02  0.36852306869E+02  0.51100000000E-03 0.  1.
         12    1    3    3    0    0 -0.46268447323E+01  0.21798607346E+01  0.58002911160E+01  0.77332310213E+01  0.00000000000E+00 0. -1.
</event>
<event>
 7    1  0.2891523E-011  0.5052887E+02  0.7816164E-02  0.1300439E+00
        -11   -1    0    0    0    0  0.00000000000E+00  0.00000000000E+00  0.45593999997E+02  0.45594000000E+02  0.51100000000E-03 0. -1.
         11   -1    0    0    0    0 -0.00000000000E+00 -0.00000000000E+00 -0.45593999997E+02  0.45594000000E+02  0.51100000000E-03 0.  1.
    9900012    2    1    2    0    0 -0.39458195704E+02  0.65668328336E+01  0.72864731884E+01  0.50528865808E+02  0.30000018110E+02 0.  0.
         12    1    1    2    0    0  0.39458195704E+02 -0.65668328336E+01 -0.72864731884E+01  0.40659134192E+02  0.00000000000E+00 0. -1.
         11    1    3    3    0    0 -0.26763659459E+02  0.48437703045E+01  0.12625207456E+02  0.29985854031E+02  0.51100000000E-03 0. -1.
        -11    1    3    3    0    0 -0.76869921415E+01 -0.56807192017E+00 -0.10479945876E+02  0.13009297433E+02  0.51100000000E-03 0.  1.
        -12    1    3    3    0    0 -0.50075441035E+01  0.22911344492E+01  0.51412116081E+01  0.75337143436E+01  0.00000000000E+00 0.  1.
</event>
<event>
 7    1  0.2891523E-011  0.5052886E+02  0.7816164E-02  0.1300439E+00
        -11   -1    0    0    0    0  0.00000000000E+00  0.00000000000E+00  0.45593999997E+02  0.45594000000E+02  0.51100000000E-03 0.  1.
         11   -1    0    0    0    0 -0.00000000000E+00 -0.00000000000E+00 -0.45593999997E+02  0.45594000000E+02  0.51100000000E-03 0. -1.
    9900012    2    1    2    0    0 -0.23782194479E+02 -0.14619326391E+01  0.32945954137E+02  0.50528856929E+02  0.29999991123E+02 0.  0.
         12    1    1    2    0    0  0.23782194479E+02  0.14619326391E+01 -0.32945954137E+02  0.40659143071E+02  0.00000000000E+00 0. -1.
         11    1    3    3    0    0 -0.12057758096E+02  0.12132650769E+02  0.10476214313E+02  0.20058459851E+02  0.51100000000E-03 0. -1.
        -11    1    3    3    0    0 -0.38339766614E+01 -0.58769676896E+00  0.74658875758E+00  0.39499569069E+01  0.51100000000E-03 0.  1.
         12    1    3    3    0    0 -0.78904597214E+01 -0.13006886639E+02  0.21723151066E+02  0.26520440172E+02  0.00000000000E+00 0. -1.
</event>
<event>
 7    1  0.2891523E-011  0.5052886E+02  0.7816164E-02  0.1300439E+00
        -11   -1    0    0    0    0  0.00000000000E+00  0.00000000000E+00  0.45593999997E+02  0.45594000000E+02  0.51100000000E-03 0. -1.
         11   -1    0    0    0    0 -0.00000000000E+00 -0.00000000000E+00 -0.45593999997E+02  0.45594000000E+02  0.51100000000E-03 0.  1.
    9900012    2    1    2    0    0 -0.23068488259E+02 -0.21319349988E+02 -0.25816581208E+02  0.50528859579E+02  0.29999999177E+02 0.  0.
         12    1    1    2    0    0  0.23068488259E+02  0.21319349988E+02  0.25816581208E+02  0.40659140421E+02  0.00000000000E+00 0. -1.
         11    1    3    3    0    0 -0.11244874750E+02 -0.11783741452E+02  0.77408606805E+00  0.16306531828E+02  0.51100000000E-03 0. -1.
        -11    1    3    3    0    0 -0.95338871949E+00  0.38501030542E+01 -0.75887449505E+01  0.85627853975E+01  0.51100000000E-03 0.  1.
         12    1    3    3    0    0 -0.10870224790E+02 -0.13385711590E+02 -0.19001922325E+02  0.25659542354E+02  0.00000000000E+00 0. -1.
</event>
<event>
 7    1  0.2891523E-011  0.5052882E+02  0.7816164E-02  0.1300439E+00
        -11   -1    0    0    0    0  0.00000000000E+00  0.00000000000E+00  0.45593999997E+02  0.45594000000E+02  0.51100000000E-03 0.  1.
         11   -1    0    0    0    0 -0.00000000000E+00 -0.00000000000E+00 -0.45593999997E+02  0.45594000000E+02  0.51100000000E-03 0. -1.
    9900012    2    1    2    0    0  0.56601607836E+01 -0.29761297927E+02  0.27118198550E+02  0.50528819401E+02  0.29999877051E+02 0.  0.
         12    1    1    2    0    0 -0.56601607836E+01  0.29761297927E+02 -0.27118198550E+02  0.40659180599E+02  0.00000000000E+00 0. -1.
         11    1    3    3    0    0 -0.69381879986E+01 -0.28588068268E+01  0.12590834860E+02  0.14657433333E+02  0.51100000000E-03 0.  1.
        -11    1    3    3    0    0  0.10932103383E+02 -0.96751141218E+01  0.25404015079E+01  0.14817974144E+02  0.51100000000E-03 0. -1.
         12    1    3    3    0    0  0.16662453987E+01 -0.17227376978E+02  0.11986962183E+02  0.21053411924E+02  0.00000000000E+00 0. -1.
</event>
<event>
 7    1  0.2891523E-011  0.5052886E+02  0.7816164E-02  0.1300439E+00
        -11   -1    0    0    0    0  0.00000000000E+00  0.00000000000E+00  0.45593999997E+02  0.45594000000E+02  0.51100000000E-03 0.  1.
         11   -1    0    0    0    0 -0.00000000000E+00 -0.00000000000E+00 -0.45593999997E+02  0.45594000000E+02  0.51100000000E-03 0. -1.
    9900012    2    1    2    0    0  0.29986163831E+02 -0.24471796749E+02  0.12454979424E+02  0.50528863636E+02  0.30000011508E+02 0.  0.
         12    1    1    2    0    0 -0.29986163831E+02  0.24471796749E+02 -0.12454979424E+02  0.40659136364E+02  0.00000000000E+00 0. -1.
         11    1    3    3    0    0  0.13791032936E+02 -0.13689123322E+02 -0.27176366193E+01  0.19620658394E+02  0.51100000000E-03 0. -1.
        -11    1    3    3    0    0  0.76266486640E+01  0.40734220663E+01  0.94972633812E+01  0.12843541146E+02  0.51100000000E-03 0.  1.
        -12    1    3    3    0    0  0.85684822306E+01 -0.14856095493E+02  0.56753526626E+01  0.18064664096E+02  0.00000000000E+00 0.  1.
</event>
<event>
 7    1  0.2891523E-011  0.5052885E+02  0.7816164E-02  0.1300439E+00
        -11   -1    0    0    0    0  0.00000000000E+00  0.00000000000E+00  0.45593999997E+02  0.45594000000E+02  0.51100000000E-03 0. -1.
         11   -1    0    0    0    0 -0.00000000000E+00 -0.00000000000E+00 -0.45593999997E+02  0.45594000000E+02  0.51100000000E-03 0.  1.
    9900012    2    1    2    0    0  0.11887253228E+02  0.63238229661E+01 -0.38364946762E+02  0.50528847694E+02  0.29999963050E+02 0.  0.
         12    1    1    2    0    0 -0.11887253228E+02 -0.63238229661E+01  0.38364946762E+02  0.40659152306E+02  0.00000000000E+00 0. -1.
         11    1    3    3    0    0  0.94194598643E+01 -0.16909333852E+00  0.12328143595E+01  0.95012971851E+01  0.51100000000E-03 0. -1.
        -11    1    3    3    0    0  0.29271154351E+01  0.73517728730E+01 -0.21606433209E+02  0.23009878865E+02  0.51100000000E-03 0.  1.
        -12    1    3    3    0    0 -0.45932207104E+00 -0.85885656834E+00 -0.17991327913E+02  0.18017671643E+02  0.00000000000E+00 0.  1.
</event>
<event>
 7    1  0.2891523E-011  0.5052886E+02  0.7816164E-02  0.1300439E+00
        -11   -1    0    0    0    0  0.00000000000E+00  0.00000000000E+00  0.45593999997E+02  0.45594000000E+02  0.51100000000E-03 0.  1.
         11   -1    0    0    0    0 -0.00000000000E+00 -0.00000000000E+00 -0.45593999997E+02  0.45594000000E+02  0.51100000000E-03 0. -1.
    9900012    2    1    2    0    0  0.36320483920E+02  0.78989982154E+01  0.16480112764E+02  0.50528857833E+02  0.29999993871E+02 0.  0.
         12    1    1    2    0    0 -0.36320483920E+02 -0.78989982154E+01 -0.16480112764E+02  0.40659142167E+02  0.00000000000E+00 0. -1.
         11    1    3    3    0    0  0.11852983979E+02 -0.40886213701E+01 -0.38125009337E+01  0.13105159958E+02  0.51100000000E-03 0. -1.
        -11    1    3    3    0    0  0.24677936859E+02  0.59772203852E+01  0.17122254908E+02  0.30625142360E+02  0.51100000000E-03 0.  1.
         12    1    3    3    0    0 -0.21043691726E+00  0.60103992003E+01  0.31703587896E+01  0.67985555155E+01  0.00000000000E+00 0. -1.
</event>
<event>
 7    1  0.2891523E-011  0.5052881E+02  0.7816164E-02  0.1300439E+00
        -11   -1    0    0    0    0  0.00000000000E+00  0.00000000000E+00  0.45593999997E+02  0.45594000000E+02  0.51100000000E-03 0. -1.
         11   -1    0    0    0    0 -0.00000000000E+00 -0.00000000000E+00 -0.45593999997E+02  0.45594000000E+02  0.51100000000E-03 0.  1.
    9900012    2    1    2    0    0  0.48451271410E+01 -0.38829744758E+02 -0.11042899370E+02  0.50528807172E+02  0.29999839878E+02 0.  0.
         12    1    1    2    0    0 -0.48451271410E+01  0.38829744758E+02  0.11042899370E+02  0.40659192828E+02  0.00000000000E+00 0. -1.
         11    1    3    3    0    0 -0.39566738590E+01 -0.13802418770E+01 -0.10562851307E+02  0.11363721383E+02  0.51100000000E-03 0. -1.
        -11    1    3    3    0    0  0.83073108988E+01 -0.19913852432E+02 -0.11706956475E+01  0.21608874603E+02  0.51100000000E-03 0.  1.
         12    1    3    3    0    0  0.49449010123E+00 -0.17535650449E+02  0.69064758426E+00  0.17556211186E+02  0.00000000000E+00 0. -1.
</event>
<event>
 7    1  0.2891523E-011  0.5052886E+02  0.7816164E-02  0.1300439E+00
        -11   -1    0    0    0    0  0.00000000000E+00  0.00000000000E+00  0.45593999997E+02  0.45594000000E+02  0.51100000000E-03 0.  1.
         11   -1    0    0    0    0 -0.00000000000E+00 -0.00000000000E+00 -0.45593999997E+02  0.45594000000E+02  0.51100000000E-03 0. -1.
    9900012    2    1    2    0    0 -0.26707949584E+02 -0.67724510122E+01  0.29899583261E+02  0.50528859049E+02  0.29999997565E+02 0.  0.
         12    1    1    2    0    0  0.26707949584E+02  0.67724510122E+01 -0.29899583261E+02  0.40659140951E+02  0.00000000000E+00 0. -1.
         11    1    3    3    0    0 -0.20895638266E+01  0.26854536584E+01 -0.35393695414E+01  0.49096919810E+01  0.51100000000E-03 0. -1.
        -11    1    3    3    0    0 -0.17336955180E+02  0.19938731473E+01  0.18250541605E+02  0.25251293317E+02  0.51100000000E-03 0.  1.
         12    1    3    3    0    0 -0.72814305779E+01 -0.11451777818E+02  0.15188411197E+02  0.20367873751E+02  0.00000000000E+00 0. -1.
</event>
<event>
 7    1  0.2891523E-011  0.5052886E+02  0.7816164E-02  0.1300439E+00
        -11   -1    0    0    0    0  0.00000000000E+00  0.00000000000E+00  0.45593999997E+02  0.45594000000E+02  0.51100000000E-03 0.  1.
         11   -1    0    0    0    0 -0.00000000000E+00 -0.00000000000E+00 -0.45593999997E+02  0.45594000000E+02  0.51100000000E-03 0. -1.
    9900012    2    1    2    0    0  0.15513533471E+00 -0.38294427085E+02  0.13663041623E+02  0.50528856881E+02  0.29999990976E+02 0.  0.
         12    1    1    2    0    0 -0.15513533471E+00  0.38294427085E+02 -0.13663041623E+02  0.40659143119E+02  0.00000000000E+00 0. -1.
         11    1    3    3    0    0  0.17916794828E+01 -0.27902351421E+02  0.86225948919E+01  0.29259194677E+02  0.51100000000E-03 0.  1.
        -11    1    3    3    0    0  0.29689276185E+01  0.35878035908E+01 -0.18585560578E+01  0.50140898168E+01  0.51100000000E-03 0. -1.
         12    1    3    3    0    0 -0.46054717666E+01 -0.13979879255E+02  0.68990027889E+01  0.16255572388E+02  0.00000000000E+00 0. -1.
</event>
<event>
 7    1  0.2891523E-011  0.5052886E+02  0.7816164E-02  0.1300439E+00
        -11   -1    0    0    0    0  0.00000000000E+00  0.00000000000E+00  0.45593999997E+02  0.45594000000E+02  0.51100000000E-03 0.  1.
         11   -1    0    0    0    0 -0.00000000000E+00 -0.00000000000E+00 -0.45593999997E+02  0.45594000000E+02  0.51100000000E-03 0. -1.
    9900012    2    1    2    0    0  0.59850042592E+01 -0.10649320556E+02  0.38780631785E+02  0.50528859503E+02  0.29999998946E+02 0.  0.
         12    1    1    2    0    0 -0.59850042592E+01  0.10649320556E+02 -0.38780631785E+02  0.40659140497E+02  0.00000000000E+00 0. -1.
         11    1    3    3    0    0  0.42119377733E+01 -0.15323843598E+01 -0.90367481626E+00  0.45722259423E+01  0.51100000000E-03 0. -1.
        -11    1    3    3    0    0 -0.16278844642E+01  0.81780479822E+00  0.33937185669E+02  0.33986046900E+02  0.51100000000E-03 0.  1.
        -12    1    3    3    0    0  0.34009509500E+01 -0.99347409947E+01  0.57471209321E+01  0.11970586661E+02  0.00000000000E+00 0.  1.
</event>
<event>
 7    1  0.2891523E-011  0.5052886E+02  0.7816164E-02  0.1300439E+00
        -11   -1    0    0    0    0  0.00000000000E+00  0.00000000000E+00  0.45593999997E+02  0.45594000000E+02  0.51100000000E-03 0. -1.
         11   -1    0    0    0    0 -0.00000000000E+00 -0.00000000000E+00 -0.45593999997E+02  0.45594000000E+02  0.51100000000E-03 0.  1.
    9900012    2    1    2    0    0  0.40390848960E+02 -0.25783493339E+01 -0.38855104045E+01  0.50528858886E+02  0.29999997070E+02 0.  0.
         12    1    1    2    0    0 -0.40390848960E+02  0.25783493339E+01  0.38855104045E+01  0.40659141114E+02  0.00000000000E+00 0. -1.
         11    1    3    3    0    0  0.63982353382E+01  0.11978007745E+01 -0.72224881505E+01  0.97229870659E+01  0.51100000000E-03 0. -1.
        -11    1    3    3    0    0  0.35068906510E+02 -0.81496616584E+01  0.41056773957E+01  0.36236746213E+02  0.51100000000E-03 0.  1.
        -12    1    3    3    0    0 -0.10762928884E+01  0.43735115501E+01 -0.76869964977E+00  0.45691256069E+01  0.00000000000E+00 0.  1.
</event>
<event>
 7    1  0.2891523E-011  0.5052886E+02  0.7816164E-02  0.1300439E+00
        -11   -1    0    0    0    0  0.00000000000E+00  0.00000000000E+00  0.45593999997E+02  0.45594000000E+02  0.51100000000E-03 0.  1.
         11   -1    0    0    0    0 -0.00000000000E+00 -0.00000000000E+00 -0.45593999997E+02  0.45594000000E+02  0.51100000000E-03 0. -1.
    9900012    2    1    2    0    0 -0.87803515229E+01 -0.17983439404E+01  0.39659014812E+02  0.50528855031E+02  0.29999985352E+02 0.  0.
         12    1    1    2    0    0  0.87803515229E+01  0.17983439404E+01 -0.39659014812E+02  0.40659144969E+02  0.00000000000E+00 0. -1.
         11    1    3    3    0    0  0.65185437954E+01 -0.47855113407E+01  0.14862559690E+02  0.16920053570E+02  0.51100000000E-03 0. -1.
        -11    1    3    3    0    0 -0.10233723039E+02  0.76482380238E+01  0.23287598530E+02  0.26561944162E+02  0.51100000000E-03 0.  1.
         12    1    3    3    0    0 -0.50651722792E+01 -0.46610706235E+01  0.15088565911E+01  0.70468572987E+01  0.00000000000E+00 0. -1.
</event>
<event>
 7    1  0.2891523E-011  0.5052887E+02  0.7816164E-02  0.1300439E+00
        -11   -1    0    0    0    0  0.00000000000E+00  0.00000000000E+00  0.45593999997E+02  0.45594000000E+02  0.51100000000E-03 0. -1.
         11   -1    0    0    0    0 -0.00000000000E+00 -0.00000000000E+00 -0.45593999997E+02  0.45594000000E+02  0.51100000000E-03 0.  1.
    9900012    2    1    2    0    0  0.26288611916E+02 -0.27758532991E+02 -0.13839711001E+02  0.50528869772E+02  0.30000030160E+02 0.  0.
         12    1    1    2    0    0 -0.26288611916E+02  0.27758532991E+02  0.13839711001E+02  0.40659130228E+02  0.00000000000E+00 0. -1.
         11    1    3    3    0    0  0.21846350044E+02 -0.21567042464E+02 -0.21105550309E+02  0.37253786184E+02  0.51100000000E-03 0. -1.
        -11    1    3    3    0    0 -0.86349068377E+00 -0.55795521991E+01  0.47171277408E+01  0.73571946615E+01  0.51100000000E-03 0.  1.
         12    1    3    3    0    0  0.53057525554E+01 -0.61193832805E+00  0.25487115677E+01  0.59178889270E+01  0.00000000000E+00 0. -1.
</event>
<event>
 7    1  0.2891523E-011  0.5052886E+02  0.7816164E-02  0.1300439E+00
        -11   -1    0    0    0    0  0.00000000000E+00  0.00000000000E+00  0.45593999997E+02  0.45594000000E+02  0.51100000000E-03 0.  1.
         11   -1    0    0    0    0 -0.00000000000E+00 -0.00000000000E+00 -0.45593999997E+02  0.45594000000E+02  0.51100000000E-03 0. -1.
    9900012    2    1    2    0    0  0.22064536529E+02  0.66179825320E+01  0.33504093581E+02  0.50528858940E+02  0.29999997233E+02 0.  0.
         12    1    1    2    0    0 -0.22064536529E+02 -0.66179825320E+01 -0.33504093581E+02  0.40659141060E+02  0.00000000000E+00 0. -1.
         11    1    3    3    0    0  0.89321006037E+01  0.13448523224E+01  0.24577948377E+01  0.93611860727E+01  0.51100000000E-03 0. -1.
        -11    1    3    3    0    0  0.11725410174E+02  0.10597617038E+02  0.31894290643E+02  0.35595512450E+02  0.51100000000E-03 0.  1.
        -12    1    3    3    0    0  0.14070257514E+01 -0.53244868287E+01 -0.84799189962E+00  0.55721604173E+01  0.00000000000E+00 0.  1.
</event>
<event>
 7    1  0.2891523E-011  0.5052892E+02  0.7816164E-02  0.1300439E+00
        -11   -1    0    0    0    0  0.00000000000E+00  0.00000000000E+00  0.45593999997E+02  0.45594000000E+02  0.51100000000E-03 0. -1.
         11   -1    0    0    0    0 -0.00000000000E+00 -0.00000000000E+00 -0.45593999997E+02  0.45594000000E+02  0.51100000000E-03 0.  1.
    9900012    2    1    2    0    0 -0.14829471642E+02 -0.37057897415E+02 -0.77433718927E+01  0.50528919855E+02  0.30000182390E+02 0.  0.
         12    1    1    2    0    0  0.14829471642E+02  0.37057897415E+02  0.77433718927E+01  0.40659080145E+02  0.00000000000E+00 0. -1.
         11    1    3    3    0    0 -0.40113512767E+01 -0.13467810136E+02 -0.14584543751E+02  0.20252944616E+02  0.51100000000E-03 0.  1.
        -11    1    3    3    0    0  0.20840927119E+00 -0.48405959614E+01  0.70128675068E+01  0.85237969600E+01  0.51100000000E-03 0. -1.
        -12    1    3    3    0    0 -0.11026529637E+02 -0.18749491318E+02 -0.17169564825E+00  0.21752178279E+02  0.00000000000E+00 0.  1.
</event>
<event>
 7    1  0.2891523E-011  0.5052885E+02  0.7816164E-02  0.1300439E+00
        -11   -1    0    0    0    0  0.00000000000E+00  0.00000000000E+00  0.45593999997E+02  0.45594000000E+02  0.51100000000E-03 0.  1.
         11   -1    0    0    0    0 -0.00000000000E+00 -0.00000000000E+00 -0.45593999997E+02  0.45594000000E+02  0.51100000000E-03 0. -1.
    9900012    2    1    2    0    0 -0.28937725449E+01  0.39045798350E+02  0.10964392694E+02  0.50528853483E+02  0.29999980647E+02 0.  0.
         12    1    1    2    0    0  0.28937725449E+01 -0.39045798350E+02 -0.10964392694E+02  0.40659146517E+02  0.00000000000E+00 0. -1.
         11    1    3    3    0    0 -0.24922406697E+01  0.49127171111E+01  0.14454251633E+02  0.15468401453E+02  0.51100000000E-03 0. -1.
        -11    1    3    3    0    0  0.73554549150E+00  0.74672617591E+01 -0.37077862023E+01  0.83695103878E+01  0.51100000000E-03 0.  1.
         12    1    3    3    0    0 -0.11370773667E+01  0.26665819480E+02  0.21792726373E+00  0.26690941643E+02  0.00000000000E+00 0. -1.
</event>
<event>
 7    1  0.2891523E-011  0.5052886E+02  0.7816164E-02  0.1300439E+00
        -11   -1    0    0    0    0  0.00000000000E+00  0.00000000000E+00  0.45593999997E+02  0.45594000000E+02  0.51100000000E-03 0.  1.
         11   -1    0    0    0    0 -0.00000000000E+00 -0.00000000000E+00 -0.45593999997E+02  0.45594000000E+02  0.51100000000E-03 0. -1.
    9900012    2    1    2    0    0 -0.22362600929E+02 -0.33901252246E+02  0.19455463490E+01  0.50528856198E+02  0.29999988898E+02 0.  0.
         12    1    1    2    0    0  0.22362600929E+02  0.33901252246E+02 -0.19455463490E+01  0.40659143802E+02  0.00000000000E+00 0. -1.
         11    1    3    3    0    0  0.36465905386E+01 -0.29171784459E-01  0.42900020015E+01  0.56305053933E+01  0.51100000000E-03 0. -1.
        -11    1    3    3    0    0 -0.20627358960E+02 -0.16853343172E+02  0.13482092698E+01  0.26670972652E+02  0.51100000000E-03 0.  1.
         12    1    3    3    0    0 -0.53818325081E+01 -0.17018737290E+02 -0.36926649223E+01  0.18227378152E+02  0.00000000000E+00 0. -1.
</event>
<event>
 7    1  0.2891523E-011  0.5052885E+02  0.7816164E-02  0.1300439E+00
        -11   -1    0    0    0    0  0.00000000000E+00  0.00000000000E+00  0.45593999997E+02  0.45594000000E+02  0.51100000000E-03 0. -1.
         11   -1    0    0    0    0 -0.00000000000E+00 -0.00000000000E+00 -0.45593999997E+02  0.45594000000E+02  0.51100000000E-03 0.  1.
    9900012    2    1    2    0    0  0.22174356778E+02  0.29416699894E+02 -0.17208205110E+02  0.50528847841E+02  0.29999963498E+02 0.  0.
         12    1    1    2    0    0 -0.22174356778E+02 -0.29416699894E+02  0.17208205110E+02  0.40659152159E+02  0.00000000000E+00 0. -1.
         11    1    3    3    0    0  0.13970160772E+02  0.17158537481E+01 -0.51427356314E+00  0.14084531360E+02  0.51100000000E-03 0. -1.
        -11    1    3    3    0    0  0.11434782789E+02  0.26640874709E+02 -0.14748280174E+02  0.32526946230E+02  0.51100000000E-03 0.  1.
         12    1    3    3    0    0 -0.32305867840E+01  0.10599714373E+01 -0.19456513729E+01  0.39173702508E+01  0.00000000000E+00 0. -1.
</event>
<event>
 7    1  0.2891523E-011  0.5052885E+02  0.7816164E-02  0.1300439E+00
        -11   -1    0    0    0    0  0.00000000000E+00  0.00000000000E+00  0.45593999997E+02  0.45594000000E+02  0.51100000000E-03 0.  1.
         11   -1    0    0    0    0 -0.00000000000E+00 -0.00000000000E+00 -0.45593999997E+02  0.45594000000E+02  0.51100000000E-03 0. -1.
    9900012    2    1    2    0    0  0.12187939855E+01 -0.40420103565E+02  0.42303591629E+01  0.50528853801E+02  0.29999981613E+02 0.  0.
         12    1    1    2    0    0 -0.12187939855E+01  0.40420103565E+02 -0.42303591629E+01  0.40659146199E+02  0.00000000000E+00 0. -1.
         11    1    3    3    0    0 -0.57296013217E+01 -0.73570200504E+01  0.65991362804E+01  0.11423776750E+02  0.51100000000E-03 0. -1.
        -11    1    3    3    0    0  0.61840043162E+00 -0.31217619794E+02 -0.56650681922E+01  0.31733502842E+02  0.51100000000E-03 0.  1.
        -12    1    3    3    0    0  0.63299948756E+01 -0.18454637204E+01  0.32962910747E+01  0.73715742089E+01  0.00000000000E+00 0.  1.
</event>
<event>
 7    1  0.2891523E-011  0.5052885E+02  0.7816164E-02  0.1300439E+00
        -11   -1    0    0    0    0  0.00000000000E+00  0.00000000000E+00  0.45593999997E+02  0.45594000000E+02  0.51100000000E-03 0.  1.
         11   -1    0    0    0    0 -0.00000000000E+00 -0.00000000000E+00 -0.45593999997E+02  0.45594000000E+02  0.51100000000E-03 0. -1.
    9900012    2    1    2    0    0  0.37890701190E+02 -0.14737961729E+02  0.50386360794E+00  0.50528848125E+02  0.29999964362E+02 0.  0.
         12    1    1    2    0    0 -0.37890701190E+02  0.14737961729E+02 -0.50386360794E+00  0.40659151875E+02  0.00000000000E+00 0. -1.
         11    1    3    3    0    0 -0.15707049352E+01  0.12738722438E+01  0.13582980433E+01  0.24361523603E+01  0.51100000000E-03 0. -1.
        -11    1    3    3    0    0  0.32664996851E+02 -0.42053086829E+01  0.49132865738E+01  0.33299054425E+02  0.51100000000E-03 0.  1.
        -12    1    3    3    0    0  0.67964092743E+01 -0.11806525290E+02 -0.57677210092E+01  0.14793641340E+02  0.00000000000E+00 0.  1.
</event>
<event>
 7    1  0.2891523E-011  0.5052886E+02  0.7816164E-02  0.1300439E+00
        -11   -1    0    0    0    0  0.00000000000E+00  0.00000000000E+00  0.45593999997E+02  0.45594000000E+02  0.51100000000E-03 0.  1.
         11   -1    0    0    0    0 -0.00000000000E+00 -0.00000000000E+00 -0.45593999997E+02  0.45594000000E+02  0.51100000000E-03 0. -1.
    9900012    2    1    2    0    0  0.40169442785E+02 -0.61232586973E+01  0.14446765997E+01  0.50528861775E+02  0.30000005851E+02 0.  0.
         12    1    1    2    0    0 -0.40169442785E+02  0.61232586973E+01 -0.14446765997E+01  0.40659138225E+02  0.00000000000E+00 0. -1.
         11    1    3    3    0    0  0.36958016443E+02 -0.24262038789E+01  0.88207262580E+01  0.38073437678E+02  0.51100000000E-03 0. -1.
        -11    1    3    3    0    0  0.58594331268E+01 -0.38385284819E+01 -0.36977209014E+01  0.79208836376E+01  0.51100000000E-03 0.  1.
         12    1    3    3    0    0 -0.26480067849E+01  0.14147366346E+00 -0.36783287569E+01  0.45345404590E+01  0.00000000000E+00 0. -1.
</event>
<event>
 7    1  0.2891523E-011  0.5052886E+02  0.7816164E-02  0.1300439E+00
        -11   -1    0    0    0    0  0.00000000000E+00  0.00000000000E+00  0.45593999997E+02  0.45594000000E+02  0.51100000000E-03 0.  1.
         11   -1    0    0    0    0 -0.00000000000E+00 -0.00000000000E+00 -0.45593999997E+02  0.45594000000E+02  0.51100000000E-03 0. -1.
    9900012    2    1    2    0    0 -0.21683679816E+02  0.83424456907E+01 -0.33367456270E+02  0.50528861932E+02  0.30000006330E+02 0.  0.
         12    1    1    2    0    0  0.21683679816E+02 -0.83424456907E+01  0.33367456270E+02  0.40659138068E+02  0.00000000000E+00 0. -1.
         11    1    3    3    0    0  0.28309696796E+01 -0.35464284975E+01 -0.33590251829E+00  0.45502060588E+01  0.51100000000E-03 0. -1.
        -11    1    3    3    0    0 -0.56160281080E+01  0.10669995774E+02 -0.18609994509E+02  0.22174771192E+02  0.51100000000E-03 0.  1.
        -12    1    3    3    0    0 -0.18898621388E+02  0.12188784140E+01 -0.14421559243E+02  0.23803884682E+02  0.00000000000E+00 0.  1.
</event>
<event>
 7    1  0.2891523E-011  0.5052886E+02  0.7816164E-02  0.1300439E+00
        -11   -1    0    0    0    0  0.00000000000E+00  0.00000000000E+00  0.45593999997E+02  0.45594000000E+02  0.51100000000E-03 0.  1.
         11   -1    0    0    0    0 -0.00000000000E+00 -0.00000000000E+00 -0.45593999997E+02  0.45594000000E+02  0.51100000000E-03 0. -1.
    9900012    2    1    2    0    0 -0.26828424459E+01  0.24807989739E+02  0.32101889678E+02  0.50528864257E+02  0.30000013396E+02 0.  0.
         12    1    1    2    0    0  0.26828424459E+01 -0.24807989739E+02 -0.32101889678E+02  0.40659135743E+02  0.00000000000E+00 0. -1.
         11    1    3    3    0    0 -0.59330597876E+01 -0.29357724242E+01  0.16979294224E+02  0.18224060766E+02  0.51100000000E-03 0. -1.
        -11    1    3    3    0    0  0.12520177904E+01  0.25016500419E+02  0.12322086087E+02  0.27914631424E+02  0.51100000000E-03 0.  1.
         12    1    3    3    0    0  0.19981995513E+01  0.27272617446E+01  0.28005093657E+01  0.43901720670E+01  0.00000000000E+00 0. -1.
</event>
<event>
 7    1  0.2891523E-011  0.5052886E+02  0.7816164E-02  0.1300439E+00
        -11   -1    0    0    0    0  0.00000000000E+00  0.00000000000E+00  0.45593999997E+02  0.45594000000E+02  0.51100000000E-03 0.  1.
         11   -1    0    0    0    0 -0.00000000000E+00 -0.00000000000E+00 -0.45593999997E+02  0.45594000000E+02  0.51100000000E-03 0. -1.
    9900012    2    1    2    0    0 -0.67673846322E+01 -0.52497624416E+01  0.39746797764E+02  0.50528862860E+02  0.30000009149E+02 0.  0.
         12    1    1    2    0    0  0.67673846322E+01  0.52497624416E+01 -0.39746797764E+02  0.40659137140E+02  0.00000000000E+00 0. -1.
         11    1    3    3    0    0  0.65179555415E+01  0.30657940581E+01  0.25713011686E+01  0.76481649831E+01  0.51100000000E-03 0. -1.
        -11    1    3    3    0    0 -0.40118199938E+01 -0.10735823324E+02  0.16477070535E+02  0.20071035244E+02  0.51100000000E-03 0.  1.
         12    1    3    3    0    0 -0.92735201799E+01  0.24202668240E+01  0.20698426060E+02  0.22809662632E+02  0.00000000000E+00 0. -1.
</event>
<event>
 7    1  0.2891523E-011  0.5052886E+02  0.7816164E-02  0.1300439E+00
        -11   -1    0    0    0    0  0.00000000000E+00  0.00000000000E+00  0.45593999997E+02  0.45594000000E+02  0.51100000000E-03 0.  1.
         11   -1    0    0    0    0 -0.00000000000E+00 -0.00000000000E+00 -0.45593999997E+02  0.45594000000E+02  0.51100000000E-03 0. -1.
    9900012    2    1    2    0    0  0.17436340800E+02 -0.18798586292E+02  0.31555549330E+02  0.50528861782E+02  0.30000005873E+02 0.  0.
         12    1    1    2    0    0 -0.17436340800E+02  0.18798586292E+02 -0.31555549330E+02  0.40659138218E+02  0.00000000000E+00 0. -1.
         11    1    3    3    0    0  0.43838045495E+00  0.54984479007E+00 -0.41333585249E+01  0.41927508479E+01  0.51100000000E-03 0. -1.
        -11    1    3    3    0    0  0.14521575332E+02 -0.13356069290E+02  0.34501538132E+02  0.39744394205E+02  0.51100000000E-03 0.  1.
         12    1    3    3    0    0  0.24763850128E+01 -0.59923617922E+01  0.11873697235E+01  0.65917167294E+01  0.00000000000E+00 0. -1.
</event>
<event>
 7    1  0.2891523E-011  0.5052886E+02  0.7816164E-02  0.1300439E+00
        -11   -1    0    0    0    0  0.00000000000E+00  0.00000000000E+00  0.45593999997E+02  0.45594000000E+02  0.51100000000E-03 0.  1.
         11   -1    0    0    0    0 -0.00000000000E+00 -0.00000000000E+00 -0.45593999997E+02  0.45594000000E+02  0.51100000000E-03 0. -1.
    9900012    2    1    2    0    0 -0.34568169996E+02 -0.68365054054E+01  0.20284703121E+02  0.50528863711E+02  0.30000011737E+02 0.  0.
         12    1    1    2    0    0  0.34568169996E+02  0.68365054054E+01 -0.20284703121E+02  0.40659136289E+02  0.00000000000E+00 0. -1.
         11    1    3    3    0    0 -0.32472041297E+02  0.26010766605E+01  0.18514123088E+02  0.37469611951E+02  0.51100000000E-03 0. -1.
        -11    1    3    3    0    0 -0.17703578145E+01  0.12195745535E+01 -0.37808715254E+00  0.21827686636E+01  0.51100000000E-03 0.  1.
         12    1    3    3    0    0 -0.32577088445E+00 -0.10657156619E+02  0.21486671857E+01  0.10876483097E+02  0.00000000000E+00 0. -1.
</event>
<event>
 7    1  0.2891523E-011  0.5052886E+02  0.7816164E-02  0.1300439E+00
        -11   -1    0    0    0    0  0.00000000000E+00  0.00000000000E+00  0.45593999997E+02  0.45594000000E+02  0.51100000000E-03 0. -1.
         11   -1    0    0    0    0 -0.00000000000E+00 -0.00000000000E+00 -0.45593999997E+02  0.45594000000E+02  0.51100000000E-03 0.  1.
    9900012    2    1    2    0    0  0.52575845922E+01 -0.70890761640E+01 -0.39689651804E+02  0.50528860106E+02  0.30000000777E+02 0.  0.
         12    1    1    2    0    0 -0.52575845922E+01  0.70890761640E+01  0.39689651804E+02  0.40659139894E+02  0.00000000000E+00 0. -1.
         11    1    3    3    0    0 -0.37813049748E+01  0.48322837750E+01 -0.15343170278E+01  0.63248211672E+01  0.51100000000E-03 0. -1.
        -11    1    3    3    0    0  0.52676362621E+01 -0.77788339722E+01 -0.37387342419E+02  0.38549599520E+02  0.51100000000E-03 0.  1.
        -12    1    3    3    0    0  0.37712533049E+01 -0.41425259669E+01 -0.76799235797E+00  0.56544394186E+01  0.00000000000E+00 0.  1.
</event>
<event>
 7    1  0.2891523E-011  0.5052896E+02  0.7816164E-02  0.1300438E+00
        -11   -1    0    0    0    0  0.00000000000E+00  0.00000000000E+00  0.45593999997E+02  0.45594000000E+02  0.51100000000E-03 0.  1.
         11   -1    0    0    0    0 -0.00000000000E+00 -0.00000000000E+00 -0.45593999997E+02  0.45594000000E+02  0.51100000000E-03 0. -1.
    9900012    2    1    2    0    0  0.36925381668E+02  0.62706153720E+01  0.15822551780E+02  0.50528959513E+02  0.30000302936E+02 0.  0.
         12    1    1    2    0    0 -0.36925381668E+02 -0.62706153720E+01 -0.15822551780E+02  0.40659040487E+02  0.00000000000E+00 0. -1.
         11    1    3    3    0    0  0.26853071003E+01 -0.30095597152E+01 -0.55421639274E+01  0.68544806631E+01  0.51100000000E-03 0. -1.
        -11    1    3    3    0    0  0.13243705062E+02  0.86287420608E+01  0.37145314408E+01  0.16237261389E+02  0.51100000000E-03 0.  1.
         12    1    3    3    0    0  0.20996369506E+02  0.65143302648E+00  0.17650184266E+02  0.27437217462E+02  0.00000000000E+00 0. -1.
</event>
<event>
 7    1  0.2891523E-011  0.5052885E+02  0.7816164E-02  0.1300439E+00
        -11   -1    0    0    0    0  0.00000000000E+00  0.00000000000E+00  0.45593999997E+02  0.45594000000E+02  0.51100000000E-03 0. -1.
         11   -1    0    0    0    0 -0.00000000000E+00 -0.00000000000E+00 -0.45593999997E+02  0.45594000000E+02  0.51100000000E-03 0.  1.
    9900012    2    1    2    0    0 -0.19887376804E+02  0.35126268474E+02 -0.48789526207E+01  0.50528847627E+02  0.29999962846E+02 0.  0.
         12    1    1    2    0    0  0.19887376804E+02 -0.35126268474E+02  0.48789526207E+01  0.40659152373E+02  0.00000000000E+00 0. -1.
         11    1    3    3    0    0 -0.15059434739E+02  0.20734686268E+02 -0.60106403836E+01  0.26321884191E+02  0.51100000000E-03 0.  1.
        -11    1    3    3    0    0 -0.23644936432E+01  0.45232918770E+01  0.96652624821E+01  0.10930155475E+02  0.51100000000E-03 0. -1.
         12    1    3    3    0    0 -0.24634484220E+01  0.98682903285E+01 -0.85335747193E+01  0.13276807961E+02  0.00000000000E+00 0. -1.
</event>
<event>
 7    1  0.2891523E-011  0.5052881E+02  0.7816164E-02  0.1300439E+00
        -11   -1    0    0    0    0  0.00000000000E+00  0.00000000000E+00  0.45593999997E+02  0.45594000000E+02  0.51100000000E-03 0.  1.
         11   -1    0    0    0    0 -0.00000000000E+00 -0.00000000000E+00 -0.45593999997E+02  0.45594000000E+02  0.51100000000E-03 0. -1.
    9900012    2    1    2    0    0 -0.78715853354E+01 -0.36320172598E+01  0.39724252715E+02  0.50528810893E+02  0.29999851191E+02 0.  0.
         12    1    1    2    0    0  0.78715853354E+01  0.36320172598E+01 -0.39724252715E+02  0.40659189107E+02  0.00000000000E+00 0. -1.
         11    1    3    3    0    0 -0.16701272770E+02 -0.93344381179E+01  0.26614429925E+02  0.32777921344E+02  0.51100000000E-03 0. -1.
        -11    1    3    3    0    0  0.55966471857E+01  0.32916067207E+00  0.51059489167E+01  0.75829757398E+01  0.51100000000E-03 0.  1.
         12    1    3    3    0    0  0.32330402488E+01  0.53732601860E+01  0.80038738727E+01  0.10167913810E+02  0.00000000000E+00 0. -1.
</event>
<event>
 7    1  0.2891523E-011  0.5052886E+02  0.7816164E-02  0.1300439E+00
        -11   -1    0    0    0    0  0.00000000000E+00  0.00000000000E+00  0.45593999997E+02  0.45594000000E+02  0.51100000000E-03 0. -1.
         11   -1    0    0    0    0 -0.00000000000E+00 -0.00000000000E+00 -0.45593999997E+02  0.45594000000E+02  0.51100000000E-03 0.  1.
    9900012    2    1    2    0    0 -0.86648452310E+01  0.39080048110E+02  0.71299476095E+01  0.50528857657E+02  0.29999993334E+02 0.  0.
         12    1    1    2    0    0  0.86648452310E+01 -0.39080048110E+02 -0.71299476095E+01  0.40659142343E+02  0.00000000000E+00 0. -1.
         11    1    3    3    0    0 -0.15023343982E+02  0.17962291313E+02 -0.28399742190E+01  0.23588349400E+02  0.51100000000E-03 0. -1.
        -11    1    3    3    0    0  0.51202569689E+01  0.14509221839E+01  0.20782657089E+01  0.57132648485E+01  0.51100000000E-03 0.  1.
         12    1    3    3    0    0  0.12382417817E+01  0.19666834613E+02  0.78916561196E+01  0.21227243408E+02  0.00000000000E+00 0. -1.
</event>
<event>
 7    1  0.2891523E-011  0.5052895E+02  0.7816164E-02  0.1300438E+00
        -11   -1    0    0    0    0  0.00000000000E+00  0.00000000000E+00  0.45593999997E+02  0.45594000000E+02  0.51100000000E-03 0.  1.
         11   -1    0    0    0    0 -0.00000000000E+00 -0.00000000000E+00 -0.45593999997E+02  0.45594000000E+02  0.51100000000E-03 0. -1.
    9900012    2    1    2    0    0 -0.22281018769E+02  0.13709508234E+02  0.31124977125E+02  0.50528946710E+02  0.30000264019E+02 0.  0.
         12    1    1    2    0    0  0.22281018769E+02 -0.13709508234E+02 -0.31124977125E+02  0.40659053290E+02  0.00000000000E+00 0. -1.
         11    1    3    3    0    0 -0.10261234705E+02 -0.18108553000E+01  0.23431359217E+02  0.25643726906E+02  0.51100000000E-03 0. -1.
        -11    1    3    3    0    0 -0.13262443436E+02  0.13805685290E+02  0.25377098771E+01  0.19311378094E+02  0.51100000000E-03 0.  1.
        -12    1    3    3    0    0  0.12426593715E+01  0.17146782443E+01  0.51559080299E+01  0.55738417100E+01  0.00000000000E+00 0.  1.
</event>
<event>
 7    1  0.2891523E-011  0.5052883E+02  0.7816164E-02  0.1300439E+00
        -11   -1    0    0    0    0  0.00000000000E+00  0.00000000000E+00  0.45593999997E+02  0.45594000000E+02  0.51100000000E-03 0.  1.
         11   -1    0    0    0    0 -0.00000000000E+00 -0.00000000000E+00 -0.45593999997E+02  0.45594000000E+02  0.51100000000E-03 0. -1.
    9900012    2    1    2    0    0  0.10364888745E+00  0.49232671888E+01  0.40359869920E+02  0.50528826338E+02  0.29999898137E+02 0.  0.
         12    1    1    2    0    0 -0.10364888745E+00 -0.49232671888E+01 -0.40359869920E+02  0.40659173662E+02  0.00000000000E+00 0. -1.
         11    1    3    3    0    0 -0.52740683870E+01 -0.91812245682E+01  0.10239019814E+02  0.14729161855E+02  0.51100000000E-03 0. -1.
        -11    1    3    3    0    0  0.35658100638E+01  0.10523423780E+02  0.29764179990E+02  0.31770487251E+02  0.51100000000E-03 0.  1.
         12    1    3    3    0    0  0.18119072107E+01  0.35810679768E+01  0.35667011608E+00  0.40291772319E+01  0.00000000000E+00 0. -1.
</event>
<event>
 7    1  0.2891523E-011  0.5052886E+02  0.7816164E-02  0.1300439E+00
        -11   -1    0    0    0    0  0.00000000000E+00  0.00000000000E+00  0.45593999997E+02  0.45594000000E+02  0.51100000000E-03 0.  1.
         11   -1    0    0    0    0 -0.00000000000E+00 -0.00000000000E+00 -0.45593999997E+02  0.45594000000E+02  0.51100000000E-03 0. -1.
    9900012    2    1    2    0    0 -0.49155830276E+01 -0.25385373466E+01  0.40280995156E+02  0.50528859587E+02  0.29999999201E+02 0.  0.
         12    1    1    2    0    0  0.49155830276E+01  0.25385373466E+01 -0.40280995156E+02  0.40659140413E+02  0.00000000000E+00 0. -1.
         11    1    3    3    0    0  0.12146943407E+01  0.26643209767E+01  0.37317096090E+01  0.47433896610E+01  0.51100000000E-03 0. -1.
        -11    1    3    3    0    0  0.64331590961E+01 -0.93112773265E+01  0.27579299407E+02  0.29811125062E+02  0.51100000000E-03 0.  1.
        -12    1    3    3    0    0 -0.12563436464E+02  0.41084190031E+01  0.89699861401E+01  0.15974344865E+02  0.00000000000E+00 0.  1.
</event>
<event>
 7    1  0.2891523E-011  0.5052887E+02  0.7816164E-02  0.1300439E+00
        -11   -1    0    0    0    0  0.00000000000E+00  0.00000000000E+00  0.45593999997E+02  0.45594000000E+02  0.51100000000E-03 0.  1.
         11   -1    0    0    0    0 -0.00000000000E+00 -0.00000000000E+00 -0.45593999997E+02  0.45594000000E+02  0.51100000000E-03 0. -1.
    9900012    2    1    2    0    0  0.15460766370E+02 -0.13284288762E+02  0.35180348820E+02  0.50528873500E+02  0.30000041491E+02 0.  0.
         12    1    1    2    0    0 -0.15460766370E+02  0.13284288762E+02 -0.35180348820E+02  0.40659126500E+02  0.00000000000E+00 0. -1.
         11    1    3    3    0    0  0.18886526221E+02 -0.12422275627E+02  0.30912647009E+02  0.38296286371E+02  0.51100000000E-03 0. -1.
        -11    1    3    3    0    0 -0.70413703622E+01 -0.25242893843E+01  0.29464054235E+01  0.80395421918E+01  0.51100000000E-03 0.  1.
         12    1    3    3    0    0  0.36156105121E+01  0.16622762499E+01  0.13212963871E+01  0.41930449376E+01  0.00000000000E+00 0. -1.
</event>
<event>
 7    1  0.2891523E-011  0.5052886E+02  0.7816164E-02  0.1300439E+00
        -11   -1    0    0    0    0  0.00000000000E+00  0.00000000000E+00  0.45593999997E+02  0.45594000000E+02  0.51100000000E-03 0.  1.
         11   -1    0    0    0    0 -0.00000000000E+00 -0.00000000000E+00 -0.45593999997E+02  0.45594000000E+02  0.51100000000E-03 0. -1.
    9900012    2    1    2    0    0  0.39632129631E+01  0.97474467362E+01  0.39273985932E+02  0.50528859012E+02  0.29999997454E+02 0.  0.
         12    1    1    2    0    0 -0.39632129631E+01 -0.97474467362E+01 -0.39273985932E+02  0.40659140988E+02  0.00000000000E+00 0. -1.
         11    1    3    3    0    0 -0.71463514933E+00 -0.98072862035E+01  0.16481839550E+02  0.19192305784E+02  0.51100000000E-03 0. -1.
        -11    1    3    3    0    0  0.66840709482E+01  0.14024222338E+02  0.17748319932E+02  0.23587252432E+02  0.51100000000E-03 0.  1.
        -12    1    3    3    0    0 -0.20062228358E+01  0.55305106017E+01  0.50438264499E+01  0.77493007968E+01  0.00000000000E+00 0.  1.
</event>
<event>
 7    1  0.2891523E-011  0.5052885E+02  0.7816164E-02  0.1300439E+00
        -11   -1    0    0    0    0  0.00000000000E+00  0.00000000000E+00  0.45593999997E+02  0.45594000000E+02  0.51100000000E-03 0.  1.
         11   -1    0    0    0    0 -0.00000000000E+00 -0.00000000000E+00 -0.45593999997E+02  0.45594000000E+02  0.51100000000E-03 0. -1.
    9900012    2    1    2    0    0  0.57096260578E+01  0.26879871738E+02  0.29967303594E+02  0.50528848274E+02  0.29999964815E+02 0.  0.
         12    1    1    2    0    0 -0.57096260578E+01 -0.26879871738E+02 -0.29967303594E+02  0.40659151726E+02  0.00000000000E+00 0. -1.
         11    1    3    3    0    0 -0.12464041405E+01 -0.61969005748E+00  0.20082570409E+01  0.24434884187E+01  0.51100000000E-03 0. -1.
        -11    1    3    3    0    0  0.11248861765E+02  0.29670721554E+02  0.16735537033E+02  0.35874319626E+02  0.51100000000E-03 0.  1.
        -12    1    3    3    0    0 -0.42928315671E+01 -0.21711597586E+01  0.11223509520E+02  0.12211040230E+02  0.00000000000E+00 0.  1.
</event>
<event>
 7    1  0.2891523E-011  0.5052886E+02  0.7816164E-02  0.1300439E+00
        -11   -1    0    0    0    0  0.00000000000E+00  0.00000000000E+00  0.45593999997E+02  0.45594000000E+02  0.51100000000E-03 0.  1.
         11   -1    0    0    0    0 -0.00000000000E+00 -0.00000000000E+00 -0.45593999997E+02  0.45594000000E+02  0.51100000000E-03 0. -1.
    9900012    2    1    2    0    0 -0.22775938147E+02 -0.32962565211E+02  0.69203862939E+01  0.50528858221E+02  0.29999995049E+02 0.  0.
         12    1    1    2    0    0  0.22775938147E+02  0.32962565211E+02 -0.69203862939E+01  0.40659141779E+02  0.00000000000E+00 0. -1.
         11    1    3    3    0    0  0.53827372608E+01 -0.39041657822E+01  0.46599635425E+01  0.81198295150E+01  0.51100000000E-03 0. -1.
        -11    1    3    3    0    0 -0.21400097291E+02 -0.16512902601E+02  0.59745712710E+01  0.27682767537E+02  0.51100000000E-03 0.  1.
        -12    1    3    3    0    0 -0.67585781167E+01 -0.12545496827E+02 -0.37141485196E+01  0.14726261169E+02  0.00000000000E+00 0.  1.
</event>
<event>
 7    1  0.2891523E-011  0.5052886E+02  0.7816164E-02  0.1300439E+00
        -11   -1    0    0    0    0  0.00000000000E+00  0.00000000000E+00  0.45593999997E+02  0.45594000000E+02  0.51100000000E-03 0. -1.
         11   -1    0    0    0    0 -0.00000000000E+00 -0.00000000000E+00 -0.45593999997E+02  0.45594000000E+02  0.51100000000E-03 0.  1.
    9900012    2    1    2    0    0  0.33325390327E+02  0.20392877525E+02  0.11256765549E+02  0.50528857549E+02  0.29999993006E+02 0.  0.
         12    1    1    2    0    0 -0.33325390327E+02 -0.20392877525E+02 -0.11256765549E+02  0.40659142451E+02  0.00000000000E+00 0. -1.
         11    1    3    3    0    0  0.29861182612E+01 -0.29583973137E+01  0.98662536531E+01  0.10724363773E+02  0.51100000000E-03 0. -1.
        -11    1    3    3    0    0  0.23188630251E+02  0.17088862788E+02  0.57068803267E+01  0.29365120256E+02  0.51100000000E-03 0.  1.
         12    1    3    3    0    0  0.71506418148E+01  0.62624120507E+01 -0.43163684307E+01  0.10439373520E+02  0.00000000000E+00 0. -1.
</event>
<event>
 7    1  0.2891523E-011  0.5052887E+02  0.7816164E-02  0.1300439E+00
        -11   -1    0    0    0    0  0.00000000000E+00  0.00000000000E+00  0.45593999997E+02  0.45594000000E+02  0.51100000000E-03 0. -1.
         11   -1    0    0    0    0 -0.00000000000E+00 -0.00000000000E+00 -0.45593999997E+02  0.45594000000E+02  0.51100000000E-03 0.  1.
    9900012    2    1    2    0    0  0.27304474606E+02  0.86252462511E+01 -0.28865827993E+02  0.50528865330E+02  0.30000016657E+02 0.  0.
         12    1    1    2    0    0 -0.27304474606E+02 -0.86252462511E+01  0.28865827993E+02  0.40659134670E+02  0.00000000000E+00 0. -1.
         11    1    3    3    0    0  0.21625373388E+02  0.22638492545E+01 -0.45484765005E+01  0.22214194254E+02  0.51100000000E-03 0. -1.
        -11    1    3    3    0    0  0.61735623521E+01 -0.12366247863E+01 -0.15094032302E+02  0.16354568914E+02  0.51100000000E-03 0.  1.
         12    1    3    3    0    0 -0.49446113454E+00  0.75980217829E+01 -0.92233191899E+01  0.11960102161E+02  0.00000000000E+00 0. -1.
</event>
<event>
 7    1  0.2891523E-011  0.5052885E+02  0.7816164E-02  0.1300439E+00
        -11   -1    0    0    0    0  0.00000000000E+00  0.00000000000E+00  0.45593999997E+02  0.45594000000E+02  0.51100000000E-03 0. -1.
         11   -1    0    0    0    0 -0.00000000000E+00 -0.00000000000E+00 -0.45593999997E+02  0.45594000000E+02  0.51100000000E-03 0.  1.
    9900012    2    1    2    0    0 -0.27174816452E+02 -0.18279252491E+02 -0.24094913041E+02  0.50528849059E+02  0.29999967198E+02 0.  0.
         12    1    1    2    0    0  0.27174816452E+02  0.18279252491E+02  0.24094913041E+02  0.40659150941E+02  0.00000000000E+00 0. -1.
         11    1    3    3    0    0 -0.46219709862E+01 -0.89634418962E+01 -0.13025552223E+02  0.16473339595E+02  0.51100000000E-03 0. -1.
        -11    1    3    3    0    0 -0.23748264116E+01 -0.55913609961E+00  0.58281518592E+01  0.63182108241E+01  0.51100000000E-03 0.  1.
        -12    1    3    3    0    0 -0.20178019054E+02 -0.87566744954E+01 -0.16897512677E+02  0.27737298640E+02  0.00000000000E+00 0.  1.
</event>
<event>
 7    1  0.2891523E-011  0.5052887E+02  0.7816164E-02  0.1300439E+00
        -11   -1    0    0    0    0  0.00000000000E+00  0.00000000000E+00  0.45593999997E+02  0.45594000000E+02  0.51100000000E-03 0. -1.
         11   -1    0    0    0    0 -0.00000000000E+00 -0.00000000000E+00 -0.45593999997E+02  0.45594000000E+02  0.51100000000E-03 0.  1.
    9900012    2    1    2    0    0 -0.33290719619E+02  0.21363225762E+02 -0.94077258275E+01  0.50528871469E+02  0.30000035316E+02 0.  0.
         12    1    1    2    0    0  0.33290719619E+02 -0.21363225762E+02  0.94077258275E+01  0.40659128531E+02  0.00000000000E+00 0. -1.
         11    1    3    3    0    0 -0.18660864430E+02  0.24462491338E+02  0.27179352674E+01  0.30887352041E+02  0.51100000000E-03 0. -1.
        -11    1    3    3    0    0 -0.77145695135E+01 -0.88174800927E+00 -0.39687472338E+01  0.87202647435E+01  0.51100000000E-03 0.  1.
         12    1    3    3    0    0 -0.69152856753E+01 -0.22175175674E+01 -0.81569138611E+01  0.10921254684E+02  0.00000000000E+00 0. -1.
</event>
<event>
 7    1  0.2891523E-011  0.5052887E+02  0.7816164E-02  0.1300439E+00
        -11   -1    0    0    0    0  0.00000000000E+00  0.00000000000E+00  0.45593999997E+02  0.45594000000E+02  0.51100000000E-03 0.  1.
         11   -1    0    0    0    0 -0.00000000000E+00 -0.00000000000E+00 -0.45593999997E+02  0.45594000000E+02  0.51100000000E-03 0. -1.
    9900012    2    1    2    0    0  0.31732596709E+02 -0.17714914398E+02  0.18231528654E+02  0.50528874050E+02  0.30000043161E+02 0.  0.
         12    1    1    2    0    0 -0.31732596709E+02  0.17714914398E+02 -0.18231528654E+02  0.40659125950E+02  0.00000000000E+00 0. -1.
         11    1    3    3    0    0 -0.77246131629E+00  0.20920980790E+01 -0.28908731249E+01  0.36511256542E+01  0.51100000000E-03 0. -1.
        -11    1    3    3    0    0  0.26059438496E+02 -0.16677271997E+02  0.80480393296E+01  0.31968682696E+02  0.51100000000E-03 0.  1.
        -12    1    3    3    0    0  0.64456195285E+01 -0.31297404793E+01  0.13074362449E+02  0.14909065699E+02  0.00000000000E+00 0.  1.
</event>
<event>
 7    1  0.2891523E-011  0.5052885E+02  0.7816164E-02  0.1300439E+00
        -11   -1    0    0    0    0  0.00000000000E+00  0.00000000000E+00  0.45593999997E+02  0.45594000000E+02  0.51100000000E-03 0. -1.
         11   -1    0    0    0    0 -0.00000000000E+00 -0.00000000000E+00 -0.45593999997E+02  0.45594000000E+02  0.51100000000E-03 0.  1.
    9900012    2    1    2    0    0 -0.70613143037E+01  0.27192083721E+02 -0.29392084476E+02  0.50528853346E+02  0.29999980231E+02 0.  0.
         12    1    1    2    0    0  0.70613143037E+01 -0.27192083721E+02  0.29392084476E+02  0.40659146654E+02  0.00000000000E+00 0. -1.
         11    1    3    3    0    0 -0.11937560426E+02  0.64483086480E+01 -0.35616924353E+01  0.14027533162E+02  0.51100000000E-03 0. -1.
        -11    1    3    3    0    0  0.10095573949E+02  0.13308054453E+02 -0.16921115701E+02  0.23777070541E+02  0.51100000000E-03 0.  1.
        -12    1    3    3    0    0 -0.52193278264E+01  0.74357206201E+01 -0.89092763392E+01  0.12724249643E+02  0.00000000000E+00 0.  1.
</event>
<event>
 7    1  0.2891523E-011  0.5052887E+02  0.7816164E-02  0.1300439E+00
        -11   -1    0    0    0    0  0.00000000000E+00  0.00000000000E+00  0.45593999997E+02  0.45594000000E+02  0.51100000000E-03 0.  1.
         11   -1    0    0    0    0 -0.00000000000E+00 -0.00000000000E+00 -0.45593999997E+02  0.45594000000E+02  0.51100000000E-03 0. -1.
    9900012    2    1    2    0    0 -0.16520630338E+02 -0.20904940049E+02  0.30711844461E+02  0.50528866519E+02  0.30000020272E+02 0.  0.
         12    1    1    2    0    0  0.16520630338E+02  0.20904940049E+02 -0.30711844461E+02  0.40659133481E+02  0.00000000000E+00 0. -1.
         11    1    3    3    0    0 -0.59918859224E+01  0.49461008665E+01  0.31660284703E+01  0.83898955431E+01  0.51100000000E-03 0. -1.
        -11    1    3    3    0    0 -0.12572638026E+02 -0.26649725864E+02  0.26771503929E+02  0.39811964765E+02  0.51100000000E-03 0.  1.
        -12    1    3    3    0    0  0.20438936104E+01  0.79868494890E+00  0.77431206187E+00  0.23270062113E+01  0.00000000000E+00 0.  1.
</event>
<event>
 7    1  0.2891523E-011  0.5052886E+02  0.7816164E-02  0.1300439E+00
        -11   -1    0    0    0    0  0.00000000000E+00  0.00000000000E+00  0.45593999997E+02  0.45594000000E+02  0.51100000000E-03 0. -1.
         11   -1    0    0    0    0 -0.00000000000E+00 -0.00000000000E+00 -0.45593999997E+02  0.45594000000E+02  0.51100000000E-03 0.  1.
    9900012    2    1    2    0    0  0.39398122420E+02  0.73799106713E+01  0.68183898194E+01  0.50528861156E+02  0.30000003971E+02 0.  0.
         12    1    1    2    0    0 -0.39398122420E+02 -0.73799106713E+01 -0.68183898194E+01  0.40659138844E+02  0.00000000000E+00 0. -1.
         11    1    3    3    0    0  0.13461592921E+02 -0.31500060152E+01 -0.91806484328E+01  0.16595822600E+02  0.51100000000E-03 0. -1.
        -11    1    3    3    0    0  0.16265213772E+02  0.10422672212E+01  0.75140562951E+01  0.17947271165E+02  0.51100000000E-03 0.  1.
         12    1    3    3    0    0  0.96713157278E+01  0.94876494653E+01  0.84849819571E+01  0.15985767392E+02  0.00000000000E+00 0. -1.
</event>
<event>
 7    1  0.2891523E-011  0.5052887E+02  0.7816164E-02  0.1300439E+00
        -11   -1    0    0    0    0  0.00000000000E+00  0.00000000000E+00  0.45593999997E+02  0.45594000000E+02  0.51100000000E-03 0.  1.
         11   -1    0    0    0    0 -0.00000000000E+00 -0.00000000000E+00 -0.45593999997E+02  0.45594000000E+02  0.51100000000E-03 0. -1.
    9900012    2    1    2    0    0 -0.43167555702E+01 -0.83967524563E+01  0.39547755753E+02  0.50528870453E+02  0.30000032229E+02 0.  0.
         12    1    1    2    0    0  0.43167555702E+01  0.83967524563E+01 -0.39547755753E+02  0.40659129547E+02  0.00000000000E+00 0. -1.
         11    1    3    3    0    0  0.66836436172E+01  0.59578751535E+01  0.19611469808E+02  0.21558690049E+02  0.51100000000E-03 0. -1.
        -11    1    3    3    0    0 -0.10430810210E+02 -0.94275919520E+01  0.19431552999E+02  0.23984714796E+02  0.51100000000E-03 0.  1.
         12    1    3    3    0    0 -0.56958897729E+00 -0.49270356578E+01  0.50473294585E+00  0.49854656075E+01  0.00000000000E+00 0. -1.
</event>
<event>
 7    1  0.2891523E-011  0.5052886E+02  0.7816164E-02  0.1300439E+00
        -11   -1    0    0    0    0  0.00000000000E+00  0.00000000000E+00  0.45593999997E+02  0.45594000000E+02  0.51100000000E-03 0. -1.
         11   -1    0    0    0    0 -0.00000000000E+00 -0.00000000000E+00 -0.45593999997E+02  0.45594000000E+02  0.51100000000E-03 0.  1.
    9900012    2    1    2    0    0 -0.22530091500E+02 -0.29760236892E+02 -0.16121068768E+02  0.50528861039E+02  0.30000003614E+02 0.  0.
         12    1    1    2    0    0  0.22530091500E+02  0.29760236892E+02  0.16121068768E+02  0.40659138961E+02  0.00000000000E+00 0. -1.
         11    1    3    3    0    0 -0.10908194095E+02  0.27842499493E+01 -0.39621750366E+01  0.11934805297E+02  0.51100000000E-03 0. -1.
        -11    1    3    3    0    0 -0.12916216234E+02 -0.27432059260E+02 -0.13441571386E+02  0.33166584971E+02  0.51100000000E-03 0.  1.
         12    1    3    3    0    0  0.12943188292E+01 -0.51124275809E+01  0.12826776552E+01  0.54274707709E+01  0.00000000000E+00 0. -1.
</event>
<event>
 7    1  0.2891523E-011  0.5052885E+02  0.7816164E-02  0.1300439E+00
        -11   -1    0    0    0    0  0.00000000000E+00  0.00000000000E+00  0.45593999997E+02  0.45594000000E+02  0.51100000000E-03 0.  1.
         11   -1    0    0    0    0 -0.00000000000E+00 -0.00000000000E+00 -0.45593999997E+02  0.45594000000E+02  0.51100000000E-03 0. -1.
    9900012    2    1    2    0    0 -0.15243449744E+02  0.11533785106E+02  0.35885585213E+02  0.50528853611E+02  0.29999981036E+02 0.  0.
         12    1    1    2    0    0  0.15243449744E+02 -0.11533785106E+02 -0.35885585213E+02  0.40659146389E+02  0.00000000000E+00 0. -1.
         11    1    3    3    0    0 -0.15824401091E+02  0.12357710625E+01  0.31642789590E+01  0.16184914630E+02  0.51100000000E-03 0. -1.
        -11    1    3    3    0    0 -0.34791821138E+00  0.51595827824E+01  0.14802617249E+02  0.15679917705E+02  0.51100000000E-03 0.  1.
         12    1    3    3    0    0  0.92886955830E+00  0.51384312616E+01  0.17918689006E+02  0.18664021275E+02  0.00000000000E+00 0. -1.
</event>
<event>
 7    1  0.2891523E-011  0.5052886E+02  0.7816164E-02  0.1300439E+00
        -11   -1    0    0    0    0  0.00000000000E+00  0.00000000000E+00  0.45593999997E+02  0.45594000000E+02  0.51100000000E-03 0.  1.
         11   -1    0    0    0    0 -0.00000000000E+00 -0.00000000000E+00 -0.45593999997E+02  0.45594000000E+02  0.51100000000E-03 0. -1.
    9900012    2    1    2    0    0  0.37704487192E+01  0.38665542963E+02 -0.11996873735E+02  0.50528862336E+02  0.30000007556E+02 0.  0.
         12    1    1    2    0    0 -0.37704487192E+01 -0.38665542963E+02  0.11996873735E+02  0.40659137664E+02  0.00000000000E+00 0. -1.
         11    1    3    3    0    0  0.27291189752E+01  0.36629387607E+02 -0.41730140922E+01  0.36967204029E+02  0.51100000000E-03 0. -1.
        -11    1    3    3    0    0 -0.32188431441E+01  0.36405368884E+00  0.11912079790E+01  0.34514436089E+01  0.51100000000E-03 0.  1.
         12    1    3    3    0    0  0.42601728882E+01  0.16721016675E+01 -0.90150676215E+01  0.10110214698E+02  0.00000000000E+00 0. -1.
</event>
<event>
 7    1  0.2891523E-011  0.5052886E+02  0.7816164E-02  0.1300439E+00
        -11   -1    0    0    0    0  0.00000000000E+00  0.00000000000E+00  0.45593999997E+02  0.45594000000E+02  0.51100000000E-03 0.  1.
         11   -1    0    0    0    0 -0.00000000000E+00 -0.00000000000E+00 -0.45593999997E+02  0.45594000000E+02  0.51100000000E-03 0. -1.
    9900012    2    1    2    0    0 -0.96328155067E+01  0.26087836893E+02  0.29661406781E+02  0.50528863012E+02  0.30000009612E+02 0.  0.
         12    1    1    2    0    0  0.96328155067E+01 -0.26087836893E+02 -0.29661406781E+02  0.40659136988E+02  0.00000000000E+00 0. -1.
         11    1    3    3    0    0  0.20246573351E+01  0.90403830245E+01  0.89662384911E+00  0.93076150082E+01  0.51100000000E-03 0. -1.
        -11    1    3    3    0    0 -0.60430616562E+01  0.12484630170E+02  0.30737782518E+02  0.33722334721E+02  0.51100000000E-03 0.  1.
        -12    1    3    3    0    0 -0.56144111855E+01  0.45628236986E+01 -0.19729995853E+01  0.74989132831E+01  0.00000000000E+00 0.  1.
</event>
<event>
 7    1  0.2891523E-011  0.5052886E+02  0.7816164E-02  0.1300439E+00
        -11   -1    0    0    0    0  0.00000000000E+00  0.00000000000E+00  0.45593999997E+02  0.45594000000E+02  0.51100000000E-03 0.  1.
         11   -1    0    0    0    0 -0.00000000000E+00 -0.00000000000E+00 -0.45593999997E+02  0.45594000000E+02  0.51100000000E-03 0. -1.
    9900012    2    1    2    0    0  0.13430024306E+01 -0.88965612772E+00  0.40627209212E+02  0.50528864840E+02  0.30000015168E+02 0.  0.
         12    1    1    2    0    0 -0.13430024306E+01  0.88965612772E+00 -0.40627209212E+02  0.40659135160E+02  0.00000000000E+00 0. -1.
         11    1    3    3    0    0 -0.27387083769E+01  0.10569023019E+02  0.64324044963E+01  0.12672040050E+02  0.51100000000E-03 0. -1.
        -11    1    3    3    0    0  0.56931677630E+01 -0.33053529948E+01  0.22940425034E+02  0.23866307184E+02  0.51100000000E-03 0.  1.
        -12    1    3    3    0    0 -0.16114569555E+01 -0.81533261523E+01  0.11254379682E+02  0.13990517606E+02  0.00000000000E+00 0.  1.
</event>
<event>
 7    1  0.2891523E-011  0.5052885E+02  0.7816164E-02  0.1300439E+00
        -11   -1    0    0    0    0  0.00000000000E+00  0.00000000000E+00  0.45593999997E+02  0.45594000000E+02  0.51100000000E-03 0. -1.
         11   -1    0    0    0    0 -0.00000000000E+00 -0.00000000000E+00 -0.45593999997E+02  0.45594000000E+02  0.51100000000E-03 0.  1.
    9900012    2    1    2    0    0  0.12444941063E+02  0.18158320827E+02 -0.34184278931E+02  0.50528854666E+02  0.29999984241E+02 0.  0.
         12    1    1    2    0    0 -0.12444941063E+02 -0.18158320827E+02  0.34184278931E+02  0.40659145334E+02  0.00000000000E+00 0. -1.
         11    1    3    3    0    0 -0.71527619013E+01  0.95354421276E+01 -0.12111236297E+02  0.16993195823E+02  0.51100000000E-03 0. -1.
        -11    1    3    3    0    0  0.11824688367E+02  0.55613551405E+01 -0.40662042278E+01  0.13685245451E+02  0.51100000000E-03 0.  1.
        -12    1    3    3    0    0  0.77730145975E+01  0.30615235592E+01 -0.18006838406E+02  0.19850413392E+02  0.00000000000E+00 0.  1.
</event>
<event>
 7    1  0.2891523E-011  0.5052887E+02  0.7816164E-02  0.1300439E+00
        -11   -1    0    0    0    0  0.00000000000E+00  0.00000000000E+00  0.45593999997E+02  0.45594000000E+02  0.51100000000E-03 0.  1.
         11   -1    0    0    0    0 -0.00000000000E+00 -0.00000000000E+00 -0.45593999997E+02  0.45594000000E+02  0.51100000000E-03 0. -1.
    9900012    2    1    2    0    0  0.55713531169E+01  0.37575555457E+02  0.14498373023E+02  0.50528866171E+02  0.30000019213E+02 0.  0.
         12    1    1    2    0    0 -0.55713531169E+01 -0.37575555457E+02 -0.14498373023E+02  0.40659133829E+02  0.00000000000E+00 0. -1.
         11    1    3    3    0    0  0.57462560615E+01  0.13357617945E+01 -0.28445989796E+01  0.65494627194E+01  0.51100000000E-03 0. -1.
        -11    1    3    3    0    0 -0.73140516321E+01  0.22117666396E+02  0.15651400944E+02  0.28065154015E+02  0.51100000000E-03 0.  1.
        -12    1    3    3    0    0  0.71391486874E+01  0.14122127266E+02  0.16915710586E+01  0.15914249437E+02  0.00000000000E+00 0.  1.
</event>
<event>
 7    1  0.2891523E-011  0.5052888E+02  0.7816164E-02  0.1300439E+00
        -11   -1    0    0    0    0  0.00000000000E+00  0.00000000000E+00  0.45593999997E+02  0.45594000000E+02  0.51100000000E-03 0. -1.
         11   -1    0    0    0    0 -0.00000000000E+00 -0.00000000000E+00 -0.45593999997E+02  0.45594000000E+02  0.51100000000E-03 0.  1.
    9900012    2    1    2    0    0  0.17100439859E+02  0.36880553145E+02 -0.75106632083E+00  0.50528876248E+02  0.30000049844E+02 0.  0.
         12    1    1    2    0    0 -0.17100439859E+02 -0.36880553145E+02  0.75106632083E+00  0.40659123752E+02  0.00000000000E+00 0. -1.
         11    1    3    3    0    0  0.11511551061E-01  0.12570309585E+02 -0.17523085006E-02  0.12570314989E+02  0.51100000000E-03 0. -1.
        -11    1    3    3    0    0  0.10463865564E+02  0.13648273576E+01 -0.77251080464E+01  0.13077940619E+02  0.51100000000E-03 0.  1.
        -12    1    3    3    0    0  0.66250627439E+01  0.22945416202E+02  0.69757940341E+01  0.24880620641E+02  0.00000000000E+00 0.  1.
</event>
<event>
 7    1  0.2891523E-011  0.5052886E+02  0.7816164E-02  0.1300439E+00
        -11   -1    0    0    0    0  0.00000000000E+00  0.00000000000E+00  0.45593999997E+02  0.45594000000E+02  0.51100000000E-03 0.  1.
         11   -1    0    0    0    0 -0.00000000000E+00 -0.00000000000E+00 -0.45593999997E+02  0.45594000000E+02  0.51100000000E-03 0. -1.
    9900012    2    1    2    0    0 -0.28715346224E+02 -0.28771147530E+02  0.90318936436E+00  0.50528858469E+02  0.29999995803E+02 0.  0.
         12    1    1    2    0    0  0.28715346224E+02  0.28771147530E+02 -0.90318936436E+00  0.40659141531E+02  0.00000000000E+00 0. -1.
         11    1    3    3    0    0 -0.14255482264E+02 -0.39483310984E+01 -0.43520485991E+01  0.15419092720E+02  0.51100000000E-03 0. -1.
        -11    1    3    3    0    0 -0.11696157809E+02 -0.22457706317E+02  0.11556872031E+02  0.27833612269E+02  0.51100000000E-03 0.  1.
        -12    1    3    3    0    0 -0.27637061520E+01 -0.23651101148E+01 -0.63016340679E+01  0.72761534807E+01  0.00000000000E+00 0.  1.
</event>
<event>
 7    1  0.2891523E-011  0.5052886E+02  0.7816164E-02  0.1300439E+00
        -11   -1    0    0    0    0  0.00000000000E+00  0.00000000000E+00  0.45593999997E+02  0.45594000000E+02  0.51100000000E-03 0.  1.
         11   -1    0    0    0    0 -0.00000000000E+00 -0.00000000000E+00 -0.45593999997E+02  0.45594000000E+02  0.51100000000E-03 0. -1.
    9900012    2    1    2    0    0  0.13366610407E+02 -0.22527010447E+02  0.31097159280E+02  0.50528858485E+02  0.29999995851E+02 0.  0.
         12    1    1    2    0    0 -0.13366610407E+02  0.22527010447E+02 -0.31097159280E+02  0.40659141515E+02  0.00000000000E+00 0. -1.
         11    1    3    3    0    0  0.17433599041E+02 -0.40074721661E+01  0.90730218499E+01  0.20057665229E+02  0.51100000000E-03 0. -1.
        -11    1    3    3    0    0 -0.35495460006E+01 -0.18740630947E+02  0.17415954341E+02  0.25828782220E+02  0.51100000000E-03 0.  1.
        -12    1    3    3    0    0 -0.51744263311E+00  0.22109266628E+00  0.46081830887E+01  0.46424110357E+01  0.00000000000E+00 0.  1.
</event>
<event>
 7    1  0.2891523E-011  0.5052884E+02  0.7816164E-02  0.1300439E+00
        -11   -1    0    0    0    0  0.00000000000E+00  0.00000000000E+00  0.45593999997E+02  0.45594000000E+02  0.51100000000E-03 0.  1.
         11   -1    0    0    0    0 -0.00000000000E+00 -0.00000000000E+00 -0.45593999997E+02  0.45594000000E+02  0.51100000000E-03 0. -1.
    9900012    2    1    2    0    0  0.34130665905E+02 -0.37580198297E+01  0.21774816233E+02  0.50528835103E+02  0.29999924779E+02 0.  0.
         12    1    1    2    0    0 -0.34130665905E+02  0.37580198297E+01 -0.21774816233E+02  0.40659164897E+02  0.00000000000E+00 0. -1.
         11    1    3    3    0    0 -0.65649530377E+00 -0.76804298251E+01  0.31536605538E+00  0.77148846000E+01  0.51100000000E-03 0. -1.
        -11    1    3    3    0    0  0.35104014233E+02  0.23539275681E+01  0.21464911591E+02  0.41213774641E+02  0.51100000000E-03 0.  1.
        -12    1    3    3    0    0 -0.31685302424E+00  0.15684824273E+01 -0.54614134033E-02  0.16001758624E+01  0.00000000000E+00 0.  1.
</event>
<event>
 7    1  0.2891523E-011  0.5052885E+02  0.7816164E-02  0.1300439E+00
        -11   -1    0    0    0    0  0.00000000000E+00  0.00000000000E+00  0.45593999997E+02  0.45594000000E+02  0.51100000000E-03 0. -1.
         11   -1    0    0    0    0 -0.00000000000E+00 -0.00000000000E+00 -0.45593999997E+02  0.45594000000E+02  0.51100000000E-03 0.  1.
    9900012    2    1    2    0    0 -0.25345673507E+02  0.31018488601E+02  0.69725553152E+01  0.50528851851E+02  0.29999975685E+02 0.  0.
         12    1    1    2    0    0  0.25345673507E+02 -0.31018488601E+02 -0.69725553152E+01  0.40659148149E+02  0.00000000000E+00 0. -1.
         11    1    3    3    0    0 -0.21727769642E+02  0.68140772478E+01  0.11604066180E+02  0.25557425037E+02  0.51100000000E-03 0. -1.
        -11    1    3    3    0    0 -0.22587449631E+01  0.19182349030E+02 -0.40644053080E+01  0.19737878150E+02  0.51100000000E-03 0.  1.
         12    1    3    3    0    0 -0.13591589019E+01  0.50220623235E+01 -0.56710555673E+00  0.52335486636E+01  0.00000000000E+00 0. -1.
</event>
<event>
 7    1  0.2891523E-011  0.5052887E+02  0.7816164E-02  0.1300439E+00
        -11   -1    0    0    0    0  0.00000000000E+00  0.00000000000E+00  0.45593999997E+02  0.45594000000E+02  0.51100000000E-03 0.  1.
         11   -1    0    0    0    0 -0.00000000000E+00 -0.00000000000E+00 -0.45593999997E+02  0.45594000000E+02  0.51100000000E-03 0. -1.
    9900012    2    1    2    0    0  0.14773861482E+02 -0.87605171214E+01  0.36853103610E+02  0.50528869549E+02  0.30000029481E+02 0.  0.
         12    1    1    2    0    0 -0.14773861482E+02  0.87605171214E+01 -0.36853103610E+02  0.40659130451E+02  0.00000000000E+00 0. -1.
         11    1    3    3    0    0 -0.32176559267E+01 -0.62425083699E+01  0.27341184598E+02  0.28228754770E+02  0.51100000000E-03 0. -1.
        -11    1    3    3    0    0  0.29573482103E+01 -0.21102472963E+01  0.57424970624E+01  0.67952428110E+01  0.51100000000E-03 0.  1.
         12    1    3    3    0    0  0.15034169199E+02 -0.40776145522E+00  0.37694219502E+01  0.15504871968E+02  0.00000000000E+00 0. -1.
</event>
<event>
 7    1  0.2891523E-011  0.5052885E+02  0.7816164E-02  0.1300439E+00
        -11   -1    0    0    0    0  0.00000000000E+00  0.00000000000E+00  0.45593999997E+02  0.45594000000E+02  0.51100000000E-03 0.  1.
         11   -1    0    0    0    0 -0.00000000000E+00 -0.00000000000E+00 -0.45593999997E+02  0.45594000000E+02  0.51100000000E-03 0. -1.
    9900012    2    1    2    0    0 -0.47460067869E+01 -0.13627240193E+02  0.38012373261E+02  0.50528846336E+02  0.29999958924E+02 0.  0.
         12    1    1    2    0    0  0.47460067869E+01  0.13627240193E+02 -0.38012373261E+02  0.40659153664E+02  0.00000000000E+00 0. -1.
         11    1    3    3    0    0 -0.52438332839E+01 -0.19309289026E+01 -0.26221485169E+01  0.61726766513E+01  0.51100000000E-03 0. -1.
        -11    1    3    3    0    0  0.68095608927E+01 -0.75085824088E+01  0.25229435940E+02  0.27189581965E+02  0.51100000000E-03 0.  1.
        -12    1    3    3    0    0 -0.63117343958E+01 -0.41877288821E+01  0.15405085838E+02  0.17166587720E+02  0.00000000000E+00 0.  1.
</event>
<event>
 7    1  0.2891523E-011  0.5052886E+02  0.7816164E-02  0.1300439E+00
        -11   -1    0    0    0    0  0.00000000000E+00  0.00000000000E+00  0.45593999997E+02  0.45594000000E+02  0.51100000000E-03 0.  1.
         11   -1    0    0    0    0 -0.00000000000E+00 -0.00000000000E+00 -0.45593999997E+02  0.45594000000E+02  0.51100000000E-03 0. -1.
    9900012    2    1    2    0    0 -0.17458087435E+02  0.91534566164E+01  0.35561148238E+02  0.50528857745E+02  0.29999993602E+02 0.  0.
         12    1    1    2    0    0  0.17458087435E+02 -0.91534566164E+01 -0.35561148238E+02  0.40659142255E+02  0.00000000000E+00 0. -1.
         11    1    3    3    0    0 -0.22447901596E+01 -0.64998556591E+00 -0.11908063955E+01  0.26228961530E+01  0.51100000000E-03 0. -1.
        -11    1    3    3    0    0 -0.10736574244E+02 -0.39451684062E+01  0.29684438812E+02  0.31812014839E+02  0.51100000000E-03 0.  1.
        -12    1    3    3    0    0 -0.44767230316E+01  0.13748610589E+02  0.70675158208E+01  0.16093946753E+02  0.00000000000E+00 0.  1.
</event>
<event>
 7    1  0.3010133E-011  0.5052886E+02  0.7816164E-02  0.1300439E+00
        -11   -1    0    0    0    0  0.00000000000E+00  0.00000000000E+00  0.45593999997E+02  0.45594000000E+02  0.51100000000E-03 0.  1.
         11   -1    0    0    0    0 -0.00000000000E+00 -0.00000000000E+00 -0.45593999997E+02  0.45594000000E+02  0.51100000000E-03 0. -1.
    9900012    2    1    2    0    0 -0.40162344880E+01 -0.34900172360E+02 -0.20469817664E+02  0.50528860739E+02  0.30000002702E+02 0.  0.
         12    1    1    2    0    0  0.40162344880E+01  0.34900172360E+02  0.20469817664E+02  0.40659139261E+02  0.00000000000E+00 0. -1.
         11    1    3    3    0    0  0.36336581837E+01 -0.26716501834E+01  0.38493945191E+01  0.59295046103E+01  0.51100000000E-03 0. -1.
        -11    1    3    3    0    0 -0.58390235643E+00 -0.16710896800E+02 -0.21627425885E+02  0.27337530329E+02  0.51100000000E-03 0.  1.
        -12    1    3    3    0    0 -0.70659903152E+01 -0.15517625377E+02 -0.26917862989E+01  0.17261825800E+02  0.00000000000E+00 0.  1.
</event>
<event>
 7    1  0.2891523E-011  0.5052886E+02  0.7816164E-02  0.1300439E+00
        -11   -1    0    0    0    0  0.00000000000E+00  0.00000000000E+00  0.45593999997E+02  0.45594000000E+02  0.51100000000E-03 0.  1.
         11   -1    0    0    0    0 -0.00000000000E+00 -0.00000000000E+00 -0.45593999997E+02  0.45594000000E+02  0.51100000000E-03 0. -1.
    9900012    2    1    2    0    0 -0.76494986607E+01  0.28475626962E+02 -0.27996240946E+02  0.50528859973E+02  0.30000000373E+02 0.  0.
         12    1    1    2    0    0  0.76494986607E+01 -0.28475626962E+02  0.27996240946E+02  0.40659140027E+02  0.00000000000E+00 0. -1.
         11    1    3    3    0    0  0.83228931756E+00  0.49330267900E+01 -0.64265859794E+01  0.81442290262E+01  0.51100000000E-03 0. -1.
        -11    1    3    3    0    0 -0.14464109281E+02  0.36895253703E+01 -0.46865293724E+01  0.15645657947E+02  0.51100000000E-03 0.  1.
        -12    1    3    3    0    0  0.59823213031E+01  0.19853074802E+02 -0.16883125594E+02  0.26738973000E+02  0.00000000000E+00 0.  1.
</event>
<event>
 7    1  0.2891523E-011  0.5052882E+02  0.7816164E-02  0.1300439E+00
        -11   -1    0    0    0    0  0.00000000000E+00  0.00000000000E+00  0.45593999997E+02  0.45594000000E+02  0.51100000000E-03 0. -1.
         11   -1    0    0    0    0 -0.00000000000E+00 -0.00000000000E+00 -0.45593999997E+02  0.45594000000E+02  0.51100000000E-03 0.  1.
    9900012    2    1    2    0    0  0.36698160165E+02  0.44818819027E+01  0.16921201168E+02  0.50528815628E+02  0.29999865581E+02 0.  0.
         12    1    1    2    0    0 -0.36698160165E+02 -0.44818819027E+01 -0.16921201168E+02  0.40659184372E+02  0.00000000000E+00 0. -1.
         11    1    3    3    0    0  0.17644192868E+02 -0.41834700101E+01  0.13020056228E+02  0.22323548726E+02  0.51100000000E-03 0. -1.
        -11    1    3    3    0    0  0.27369470842E+01  0.10583149137E+02  0.43619371409E+01  0.11769469864E+02  0.51100000000E-03 0.  1.
        -12    1    3    3    0    0  0.16317020212E+02 -0.19177972239E+01 -0.46079220106E+00  0.16435797037E+02  0.00000000000E+00 0.  1.
</event>
<event>
 7    1  0.2891523E-011  0.5052887E+02  0.7816164E-02  0.1300439E+00
        -11   -1    0    0    0    0  0.00000000000E+00  0.00000000000E+00  0.45593999997E+02  0.45594000000E+02  0.51100000000E-03 0. -1.
         11   -1    0    0    0    0 -0.00000000000E+00 -0.00000000000E+00 -0.45593999997E+02  0.45594000000E+02  0.51100000000E-03 0.  1.
    9900012    2    1    2    0    0  0.15442926090E+02 -0.17847309009E+02 -0.33108226693E+02  0.50528867202E+02  0.30000022348E+02 0.  0.
         12    1    1    2    0    0 -0.15442926090E+02  0.17847309009E+02  0.33108226693E+02  0.40659132798E+02  0.00000000000E+00 0. -1.
         11    1    3    3    0    0  0.14561242358E+02 -0.17155657179E+02 -0.74347089180E+01  0.23698549517E+02  0.51100000000E-03 0. -1.
        -11    1    3    3    0    0 -0.15131248269E+01  0.18887368261E+01 -0.28589189996E+01  0.37457030912E+01  0.51100000000E-03 0.  1.
         12    1    3    3    0    0  0.23948085595E+01 -0.25803886559E+01 -0.22814598776E+02  0.23084614594E+02  0.00000000000E+00 0. -1.
</event>
<event>
 7    1  0.2891523E-011  0.5052888E+02  0.7816164E-02  0.1300439E+00
        -11   -1    0    0    0    0  0.00000000000E+00  0.00000000000E+00  0.45593999997E+02  0.45594000000E+02  0.51100000000E-03 0. -1.
         11   -1    0    0    0    0 -0.00000000000E+00 -0.00000000000E+00 -0.45593999997E+02  0.45594000000E+02  0.51100000000E-03 0.  1.
    9900012    2    1    2    0    0  0.21816641017E+01  0.33572172366E+02 -0.22832299519E+02  0.50528876584E+02  0.30000050865E+02 0.  0.
         12    1    1    2    0    0 -0.21816641017E+01 -0.33572172366E+02  0.22832299519E+02  0.40659123416E+02  0.00000000000E+00 0. -1.
         11    1    3    3    0    0  0.15015644008E+01  0.17512743176E+02  0.27603853044E+01  0.17792430876E+02  0.51100000000E-03 0. -1.
        -11    1    3    3    0    0  0.61924966981E+01  0.11852315329E+02 -0.15230245469E+02  0.20267826013E+02  0.51100000000E-03 0.  1.
         12    1    3    3    0    0 -0.55123969972E+01  0.42071138610E+01 -0.10362439355E+02  0.12468619694E+02  0.00000000000E+00 0. -1.
</event>
<event>
 7    1  0.2891523E-011  0.5052888E+02  0.7816164E-02  0.1300439E+00
        -11   -1    0    0    0    0  0.00000000000E+00  0.00000000000E+00  0.45593999997E+02  0.45594000000E+02  0.51100000000E-03 0.  1.
         11   -1    0    0    0    0 -0.00000000000E+00 -0.00000000000E+00 -0.45593999997E+02  0.45594000000E+02  0.51100000000E-03 0. -1.
    9900012    2    1    2    0    0  0.89759554441E+01  0.28009703849E+02  0.28072277939E+02  0.50528879565E+02  0.30000059925E+02 0.  0.
         12    1    1    2    0    0 -0.89759554441E+01 -0.28009703849E+02 -0.28072277939E+02  0.40659120435E+02  0.00000000000E+00 0. -1.
         11    1    3    3    0    0 -0.54997336162E+01  0.15491946058E+02  0.16359160300E+02  0.23192015619E+02  0.51100000000E-03 0. -1.
        -11    1    3    3    0    0  0.14091619780E+02  0.89231448934E+01  0.15014074991E+02  0.22441450731E+02  0.51100000000E-03 0.  1.
         12    1    3    3    0    0  0.38406928049E+00  0.35946128979E+01 -0.33009573521E+01  0.48954132143E+01  0.00000000000E+00 0. -1.
</event>
<event>
 7    1  0.2891523E-011  0.5052883E+02  0.7816164E-02  0.1300439E+00
        -11   -1    0    0    0    0  0.00000000000E+00  0.00000000000E+00  0.45593999997E+02  0.45594000000E+02  0.51100000000E-03 0. -1.
         11   -1    0    0    0    0 -0.00000000000E+00 -0.00000000000E+00 -0.45593999997E+02  0.45594000000E+02  0.51100000000E-03 0.  1.
    9900012    2    1    2    0    0  0.85361120439E+01  0.38529852751E+02 -0.97853718252E+01  0.50528828051E+02  0.29999903343E+02 0.  0.
         12    1    1    2    0    0 -0.85361120439E+01 -0.38529852751E+02  0.97853718252E+01  0.40659171949E+02  0.00000000000E+00 0. -1.
         11    1    3    3    0    0 -0.23785083734E+01 -0.69942390011E+00 -0.70862137755E+01  0.75073911452E+01  0.51100000000E-03 0. -1.
        -11    1    3    3    0    0  0.49871006362E+01  0.34938622168E+02 -0.42306815443E+01  0.35545423873E+02  0.51100000000E-03 0.  1.
        -12    1    3    3    0    0  0.59275197811E+01  0.42906544834E+01  0.15315234946E+01  0.74760130327E+01  0.00000000000E+00 0.  1.
</event>
<event>
 7    1  0.2891523E-011  0.5052885E+02  0.7816164E-02  0.1300439E+00
        -11   -1    0    0    0    0  0.00000000000E+00  0.00000000000E+00  0.45593999997E+02  0.45594000000E+02  0.51100000000E-03 0. -1.
         11   -1    0    0    0    0 -0.00000000000E+00 -0.00000000000E+00 -0.45593999997E+02  0.45594000000E+02  0.51100000000E-03 0.  1.
    9900012    2    1    2    0    0 -0.37586844497E+02 -0.57708057572E+01 -0.14390730078E+02  0.50528853544E+02  0.29999980833E+02 0.  0.
         12    1    1    2    0    0  0.37586844497E+02  0.57708057572E+01  0.14390730078E+02  0.40659146456E+02  0.00000000000E+00 0. -1.
         11    1    3    3    0    0 -0.21972011530E+02 -0.12203596835E+02  0.35921447518E+01  0.25388985221E+02  0.51100000000E-03 0. -1.
        -11    1    3    3    0    0 -0.10929090172E+02  0.44015701287E+01 -0.90753458678E+01  0.14872146263E+02  0.51100000000E-03 0.  1.
         12    1    3    3    0    0 -0.46857427950E+01  0.20312209489E+01 -0.89075289623E+01  0.10267722060E+02  0.00000000000E+00 0. -1.
</event>
<event>
 7    1  0.2891523E-011  0.5052889E+02  0.7816164E-02  0.1300439E+00
        -11   -1    0    0    0    0  0.00000000000E+00  0.00000000000E+00  0.45593999997E+02  0.45594000000E+02  0.51100000000E-03 0. -1.
         11   -1    0    0    0    0 -0.00000000000E+00 -0.00000000000E+00 -0.45593999997E+02  0.45594000000E+02  0.51100000000E-03 0.  1.
    9900012    2    1    2    0    0 -0.37074516747E+02  0.67629599512E+01 -0.15261262173E+02  0.50528886109E+02  0.30000079817E+02 0.  0.
         12    1    1    2    0    0  0.37074516747E+02 -0.67629599512E+01  0.15261262173E+02  0.40659113891E+02  0.00000000000E+00 0. -1.
         11    1    3    3    0    0 -0.13017258100E+02 -0.11452690351E+02 -0.54469111646E+01  0.18173661332E+02  0.51100000000E-03 0. -1.
        -11    1    3    3    0    0 -0.74146502091E+01  0.92885069158E+01 -0.47782545897E+01  0.12809571251E+02  0.51100000000E-03 0.  1.
         12    1    3    3    0    0 -0.16642608438E+02  0.89271433859E+01 -0.50360964185E+01  0.19545653526E+02  0.00000000000E+00 0. -1.
</event>
<event>
 7    1  0.2891523E-011  0.5052885E+02  0.7816164E-02  0.1300439E+00
        -11   -1    0    0    0    0  0.00000000000E+00  0.00000000000E+00  0.45593999997E+02  0.45594000000E+02  0.51100000000E-03 0.  1.
         11   -1    0    0    0    0 -0.00000000000E+00 -0.00000000000E+00 -0.45593999997E+02  0.45594000000E+02  0.51100000000E-03 0. -1.
    9900012    2    1    2    0    0  0.12525339456E+01  0.37011321655E+02  0.16785701572E+02  0.50528849133E+02  0.29999967426E+02 0.  0.
         12    1    1    2    0    0 -0.12525339456E+01 -0.37011321655E+02 -0.16785701572E+02  0.40659150867E+02  0.00000000000E+00 0. -1.
         11    1    3    3    0    0  0.12014736078E+02  0.11177754532E+02 -0.23671770302E+01  0.16580096705E+02  0.51100000000E-03 0. -1.
        -11    1    3    3    0    0 -0.37977065086E+01  0.78358556974E+01  0.53085416844E+01  0.10198226528E+02  0.51100000000E-03 0.  1.
         12    1    3    3    0    0 -0.69644956237E+01  0.17997711426E+02  0.13844336917E+02  0.23750525900E+02  0.00000000000E+00 0. -1.
</event>
<event>
 7    1  0.2891523E-011  0.5052886E+02  0.7816164E-02  0.1300439E+00
        -11   -1    0    0    0    0  0.00000000000E+00  0.00000000000E+00  0.45593999997E+02  0.45594000000E+02  0.51100000000E-03 0.  1.
         11   -1    0    0    0    0 -0.00000000000E+00 -0.00000000000E+00 -0.45593999997E+02  0.45594000000E+02  0.51100000000E-03 0. -1.
    9900012    2    1    2    0    0  0.25807981025E+02 -0.29501644492E+02  0.10805850371E+02  0.50528864316E+02  0.30000013575E+02 0.  0.
         12    1    1    2    0    0 -0.25807981025E+02  0.29501644492E+02 -0.10805850371E+02  0.40659135684E+02  0.00000000000E+00 0. -1.
         11    1    3    3    0    0 -0.11440823169E+01 -0.60914901975E+00  0.12496812210E+01  0.18004694642E+01  0.51100000000E-03 0. -1.
        -11    1    3    3    0    0  0.16296454519E+02  0.13387885910E+00 -0.22258784989E+00  0.16298524444E+02  0.51100000000E-03 0.  1.
        -12    1    3    3    0    0  0.10655608823E+02 -0.29026374331E+02  0.97787569998E+01  0.32429870408E+02  0.00000000000E+00 0.  1.
</event>
<event>
 7    1  0.2891523E-011  0.5052886E+02  0.7816164E-02  0.1300439E+00
        -11   -1    0    0    0    0  0.00000000000E+00  0.00000000000E+00  0.45593999997E+02  0.45594000000E+02  0.51100000000E-03 0.  1.
         11   -1    0    0    0    0 -0.00000000000E+00 -0.00000000000E+00 -0.45593999997E+02  0.45594000000E+02  0.51100000000E-03 0. -1.
    9900012    2    1    2    0    0  0.34596646878E+02  0.17903080506E+02  0.11649773387E+02  0.50528862198E+02  0.30000007137E+02 0.  0.
         12    1    1    2    0    0 -0.34596646878E+02 -0.17903080506E+02 -0.11649773387E+02  0.40659137802E+02  0.00000000000E+00 0. -1.
         11    1    3    3    0    0  0.74990769211E+01  0.18698530182E+02  0.89915028308E+01  0.22061693250E+02  0.51100000000E-03 0. -1.
        -11    1    3    3    0    0  0.29613040962E+01  0.22391260192E+01  0.17996425003E+01  0.41257388030E+01  0.51100000000E-03 0.  1.
         12    1    3    3    0    0  0.24136265861E+02 -0.30345756953E+01  0.85862805569E+00  0.24341430145E+02  0.00000000000E+00 0. -1.
</event>
<event>
 7    1  0.2891523E-011  0.5052888E+02  0.7816164E-02  0.1300439E+00
        -11   -1    0    0    0    0  0.00000000000E+00  0.00000000000E+00  0.45593999997E+02  0.45594000000E+02  0.51100000000E-03 0.  1.
         11   -1    0    0    0    0 -0.00000000000E+00 -0.00000000000E+00 -0.45593999997E+02  0.45594000000E+02  0.51100000000E-03 0. -1.
    9900012    2    1    2    0    0 -0.33864809415E+02  0.16338894645E+02  0.15471891736E+02  0.50528877668E+02  0.30000054158E+02 0.  0.
         12    1    1    2    0    0  0.33864809415E+02 -0.16338894645E+02 -0.15471891736E+02  0.40659122332E+02  0.00000000000E+00 0. -1.
         11    1    3    3    0    0 -0.24459006372E+02 -0.12570602527E+01  0.11086427616E+02  0.26883676659E+02  0.51100000000E-03 0. -1.
        -11    1    3    3    0    0 -0.63500777041E+01  0.24217861936E+01  0.45267263679E+01  0.81657692281E+01  0.51100000000E-03 0.  1.
         12    1    3    3    0    0 -0.30557253392E+01  0.15174168704E+02 -0.14126224756E+00  0.15479431780E+02  0.00000000000E+00 0. -1.
</event>
<event>
 7    1  0.2891523E-011  0.5052881E+02  0.7816164E-02  0.1300439E+00
        -11   -1    0    0    0    0  0.00000000000E+00  0.00000000000E+00  0.45593999997E+02  0.45594000000E+02  0.51100000000E-03 0.  1.
         11   -1    0    0    0    0 -0.00000000000E+00 -0.00000000000E+00 -0.45593999997E+02  0.45594000000E+02  0.51100000000E-03 0. -1.
    9900012    2    1    2    0    0  0.38312829620E+02 -0.11231398161E+02  0.76910458097E+01  0.50528814030E+02  0.29999860724E+02 0.  0.
         12    1    1    2    0    0 -0.38312829620E+02  0.11231398161E+02 -0.76910458097E+01  0.40659185970E+02  0.00000000000E+00 0. -1.
         11    1    3    3    0    0  0.27548127214E+02  0.58716878968E+01  0.73044586244E+01  0.29098645120E+02  0.51100000000E-03 0. -1.
        -11    1    3    3    0    0  0.83896384667E+01 -0.66462960575E+01  0.13448863178E+00  0.10704082041E+02  0.51100000000E-03 0.  1.
         12    1    3    3    0    0  0.23750639387E+01 -0.10456790001E+02  0.25209855349E+00  0.10726086869E+02  0.00000000000E+00 0. -1.
</event>
<event>
 7    1  0.2891523E-011  0.5052886E+02  0.7816164E-02  0.1300439E+00
        -11   -1    0    0    0    0  0.00000000000E+00  0.00000000000E+00  0.45593999997E+02  0.45594000000E+02  0.51100000000E-03 0. -1.
         11   -1    0    0    0    0 -0.00000000000E+00 -0.00000000000E+00 -0.45593999997E+02  0.45594000000E+02  0.51100000000E-03 0.  1.
    9900012    2    1    2    0    0 -0.27987622148E+02 -0.35195470577E+01 -0.29282619088E+02  0.50528856064E+02  0.29999988492E+02 0.  0.
         12    1    1    2    0    0  0.27987622148E+02  0.35195470577E+01  0.29282619088E+02  0.40659143936E+02  0.00000000000E+00 0. -1.
         11    1    3    3    0    0  0.75038151338E+00 -0.89388489927E+01 -0.16035581162E+02  0.18374056634E+02  0.51100000000E-03 0. -1.
        -11    1    3    3    0    0 -0.18004252850E+02  0.34790160014E+01 -0.73539672576E+01  0.19756960994E+02  0.51100000000E-03 0.  1.
         12    1    3    3    0    0 -0.10733750812E+02  0.19402859337E+01 -0.58930706683E+01  0.12397838436E+02  0.00000000000E+00 0. -1.
</event>
<event>
 7    1  0.2891523E-011  0.5052885E+02  0.7816164E-02  0.1300439E+00
        -11   -1    0    0    0    0  0.00000000000E+00  0.00000000000E+00  0.45593999997E+02  0.45594000000E+02  0.51100000000E-03 0.  1.
         11   -1    0    0    0    0 -0.00000000000E+00 -0.00000000000E+00 -0.45593999997E+02  0.45594000000E+02  0.51100000000E-03 0. -1.
    9900012    2    1    2    0    0 -0.24076222226E+02 -0.31392215514E+02  0.93824529081E+01  0.50528854729E+02  0.29999984436E+02 0.  0.
         12    1    1    2    0    0  0.24076222226E+02  0.31392215514E+02 -0.93824529081E+01  0.40659145271E+02  0.00000000000E+00 0. -1.
         11    1    3    3    0    0 -0.33993425411E+01 -0.22247993182E+02  0.16578910758E+01  0.22567173802E+02  0.51100000000E-03 0. -1.
        -11    1    3    3    0    0 -0.18170669470E+02 -0.35456809458E+01  0.54876019946E+00  0.18521506969E+02  0.51100000000E-03 0.  1.
        -12    1    3    3    0    0 -0.25062102143E+01 -0.55985413863E+01  0.71758016328E+01  0.94401739584E+01  0.00000000000E+00 0.  1.
</event>
<event>
 7    1  0.2891523E-011  0.5052886E+02  0.7816164E-02  0.1300439E+00
        -11   -1    0    0    0    0  0.00000000000E+00  0.00000000000E+00  0.45593999997E+02  0.45594000000E+02  0.51100000000E-03 0.  1.
         11   -1    0    0    0    0 -0.00000000000E+00 -0.00000000000E+00 -0.45593999997E+02  0.45594000000E+02  0.51100000000E-03 0. -1.
    9900012    2    1    2    0    0 -0.12294100923E+02  0.71175128990E+01  0.38096744661E+02  0.50528857595E+02  0.29999993146E+02 0.  0.
         12    1    1    2    0    0  0.12294100923E+02 -0.71175128990E+01 -0.38096744661E+02  0.40659142405E+02  0.00000000000E+00 0. -1.
         11    1    3    3    0    0 -0.90589630494E+01  0.25156949809E+01  0.37460725653E+02  0.38622525804E+02  0.51100000000E-03 0. -1.
        -11    1    3    3    0    0  0.35066326783E+01  0.24457108868E+01  0.19637765848E+01  0.47047203125E+01  0.51100000000E-03 0.  1.
         12    1    3    3    0    0 -0.67417705515E+01  0.21561070313E+01 -0.13277575773E+01  0.72016114782E+01  0.00000000000E+00 0. -1.
</event>
<event>
 7    1  0.2891523E-011  0.5052887E+02  0.7816164E-02  0.1300439E+00
        -11   -1    0    0    0    0  0.00000000000E+00  0.00000000000E+00  0.45593999997E+02  0.45594000000E+02  0.51100000000E-03 0.  1.
         11   -1    0    0    0    0 -0.00000000000E+00 -0.00000000000E+00 -0.45593999997E+02  0.45594000000E+02  0.51100000000E-03 0. -1.
    9900012    2    1    2    0    0 -0.24364445599E+02 -0.20383163845E+02  0.25378443731E+02  0.50528868382E+02  0.30000025935E+02 0.  0.
         12    1    1    2    0    0  0.24364445599E+02  0.20383163845E+02 -0.25378443731E+02  0.40659131618E+02  0.00000000000E+00 0. -1.
         11    1    3    3    0    0 -0.90259306116E+01 -0.10152360438E+02 -0.26622947169E+01  0.13842892013E+02  0.51100000000E-03 0. -1.
        -11    1    3    3    0    0 -0.72296042561E+01  0.21769284969E+01  0.15613439032E+02  0.17343173702E+02  0.51100000000E-03 0.  1.
         12    1    3    3    0    0 -0.81089107315E+01 -0.12407731904E+02  0.12427299416E+02  0.19342802667E+02  0.00000000000E+00 0. -1.
</event>
<event>
 7    1  0.2891523E-011  0.5052886E+02  0.7816164E-02  0.1300439E+00
        -11   -1    0    0    0    0  0.00000000000E+00  0.00000000000E+00  0.45593999997E+02  0.45594000000E+02  0.51100000000E-03 0.  1.
         11   -1    0    0    0    0 -0.00000000000E+00 -0.00000000000E+00 -0.45593999997E+02  0.45594000000E+02  0.51100000000E-03 0. -1.
    9900012    2    1    2    0    0  0.17228793094E+02 -0.35543809605E+00  0.36826726985E+02  0.50528862428E+02  0.30000007835E+02 0.  0.
         12    1    1    2    0    0 -0.17228793094E+02  0.35543809605E+00 -0.36826726985E+02  0.40659137572E+02  0.00000000000E+00 0. -1.
         11    1    3    3    0    0  0.26234564859E+01 -0.12629782194E+01 -0.51150102895E+01  0.58856578595E+01  0.51100000000E-03 0. -1.
        -11    1    3    3    0    0  0.73051058890E+01  0.21833958743E+01  0.25346497332E+02  0.26468409791E+02  0.51100000000E-03 0.  1.
         12    1    3    3    0    0  0.73002307189E+01 -0.12758557509E+01  0.16595239942E+02  0.18174794777E+02  0.00000000000E+00 0. -1.
</event>
<event>
 7    1  0.2891523E-011  0.5052886E+02  0.7816164E-02  0.1300439E+00
        -11   -1    0    0    0    0  0.00000000000E+00  0.00000000000E+00  0.45593999997E+02  0.45594000000E+02  0.51100000000E-03 0. -1.
         11   -1    0    0    0    0 -0.00000000000E+00 -0.00000000000E+00 -0.45593999997E+02  0.45594000000E+02  0.51100000000E-03 0.  1.
    9900012    2    1    2    0    0  0.15570222600E+02  0.54066180640E+01 -0.37168567400E+02  0.50528858921E+02  0.29999997176E+02 0.  0.
         12    1    1    2    0    0 -0.15570222600E+02 -0.54066180640E+01  0.37168567400E+02  0.40659141079E+02  0.00000000000E+00 0. -1.
         11    1    3    3    0    0 -0.23128010768E+01 -0.43091482738E+01 -0.13920861456E+02  0.14754937872E+02  0.51100000000E-03 0. -1.
        -11    1    3    3    0    0  0.15835307588E+02  0.11319781241E+02 -0.92765235404E+01  0.21562659924E+02  0.51100000000E-03 0.  1.
        -12    1    3    3    0    0  0.20477160890E+01 -0.16040149034E+01 -0.13971182404E+02  0.14211261125E+02  0.00000000000E+00 0.  1.
</event>
<event>
 7    1  0.2891523E-011  0.5052886E+02  0.7816164E-02  0.1300439E+00
        -11   -1    0    0    0    0  0.00000000000E+00  0.00000000000E+00  0.45593999997E+02  0.45594000000E+02  0.51100000000E-03 0. -1.
         11   -1    0    0    0    0 -0.00000000000E+00 -0.00000000000E+00 -0.45593999997E+02  0.45594000000E+02  0.51100000000E-03 0.  1.
    9900012    2    1    2    0    0  0.31430768595E+02  0.77017407522E+01 -0.24616162903E+02  0.50528862021E+02  0.30000006600E+02 0.  0.
         12    1    1    2    0    0 -0.31430768595E+02 -0.77017407522E+01  0.24616162903E+02  0.40659137979E+02  0.00000000000E+00 0. -1.
         11    1    3    3    0    0  0.96623111541E+01 -0.53939887429E+01  0.19629256060E+01  0.11238703154E+02  0.51100000000E-03 0. -1.
        -11    1    3    3    0    0  0.17775170727E+02  0.78751697897E+01 -0.26307592352E+02  0.32711838976E+02  0.51100000000E-03 0.  1.
        -12    1    3    3    0    0  0.39932867146E+01  0.52205597055E+01 -0.27149615696E+00  0.65783198908E+01  0.00000000000E+00 0.  1.
</event>
<event>
 7    1  0.2891523E-011  0.5052885E+02  0.7816164E-02  0.1300439E+00
        -11   -1    0    0    0    0  0.00000000000E+00  0.00000000000E+00  0.45593999997E+02  0.45594000000E+02  0.51100000000E-03 0.  1.
         11   -1    0    0    0    0 -0.00000000000E+00 -0.00000000000E+00 -0.45593999997E+02  0.45594000000E+02  0.51100000000E-03 0. -1.
    9900012    2    1    2    0    0  0.39728104021E+02 -0.31224515713E+01  0.80681234013E+01  0.50528848900E+02  0.29999966717E+02 0.  0.
         12    1    1    2    0    0 -0.39728104021E+02  0.31224515713E+01 -0.80681234013E+01  0.40659151100E+02  0.00000000000E+00 0. -1.
         11    1    3    3    0    0  0.14031887634E+02  0.96693702121E+01  0.49127783316E+00  0.17047930814E+02  0.51100000000E-03 0. -1.
        -11    1    3    3    0    0  0.27648089614E+02 -0.11795762571E+02  0.56982443731E+01  0.30594556103E+02  0.51100000000E-03 0.  1.
        -12    1    3    3    0    0 -0.19518732267E+01 -0.99605921246E+00  0.18786011951E+01  0.28863619832E+01  0.00000000000E+00 0.  1.
</event>
<event>
 7    1  0.2891523E-011  0.5052887E+02  0.7816164E-02  0.1300439E+00
        -11   -1    0    0    0    0  0.00000000000E+00  0.00000000000E+00  0.45593999997E+02  0.45594000000E+02  0.51100000000E-03 0. -1.
         11   -1    0    0    0    0 -0.00000000000E+00 -0.00000000000E+00 -0.45593999997E+02  0.45594000000E+02  0.51100000000E-03 0.  1.
    9900012    2    1    2    0    0 -0.57472215721E+01  0.38347724213E+02 -0.12230559474E+02  0.50528867039E+02  0.30000021852E+02 0.  0.
         12    1    1    2    0    0  0.57472215721E+01 -0.38347724213E+02  0.12230559474E+02  0.40659132961E+02  0.00000000000E+00 0. -1.
         11    1    3    3    0    0  0.11962953794E+02  0.16938813153E+02 -0.27813170048E+01  0.20922986858E+02  0.51100000000E-03 0. -1.
        -11    1    3    3    0    0 -0.13790349881E+02  0.18837289886E+02 -0.74090382067E+01  0.24493082442E+02  0.51100000000E-03 0.  1.
         12    1    3    3    0    0 -0.39198254849E+01  0.25716211739E+01 -0.20402042622E+01  0.51127977395E+01  0.00000000000E+00 0. -1.
</event>
<event>
 7    1  0.2891523E-011  0.5052886E+02  0.7816164E-02  0.1300439E+00
        -11   -1    0    0    0    0  0.00000000000E+00  0.00000000000E+00  0.45593999997E+02  0.45594000000E+02  0.51100000000E-03 0. -1.
         11   -1    0    0    0    0 -0.00000000000E+00 -0.00000000000E+00 -0.45593999997E+02  0.45594000000E+02  0.51100000000E-03 0.  1.
    9900012    2    1    2    0    0  0.33937177651E+01  0.40085551732E+02 -0.58989187388E+01  0.50528855638E+02  0.29999987198E+02 0.  0.
         12    1    1    2    0    0 -0.33937177651E+01 -0.40085551732E+02  0.58989187388E+01  0.40659144362E+02  0.00000000000E+00 0. -1.
         11    1    3    3    0    0  0.12598331369E+02  0.16824105565E+02  0.78915389060E+00  0.21033098809E+02  0.51100000000E-03 0. -1.
        -11    1    3    3    0    0 -0.11729455097E+02  0.10579421218E+02 -0.37924808002E+01  0.16244604676E+02  0.51100000000E-03 0.  1.
        -12    1    3    3    0    0  0.25248414934E+01  0.12682024949E+02 -0.28955918292E+01  0.13251152154E+02  0.00000000000E+00 0.  1.
</event>
<event>
 7    1  0.2891523E-011  0.5052886E+02  0.7816164E-02  0.1300439E+00
        -11   -1    0    0    0    0  0.00000000000E+00  0.00000000000E+00  0.45593999997E+02  0.45594000000E+02  0.51100000000E-03 0.  1.
         11   -1    0    0    0    0 -0.00000000000E+00 -0.00000000000E+00 -0.45593999997E+02  0.45594000000E+02  0.51100000000E-03 0. -1.
    9900012    2    1    2    0    0 -0.40465328455E+02  0.32380440457E+01 -0.22887149803E+01  0.50528856472E+02  0.29999989731E+02 0.  0.
         12    1    1    2    0    0  0.40465328455E+02 -0.32380440457E+01  0.22887149803E+01  0.40659143528E+02  0.00000000000E+00 0. -1.
         11    1    3    3    0    0 -0.30831419915E+02  0.15540152320E+01 -0.13832151145E+02  0.33827796601E+02  0.51100000000E-03 0. -1.
        -11    1    3    3    0    0 -0.14046023024E+01  0.33708020454E+01  0.30917432538E+01  0.47847769714E+01  0.51100000000E-03 0.  1.
         12    1    3    3    0    0 -0.82293062372E+01 -0.16867732316E+01  0.84516929105E+01  0.11916282899E+02  0.00000000000E+00 0. -1.
</event>
<event>
 7    1  0.2891523E-011  0.5052886E+02  0.7816164E-02  0.1300439E+00
        -11   -1    0    0    0    0  0.00000000000E+00  0.00000000000E+00  0.45593999997E+02  0.45594000000E+02  0.51100000000E-03 0. -1.
         11   -1    0    0    0    0 -0.00000000000E+00 -0.00000000000E+00 -0.45593999997E+02  0.45594000000E+02  0.51100000000E-03 0.  1.
    9900012    2    1    2    0    0  0.15431767256E+02  0.19966257485E+02 -0.31880633932E+02  0.50528859595E+02  0.29999999225E+02 0.  0.
         12    1    1    2    0    0 -0.15431767256E+02 -0.19966257485E+02  0.31880633932E+02  0.40659140405E+02  0.00000000000E+00 0. -1.
         11    1    3    3    0    0 -0.12268171720E+01  0.19004404869E+02 -0.16978613974E+02  0.25513639834E+02  0.51100000000E-03 0. -1.
        -11    1    3    3    0    0 -0.11101663606E+01  0.16038669263E+01 -0.31400010718E+01  0.36965477756E+01  0.51100000000E-03 0.  1.
         12    1    3    3    0    0  0.17768750788E+02 -0.64201431100E+00 -0.11762018886E+02  0.21318671985E+02  0.00000000000E+00 0. -1.
</event>
<event>
 7    1  0.2891523E-011  0.5052886E+02  0.7816164E-02  0.1300439E+00
        -11   -1    0    0    0    0  0.00000000000E+00  0.00000000000E+00  0.45593999997E+02  0.45594000000E+02  0.51100000000E-03 0.  1.
         11   -1    0    0    0    0 -0.00000000000E+00 -0.00000000000E+00 -0.45593999997E+02  0.45594000000E+02  0.51100000000E-03 0. -1.
    9900012    2    1    2    0    0 -0.30263741941E+02  0.11958522216E+02  0.24377552837E+02  0.50528863116E+02  0.30000009927E+02 0.  0.
         12    1    1    2    0    0  0.30263741941E+02 -0.11958522216E+02 -0.24377552837E+02  0.40659136884E+02  0.00000000000E+00 0. -1.
         11    1    3    3    0    0 -0.94792936897E+01  0.79331206967E+00 -0.65213682256E+01  0.11533195424E+02  0.51100000000E-03 0. -1.
        -11    1    3    3    0    0 -0.18732596885E+02  0.10260084149E+02  0.26309305655E+02  0.33887447191E+02  0.51100000000E-03 0.  1.
         12    1    3    3    0    0 -0.20518513659E+01  0.90512599677E+00  0.45896154075E+01  0.51082205010E+01  0.00000000000E+00 0. -1.
</event>
<event>
 7    1  0.2891523E-011  0.5052886E+02  0.7816164E-02  0.1300439E+00
        -11   -1    0    0    0    0  0.00000000000E+00  0.00000000000E+00  0.45593999997E+02  0.45594000000E+02  0.51100000000E-03 0.  1.
         11   -1    0    0    0    0 -0.00000000000E+00 -0.00000000000E+00 -0.45593999997E+02  0.45594000000E+02  0.51100000000E-03 0. -1.
    9900012    2    1    2    0    0 -0.25507951920E+02  0.31139579817E+02  0.57303287407E+01  0.50528859456E+02  0.29999998803E+02 0.  0.
         12    1    1    2    0    0  0.25507951920E+02 -0.31139579817E+02 -0.57303287407E+01  0.40659140544E+02  0.00000000000E+00 0. -1.
         11    1    3    3    0    0 -0.25293564044E+01  0.10642965100E+02  0.36103613847E+01  0.11519768207E+02  0.51100000000E-03 0. -1.
        -11    1    3    3    0    0 -0.27346813072E+02  0.14009534919E+02  0.39438265865E+01  0.30978525179E+02  0.51100000000E-03 0.  1.
         12    1    3    3    0    0  0.43682175570E+01  0.64870797970E+01 -0.18238592305E+01  0.80305660704E+01  0.00000000000E+00 0. -1.
</event>
<event>
 7    1  0.2891523E-011  0.5052885E+02  0.7816164E-02  0.1300439E+00
        -11   -1    0    0    0    0  0.00000000000E+00  0.00000000000E+00  0.45593999997E+02  0.45594000000E+02  0.51100000000E-03 0.  1.
         11   -1    0    0    0    0 -0.00000000000E+00 -0.00000000000E+00 -0.45593999997E+02  0.45594000000E+02  0.51100000000E-03 0. -1.
    9900012    2    1    2    0    0 -0.15269925677E+02  0.62889736739E+01  0.37154330387E+02  0.50528854823E+02  0.29999984719E+02 0.  0.
         12    1    1    2    0    0  0.15269925677E+02 -0.62889736739E+01 -0.37154330387E+02  0.40659145177E+02  0.00000000000E+00 0. -1.
         11    1    3    3    0    0 -0.42109515172E+01  0.11535969478E+02  0.10523707649E+02  0.16172789723E+02  0.51100000000E-03 0. -1.
        -11    1    3    3    0    0  0.27598832757E+01 -0.71974962429E+01  0.84717613945E+01  0.11453892319E+02  0.51100000000E-03 0.  1.
        -12    1    3    3    0    0 -0.13818857435E+02  0.19505004383E+01  0.18158861344E+02  0.22902172781E+02  0.00000000000E+00 0.  1.
</event>
<event>
 7    1  0.2891523E-011  0.5052884E+02  0.7816164E-02  0.1300439E+00
        -11   -1    0    0    0    0  0.00000000000E+00  0.00000000000E+00  0.45593999997E+02  0.45594000000E+02  0.51100000000E-03 0.  1.
         11   -1    0    0    0    0 -0.00000000000E+00 -0.00000000000E+00 -0.45593999997E+02  0.45594000000E+02  0.51100000000E-03 0. -1.
    9900012    2    1    2    0    0  0.19489564604E+02  0.22383745353E+02  0.27790137589E+02  0.50528844430E+02  0.29999953128E+02 0.  0.
         12    1    1    2    0    0 -0.19489564604E+02 -0.22383745353E+02 -0.27790137589E+02  0.40659155570E+02  0.00000000000E+00 0. -1.
         11    1    3    3    0    0  0.30534899281E+01  0.65268574437E+01  0.29457437517E+01  0.77846692507E+01  0.51100000000E-03 0. -1.
        -11    1    3    3    0    0  0.20938115770E+02  0.10594968488E+02  0.26728077943E+02  0.35567516079E+02  0.51100000000E-03 0.  1.
        -12    1    3    3    0    0 -0.45020410948E+01  0.52619194218E+01 -0.18836841058E+01  0.71766590995E+01  0.00000000000E+00 0.  1.
</event>
<event>
 7    1  0.2891523E-011  0.5052886E+02  0.7816164E-02  0.1300439E+00
        -11   -1    0    0    0    0  0.00000000000E+00  0.00000000000E+00  0.45593999997E+02  0.45594000000E+02  0.51100000000E-03 0. -1.
         11   -1    0    0    0    0 -0.00000000000E+00 -0.00000000000E+00 -0.45593999997E+02  0.45594000000E+02  0.51100000000E-03 0.  1.
    9900012    2    1    2    0    0  0.29944163513E+01 -0.17028565441E+02 -0.36799819389E+02  0.50528864774E+02  0.30000014969E+02 0.  0.
         12    1    1    2    0    0 -0.29944163513E+01  0.17028565441E+02  0.36799819389E+02  0.40659135226E+02  0.00000000000E+00 0. -1.
         11    1    3    3    0    0  0.12995348473E+02 -0.94722986903E+01 -0.16639781178E+02  0.23140567026E+02  0.51100000000E-03 0.  1.
        -11    1    3    3    0    0 -0.10199016828E+02 -0.74528425094E+01 -0.74274129932E+01  0.14653711808E+02  0.51100000000E-03 0. -1.
         12    1    3    3    0    0  0.19808470657E+00 -0.10342424107E+00 -0.12732625218E+02  0.12734585940E+02  0.00000000000E+00 0. -1.
</event>
<event>
 7    1  0.2891523E-011  0.5052884E+02  0.7816164E-02  0.1300439E+00
        -11   -1    0    0    0    0  0.00000000000E+00  0.00000000000E+00  0.45593999997E+02  0.45594000000E+02  0.51100000000E-03 0.  1.
         11   -1    0    0    0    0 -0.00000000000E+00 -0.00000000000E+00 -0.45593999997E+02  0.45594000000E+02  0.51100000000E-03 0. -1.
    9900012    2    1    2    0    0  0.30764513530E+02  0.13575154235E+02  0.22856658862E+02  0.50528844087E+02  0.29999952085E+02 0.  0.
         12    1    1    2    0    0 -0.30764513530E+02 -0.13575154235E+02 -0.22856658862E+02  0.40659155913E+02  0.00000000000E+00 0. -1.
         11    1    3    3    0    0  0.97042465777E+01  0.67657732342E+01 -0.57974156626E+01  0.13174145806E+02  0.51100000000E-03 0. -1.
        -11    1    3    3    0    0  0.83120926274E+01  0.70758209394E+01  0.16171335122E+02  0.19510771530E+02  0.51100000000E-03 0.  1.
         12    1    3    3    0    0  0.12748174325E+02 -0.26643993895E+00  0.12482739403E+02  0.17843926750E+02  0.00000000000E+00 0. -1.
</event>
<event>
 7    1  0.2891523E-011  0.5052884E+02  0.7816164E-02  0.1300439E+00
        -11   -1    0    0    0    0  0.00000000000E+00  0.00000000000E+00  0.45593999997E+02  0.45594000000E+02  0.51100000000E-03 0.  1.
         11   -1    0    0    0    0 -0.00000000000E+00 -0.00000000000E+00 -0.45593999997E+02  0.45594000000E+02  0.51100000000E-03 0. -1.
    9900012    2    1    2    0    0  0.47458222032E+01  0.17571301719E+02  0.36357859376E+02  0.50528838536E+02  0.29999935215E+02 0.  0.
         12    1    1    2    0    0 -0.47458222032E+01 -0.17571301719E+02 -0.36357859376E+02  0.40659161464E+02  0.00000000000E+00 0. -1.
         11    1    3    3    0    0  0.83561653723E+00  0.14393911037E+02  0.18304218296E+01  0.14533869900E+02  0.51100000000E-03 0. -1.
        -11    1    3    3    0    0 -0.12207787923E+01  0.37685849597E+01  0.23327640489E+02  0.23661600633E+02  0.51100000000E-03 0.  1.
         12    1    3    3    0    0  0.51309844583E+01 -0.59119427719E+00  0.11199797057E+02  0.12333368004E+02  0.00000000000E+00 0. -1.
</event>
<event>
 7    1  0.2891523E-011  0.5052886E+02  0.7816164E-02  0.1300439E+00
        -11   -1    0    0    0    0  0.00000000000E+00  0.00000000000E+00  0.45593999997E+02  0.45594000000E+02  0.51100000000E-03 0.  1.
         11   -1    0    0    0    0 -0.00000000000E+00 -0.00000000000E+00 -0.45593999997E+02  0.45594000000E+02  0.51100000000E-03 0. -1.
    9900012    2    1    2    0    0  0.20743949297E+01  0.15759131779E+02  0.37423420708E+02  0.50528858762E+02  0.29999996693E+02 0.  0.
         12    1    1    2    0    0 -0.20743949297E+01 -0.15759131779E+02 -0.37423420708E+02  0.40659141238E+02  0.00000000000E+00 0. -1.
         11    1    3    3    0    0  0.40914500165E+01 -0.57945885738E+01  0.53869342637E+00  0.71138885882E+01  0.51100000000E-03 0. -1.
        -11    1    3    3    0    0  0.89106443004E+00  0.18797629609E+02  0.29004264845E+02  0.34574445103E+02  0.51100000000E-03 0.  1.
        -12    1    3    3    0    0 -0.29081195169E+01  0.27560907435E+01  0.78804624363E+01  0.88405250704E+01  0.00000000000E+00 0.  1.
</event>
<event>
 7    1  0.2891523E-011  0.5052886E+02  0.7816164E-02  0.1300439E+00
        -11   -1    0    0    0    0  0.00000000000E+00  0.00000000000E+00  0.45593999997E+02  0.45594000000E+02  0.51100000000E-03 0.  1.
         11   -1    0    0    0    0 -0.00000000000E+00 -0.00000000000E+00 -0.45593999997E+02  0.45594000000E+02  0.51100000000E-03 0. -1.
    9900012    2    1    2    0    0  0.34098573989E+02  0.15350364039E+02 -0.15963064578E+02  0.50528857670E+02  0.29999993375E+02 0.  0.
         12    1    1    2    0    0 -0.34098573989E+02 -0.15350364039E+02  0.15963064578E+02  0.40659142330E+02  0.00000000000E+00 0. -1.
         11    1    3    3    0    0 -0.10671342083E+01 -0.46401246214E+00 -0.87732103388E+01  0.88500453611E+01  0.51100000000E-03 0. -1.
        -11    1    3    3    0    0  0.12226049294E+02 -0.12673943785E+01 -0.38668395814E+01  0.12885457634E+02  0.51100000000E-03 0.  1.
         12    1    3    3    0    0  0.22939658904E+02  0.17081770880E+02 -0.33230146582E+01  0.28793354675E+02  0.00000000000E+00 0. -1.
</event>
<event>
 7    1  0.2891523E-011  0.5052889E+02  0.7816164E-02  0.1300439E+00
        -11   -1    0    0    0    0  0.00000000000E+00  0.00000000000E+00  0.45593999997E+02  0.45594000000E+02  0.51100000000E-03 0.  1.
         11   -1    0    0    0    0 -0.00000000000E+00 -0.00000000000E+00 -0.45593999997E+02  0.45594000000E+02  0.51100000000E-03 0. -1.
    9900012    2    1    2    0    0  0.33590673695E+02  0.21314243966E+02  0.83984053119E+01  0.50528885808E+02  0.30000078901E+02 0.  0.
         12    1    1    2    0    0 -0.33590673695E+02 -0.21314243966E+02 -0.83984053119E+01  0.40659114192E+02  0.00000000000E+00 0. -1.
         11    1    3    3    0    0  0.17882935253E+02  0.25442592810E+01 -0.64063618261E+01  0.19165440268E+02  0.51100000000E-03 0. -1.
        -11    1    3    3    0    0  0.15963324814E+02  0.19785950452E+02  0.11511304253E+02  0.27907377166E+02  0.51100000000E-03 0.  1.
         12    1    3    3    0    0 -0.25558637193E+00 -0.10159657671E+01  0.32934628851E+01  0.34560683744E+01  0.00000000000E+00 0. -1.
</event>
<event>
 7    1  0.2891523E-011  0.5052884E+02  0.7816164E-02  0.1300439E+00
        -11   -1    0    0    0    0  0.00000000000E+00  0.00000000000E+00  0.45593999997E+02  0.45594000000E+02  0.51100000000E-03 0.  1.
         11   -1    0    0    0    0 -0.00000000000E+00 -0.00000000000E+00 -0.45593999997E+02  0.45594000000E+02  0.51100000000E-03 0. -1.
    9900012    2    1    2    0    0  0.26599786157E+02 -0.26816561292E+02  0.15049604777E+02  0.50528841290E+02  0.29999943584E+02 0.  0.
         12    1    1    2    0    0 -0.26599786157E+02  0.26816561292E+02 -0.15049604777E+02  0.40659158710E+02  0.00000000000E+00 0. -1.
         11    1    3    3    0    0  0.21585431941E+00 -0.19446578007E+01  0.41958184218E+01  0.46295982049E+01  0.51100000000E-03 0. -1.
        -11    1    3    3    0    0  0.31680492088E+02 -0.21132307240E+02  0.86563099022E+01  0.39053292942E+02  0.51100000000E-03 0.  1.
        -12    1    3    3    0    0 -0.52965602503E+01 -0.37395962508E+01  0.21974764529E+01  0.68459501433E+01  0.00000000000E+00 0.  1.
</event>
<event>
 7    1  0.2891523E-011  0.5052886E+02  0.7816164E-02  0.1300439E+00
        -11   -1    0    0    0    0  0.00000000000E+00  0.00000000000E+00  0.45593999997E+02  0.45594000000E+02  0.51100000000E-03 0.  1.
         11   -1    0    0    0    0 -0.00000000000E+00 -0.00000000000E+00 -0.45593999997E+02  0.45594000000E+02  0.51100000000E-03 0. -1.
    9900012    2    1    2    0    0  0.71637504978E+00  0.82657369045E+01  0.39803642105E+02  0.50528861733E+02  0.30000005722E+02 0.  0.
         12    1    1    2    0    0 -0.71637504978E+00 -0.82657369045E+01 -0.39803642105E+02  0.40659138267E+02  0.00000000000E+00 0. -1.
         11    1    3    3    0    0 -0.68545746918E+01  0.15510443219E+02  0.14141868241E+02  0.22080567942E+02  0.51100000000E-03 0. -1.
        -11    1    3    3    0    0  0.27348310773E+01 -0.68408825015E+01  0.14082830638E+02  0.15893492174E+02  0.51100000000E-03 0.  1.
         12    1    3    3    0    0  0.48361186644E+01 -0.40382381255E+00  0.11578943226E+02  0.12554801617E+02  0.00000000000E+00 0. -1.
</event>
<event>
 7    1  0.2891523E-011  0.5052888E+02  0.7816164E-02  0.1300439E+00
        -11   -1    0    0    0    0  0.00000000000E+00  0.00000000000E+00  0.45593999997E+02  0.45594000000E+02  0.51100000000E-03 0.  1.
         11   -1    0    0    0    0 -0.00000000000E+00 -0.00000000000E+00 -0.45593999997E+02  0.45594000000E+02  0.51100000000E-03 0. -1.
    9900012    2    1    2    0    0  0.28940951456E+02 -0.13983571334E+02  0.24900712082E+02  0.50528875555E+02  0.30000047738E+02 0.  0.
         12    1    1    2    0    0 -0.28940951456E+02  0.13983571334E+02 -0.24900712082E+02  0.40659124445E+02  0.00000000000E+00 0. -1.
         11    1    3    3    0    0  0.11553614082E+02 -0.52736103909E+01  0.12565491953E+00  0.12700895808E+02  0.51100000000E-03 0. -1.
        -11    1    3    3    0    0  0.16112850317E+02 -0.68471724030E+01  0.28514489389E+02  0.33460182615E+02  0.51100000000E-03 0.  1.
        -12    1    3    3    0    0  0.12744870568E+01 -0.18627885400E+01 -0.37394322270E+01  0.43677971316E+01  0.00000000000E+00 0.  1.
</event>
<event>
 7    1  0.2891523E-011  0.5052885E+02  0.7816164E-02  0.1300439E+00
        -11   -1    0    0    0    0  0.00000000000E+00  0.00000000000E+00  0.45593999997E+02  0.45594000000E+02  0.51100000000E-03 0.  1.
         11   -1    0    0    0    0 -0.00000000000E+00 -0.00000000000E+00 -0.45593999997E+02  0.45594000000E+02  0.51100000000E-03 0. -1.
    9900012    2    1    2    0    0 -0.37813908785E+02 -0.92972649272E+01  0.11697672518E+02  0.50528851275E+02  0.29999973934E+02 0.  0.
         12    1    1    2    0    0  0.37813908785E+02  0.92972649272E+01 -0.11697672518E+02  0.40659148725E+02  0.00000000000E+00 0. -1.
         11    1    3    3    0    0 -0.81322698863E+01  0.76619690934E+01 -0.26956829624E+01  0.11493750075E+02  0.51100000000E-03 0. -1.
        -11    1    3    3    0    0 -0.11498129771E+02 -0.12564417284E+02  0.10238955572E+02  0.19872286768E+02  0.51100000000E-03 0.  1.
         12    1    3    3    0    0 -0.18183509128E+02 -0.43948167365E+01  0.41543999085E+01  0.19162814432E+02  0.00000000000E+00 0. -1.
</event>
<event>
 7    1  0.2891523E-011  0.5052888E+02  0.7816164E-02  0.1300439E+00
        -11   -1    0    0    0    0  0.00000000000E+00  0.00000000000E+00  0.45593999997E+02  0.45594000000E+02  0.51100000000E-03 0. -1.
         11   -1    0    0    0    0 -0.00000000000E+00 -0.00000000000E+00 -0.45593999997E+02  0.45594000000E+02  0.51100000000E-03 0.  1.
    9900012    2    1    2    0    0 -0.40343762672E+02 -0.44986695041E+01 -0.23037157477E+01  0.50528876546E+02  0.30000050749E+02 0.  0.
         12    1    1    2    0    0  0.40343762672E+02  0.44986695041E+01  0.23037157477E+01  0.40659123454E+02  0.00000000000E+00 0. -1.
         11    1    3    3    0    0 -0.66617798052E+01  0.70571151246E+01  0.80349353683E+01  0.12599300405E+02  0.51100000000E-03 0. -1.
        -11    1    3    3    0    0 -0.19175069888E+02 -0.93788784789E+01 -0.30944338960E+01  0.21569009901E+02  0.51100000000E-03 0.  1.
         12    1    3    3    0    0 -0.14506912979E+02 -0.21769061498E+01 -0.72442172199E+01  0.16360566240E+02  0.00000000000E+00 0. -1.
</event>
<event>
 7    1  0.2891523E-011  0.5052884E+02  0.7816164E-02  0.1300439E+00
        -11   -1    0    0    0    0  0.00000000000E+00  0.00000000000E+00  0.45593999997E+02  0.45594000000E+02  0.51100000000E-03 0.  1.
         11   -1    0    0    0    0 -0.00000000000E+00 -0.00000000000E+00 -0.45593999997E+02  0.45594000000E+02  0.51100000000E-03 0. -1.
    9900012    2    1    2    0    0  0.36736012149E+01  0.15262752614E+02  0.37506266307E+02  0.50528843890E+02  0.29999951488E+02 0.  0.
         12    1    1    2    0    0 -0.36736012149E+01 -0.15262752614E+02 -0.37506266307E+02  0.40659156110E+02  0.00000000000E+00 0. -1.
         11    1    3    3    0    0 -0.63611360072E+01 -0.10923940674E+01  0.54707683684E+00  0.64773968095E+01  0.51100000000E-03 0. -1.
        -11    1    3    3    0    0  0.11383206695E+02  0.83579074004E+01  0.30748536954E+02  0.33836437990E+02  0.51100000000E-03 0.  1.
        -12    1    3    3    0    0 -0.13484694729E+01  0.79972392815E+01  0.62106525164E+01  0.10215009091E+02  0.00000000000E+00 0.  1.
</event>
<event>
 7    1  0.2891523E-011  0.5052883E+02  0.7816164E-02  0.1300439E+00
        -11   -1    0    0    0    0  0.00000000000E+00  0.00000000000E+00  0.45593999997E+02  0.45594000000E+02  0.51100000000E-03 0. -1.
         11   -1    0    0    0    0 -0.00000000000E+00 -0.00000000000E+00 -0.45593999997E+02  0.45594000000E+02  0.51100000000E-03 0.  1.
    9900012    2    1    2    0    0 -0.17831531766E+02 -0.36460659870E+02  0.24133985582E+01  0.50528834540E+02  0.29999923068E+02 0.  0.
         12    1    1    2    0    0  0.17831531766E+02  0.36460659870E+02 -0.24133985582E+01  0.40659165460E+02  0.00000000000E+00 0. -1.
         11    1    3    3    0    0  0.26384565674E+01  0.76392780289E+00  0.44908557906E+01  0.52642971742E+01  0.51100000000E-03 0. -1.
        -11    1    3    3    0    0 -0.17639644763E+02 -0.16094916061E+02 -0.17613041840E+01  0.23943800514E+02  0.51100000000E-03 0.  1.
        -12    1    3    3    0    0 -0.28303435710E+01 -0.21129671612E+02 -0.31615304841E+00  0.21320736852E+02  0.00000000000E+00 0.  1.
</event>
<event>
 7    1  0.2891523E-011  0.5052886E+02  0.7816164E-02  0.1300439E+00
        -11   -1    0    0    0    0  0.00000000000E+00  0.00000000000E+00  0.45593999997E+02  0.45594000000E+02  0.51100000000E-03 0. -1.
         11   -1    0    0    0    0 -0.00000000000E+00 -0.00000000000E+00 -0.45593999997E+02  0.45594000000E+02  0.51100000000E-03 0.  1.
    9900012    2    1    2    0    0 -0.23129761358E+02 -0.29944379693E+02  0.14883345680E+02  0.50528859400E+02  0.29999998633E+02 0.  0.
         12    1    1    2    0    0  0.23129761358E+02  0.29944379693E+02 -0.14883345680E+02  0.40659140600E+02  0.00000000000E+00 0. -1.
         11    1    3    3    0    0 -0.31587472971E+01 -0.22831140027E+02  0.42430102968E+01  0.23435907836E+02  0.51100000000E-03 0. -1.
        -11    1    3    3    0    0 -0.11954402174E+02 -0.32224461505E+01 -0.10137046649E+01  0.12422539513E+02  0.51100000000E-03 0.  1.
         12    1    3    3    0    0 -0.80166118870E+01 -0.38907935148E+01  0.11654040049E+02  0.14670412052E+02  0.00000000000E+00 0. -1.
</event>
<event>
 7    1  0.2891523E-011  0.5052885E+02  0.7816164E-02  0.1300439E+00
        -11   -1    0    0    0    0  0.00000000000E+00  0.00000000000E+00  0.45593999997E+02  0.45594000000E+02  0.51100000000E-03 0. -1.
         11   -1    0    0    0    0 -0.00000000000E+00 -0.00000000000E+00 -0.45593999997E+02  0.45594000000E+02  0.51100000000E-03 0.  1.
    9900012    2    1    2    0    0  0.17590135868E+02 -0.12481153807E+02 -0.34467000023E+02  0.50528853787E+02  0.29999981571E+02 0.  0.
         12    1    1    2    0    0 -0.17590135868E+02  0.12481153807E+02  0.34467000023E+02  0.40659146213E+02  0.00000000000E+00 0. -1.
         11    1    3    3    0    0  0.55781436487E+01  0.53792955043E+01 -0.14415937241E+02  0.16366788123E+02  0.51100000000E-03 0. -1.
        -11    1    3    3    0    0  0.40476260082E+01 -0.14281431800E+02 -0.20625412615E+02  0.25411615777E+02  0.51100000000E-03 0.  1.
         12    1    3    3    0    0  0.79643662113E+01 -0.35790175109E+01  0.57434983338E+00  0.87504498869E+01  0.00000000000E+00 0. -1.
</event>
<event>
 7    1  0.2891523E-011  0.5052887E+02  0.7816164E-02  0.1300439E+00
        -11   -1    0    0    0    0  0.00000000000E+00  0.00000000000E+00  0.45593999997E+02  0.45594000000E+02  0.51100000000E-03 0. -1.
         11   -1    0    0    0    0 -0.00000000000E+00 -0.00000000000E+00 -0.45593999997E+02  0.45594000000E+02  0.51100000000E-03 0.  1.
    9900012    2    1    2    0    0  0.19938983200E+02  0.54433589313E+01 -0.35013875870E+02  0.50528871739E+02  0.30000036138E+02 0.  0.
         12    1    1    2    0    0 -0.19938983200E+02 -0.54433589313E+01  0.35013875870E+02  0.40659128261E+02  0.00000000000E+00 0. -1.
         11    1    3    3    0    0 -0.73166910463E+00  0.36375106918E+01 -0.35783160780E+01  0.51547230699E+01  0.51100000000E-03 0. -1.
        -11    1    3    3    0    0  0.12723430750E+02 -0.11545280910E+02 -0.16248729272E+02  0.23647418560E+02  0.51100000000E-03 0.  1.
        -12    1    3    3    0    0  0.79472215546E+01  0.13351129149E+02 -0.15186830520E+02  0.21726730110E+02  0.00000000000E+00 0.  1.
</event>
<event>
 7    1  0.2891523E-011  0.5052880E+02  0.7816164E-02  0.1300439E+00
        -11   -1    0    0    0    0  0.00000000000E+00  0.00000000000E+00  0.45593999997E+02  0.45594000000E+02  0.51100000000E-03 0.  1.
         11   -1    0    0    0    0 -0.00000000000E+00 -0.00000000000E+00 -0.45593999997E+02  0.45594000000E+02  0.51100000000E-03 0. -1.
    9900012    2    1    2    0    0 -0.18922052994E+02 -0.30215052344E+02  0.19549341591E+02  0.50528803816E+02  0.29999829680E+02 0.  0.
         12    1    1    2    0    0  0.18922052994E+02  0.30215052344E+02 -0.19549341591E+02  0.40659196184E+02  0.00000000000E+00 0. -1.
         11    1    3    3    0    0 -0.36392989933E+01  0.34730416018E+00 -0.42759524125E+01  0.56257343198E+01  0.51100000000E-03 0. -1.
        -11    1    3    3    0    0 -0.13785264716E+02 -0.31319062136E+02  0.17647158557E+02  0.38501160785E+02  0.51100000000E-03 0.  1.
         12    1    3    3    0    0 -0.14974892840E+01  0.75670563109E+00  0.61781354460E+01  0.64019087120E+01  0.00000000000E+00 0. -1.
</event>
<event>
 7    1  0.2891523E-011  0.5052885E+02  0.7816164E-02  0.1300439E+00
        -11   -1    0    0    0    0  0.00000000000E+00  0.00000000000E+00  0.45593999997E+02  0.45594000000E+02  0.51100000000E-03 0.  1.
         11   -1    0    0    0    0 -0.00000000000E+00 -0.00000000000E+00 -0.45593999997E+02  0.45594000000E+02  0.51100000000E-03 0. -1.
    9900012    2    1    2    0    0  0.19185032778E+02 -0.34017515969E+02  0.11309726814E+02  0.50528846098E+02  0.29999958199E+02 0.  0.
         12    1    1    2    0    0 -0.19185032778E+02  0.34017515969E+02 -0.11309726814E+02  0.40659153902E+02  0.00000000000E+00 0. -1.
         11    1    3    3    0    0  0.63558138228E+01 -0.43237984818E+01  0.12043418834E+01  0.77808767048E+01  0.51100000000E-03 0. -1.
        -11    1    3    3    0    0 -0.29259055907E+01 -0.24521685576E+02  0.83681093880E+01  0.26074877602E+02  0.51100000000E-03 0.  1.
        -12    1    3    3    0    0  0.15755124546E+02 -0.51720319119E+01  0.17372755428E+01  0.16673091791E+02  0.00000000000E+00 0.  1.
</event>
<event>
 7    1  0.2891523E-011  0.5052887E+02  0.7816164E-02  0.1300439E+00
        -11   -1    0    0    0    0  0.00000000000E+00  0.00000000000E+00  0.45593999997E+02  0.45594000000E+02  0.51100000000E-03 0.  1.
         11   -1    0    0    0    0 -0.00000000000E+00 -0.00000000000E+00 -0.45593999997E+02  0.45594000000E+02  0.51100000000E-03 0. -1.
    9900012    2    1    2    0    0  0.34659393714E+02 -0.13039192158E+02  0.16789014460E+02  0.50528866816E+02  0.30000021174E+02 0.  0.
         12    1    1    2    0    0 -0.34659393714E+02  0.13039192158E+02 -0.16789014460E+02  0.40659133184E+02  0.00000000000E+00 0. -1.
         11    1    3    3    0    0 -0.18513858495E+01 -0.13140503228E+01 -0.16931357053E-02  0.22703217707E+01  0.51100000000E-03 0. -1.
        -11    1    3    3    0    0  0.24327287675E+02 -0.59263995150E+01  0.22447380467E+02  0.33627727056E+02  0.51100000000E-03 0.  1.
        -12    1    3    3    0    0  0.12183491888E+02 -0.57987423207E+01 -0.56566728709E+01  0.14630817990E+02  0.00000000000E+00 0.  1.
</event>
<event>
 7    1  0.2891523E-011  0.5052885E+02  0.7816164E-02  0.1300439E+00
        -11   -1    0    0    0    0  0.00000000000E+00  0.00000000000E+00  0.45593999997E+02  0.45594000000E+02  0.51100000000E-03 0. -1.
         11   -1    0    0    0    0 -0.00000000000E+00 -0.00000000000E+00 -0.45593999997E+02  0.45594000000E+02  0.51100000000E-03 0.  1.
    9900012    2    1    2    0    0 -0.37253516277E+02 -0.14126778481E+02 -0.81102639980E+01  0.50528846943E+02  0.29999960767E+02 0.  0.
         12    1    1    2    0    0  0.37253516277E+02  0.14126778481E+02  0.81102639980E+01  0.40659153057E+02  0.00000000000E+00 0. -1.
         11    1    3    3    0    0 -0.20819745824E+01  0.39880087733E+01  0.12770415627E+01  0.46765016360E+01  0.51100000000E-03 0. -1.
        -11    1    3    3    0    0 -0.26529647266E+02 -0.97562164041E+01 -0.15635521709E+02  0.32302871110E+02  0.51100000000E-03 0.  1.
        -12    1    3    3    0    0 -0.86418944284E+01 -0.83585708499E+01  0.62482161488E+01  0.13549474197E+02  0.00000000000E+00 0.  1.
</event>
<event>
 7    1  0.2891523E-011  0.5052886E+02  0.7816164E-02  0.1300439E+00
        -11   -1    0    0    0    0  0.00000000000E+00  0.00000000000E+00  0.45593999997E+02  0.45594000000E+02  0.51100000000E-03 0.  1.
         11   -1    0    0    0    0 -0.00000000000E+00 -0.00000000000E+00 -0.45593999997E+02  0.45594000000E+02  0.51100000000E-03 0. -1.
    9900012    2    1    2    0    0  0.17252796332E+02  0.63083063206E+01  0.36272742545E+02  0.50528861278E+02  0.30000004340E+02 0.  0.
         12    1    1    2    0    0 -0.17252796332E+02 -0.63083063206E+01 -0.36272742545E+02  0.40659138722E+02  0.00000000000E+00 0. -1.
         11    1    3    3    0    0  0.13690153597E+02 -0.96816271499E+01  0.19252999271E+02  0.25531004503E+02  0.51100000000E-03 0. -1.
        -11    1    3    3    0    0  0.27463741564E+00  0.42409241275E+01  0.10132633964E+02  0.10987772044E+02  0.51100000000E-03 0.  1.
         12    1    3    3    0    0  0.32880053194E+01  0.11749009343E+02  0.68871093099E+01  0.14010084731E+02  0.00000000000E+00 0. -1.
</event>
<event>
 7    1  0.2891523E-011  0.5052886E+02  0.7816164E-02  0.1300439E+00
        -11   -1    0    0    0    0  0.00000000000E+00  0.00000000000E+00  0.45593999997E+02  0.45594000000E+02  0.51100000000E-03 0. -1.
         11   -1    0    0    0    0 -0.00000000000E+00 -0.00000000000E+00 -0.45593999997E+02  0.45594000000E+02  0.51100000000E-03 0.  1.
    9900012    2    1    2    0    0  0.16545670826E+02 -0.26358823108E+02 -0.26165224686E+02  0.50528858818E+02  0.29999996865E+02 0.  0.
         12    1    1    2    0    0 -0.16545670826E+02  0.26358823108E+02  0.26165224686E+02  0.40659141182E+02  0.00000000000E+00 0. -1.
         11    1    3    3    0    0 -0.43495094498E+01 -0.14874451588E+02 -0.79807330552E+01  0.17431570292E+02  0.51100000000E-03 0. -1.
        -11    1    3    3    0    0  0.79136334350E+01  0.27499102257E+01 -0.59533458341E+01  0.10277642107E+02  0.51100000000E-03 0.  1.
        -12    1    3    3    0    0  0.12981546841E+02 -0.14234281746E+02 -0.12231145797E+02  0.22819646420E+02  0.00000000000E+00 0.  1.
</event>
<event>
 7    1  0.2891523E-011  0.5052886E+02  0.7816164E-02  0.1300439E+00
        -11   -1    0    0    0    0  0.00000000000E+00  0.00000000000E+00  0.45593999997E+02  0.45594000000E+02  0.51100000000E-03 0. -1.
         11   -1    0    0    0    0 -0.00000000000E+00 -0.00000000000E+00 -0.45593999997E+02  0.45594000000E+02  0.51100000000E-03 0.  1.
    9900012    2    1    2    0    0 -0.38574813557E+02 -0.91825233210E+01 -0.89905787984E+01  0.50528862250E+02  0.30000007294E+02 0.  0.
         12    1    1    2    0    0  0.38574813557E+02  0.91825233210E+01  0.89905787984E+01  0.40659137750E+02  0.00000000000E+00 0. -1.
         11    1    3    3    0    0 -0.94817499114E+01  0.58677206826E+01 -0.17551090270E+01  0.11287787000E+02  0.51100000000E-03 0. -1.
        -11    1    3    3    0    0 -0.27623370141E+02 -0.16428234012E+02 -0.11811612731E+02  0.34241081266E+02  0.51100000000E-03 0.  1.
        -12    1    3    3    0    0 -0.14696935039E+01  0.13779900079E+01  0.45761429592E+01  0.49999939840E+01  0.00000000000E+00 0.  1.
</event>
<event>
 7    1  0.2891523E-011  0.5052887E+02  0.7816164E-02  0.1300439E+00
        -11   -1    0    0    0    0  0.00000000000E+00  0.00000000000E+00  0.45593999997E+02  0.45594000000E+02  0.51100000000E-03 0. -1.
         11   -1    0    0    0    0 -0.00000000000E+00 -0.00000000000E+00 -0.45593999997E+02  0.45594000000E+02  0.51100000000E-03 0.  1.
    9900012    2    1    2    0    0 -0.24859108613E+02  0.37537068656E+01 -0.31954646600E+02  0.50528867747E+02  0.30000024003E+02 0.  0.
         12    1    1    2    0    0  0.24859108613E+02 -0.37537068656E+01  0.31954646600E+02  0.40659132253E+02  0.00000000000E+00 0. -1.
         11    1    3    3    0    0 -0.81468294579E+01  0.82022444194E+01  0.23769504545E+01  0.11802437776E+02  0.51100000000E-03 0. -1.
        -11    1    3    3    0    0 -0.94994709303E+01 -0.40391166694E+01 -0.16207737647E+02  0.19215753207E+02  0.51100000000E-03 0.  1.
         12    1    3    3    0    0 -0.72128082250E+01 -0.40942088440E+00 -0.18123859408E+02  0.19510676764E+02  0.00000000000E+00 0. -1.
</event>
<event>
 7    1  0.2891523E-011  0.5052886E+02  0.7816164E-02  0.1300439E+00
        -11   -1    0    0    0    0  0.00000000000E+00  0.00000000000E+00  0.45593999997E+02  0.45594000000E+02  0.51100000000E-03 0.  1.
         11   -1    0    0    0    0 -0.00000000000E+00 -0.00000000000E+00 -0.45593999997E+02  0.45594000000E+02  0.51100000000E-03 0. -1.
    9900012    2    1    2    0    0  0.29532093924E+02 -0.10678764079E+02  0.25826060348E+02  0.50528856294E+02  0.29999989191E+02 0.  0.
         12    1    1    2    0    0 -0.29532093924E+02  0.10678764079E+02 -0.25826060348E+02  0.40659143706E+02  0.00000000000E+00 0. -1.
         11    1    3    3    0    0  0.63534531576E+01 -0.15693372597E+02  0.43335696542E+01  0.17476502416E+02  0.51100000000E-03 0. -1.
        -11    1    3    3    0    0  0.22145160845E+01  0.25086509132E+01  0.59811286517E+01  0.68535619281E+01  0.51100000000E-03 0.  1.
         12    1    3    3    0    0  0.20964124682E+02  0.25059576048E+01  0.15511362042E+02  0.26198791950E+02  0.00000000000E+00 0. -1.
</event>
<event>
 7    1  0.2891523E-011  0.5052897E+02  0.7816164E-02  0.1300438E+00
        -11   -1    0    0    0    0  0.00000000000E+00  0.00000000000E+00  0.45593999997E+02  0.45594000000E+02  0.51100000000E-03 0.  1.
         11   -1    0    0    0    0 -0.00000000000E+00 -0.00000000000E+00 -0.45593999997E+02  0.45594000000E+02  0.51100000000E-03 0. -1.
    9900012    2    1    2    0    0  0.11694309373E+02 -0.14157752263E+02  0.36276134555E+02  0.50528969526E+02  0.30000333368E+02 0.  0.
         12    1    1    2    0    0 -0.11694309373E+02  0.14157752263E+02 -0.36276134555E+02  0.40659030474E+02  0.00000000000E+00 0. -1.
         11    1    3    3    0    0  0.93612099960E+01  0.44566449156E+01  0.11690105847E+02  0.15625380362E+02  0.51100000000E-03 0. -1.
        -11    1    3    3    0    0 -0.39436111682E+01 -0.11394537797E+02  0.21845142211E+02  0.24951909729E+02  0.51100000000E-03 0.  1.
         12    1    3    3    0    0  0.62767105454E+01 -0.72198593824E+01  0.27408864972E+01  0.99516794344E+01  0.00000000000E+00 0. -1.
</event>
<event>
 7    1  0.2891523E-011  0.5052886E+02  0.7816164E-02  0.1300439E+00
        -11   -1    0    0    0    0  0.00000000000E+00  0.00000000000E+00  0.45593999997E+02  0.45594000000E+02  0.51100000000E-03 0.  1.
         11   -1    0    0    0    0 -0.00000000000E+00 -0.00000000000E+00 -0.45593999997E+02  0.45594000000E+02  0.51100000000E-03 0. -1.
    9900012    2    1    2    0    0 -0.13364388919E+02 -0.65638455135E+01  0.37834838190E+02  0.50528856625E+02  0.29999990197E+02 0.  0.
         12    1    1    2    0    0  0.13364388919E+02  0.65638455135E+01 -0.37834838190E+02  0.40659143375E+02  0.00000000000E+00 0. -1.
         11    1    3    3    0    0 -0.42201100350E+01  0.29842804394E+01  0.32236587789E+00  0.51787236332E+01  0.51100000000E-03 0. -1.
        -11    1    3    3    0    0 -0.14582350767E+02 -0.34493603150E+01  0.32437049931E+02  0.35731012425E+02  0.51100000000E-03 0.  1.
        -12    1    3    3    0    0  0.54380718835E+01 -0.60987656379E+01  0.50754223819E+01  0.96191205664E+01  0.00000000000E+00 0.  1.
</event>
<event>
 7    1  0.2891523E-011  0.5052886E+02  0.7816164E-02  0.1300439E+00
        -11   -1    0    0    0    0  0.00000000000E+00  0.00000000000E+00  0.45593999997E+02  0.45594000000E+02  0.51100000000E-03 0.  1.
         11   -1    0    0    0    0 -0.00000000000E+00 -0.00000000000E+00 -0.45593999997E+02  0.45594000000E+02  0.51100000000E-03 0. -1.
    9900012    2    1    2    0    0  0.37074903919E+02  0.86825800435E+01  0.14255880324E+02  0.50528858093E+02  0.29999994658E+02 0.  0.
         12    1    1    2    0    0 -0.37074903919E+02 -0.86825800435E+01 -0.14255880324E+02  0.40659141907E+02  0.00000000000E+00 0. -1.
         11    1    3    3    0    0  0.77001992854E+00  0.82626517912E-01  0.67199788976E+01  0.67644567023E+01  0.51100000000E-03 0. -1.
        -11    1    3    3    0    0  0.27395619465E+02  0.15826867387E+02  0.55765868000E+01  0.32126437988E+02  0.51100000000E-03 0.  1.
        -12    1    3    3    0    0  0.89092645256E+01 -0.72269138619E+01  0.19593146266E+01  0.11637963403E+02  0.00000000000E+00 0.  1.
</event>
<event>
 7    1  0.2891523E-011  0.5052885E+02  0.7816164E-02  0.1300439E+00
        -11   -1    0    0    0    0  0.00000000000E+00  0.00000000000E+00  0.45593999997E+02  0.45594000000E+02  0.51100000000E-03 0. -1.
         11   -1    0    0    0    0 -0.00000000000E+00 -0.00000000000E+00 -0.45593999997E+02  0.45594000000E+02  0.51100000000E-03 0.  1.
    9900012    2    1    2    0    0 -0.26331406720E+02 -0.19258943886E+02 -0.24267598918E+02  0.50528852730E+02  0.29999978359E+02 0.  0.
         12    1    1    2    0    0  0.26331406720E+02  0.19258943886E+02  0.24267598918E+02  0.40659147270E+02  0.00000000000E+00 0. -1.
         11    1    3    3    0    0 -0.12273766961E+02 -0.18544756737E+02 -0.27035443374E+01  0.22402288055E+02  0.51100000000E-03 0. -1.
        -11    1    3    3    0    0 -0.11290671807E+02 -0.40776059315E+01 -0.20313231511E+02  0.23595201094E+02  0.51100000000E-03 0.  1.
        -12    1    3    3    0    0 -0.27669679511E+01  0.33634187826E+01 -0.12508230701E+01  0.45313635809E+01  0.00000000000E+00 0.  1.
</event>
<event>
 7    1  0.2891523E-011  0.5052886E+02  0.7816164E-02  0.1300439E+00
        -11   -1    0    0    0    0  0.00000000000E+00  0.00000000000E+00  0.45593999997E+02  0.45594000000E+02  0.51100000000E-03 0.  1.
         11   -1    0    0    0    0 -0.00000000000E+00 -0.00000000000E+00 -0.45593999997E+02  0.45594000000E+02  0.51100000000E-03 0. -1.
    9900012    2    1    2    0    0 -0.11849390974E+00 -0.13710111297E+02  0.38277726519E+02  0.50528861543E+02  0.30000005146E+02 0.  0.
         12    1    1    2    0    0  0.11849390974E+00  0.13710111297E+02 -0.38277726519E+02  0.40659138457E+02  0.00000000000E+00 0. -1.
         11    1    3    3    0    0 -0.13155321911E+01  0.55251183447E+01  0.17638511898E+02  0.18530371284E+02  0.51100000000E-03 0. -1.
        -11    1    3    3    0    0  0.24861257927E+01 -0.14194556714E+02  0.45853289071E+01  0.15122549495E+02  0.51100000000E-03 0.  1.
        -12    1    3    3    0    0 -0.12890875113E+01 -0.50406729276E+01  0.16053885714E+02  0.16875940765E+02  0.00000000000E+00 0.  1.
</event>
<event>
 7    1  0.2891523E-011  0.5052885E+02  0.7816164E-02  0.1300439E+00
        -11   -1    0    0    0    0  0.00000000000E+00  0.00000000000E+00  0.45593999997E+02  0.45594000000E+02  0.51100000000E-03 0. -1.
         11   -1    0    0    0    0 -0.00000000000E+00 -0.00000000000E+00 -0.45593999997E+02  0.45594000000E+02  0.51100000000E-03 0.  1.
    9900012    2    1    2    0    0 -0.19572871692E+02 -0.18042590596E+02 -0.30733270572E+02  0.50528852177E+02  0.29999976676E+02 0.  0.
         12    1    1    2    0    0  0.19572871692E+02  0.18042590596E+02  0.30733270572E+02  0.40659147823E+02  0.00000000000E+00 0. -1.
         11    1    3    3    0    0 -0.41410443949E+01 -0.35100297180E+01 -0.22944984534E+02  0.23578398436E+02  0.51100000000E-03 0. -1.
        -11    1    3    3    0    0 -0.17693651458E+02 -0.15237190414E+02 -0.76726813335E+01  0.24578594604E+02  0.51100000000E-03 0.  1.
         12    1    3    3    0    0  0.22618241603E+01  0.70462953567E+00 -0.11560470452E+00  0.23718591363E+01  0.00000000000E+00 0. -1.
</event>
<event>
 7    1  0.2891523E-011  0.5052886E+02  0.7816164E-02  0.1300439E+00
        -11   -1    0    0    0    0  0.00000000000E+00  0.00000000000E+00  0.45593999997E+02  0.45594000000E+02  0.51100000000E-03 0.  1.
         11   -1    0    0    0    0 -0.00000000000E+00 -0.00000000000E+00 -0.45593999997E+02  0.45594000000E+02  0.51100000000E-03 0. -1.
    9900012    2    1    2    0    0 -0.35517930110E+02 -0.17639086379E+02  0.89724479757E+01  0.50528861418E+02  0.30000004766E+02 0.  0.
         12    1    1    2    0    0  0.35517930110E+02  0.17639086379E+02 -0.89724479757E+01  0.40659138582E+02  0.00000000000E+00 0. -1.
         11    1    3    3    0    0 -0.22767507083E+02 -0.12891454500E+02  0.18509612964E+02  0.32049255066E+02  0.51100000000E-03 0.  1.
        -11    1    3    3    0    0  0.24609762579E+00 -0.26526734034E+01 -0.16231302885E+01  0.31195820908E+01  0.51100000000E-03 0. -1.
         12    1    3    3    0    0 -0.12996520652E+02 -0.20949584754E+01 -0.79140347002E+01  0.15360024261E+02  0.00000000000E+00 0. -1.
</event>
<event>
 7    1  0.2891523E-011  0.5052886E+02  0.7816164E-02  0.1300439E+00
        -11   -1    0    0    0    0  0.00000000000E+00  0.00000000000E+00  0.45593999997E+02  0.45594000000E+02  0.51100000000E-03 0. -1.
         11   -1    0    0    0    0 -0.00000000000E+00 -0.00000000000E+00 -0.45593999997E+02  0.45594000000E+02  0.51100000000E-03 0.  1.
    9900012    2    1    2    0    0 -0.36441387600E+02 -0.10041949745E+02 -0.14978330870E+02  0.50528857356E+02  0.29999992418E+02 0.  0.
         12    1    1    2    0    0  0.36441387600E+02  0.10041949745E+02  0.14978330870E+02  0.40659142644E+02  0.00000000000E+00 0. -1.
         11    1    3    3    0    0 -0.61442866611E+01  0.51484195565E+00  0.95848494906E-01  0.61665637116E+01  0.51100000000E-03 0. -1.
        -11    1    3    3    0    0 -0.15680934111E+02 -0.91789995215E+01 -0.21659908066E+02  0.28271847207E+02  0.51100000000E-03 0.  1.
        -12    1    3    3    0    0 -0.14616166828E+02 -0.13777921791E+01  0.65857287007E+01  0.16090446437E+02  0.00000000000E+00 0.  1.
</event>
<event>
 7    1  0.2891523E-011  0.5052886E+02  0.7816164E-02  0.1300439E+00
        -11   -1    0    0    0    0  0.00000000000E+00  0.00000000000E+00  0.45593999997E+02  0.45594000000E+02  0.51100000000E-03 0.  1.
         11   -1    0    0    0    0 -0.00000000000E+00 -0.00000000000E+00 -0.45593999997E+02  0.45594000000E+02  0.51100000000E-03 0. -1.
    9900012    2    1    2    0    0  0.26359358317E+02 -0.16369091540E+02  0.26275515872E+02  0.50528860030E+02  0.30000000548E+02 0.  0.
         12    1    1    2    0    0 -0.26359358317E+02  0.16369091540E+02 -0.26275515872E+02  0.40659139970E+02  0.00000000000E+00 0. -1.
         11    1    3    3    0    0  0.54255231390E+01  0.38389132217E+01  0.88215382773E+01  0.11045048388E+02  0.51100000000E-03 0. -1.
        -11    1    3    3    0    0  0.12800341527E+02 -0.19542837293E+02  0.39322781253E+01  0.23690378726E+02  0.51100000000E-03 0.  1.
        -12    1    3    3    0    0  0.81334936503E+01 -0.66516746879E+00  0.13521699470E+02  0.15793432916E+02  0.00000000000E+00 0.  1.
</event>
<event>
 7    1  0.2891523E-011  0.5052886E+02  0.7816164E-02  0.1300439E+00
        -11   -1    0    0    0    0  0.00000000000E+00  0.00000000000E+00  0.45593999997E+02  0.45594000000E+02  0.51100000000E-03 0.  1.
         11   -1    0    0    0    0 -0.00000000000E+00 -0.00000000000E+00 -0.45593999997E+02  0.45594000000E+02  0.51100000000E-03 0. -1.
    9900012    2    1    2    0    0  0.15538144374E+02  0.12380624750E+02  0.35474667471E+02  0.50528857954E+02  0.29999994237E+02 0.  0.
         12    1    1    2    0    0 -0.15538144374E+02 -0.12380624750E+02 -0.35474667471E+02  0.40659142046E+02  0.00000000000E+00 0. -1.
         11    1    3    3    0    0 -0.62220425601E+01  0.77811224517E+00  0.55732487364E+00  0.62952270460E+01  0.51100000000E-03 0. -1.
        -11    1    3    3    0    0  0.18399214746E+02  0.12715913111E+02  0.33783246512E+02  0.40515840047E+02  0.51100000000E-03 0.  1.
         12    1    3    3    0    0  0.33609721878E+01 -0.11134006066E+01  0.11340960847E+01  0.37177908611E+01  0.00000000000E+00 0. -1.
</event>
<event>
 7    1  0.2891523E-011  0.5052886E+02  0.7816164E-02  0.1300439E+00
        -11   -1    0    0    0    0  0.00000000000E+00  0.00000000000E+00  0.45593999997E+02  0.45594000000E+02  0.51100000000E-03 0.  1.
         11   -1    0    0    0    0 -0.00000000000E+00 -0.00000000000E+00 -0.45593999997E+02  0.45594000000E+02  0.51100000000E-03 0. -1.
    9900012    2    1    2    0    0 -0.29561580602E+02  0.23251969270E+02  0.15447467860E+02  0.50528863439E+02  0.30000010908E+02 0.  0.
         12    1    1    2    0    0  0.29561580602E+02 -0.23251969270E+02 -0.15447467860E+02  0.40659136561E+02  0.00000000000E+00 0. -1.
         11    1    3    3    0    0 -0.50643897423E+00  0.24604673708E+00 -0.97012939719E+00  0.11216821029E+01  0.51100000000E-03 0. -1.
        -11    1    3    3    0    0 -0.19828801564E+02  0.27380167175E+02  0.51412598479E+01  0.34194845797E+02  0.51100000000E-03 0.  1.
        -12    1    3    3    0    0 -0.92263400638E+01 -0.43742446423E+01  0.11276337409E+02  0.15212335538E+02  0.00000000000E+00 0.  1.
</event>
<event>
 7    1  0.2891523E-011  0.5052887E+02  0.7816164E-02  0.1300439E+00
        -11   -1    0    0    0    0  0.00000000000E+00  0.00000000000E+00  0.45593999997E+02  0.45594000000E+02  0.51100000000E-03 0. -1.
         11   -1    0    0    0    0 -0.00000000000E+00 -0.00000000000E+00 -0.45593999997E+02  0.45594000000E+02  0.51100000000E-03 0.  1.
    9900012    2    1    2    0    0  0.91037037311E+01  0.39246709010E+02 -0.54756870148E+01  0.50528871406E+02  0.30000035125E+02 0.  0.
         12    1    1    2    0    0 -0.91037037311E+01 -0.39246709010E+02  0.54756870148E+01  0.40659128594E+02  0.00000000000E+00 0. -1.
         11    1    3    3    0    0  0.82292111636E+01  0.84268064043E+01  0.19814472445E+01  0.11943915438E+02  0.51100000000E-03 0. -1.
        -11    1    3    3    0    0 -0.36047197382E+01 -0.22784651440E+01 -0.21158574231E+01  0.47604895440E+01  0.51100000000E-03 0.  1.
        -12    1    3    3    0    0  0.44792123057E+01  0.33098367750E+02 -0.53412768363E+01  0.33824466424E+02  0.00000000000E+00 0.  1.
</event>
<event>
 7    1  0.2891523E-011  0.5052885E+02  0.7816164E-02  0.1300439E+00
        -11   -1    0    0    0    0  0.00000000000E+00  0.00000000000E+00  0.45593999997E+02  0.45594000000E+02  0.51100000000E-03 0.  1.
         11   -1    0    0    0    0 -0.00000000000E+00 -0.00000000000E+00 -0.45593999997E+02  0.45594000000E+02  0.51100000000E-03 0. -1.
    9900012    2    1    2    0    0 -0.87856994286E+01  0.14432686292E+02  0.36982093026E+02  0.50528854010E+02  0.29999982248E+02 0.  0.
         12    1    1    2    0    0  0.87856994286E+01 -0.14432686292E+02 -0.36982093026E+02  0.40659145990E+02  0.00000000000E+00 0. -1.
         11    1    3    3    0    0 -0.14856181591E+01 -0.48672635072E+01  0.12339522023E+02  0.13347700903E+02  0.51100000000E-03 0. -1.
        -11    1    3    3    0    0 -0.62003360744E-01  0.15404979251E+02  0.55153946057E+01  0.16362665066E+02  0.51100000000E-03 0.  1.
        -12    1    3    3    0    0 -0.72380779087E+01  0.38949705483E+01  0.19127176397E+02  0.20818488041E+02  0.00000000000E+00 0.  1.
</event>
<event>
 7    1  0.2891523E-011  0.5052886E+02  0.7816164E-02  0.1300439E+00
        -11   -1    0    0    0    0  0.00000000000E+00  0.00000000000E+00  0.45593999997E+02  0.45594000000E+02  0.51100000000E-03 0.  1.
         11   -1    0    0    0    0 -0.00000000000E+00 -0.00000000000E+00 -0.45593999997E+02  0.45594000000E+02  0.51100000000E-03 0. -1.
    9900012    2    1    2    0    0 -0.62258680148E+01 -0.22390034480E+02  0.33363016742E+02  0.50528856346E+02  0.29999989351E+02 0.  0.
         12    1    1    2    0    0  0.62258680148E+01  0.22390034480E+02 -0.33363016742E+02  0.40659143654E+02  0.00000000000E+00 0. -1.
         11    1    3    3    0    0 -0.19233773919E+00  0.24003413471E+01  0.26847964319E+01  0.36064892250E+01  0.51100000000E-03 0. -1.
        -11    1    3    3    0    0  0.11608474517E+01 -0.26878075243E+02  0.18590026935E+02  0.32701186481E+02  0.51100000000E-03 0.  1.
        -12    1    3    3    0    0 -0.71943777273E+01  0.20876994164E+01  0.12088193375E+02  0.14221180640E+02  0.00000000000E+00 0.  1.
</event>
<event>
 7    1  0.2891523E-011  0.5052886E+02  0.7816164E-02  0.1300439E+00
        -11   -1    0    0    0    0  0.00000000000E+00  0.00000000000E+00  0.45593999997E+02  0.45594000000E+02  0.51100000000E-03 0. -1.
         11   -1    0    0    0    0 -0.00000000000E+00 -0.00000000000E+00 -0.45593999997E+02  0.45594000000E+02  0.51100000000E-03 0.  1.
    9900012    2    1    2    0    0 -0.27985058773E+02 -0.10573447523E+01 -0.29476841384E+02  0.50528859940E+02  0.30000000273E+02 0.  0.
         12    1    1    2    0    0  0.27985058773E+02  0.10573447523E+01  0.29476841384E+02  0.40659140060E+02  0.00000000000E+00 0. -1.
         11    1    3    3    0    0  0.41089441383E+01  0.49430250502E+01 -0.61081126701E+01  0.88671280147E+01  0.51100000000E-03 0. -1.
        -11    1    3    3    0    0 -0.32932189386E+02 -0.58703153569E+01 -0.23382561013E+02  0.40813402945E+02  0.51100000000E-03 0.  1.
        -12    1    3    3    0    0  0.83818647525E+00 -0.13005444563E+00  0.13832298255E-01  0.84832898017E+00  0.00000000000E+00 0.  1.
</event>
<event>
 7    1  0.2891523E-011  0.5052886E+02  0.7816164E-02  0.1300439E+00
        -11   -1    0    0    0    0  0.00000000000E+00  0.00000000000E+00  0.45593999997E+02  0.45594000000E+02  0.51100000000E-03 0.  1.
         11   -1    0    0    0    0 -0.00000000000E+00 -0.00000000000E+00 -0.45593999997E+02  0.45594000000E+02  0.51100000000E-03 0. -1.
    9900012    2    1    2    0    0 -0.25110881998E+02  0.18009556386E+02  0.26424710649E+02  0.50528857747E+02  0.29999993606E+02 0.  0.
         12    1    1    2    0    0  0.25110881998E+02 -0.18009556386E+02 -0.26424710649E+02  0.40659142253E+02  0.00000000000E+00 0. -1.
         11    1    3    3    0    0 -0.16121003458E+02  0.49983184552E+01  0.68477795167E+01  0.18214335685E+02  0.51100000000E-03 0. -1.
        -11    1    3    3    0    0 -0.26359101970E+01  0.15198998380E+02  0.49216555885E+01  0.16191981606E+02  0.51100000000E-03 0.  1.
        -12    1    3    3    0    0 -0.63539683423E+01 -0.21877604496E+01  0.14655275544E+02  0.16122540456E+02  0.00000000000E+00 0.  1.
</event>
<event>
 7    1  0.2891523E-011  0.5052886E+02  0.7816164E-02  0.1300439E+00
        -11   -1    0    0    0    0  0.00000000000E+00  0.00000000000E+00  0.45593999997E+02  0.45594000000E+02  0.51100000000E-03 0.  1.
         11   -1    0    0    0    0 -0.00000000000E+00 -0.00000000000E+00 -0.45593999997E+02  0.45594000000E+02  0.51100000000E-03 0. -1.
    9900012    2    1    2    0    0  0.25783913459E+02 -0.20689809590E+02  0.23670389967E+02  0.50528858650E+02  0.29999996352E+02 0.  0.
         12    1    1    2    0    0 -0.25783913459E+02  0.20689809590E+02 -0.23670389967E+02  0.40659141350E+02  0.00000000000E+00 0. -1.
         11    1    3    3    0    0  0.71044994195E+01 -0.27366758360E+01 -0.41403315766E+01  0.86663517387E+01  0.51100000000E-03 0. -1.
        -11    1    3    3    0    0  0.75072567228E+01  0.53783920210E+00  0.14904251853E+02  0.16696852939E+02  0.51100000000E-03 0.  1.
         12    1    3    3    0    0  0.11172157317E+02 -0.18490972956E+02  0.12906469691E+02  0.25165653973E+02  0.00000000000E+00 0. -1.
</event>
<event>
 7    1  0.2891523E-011  0.5052886E+02  0.7816164E-02  0.1300439E+00
        -11   -1    0    0    0    0  0.00000000000E+00  0.00000000000E+00  0.45593999997E+02  0.45594000000E+02  0.51100000000E-03 0.  1.
         11   -1    0    0    0    0 -0.00000000000E+00 -0.00000000000E+00 -0.45593999997E+02  0.45594000000E+02  0.51100000000E-03 0. -1.
    9900012    2    1    2    0    0 -0.11017575754E+00 -0.16613629469E+02  0.37109853380E+02  0.50528855387E+02  0.29999986433E+02 0.  0.
         12    1    1    2    0    0  0.11017575754E+00  0.16613629469E+02 -0.37109853380E+02  0.40659144613E+02  0.00000000000E+00 0. -1.
         11    1    3    3    0    0  0.11436118964E+02 -0.97901081634E+01  0.13860902173E+02  0.20463519837E+02  0.51100000000E-03 0. -1.
        -11    1    3    3    0    0 -0.10783908604E+02 -0.24767192449E+01  0.23141755712E+02  0.25650880700E+02  0.51100000000E-03 0.  1.
        -12    1    3    3    0    0 -0.76238611752E+00 -0.43468020606E+01  0.10719549500E+00  0.44144548498E+01  0.00000000000E+00 0.  1.
</event>
<event>
 7    1  0.2891523E-011  0.5052887E+02  0.7816164E-02  0.1300439E+00
        -11   -1    0    0    0    0  0.00000000000E+00  0.00000000000E+00  0.45593999997E+02  0.45594000000E+02  0.51100000000E-03 0.  1.
         11   -1    0    0    0    0 -0.00000000000E+00 -0.00000000000E+00 -0.45593999997E+02  0.45594000000E+02  0.51100000000E-03 0. -1.
    9900012    2    1    2    0    0  0.32272172774E+02  0.10203706714E+02  0.22529006918E+02  0.50528869181E+02  0.30000028362E+02 0.  0.
         12    1    1    2    0    0 -0.32272172774E+02 -0.10203706714E+02 -0.22529006918E+02  0.40659130819E+02  0.00000000000E+00 0. -1.
         11    1    3    3    0    0  0.96699467992E+01  0.11735547870E+02 -0.26257357118E+01  0.15431313722E+02  0.51100000000E-03 0. -1.
        -11    1    3    3    0    0  0.60654376113E+01  0.31497226079E+01  0.43051367755E+01  0.80774060713E+01  0.51100000000E-03 0.  1.
         12    1    3    3    0    0  0.16536788364E+02 -0.46815637631E+01  0.20849605854E+02  0.27020149387E+02  0.00000000000E+00 0. -1.
</event>
<event>
 7    1  0.2891523E-011  0.5052878E+02  0.7816164E-02  0.1300439E+00
        -11   -1    0    0    0    0  0.00000000000E+00  0.00000000000E+00  0.45593999997E+02  0.45594000000E+02  0.51100000000E-03 0.  1.
         11   -1    0    0    0    0 -0.00000000000E+00 -0.00000000000E+00 -0.45593999997E+02  0.45594000000E+02  0.51100000000E-03 0. -1.
    9900012    2    1    2    0    0 -0.21989673432E+02 -0.25497009920E+02  0.22793178596E+02  0.50528779115E+02  0.29999754596E+02 0.  0.
         12    1    1    2    0    0  0.21989673432E+02  0.25497009920E+02 -0.22793178596E+02  0.40659220885E+02  0.00000000000E+00 0. -1.
         11    1    3    3    0    0 -0.50160296425E+01 -0.12728283861E+02 -0.58282275956E+00  0.13693408854E+02  0.51100000000E-03 0. -1.
        -11    1    3    3    0    0 -0.17359251327E+02 -0.37167900483E+01  0.20941825348E+02  0.27453928391E+02  0.51100000000E-03 0.  1.
        -12    1    3    3    0    0  0.38560753811E+00 -0.90519360110E+01  0.24341760072E+01  0.93814418697E+01  0.00000000000E+00 0.  1.
</event>
<event>
 7    1  0.2891523E-011  0.5052885E+02  0.7816164E-02  0.1300439E+00
        -11   -1    0    0    0    0  0.00000000000E+00  0.00000000000E+00  0.45593999997E+02  0.45594000000E+02  0.51100000000E-03 0. -1.
         11   -1    0    0    0    0 -0.00000000000E+00 -0.00000000000E+00 -0.45593999997E+02  0.45594000000E+02  0.51100000000E-03 0.  1.
    9900012    2    1    2    0    0 -0.15983673790E+02  0.32573932972E+02 -0.18347406663E+02  0.50528852587E+02  0.29999977922E+02 0.  0.
         12    1    1    2    0    0  0.15983673790E+02 -0.32573932972E+02  0.18347406663E+02  0.40659147413E+02  0.00000000000E+00 0. -1.
         11    1    3    3    0    0 -0.17773022241E+02  0.17830023147E+02 -0.13926365131E+02  0.28770361329E+02  0.51100000000E-03 0. -1.
        -11    1    3    3    0    0  0.51736423178E+01  0.16423081350E+02 -0.50148784413E+01  0.17934134545E+02  0.51100000000E-03 0.  1.
        -12    1    3    3    0    0 -0.33842938674E+01 -0.16791715240E+01  0.59383690896E+00  0.38243567122E+01  0.00000000000E+00 0.  1.
</event>
<event>
 7    1  0.2891523E-011  0.5052886E+02  0.7816164E-02  0.1300439E+00
        -11   -1    0    0    0    0  0.00000000000E+00  0.00000000000E+00  0.45593999997E+02  0.45594000000E+02  0.51100000000E-03 0.  1.
         11   -1    0    0    0    0 -0.00000000000E+00 -0.00000000000E+00 -0.45593999997E+02  0.45594000000E+02  0.51100000000E-03 0. -1.
    9900012    2    1    2    0    0 -0.32091335226E+02  0.45652048217E+01  0.24545285891E+02  0.50528856488E+02  0.29999989782E+02 0.  0.
         12    1    1    2    0    0  0.32091335226E+02 -0.45652048217E+01 -0.24545285891E+02  0.40659143512E+02  0.00000000000E+00 0. -1.
         11    1    3    3    0    0 -0.16082498931E+02  0.36193280653E+01  0.25825428457E+02  0.30638196141E+02  0.51100000000E-03 0. -1.
        -11    1    3    3    0    0 -0.11689620640E+02 -0.12517897340E+01  0.42833648930E+01  0.12512450732E+02  0.51100000000E-03 0.  1.
         12    1    3    3    0    0 -0.43192156548E+01  0.21976664904E+01 -0.55635074597E+01  0.73782096155E+01  0.00000000000E+00 0. -1.
</event>
<event>
 7    1  0.2891523E-011  0.5052883E+02  0.7816164E-02  0.1300439E+00
        -11   -1    0    0    0    0  0.00000000000E+00  0.00000000000E+00  0.45593999997E+02  0.45594000000E+02  0.51100000000E-03 0. -1.
         11   -1    0    0    0    0 -0.00000000000E+00 -0.00000000000E+00 -0.45593999997E+02  0.45594000000E+02  0.51100000000E-03 0.  1.
    9900012    2    1    2    0    0  0.20168017524E+02 -0.27277524400E+02 -0.22413288388E+02  0.50528834187E+02  0.29999921995E+02 0.  0.
         12    1    1    2    0    0 -0.20168017524E+02  0.27277524400E+02  0.22413288388E+02  0.40659165813E+02  0.00000000000E+00 0. -1.
         11    1    3    3    0    0 -0.24798236413E+01 -0.10921739537E+02 -0.15149299776E+02  0.18839724089E+02  0.51100000000E-03 0. -1.
        -11    1    3    3    0    0  0.18880705888E+02 -0.12595849705E+02 -0.10964870448E+02  0.25206444986E+02  0.51100000000E-03 0.  1.
         12    1    3    3    0    0  0.37671352782E+01 -0.37599351570E+01  0.37008818362E+01  0.64826651120E+01  0.00000000000E+00 0. -1.
</event>
<event>
 7    1  0.2891523E-011  0.5052886E+02  0.7816164E-02  0.1300439E+00
        -11   -1    0    0    0    0  0.00000000000E+00  0.00000000000E+00  0.45593999997E+02  0.45594000000E+02  0.51100000000E-03 0.  1.
         11   -1    0    0    0    0 -0.00000000000E+00 -0.00000000000E+00 -0.45593999997E+02  0.45594000000E+02  0.51100000000E-03 0. -1.
    9900012    2    1    2    0    0  0.14815633872E+02  0.35631706850E+02  0.12807957086E+02  0.50528864436E+02  0.30000013941E+02 0.  0.
         12    1    1    2    0    0 -0.14815633872E+02 -0.35631706850E+02 -0.12807957086E+02  0.40659135564E+02  0.00000000000E+00 0. -1.
         11    1    3    3    0    0 -0.19990483280E+01 -0.29471657500E+01 -0.13938500958E+01  0.38242382936E+01  0.51100000000E-03 0. -1.
        -11    1    3    3    0    0  0.16412799574E+02  0.24381868733E+02  0.50861120740E+01  0.29828242474E+02  0.51100000000E-03 0.  1.
        -12    1    3    3    0    0  0.40188262513E+00  0.14197003867E+02  0.91156951074E+01  0.16876383669E+02  0.00000000000E+00 0.  1.
</event>
<event>
 7    1  0.2891523E-011  0.5052886E+02  0.7816164E-02  0.1300439E+00
        -11   -1    0    0    0    0  0.00000000000E+00  0.00000000000E+00  0.45593999997E+02  0.45594000000E+02  0.51100000000E-03 0.  1.
         11   -1    0    0    0    0 -0.00000000000E+00 -0.00000000000E+00 -0.45593999997E+02  0.45594000000E+02  0.51100000000E-03 0. -1.
    9900012    2    1    2    0    0 -0.11521932376E+02 -0.24239956079E+02  0.30542353192E+02  0.50528859147E+02  0.29999997863E+02 0.  0.
         12    1    1    2    0    0  0.11521932376E+02  0.24239956079E+02 -0.30542353192E+02  0.40659140853E+02  0.00000000000E+00 0. -1.
         11    1    3    3    0    0  0.14102095948E+01 -0.17781701761E+02  0.12282890080E+02  0.21657492874E+02  0.51100000000E-03 0. -1.
        -11    1    3    3    0    0 -0.15052375595E+02 -0.15849849236E+01  0.18045377946E+02  0.23552533913E+02  0.51100000000E-03 0.  1.
        -12    1    3    3    0    0  0.21202336242E+01 -0.48732693948E+01  0.21408516620E+00  0.53188323600E+01  0.00000000000E+00 0.  1.
</event>
<event>
 7    1  0.2891523E-011  0.5052886E+02  0.7816164E-02  0.1300439E+00
        -11   -1    0    0    0    0  0.00000000000E+00  0.00000000000E+00  0.45593999997E+02  0.45594000000E+02  0.51100000000E-03 0.  1.
         11   -1    0    0    0    0 -0.00000000000E+00 -0.00000000000E+00 -0.45593999997E+02  0.45594000000E+02  0.51100000000E-03 0. -1.
    9900012    2    1    2    0    0  0.75497697487E+01  0.28799184455E+02  0.27690677504E+02  0.50528859955E+02  0.30000000320E+02 0.  0.
         12    1    1    2    0    0 -0.75497697487E+01 -0.28799184455E+02 -0.27690677504E+02  0.40659140045E+02  0.00000000000E+00 0. -1.
         11    1    3    3    0    0 -0.42501465691E+01  0.47896908474E+01  0.13660188701E+02  0.15086604650E+02  0.51100000000E-03 0. -1.
        -11    1    3    3    0    0  0.86979033218E+01  0.34033860515E+01 -0.14913724259E+01  0.94583693513E+01  0.51100000000E-03 0.  1.
        -12    1    3    3    0    0  0.31020129960E+01  0.20606107556E+02  0.15521861229E+02  0.25983885954E+02  0.00000000000E+00 0.  1.
</event>
<event>
 7    1  0.2891523E-011  0.5052887E+02  0.7816164E-02  0.1300439E+00
        -11   -1    0    0    0    0  0.00000000000E+00  0.00000000000E+00  0.45593999997E+02  0.45594000000E+02  0.51100000000E-03 0.  1.
         11   -1    0    0    0    0 -0.00000000000E+00 -0.00000000000E+00 -0.45593999997E+02  0.45594000000E+02  0.51100000000E-03 0. -1.
    9900012    2    1    2    0    0 -0.18948169689E+01 -0.14376415299E+02  0.37985431604E+02  0.50528872337E+02  0.30000037955E+02 0.  0.
         12    1    1    2    0    0  0.18948169689E+01  0.14376415299E+02 -0.37985431604E+02  0.40659127663E+02  0.00000000000E+00 0. -1.
         11    1    3    3    0    0 -0.93834819273E+01 -0.68656282054E+01  0.27934185450E+01  0.11957833046E+02  0.51100000000E-03 0. -1.
        -11    1    3    3    0    0  0.59083663209E+01  0.14069831322E+01  0.19817137430E+02  0.20726971083E+02  0.51100000000E-03 0.  1.
         12    1    3    3    0    0  0.15802986375E+01 -0.89177702256E+01  0.15374875629E+02  0.17844068207E+02  0.00000000000E+00 0. -1.
</event>
<event>
 7    1  0.2891523E-011  0.5052887E+02  0.7816164E-02  0.1300439E+00
        -11   -1    0    0    0    0  0.00000000000E+00  0.00000000000E+00  0.45593999997E+02  0.45594000000E+02  0.51100000000E-03 0.  1.
         11   -1    0    0    0    0 -0.00000000000E+00 -0.00000000000E+00 -0.45593999997E+02  0.45594000000E+02  0.51100000000E-03 0. -1.
    9900012    2    1    2    0    0 -0.95605359631E+01  0.26609675136E+02  0.29217915599E+02  0.50528865101E+02  0.30000015962E+02 0.  0.
         12    1    1    2    0    0  0.95605359631E+01 -0.26609675136E+02 -0.29217915599E+02  0.40659134899E+02  0.00000000000E+00 0. -1.
         11    1    3    3    0    0 -0.92904858282E+01  0.64778932799E+01  0.24908454016E+02  0.27362516515E+02  0.51100000000E-03 0. -1.
        -11    1    3    3    0    0  0.60040769565E+00  0.16547587556E+02  0.76038677622E+01  0.18220920628E+02  0.51100000000E-03 0.  1.
         12    1    3    3    0    0 -0.87045783050E+00  0.35841943000E+01 -0.32944061795E+01  0.49454279583E+01  0.00000000000E+00 0. -1.
</event>
<event>
 7    1  0.2891523E-011  0.5052886E+02  0.7816164E-02  0.1300439E+00
        -11   -1    0    0    0    0  0.00000000000E+00  0.00000000000E+00  0.45593999997E+02  0.45594000000E+02  0.51100000000E-03 0.  1.
         11   -1    0    0    0    0 -0.00000000000E+00 -0.00000000000E+00 -0.45593999997E+02  0.45594000000E+02  0.51100000000E-03 0. -1.
    9900012    2    1    2    0    0 -0.31402750994E+02  0.25437675038E+02  0.44673582530E+01  0.50528863621E+02  0.30000011463E+02 0.  0.
         12    1    1    2    0    0  0.31402750994E+02 -0.25437675038E+02 -0.44673582530E+01  0.40659136379E+02  0.00000000000E+00 0. -1.
         11    1    3    3    0    0 -0.32024842786E+02  0.20554388366E+02  0.12108016478E+02  0.39933413326E+02  0.51100000000E-03 0.  1.
        -11    1    3    3    0    0  0.18416835436E+01  0.10769579472E+01 -0.58288730351E+01  0.62070442093E+01  0.51100000000E-03 0. -1.
        -12    1    3    3    0    0 -0.12195917515E+01  0.38063287248E+01 -0.18117851899E+01  0.43884060860E+01  0.00000000000E+00 0.  1.
</event>
<event>
 7    1  0.2891523E-011  0.5052885E+02  0.7816164E-02  0.1300439E+00
        -11   -1    0    0    0    0  0.00000000000E+00  0.00000000000E+00  0.45593999997E+02  0.45594000000E+02  0.51100000000E-03 0.  1.
         11   -1    0    0    0    0 -0.00000000000E+00 -0.00000000000E+00 -0.45593999997E+02  0.45594000000E+02  0.51100000000E-03 0. -1.
    9900012    2    1    2    0    0 -0.38483148071E+01 -0.40475091052E+02  0.35159519550E+00  0.50528854144E+02  0.29999982656E+02 0.  0.
         12    1    1    2    0    0  0.38483148071E+01  0.40475091052E+02 -0.35159519550E+00  0.40659145856E+02  0.00000000000E+00 0. -1.
         11    1    3    3    0    0  0.60733866657E+01  0.26168317024E+00 -0.40091623806E+01  0.72820249195E+01  0.51100000000E-03 0. -1.
        -11    1    3    3    0    0 -0.95103445768E+01 -0.19037553510E+02  0.31190122169E+01  0.21508215525E+02  0.51100000000E-03 0.  1.
        -12    1    3    3    0    0 -0.41135689596E+00 -0.21699220713E+02  0.12417453592E+01  0.21738613699E+02  0.00000000000E+00 0.  1.
</event>
<event>
 7    1  0.2891523E-011  0.5052888E+02  0.7816164E-02  0.1300439E+00
        -11   -1    0    0    0    0  0.00000000000E+00  0.00000000000E+00  0.45593999997E+02  0.45594000000E+02  0.51100000000E-03 0.  1.
         11   -1    0    0    0    0 -0.00000000000E+00 -0.00000000000E+00 -0.45593999997E+02  0.45594000000E+02  0.51100000000E-03 0. -1.
    9900012    2    1    2    0    0 -0.72713411241E+01  0.33224298722E+02  0.22280883050E+02  0.50528878307E+02  0.30000056103E+02 0.  0.
         12    1    1    2    0    0  0.72713411241E+01 -0.33224298722E+02 -0.22280883050E+02  0.40659121693E+02  0.00000000000E+00 0. -1.
         11    1    3    3    0    0  0.99166507883E+00 -0.54365206045E+01  0.29280761388E+01  0.62540215899E+01  0.51100000000E-03 0. -1.
        -11    1    3    3    0    0 -0.28731103555E+01  0.24097772419E+02  0.11043930708E+02  0.26663191939E+02  0.51100000000E-03 0.  1.
         12    1    3    3    0    0 -0.53898958474E+01  0.14563046908E+02  0.83088762031E+01  0.17611664778E+02  0.00000000000E+00 0. -1.
</event>
<event>
 7    1  0.2891523E-011  0.5052888E+02  0.7816164E-02  0.1300439E+00
        -11   -1    0    0    0    0  0.00000000000E+00  0.00000000000E+00  0.45593999997E+02  0.45594000000E+02  0.51100000000E-03 0.  1.
         11   -1    0    0    0    0 -0.00000000000E+00 -0.00000000000E+00 -0.45593999997E+02  0.45594000000E+02  0.51100000000E-03 0. -1.
    9900012    2    1    2    0    0  0.25278953268E+02 -0.27161782061E+02  0.16624563473E+02  0.50528880559E+02  0.30000062947E+02 0.  0.
         12    1    1    2    0    0 -0.25278953268E+02  0.27161782061E+02 -0.16624563473E+02  0.40659119441E+02  0.00000000000E+00 0. -1.
         11    1    3    3    0    0  0.12804232870E+02 -0.71330355189E+01 -0.62133327042E+01  0.15919613019E+02  0.51100000000E-03 0. -1.
        -11    1    3    3    0    0  0.78242752067E+01 -0.13237544162E+02  0.21244535162E+02  0.26225600707E+02  0.51100000000E-03 0.  1.
        -12    1    3    3    0    0  0.46504451911E+01 -0.67912023804E+01  0.15933610150E+01  0.83836668332E+01  0.00000000000E+00 0.  1.
</event>
<event>
 7    1  0.2891523E-011  0.5052887E+02  0.7816164E-02  0.1300439E+00
        -11   -1    0    0    0    0  0.00000000000E+00  0.00000000000E+00  0.45593999997E+02  0.45594000000E+02  0.51100000000E-03 0.  1.
         11   -1    0    0    0    0 -0.00000000000E+00 -0.00000000000E+00 -0.45593999997E+02  0.45594000000E+02  0.51100000000E-03 0. -1.
    9900012    2    1    2    0    0 -0.39256830470E+02  0.86244907197E+01  0.61387810879E+01  0.50528865577E+02  0.30000017409E+02 0.  0.
         12    1    1    2    0    0  0.39256830470E+02 -0.86244907197E+01 -0.61387810879E+01  0.40659134423E+02  0.00000000000E+00 0. -1.
         11    1    3    3    0    0 -0.23203421761E+02 -0.57040917472E+01  0.10392866667E+02  0.26056613784E+02  0.51100000000E-03 0. -1.
        -11    1    3    3    0    0 -0.81335439230E+01  0.12978620944E+02  0.13542502569E+00  0.15317228162E+02  0.51100000000E-03 0.  1.
        -12    1    3    3    0    0 -0.79198647861E+01  0.13499615225E+01 -0.43895106044E+01  0.91550236312E+01  0.00000000000E+00 0.  1.
</event>
<event>
 7    1  0.2891523E-011  0.5052886E+02  0.7816164E-02  0.1300439E+00
        -11   -1    0    0    0    0  0.00000000000E+00  0.00000000000E+00  0.45593999997E+02  0.45594000000E+02  0.51100000000E-03 0.  1.
         11   -1    0    0    0    0 -0.00000000000E+00 -0.00000000000E+00 -0.45593999997E+02  0.45594000000E+02  0.51100000000E-03 0. -1.
    9900012    2    1    2    0    0 -0.20799686198E+02  0.34917542510E+02  0.11417553817E+01  0.50528864172E+02  0.30000013138E+02 0.  0.
         12    1    1    2    0    0  0.20799686198E+02 -0.34917542510E+02 -0.11417553817E+01  0.40659135828E+02  0.00000000000E+00 0. -1.
         11    1    3    3    0    0  0.24401888142E+01  0.54723562382E+01  0.62637739797E+01  0.86681064240E+01  0.51100000000E-03 0. -1.
        -11    1    3    3    0    0 -0.53617022675E+01  0.92366410881E+01 -0.97781959948E+01  0.14480210874E+02  0.51100000000E-03 0.  1.
        -12    1    3    3    0    0 -0.17878172745E+02  0.20208545184E+02  0.46561773968E+01  0.27380546874E+02  0.00000000000E+00 0.  1.
</event>
<event>
 7    1  0.2891523E-011  0.5052886E+02  0.7816164E-02  0.1300439E+00
        -11   -1    0    0    0    0  0.00000000000E+00  0.00000000000E+00  0.45593999997E+02  0.45594000000E+02  0.51100000000E-03 0. -1.
         11   -1    0    0    0    0 -0.00000000000E+00 -0.00000000000E+00 -0.45593999997E+02  0.45594000000E+02  0.51100000000E-03 0.  1.
    9900012    2    1    2    0    0  0.15193434903E+02  0.29390610080E+02 -0.23632973507E+02  0.50528857586E+02  0.29999993119E+02 0.  0.
         12    1    1    2    0    0 -0.15193434903E+02 -0.29390610080E+02  0.23632973507E+02  0.40659142414E+02  0.00000000000E+00 0. -1.
         11    1    3    3    0    0  0.91816482851E+01  0.11352021577E+01 -0.41988600357E+01  0.10159811762E+02  0.51100000000E-03 0. -1.
        -11    1    3    3    0    0  0.97172179148E+01  0.21195186216E+02 -0.21934960344E+02  0.32012540172E+02  0.51100000000E-03 0.  1.
        -12    1    3    3    0    0 -0.37054312968E+01  0.70602217069E+01  0.25008468724E+01  0.83565056528E+01  0.00000000000E+00 0.  1.
</event>
<event>
 7    1  0.2891523E-011  0.5052889E+02  0.7816164E-02  0.1300439E+00
        -11   -1    0    0    0    0  0.00000000000E+00  0.00000000000E+00  0.45593999997E+02  0.45594000000E+02  0.51100000000E-03 0. -1.
         11   -1    0    0    0    0 -0.00000000000E+00 -0.00000000000E+00 -0.45593999997E+02  0.45594000000E+02  0.51100000000E-03 0.  1.
    9900012    2    1    2    0    0 -0.36876993410E+02  0.69589725138E+01 -0.15646832368E+02  0.50528889033E+02  0.30000088706E+02 0.  0.
         12    1    1    2    0    0  0.36876993410E+02 -0.69589725138E+01  0.15646832368E+02  0.40659110967E+02  0.00000000000E+00 0. -1.
         11    1    3    3    0    0 -0.17965796334E+01 -0.46258049353E+01 -0.11755650810E+02  0.12760136987E+02  0.51100000000E-03 0. -1.
        -11    1    3    3    0    0 -0.18098007704E+02  0.42123188757E+01 -0.49343153428E+01  0.19225737471E+02  0.51100000000E-03 0.  1.
         12    1    3    3    0    0 -0.16982406073E+02  0.73724585735E+01  0.10431337846E+01  0.18543014576E+02  0.00000000000E+00 0. -1.
</event>
<event>
 7    1  0.2891523E-011  0.5052886E+02  0.7816164E-02  0.1300439E+00
        -11   -1    0    0    0    0  0.00000000000E+00  0.00000000000E+00  0.45593999997E+02  0.45594000000E+02  0.51100000000E-03 0. -1.
         11   -1    0    0    0    0 -0.00000000000E+00 -0.00000000000E+00 -0.45593999997E+02  0.45594000000E+02  0.51100000000E-03 0.  1.
    9900012    2    1    2    0    0  0.51758237506E+01  0.29293066058E+02 -0.27718091416E+02  0.50528862499E+02  0.30000008053E+02 0.  0.
         12    1    1    2    0    0 -0.51758237506E+01 -0.29293066058E+02  0.27718091416E+02  0.40659137501E+02  0.00000000000E+00 0. -1.
         11    1    3    3    0    0 -0.49127810643E+01  0.18574686687E+02 -0.89946525192E+01  0.21214574649E+02  0.51100000000E-03 0. -1.
        -11    1    3    3    0    0  0.10129133583E+02 -0.14452001604E+01 -0.10303798150E+02  0.14520888651E+02  0.51100000000E-03 0.  1.
        -12    1    3    3    0    0 -0.40528767881E-01  0.12163579531E+02 -0.84196407472E+01  0.14793399200E+02  0.00000000000E+00 0.  1.
</event>
<event>
 7    1  0.2891523E-011  0.5052886E+02  0.7816164E-02  0.1300439E+00
        -11   -1    0    0    0    0  0.00000000000E+00  0.00000000000E+00  0.45593999997E+02  0.45594000000E+02  0.51100000000E-03 0.  1.
         11   -1    0    0    0    0 -0.00000000000E+00 -0.00000000000E+00 -0.45593999997E+02  0.45594000000E+02  0.51100000000E-03 0. -1.
    9900012    2    1    2    0    0  0.75304295853E+01 -0.28630411830E+02  0.27870380187E+02  0.50528856587E+02  0.29999990083E+02 0.  0.
         12    1    1    2    0    0 -0.75304295853E+01  0.28630411830E+02 -0.27870380187E+02  0.40659143413E+02  0.00000000000E+00 0. -1.
         11    1    3    3    0    0  0.10305767062E+02 -0.16094831317E+01  0.34071550163E+01  0.10973056833E+02  0.51100000000E-03 0. -1.
        -11    1    3    3    0    0  0.34700096039E+01 -0.15726415046E+02  0.20470356948E+02  0.26046047890E+02  0.51100000000E-03 0.  1.
         12    1    3    3    0    0 -0.62453470807E+01 -0.11294513651E+02  0.39928682229E+01  0.13509751864E+02  0.00000000000E+00 0. -1.
</event>
<event>
 7    1  0.2891523E-011  0.5052886E+02  0.7816164E-02  0.1300439E+00
        -11   -1    0    0    0    0  0.00000000000E+00  0.00000000000E+00  0.45593999997E+02  0.45594000000E+02  0.51100000000E-03 0.  1.
         11   -1    0    0    0    0 -0.00000000000E+00 -0.00000000000E+00 -0.45593999997E+02  0.45594000000E+02  0.51100000000E-03 0. -1.
    9900012    2    1    2    0    0  0.24271205963E+02 -0.96360284784E+01  0.31164422858E+02  0.50528859136E+02  0.29999997830E+02 0.  0.
         12    1    1    2    0    0 -0.24271205963E+02  0.96360284784E+01 -0.31164422858E+02  0.40659140864E+02  0.00000000000E+00 0. -1.
         11    1    3    3    0    0  0.37688566155E+01 -0.86298760202E+01 -0.28652009399E+01  0.98431914032E+01  0.51100000000E-03 0. -1.
        -11    1    3    3    0    0  0.83280698308E+01  0.38644127870E+01  0.13514099327E+02  0.16337726714E+02  0.51100000000E-03 0.  1.
        -12    1    3    3    0    0  0.12174279517E+02 -0.48705652452E+01  0.20515524470E+02  0.24347941019E+02  0.00000000000E+00 0.  1.
</event>
<event>
 7    1  0.2891523E-011  0.5052886E+02  0.7816164E-02  0.1300439E+00
        -11   -1    0    0    0    0  0.00000000000E+00  0.00000000000E+00  0.45593999997E+02  0.45594000000E+02  0.51100000000E-03 0.  1.
         11   -1    0    0    0    0 -0.00000000000E+00 -0.00000000000E+00 -0.45593999997E+02  0.45594000000E+02  0.51100000000E-03 0. -1.
    9900012    2    1    2    0    0 -0.13320654942E+02 -0.25984495949E+02  0.28293671483E+02  0.50528859284E+02  0.29999998279E+02 0.  0.
         12    1    1    2    0    0  0.13320654942E+02  0.25984495949E+02 -0.28293671483E+02  0.40659140716E+02  0.00000000000E+00 0. -1.
         11    1    3    3    0    0  0.64855256156E+00  0.50861844899E+01  0.36540732501E+01  0.62962008123E+01  0.51100000000E-03 0. -1.
        -11    1    3    3    0    0 -0.60963831299E+01 -0.25713194990E+02  0.21906653489E+02  0.34325438835E+02  0.51100000000E-03 0.  1.
         12    1    3    3    0    0 -0.78728243735E+01 -0.53574854490E+01  0.27329447439E+01  0.99072196365E+01  0.00000000000E+00 0. -1.
</event>
<event>
 7    1  0.2891523E-011  0.5052890E+02  0.7816164E-02  0.1300439E+00
        -11   -1    0    0    0    0  0.00000000000E+00  0.00000000000E+00  0.45593999997E+02  0.45594000000E+02  0.51100000000E-03 0.  1.
         11   -1    0    0    0    0 -0.00000000000E+00 -0.00000000000E+00 -0.45593999997E+02  0.45594000000E+02  0.51100000000E-03 0. -1.
    9900012    2    1    2    0    0  0.59819974766E+01 -0.63455571949E+01  0.39712870175E+02  0.50528899574E+02  0.30000120745E+02 0.  0.
         12    1    1    2    0    0 -0.59819974766E+01  0.63455571949E+01 -0.39712870175E+02  0.40659100426E+02  0.00000000000E+00 0. -1.
         11    1    3    3    0    0 -0.78751486294E+01  0.72059693927E+01  0.18292540142E+02  0.21179258390E+02  0.51100000000E-03 0. -1.
        -11    1    3    3    0    0  0.46557793623E+01 -0.39068660012E+01  0.34942419358E+01  0.70106783116E+01  0.51100000000E-03 0.  1.
         12    1    3    3    0    0  0.92013667438E+01 -0.96446605864E+01  0.17926088097E+02  0.22338962873E+02  0.00000000000E+00 0. -1.
</event>
<event>
 7    1  0.2891523E-011  0.5052885E+02  0.7816164E-02  0.1300439E+00
        -11   -1    0    0    0    0  0.00000000000E+00  0.00000000000E+00  0.45593999997E+02  0.45594000000E+02  0.51100000000E-03 0.  1.
         11   -1    0    0    0    0 -0.00000000000E+00 -0.00000000000E+00 -0.45593999997E+02  0.45594000000E+02  0.51100000000E-03 0. -1.
    9900012    2    1    2    0    0  0.32541771602E+02 -0.71377518311E+01  0.23307763086E+02  0.50528853178E+02  0.29999979721E+02 0.  0.
         12    1    1    2    0    0 -0.32541771602E+02  0.71377518311E+01 -0.23307763086E+02  0.40659146822E+02  0.00000000000E+00 0. -1.
         11    1    3    3    0    0  0.11341602995E+02  0.77135698528E+01  0.17824377084E+02  0.22490876752E+02  0.51100000000E-03 0. -1.
        -11    1    3    3    0    0  0.19748620086E+02 -0.11609180662E+02  0.73066617417E+01  0.24045132086E+02  0.51100000000E-03 0.  1.
         12    1    3    3    0    0  0.14515485201E+01 -0.32421410215E+01 -0.18232757391E+01  0.39928443409E+01  0.00000000000E+00 0. -1.
</event>
<event>
 7    1  0.2891523E-011  0.5052883E+02  0.7816164E-02  0.1300439E+00
        -11   -1    0    0    0    0  0.00000000000E+00  0.00000000000E+00  0.45593999997E+02  0.45594000000E+02  0.51100000000E-03 0.  1.
         11   -1    0    0    0    0 -0.00000000000E+00 -0.00000000000E+00 -0.45593999997E+02  0.45594000000E+02  0.51100000000E-03 0. -1.
    9900012    2    1    2    0    0 -0.31408755169E+02  0.17631202421E+02  0.18862624201E+02  0.50528833852E+02  0.29999920977E+02 0.  0.
         12    1    1    2    0    0  0.31408755169E+02 -0.17631202421E+02 -0.18862624201E+02  0.40659166148E+02  0.00000000000E+00 0. -1.
         11    1    3    3    0    0  0.32315230183E+01  0.68380131361E+01 -0.21762167543E+01  0.78700117084E+01  0.51100000000E-03 0. -1.
        -11    1    3    3    0    0 -0.23955171948E+02  0.41175931228E+01  0.15941131547E+02  0.29067585236E+02  0.51100000000E-03 0.  1.
        -12    1    3    3    0    0 -0.10685106240E+02  0.66755961619E+01  0.50977094082E+01  0.13591236908E+02  0.00000000000E+00 0.  1.
</event>
<event>
 7    1  0.2891523E-011  0.5052886E+02  0.7816164E-02  0.1300439E+00
        -11   -1    0    0    0    0  0.00000000000E+00  0.00000000000E+00  0.45593999997E+02  0.45594000000E+02  0.51100000000E-03 0.  1.
         11   -1    0    0    0    0 -0.00000000000E+00 -0.00000000000E+00 -0.45593999997E+02  0.45594000000E+02  0.51100000000E-03 0. -1.
    9900012    2    1    2    0    0 -0.23318542789E+02 -0.64839225266E+01  0.32670631896E+02  0.50528857392E+02  0.29999992530E+02 0.  0.
         12    1    1    2    0    0  0.23318542789E+02  0.64839225266E+01 -0.32670631896E+02  0.40659142608E+02  0.00000000000E+00 0. -1.
         11    1    3    3    0    0 -0.13652266368E+02  0.50379736826E+01  0.25635416515E+01  0.14776241128E+02  0.51100000000E-03 0. -1.
        -11    1    3    3    0    0  0.20230476725E+01 -0.58577269116E+01  0.11443640388E+02  0.13013938376E+02  0.51100000000E-03 0.  1.
        -12    1    3    3    0    0 -0.11689324093E+02 -0.56641692977E+01  0.18663449856E+02  0.22738677889E+02  0.00000000000E+00 0.  1.
</event>
<event>
 7    1  0.2891523E-011  0.5052886E+02  0.7816164E-02  0.1300439E+00
        -11   -1    0    0    0    0  0.00000000000E+00  0.00000000000E+00  0.45593999997E+02  0.45594000000E+02  0.51100000000E-03 0. -1.
         11   -1    0    0    0    0 -0.00000000000E+00 -0.00000000000E+00 -0.45593999997E+02  0.45594000000E+02  0.51100000000E-03 0.  1.
    9900012    2    1    2    0    0 -0.11946851047E+01 -0.35596073109E+02  0.19612698751E+02  0.50528860245E+02  0.30000001202E+02 0.  0.
         12    1    1    2    0    0  0.11946851047E+01  0.35596073109E+02 -0.19612698751E+02  0.40659139755E+02  0.00000000000E+00 0. -1.
         11    1    3    3    0    0 -0.88832993779E+00 -0.30347252082E+02  0.22068043410E+02  0.37533230333E+02  0.51100000000E-03 0. -1.
        -11    1    3    3    0    0  0.18919994653E+01 -0.35326989533E+01 -0.67646662618E+01  0.78625907795E+01  0.51100000000E-03 0.  1.
        -12    1    3    3    0    0 -0.21983546322E+01 -0.17161220736E+01  0.43093216033E+01  0.51330391330E+01  0.00000000000E+00 0.  1.
</event>
<event>
 7    1  0.2891523E-011  0.5052886E+02  0.7816164E-02  0.1300439E+00
        -11   -1    0    0    0    0  0.00000000000E+00  0.00000000000E+00  0.45593999997E+02  0.45594000000E+02  0.51100000000E-03 0.  1.
         11   -1    0    0    0    0 -0.00000000000E+00 -0.00000000000E+00 -0.45593999997E+02  0.45594000000E+02  0.51100000000E-03 0. -1.
    9900012    2    1    2    0    0  0.19115448583E+02  0.24462117310E+02  0.26255855843E+02  0.50528861742E+02  0.30000005752E+02 0.  0.
         12    1    1    2    0    0 -0.19115448583E+02 -0.24462117310E+02 -0.26255855843E+02  0.40659138258E+02  0.00000000000E+00 0. -1.
         11    1    3    3    0    0 -0.55128498515E+01  0.11405513287E+02  0.28847693056E+01  0.12992272358E+02  0.51100000000E-03 0. -1.
        -11    1    3    3    0    0  0.50353423028E+01 -0.50556774959E+00  0.69511925082E+01  0.85982177457E+01  0.51100000000E-03 0.  1.
         12    1    3    3    0    0  0.19592956132E+02  0.13562171773E+02  0.16419894029E+02  0.28938371639E+02  0.00000000000E+00 0. -1.
</event>
<event>
 7    1  0.2891523E-011  0.5052879E+02  0.7816164E-02  0.1300439E+00
        -11   -1    0    0    0    0  0.00000000000E+00  0.00000000000E+00  0.45593999997E+02  0.45594000000E+02  0.51100000000E-03 0.  1.
         11   -1    0    0    0    0 -0.00000000000E+00 -0.00000000000E+00 -0.45593999997E+02  0.45594000000E+02  0.51100000000E-03 0. -1.
    9900012    2    1    2    0    0  0.24304776089E+02  0.30740425670E+02 -0.10838594178E+02  0.50528793972E+02  0.29999799756E+02 0.  0.
         12    1    1    2    0    0 -0.24304776089E+02 -0.30740425670E+02  0.10838594178E+02  0.40659206028E+02  0.00000000000E+00 0. -1.
         11    1    3    3    0    0  0.12007718279E+02  0.25692897714E+02 -0.16914854032E+02  0.33021547184E+02  0.51100000000E-03 0. -1.
        -11    1    3    3    0    0  0.12487872340E+02  0.11908053837E+01  0.49393160727E+01  0.13481907008E+02  0.51100000000E-03 0.  1.
         12    1    3    3    0    0 -0.19081453005E+00  0.38567225717E+01  0.11369437820E+01  0.40253397799E+01  0.00000000000E+00 0. -1.
</event>
<event>
 7    1  0.3435814E-011  0.5052887E+02  0.7816164E-02  0.1300439E+00
        -11   -1    0    0    0    0  0.00000000000E+00  0.00000000000E+00  0.45593999997E+02  0.45594000000E+02  0.51100000000E-03 0. -1.
         11   -1    0    0    0    0 -0.00000000000E+00 -0.00000000000E+00 -0.45593999997E+02  0.45594000000E+02  0.51100000000E-03 0.  1.
    9900012    2    1    2    0    0 -0.11353316865E+02  0.26505857828E+02 -0.28665428514E+02  0.50528867017E+02  0.30000021784E+02 0.  0.
         12    1    1    2    0    0  0.11353316865E+02 -0.26505857828E+02  0.28665428514E+02  0.40659132983E+02  0.00000000000E+00 0. -1.
         11    1    3    3    0    0  0.49560219368E+01  0.10374919705E+02 -0.57514108061E+01  0.12856120676E+02  0.51100000000E-03 0. -1.
        -11    1    3    3    0    0 -0.16452509789E+02  0.16648484396E+02 -0.11202718629E+02  0.25949142875E+02  0.51100000000E-03 0.  1.
        -12    1    3    3    0    0  0.14317098661E+00 -0.51754627243E+00 -0.11711299079E+02  0.11723603465E+02  0.00000000000E+00 0.  1.
</event>
<event>
 7    1  0.2891523E-011  0.5052889E+02  0.7816164E-02  0.1300439E+00
        -11   -1    0    0    0    0  0.00000000000E+00  0.00000000000E+00  0.45593999997E+02  0.45594000000E+02  0.51100000000E-03 0.  1.
         11   -1    0    0    0    0 -0.00000000000E+00 -0.00000000000E+00 -0.45593999997E+02  0.45594000000E+02  0.51100000000E-03 0. -1.
    9900012    2    1    2    0    0 -0.33411844663E+02 -0.22059750335E+02  0.70837364816E+01  0.50528889444E+02  0.30000089955E+02 0.  0.
         12    1    1    2    0    0  0.33411844663E+02  0.22059750335E+02 -0.70837364816E+01  0.40659110556E+02  0.00000000000E+00 0. -1.
         11    1    3    3    0    0 -0.31304707015E+02 -0.21397826883E+02 -0.44160326513E+01  0.38175293336E+02  0.51100000000E-03 0. -1.
        -11    1    3    3    0    0 -0.22458223254E+01  0.72092888909E+00  0.34158638380E+01  0.41510941210E+01  0.51100000000E-03 0.  1.
         12    1    3    3    0    0  0.13868467758E+00 -0.13828523403E+01  0.80839052949E+01  0.82025019873E+01  0.00000000000E+00 0. -1.
</event>
<event>
 7    1  0.2891523E-011  0.5052885E+02  0.7816164E-02  0.1300439E+00
        -11   -1    0    0    0    0  0.00000000000E+00  0.00000000000E+00  0.45593999997E+02  0.45594000000E+02  0.51100000000E-03 0.  1.
         11   -1    0    0    0    0 -0.00000000000E+00 -0.00000000000E+00 -0.45593999997E+02  0.45594000000E+02  0.51100000000E-03 0. -1.
    9900012    2    1    2    0    0 -0.40571721880E+02 -0.26602199093E+01  0.15854713974E+00  0.50528849450E+02  0.29999968387E+02 0.  0.
         12    1    1    2    0    0  0.40571721880E+02  0.26602199093E+01 -0.15854713974E+00  0.40659150550E+02  0.00000000000E+00 0. -1.
         11    1    3    3    0    0 -0.23795018767E+02  0.15282477023E+01 -0.12986972791E+02  0.27151425776E+02  0.51100000000E-03 0. -1.
        -11    1    3    3    0    0 -0.63582573151E+01 -0.39768708125E+01  0.99857178090E+01  0.12488294438E+02  0.51100000000E-03 0.  1.
         12    1    3    3    0    0 -0.10418445798E+02 -0.21159679914E+00  0.31598021220E+01  0.10889129235E+02  0.00000000000E+00 0. -1.
</event>
<event>
 7    1  0.2891523E-011  0.5052884E+02  0.7816164E-02  0.1300439E+00
        -11   -1    0    0    0    0  0.00000000000E+00  0.00000000000E+00  0.45593999997E+02  0.45594000000E+02  0.51100000000E-03 0.  1.
         11   -1    0    0    0    0 -0.00000000000E+00 -0.00000000000E+00 -0.45593999997E+02  0.45594000000E+02  0.51100000000E-03 0. -1.
    9900012    2    1    2    0    0 -0.14123122045E+02 -0.35618868829E+01  0.37960734390E+02  0.50528843960E+02  0.29999951699E+02 0.  0.
         12    1    1    2    0    0  0.14123122045E+02  0.35618868829E+01 -0.37960734390E+02  0.40659156040E+02  0.00000000000E+00 0. -1.
         11    1    3    3    0    0  0.19711993400E+01 -0.69876247815E+01 -0.33724073481E+00  0.72681674788E+01  0.51100000000E-03 0. -1.
        -11    1    3    3    0    0 -0.59527381733E+01 -0.26764411739E+00  0.26944868213E+02  0.27595881004E+02  0.51100000000E-03 0.  1.
         12    1    3    3    0    0 -0.10141583212E+02  0.36933820160E+01  0.11353106912E+02  0.15664795476E+02  0.00000000000E+00 0. -1.
</event>
<event>
 7    1  0.2891523E-011  0.5052886E+02  0.7816164E-02  0.1300439E+00
        -11   -1    0    0    0    0  0.00000000000E+00  0.00000000000E+00  0.45593999997E+02  0.45594000000E+02  0.51100000000E-03 0.  1.
         11   -1    0    0    0    0 -0.00000000000E+00 -0.00000000000E+00 -0.45593999997E+02  0.45594000000E+02  0.51100000000E-03 0. -1.
    9900012    2    1    2    0    0  0.33956334050E+02  0.10384356184E+02  0.19806517256E+02  0.50528860790E+02  0.30000002858E+02 0.  0.
         12    1    1    2    0    0 -0.33956334050E+02 -0.10384356184E+02 -0.19806517256E+02  0.40659139210E+02  0.00000000000E+00 0. -1.
         11    1    3    3    0    0  0.67837439127E+00  0.97348319578E+00  0.86194562022E+01  0.87007405909E+01  0.51100000000E-03 0. -1.
        -11    1    3    3    0    0  0.29248730192E+02 -0.16372412863E+00  0.48184435350E+01  0.29643421223E+02  0.51100000000E-03 0.  1.
        -12    1    3    3    0    0  0.40292294661E+01  0.95745971165E+01  0.63686175192E+01  0.12184698976E+02  0.00000000000E+00 0.  1.
</event>
<event>
 7    1  0.2891523E-011  0.5052885E+02  0.7816164E-02  0.1300439E+00
        -11   -1    0    0    0    0  0.00000000000E+00  0.00000000000E+00  0.45593999997E+02  0.45594000000E+02  0.51100000000E-03 0. -1.
         11   -1    0    0    0    0 -0.00000000000E+00 -0.00000000000E+00 -0.45593999997E+02  0.45594000000E+02  0.51100000000E-03 0.  1.
    9900012    2    1    2    0    0 -0.44821755266E+01 -0.37277515024E+02 -0.15603305359E+02  0.50528853896E+02  0.29999981902E+02 0.  0.
         12    1    1    2    0    0  0.44821755266E+01  0.37277515024E+02  0.15603305359E+02  0.40659146104E+02  0.00000000000E+00 0. -1.
         11    1    3    3    0    0 -0.10262261309E+02 -0.42387666731E+01 -0.58689267773E+00  0.11118704662E+02  0.51100000000E-03 0. -1.
        -11    1    3    3    0    0  0.60851985594E+01 -0.24850726148E+02 -0.43375102224E+01  0.25949994736E+02  0.51100000000E-03 0.  1.
         12    1    3    3    0    0 -0.30511277657E+00 -0.81880222026E+01 -0.10678902458E+02  0.13460154498E+02  0.00000000000E+00 0. -1.
</event>
<event>
 7    1  0.2891523E-011  0.5052886E+02  0.7816164E-02  0.1300439E+00
        -11   -1    0    0    0    0  0.00000000000E+00  0.00000000000E+00  0.45593999997E+02  0.45594000000E+02  0.51100000000E-03 0.  1.
         11   -1    0    0    0    0 -0.00000000000E+00 -0.00000000000E+00 -0.45593999997E+02  0.45594000000E+02  0.51100000000E-03 0. -1.
    9900012    2    1    2    0    0 -0.10219012117E+00  0.12903736512E+02  0.38557084631E+02  0.50528860387E+02  0.30000001633E+02 0.  0.
         12    1    1    2    0    0  0.10219012117E+00 -0.12903736512E+02 -0.38557084631E+02  0.40659139613E+02  0.00000000000E+00 0. -1.
         11    1    3    3    0    0  0.10293080167E+02  0.32617062893E+01  0.18833803428E+01  0.10960535982E+02  0.51100000000E-03 0. -1.
        -11    1    3    3    0    0 -0.18419909350E+01  0.10181396373E+01  0.10564910812E+02  0.10772505728E+02  0.51100000000E-03 0.  1.
         12    1    3    3    0    0 -0.85532793530E+01  0.86238905850E+01  0.26108793476E+02  0.28795818677E+02  0.00000000000E+00 0. -1.
</event>
<event>
 7    1  0.2891523E-011  0.5052886E+02  0.7816164E-02  0.1300439E+00
        -11   -1    0    0    0    0  0.00000000000E+00  0.00000000000E+00  0.45593999997E+02  0.45594000000E+02  0.51100000000E-03 0.  1.
         11   -1    0    0    0    0 -0.00000000000E+00 -0.00000000000E+00 -0.45593999997E+02  0.45594000000E+02  0.51100000000E-03 0. -1.
    9900012    2    1    2    0    0  0.13866690864E+02  0.18343753951E+02  0.33531882497E+02  0.50528861195E+02  0.30000004089E+02 0.  0.
         12    1    1    2    0    0 -0.13866690864E+02 -0.18343753951E+02 -0.33531882497E+02  0.40659138805E+02  0.00000000000E+00 0. -1.
         11    1    3    3    0    0 -0.32688613983E+01 -0.98239953491E+00 -0.23718941568E+01  0.41564944171E+01  0.51100000000E-03 0. -1.
        -11    1    3    3    0    0  0.70744104275E+01  0.73483326762E+01  0.25818324261E+02  0.27760243945E+02  0.51100000000E-03 0.  1.
        -12    1    3    3    0    0  0.10061141835E+02  0.11977820809E+02  0.10085452393E+02  0.18612122833E+02  0.00000000000E+00 0.  1.
</event>
<event>
 7    1  0.2891523E-011  0.5052887E+02  0.7816164E-02  0.1300439E+00
        -11   -1    0    0    0    0  0.00000000000E+00  0.00000000000E+00  0.45593999997E+02  0.45594000000E+02  0.51100000000E-03 0.  1.
         11   -1    0    0    0    0 -0.00000000000E+00 -0.00000000000E+00 -0.45593999997E+02  0.45594000000E+02  0.51100000000E-03 0. -1.
    9900012    2    1    2    0    0  0.11694134444E+02  0.38228880766E+02  0.74138434197E+01  0.50528865980E+02  0.30000018633E+02 0.  0.
         12    1    1    2    0    0 -0.11694134444E+02 -0.38228880766E+02 -0.74138434197E+01  0.40659134020E+02  0.00000000000E+00 0. -1.
         11    1    3    3    0    0  0.91574339657E-01  0.24031746893E+01  0.40580424635E+01  0.47171329580E+01  0.51100000000E-03 0. -1.
        -11    1    3    3    0    0  0.12247160994E+02  0.26356002246E+02 -0.88218546410E+01  0.30371976004E+02  0.51100000000E-03 0.  1.
        -12    1    3    3    0    0 -0.64460088972E+00  0.94697038305E+01  0.12177655597E+02  0.15439757019E+02  0.00000000000E+00 0.  1.
</event>
<event>
 7    1  0.2891523E-011  0.5052884E+02  0.7816164E-02  0.1300439E+00
        -11   -1    0    0    0    0  0.00000000000E+00  0.00000000000E+00  0.45593999997E+02  0.45594000000E+02  0.51100000000E-03 0.  1.
         11   -1    0    0    0    0 -0.00000000000E+00 -0.00000000000E+00 -0.45593999997E+02  0.45594000000E+02  0.51100000000E-03 0. -1.
    9900012    2    1    2    0    0 -0.28855150962E+02 -0.28538451559E+02  0.24706141147E+01  0.50528844960E+02  0.29999954741E+02 0.  0.
         12    1    1    2    0    0  0.28855150962E+02  0.28538451559E+02 -0.24706141147E+01  0.40659155040E+02  0.00000000000E+00 0. -1.
         11    1    3    3    0    0 -0.15888137894E+02 -0.28416383613E+02 -0.20235631866E+01  0.32619297840E+02  0.51100000000E-03 0. -1.
        -11    1    3    3    0    0 -0.91650894048E+01 -0.41361583663E+00  0.84086326038E+01  0.12444880248E+02  0.51100000000E-03 0.  1.
        -12    1    3    3    0    0 -0.38019236626E+01  0.29154788972E+00 -0.39144553024E+01  0.54646668721E+01  0.00000000000E+00 0.  1.
</event>
<event>
 7    1  0.2891523E-011  0.5052886E+02  0.7816164E-02  0.1300439E+00
        -11   -1    0    0    0    0  0.00000000000E+00  0.00000000000E+00  0.45593999997E+02  0.45594000000E+02  0.51100000000E-03 0.  1.
         11   -1    0    0    0    0 -0.00000000000E+00 -0.00000000000E+00 -0.45593999997E+02  0.45594000000E+02  0.51100000000E-03 0. -1.
    9900012    2    1    2    0    0 -0.24527254110E+01 -0.40529060787E+02 -0.21318378718E+01  0.50528863722E+02  0.30000011769E+02 0.  0.
         12    1    1    2    0    0  0.24527254110E+01  0.40529060787E+02  0.21318378718E+01  0.40659136278E+02  0.00000000000E+00 0. -1.
         11    1    3    3    0    0  0.20953033679E+01  0.39922724729E+01  0.11724051929E+01  0.46586553745E+01  0.51100000000E-03 0. -1.
        -11    1    3    3    0    0 -0.61751424009E+01 -0.24252731774E+02  0.11550429173E+01  0.25053173583E+02  0.51100000000E-03 0.  1.
         12    1    3    3    0    0  0.16271136219E+01 -0.20268601485E+02 -0.44592859820E+01  0.20817034764E+02  0.00000000000E+00 0. -1.
</event>
<event>
 7    1  0.2891523E-011  0.5052886E+02  0.7816164E-02  0.1300439E+00
        -11   -1    0    0    0    0  0.00000000000E+00  0.00000000000E+00  0.45593999997E+02  0.45594000000E+02  0.51100000000E-03 0.  1.
         11   -1    0    0    0    0 -0.00000000000E+00 -0.00000000000E+00 -0.45593999997E+02  0.45594000000E+02  0.51100000000E-03 0. -1.
    9900012    2    1    2    0    0  0.42694532687E+01  0.71046352158E+01  0.39805292479E+02  0.50528863486E+02  0.30000011051E+02 0.  0.
         12    1    1    2    0    0 -0.42694532687E+01 -0.71046352158E+01 -0.39805292479E+02  0.40659136514E+02  0.00000000000E+00 0. -1.
         11    1    3    3    0    0 -0.63822713878E+00  0.20221448186E+00  0.76906370582E+01  0.77197230002E+01  0.51100000000E-03 0. -1.
        -11    1    3    3    0    0 -0.58269231794E+01  0.14183124716E+02  0.17684218625E+02  0.23406102817E+02  0.51100000000E-03 0.  1.
        -12    1    3    3    0    0  0.10734603587E+02 -0.72807039823E+01  0.14430436795E+02  0.19403037668E+02  0.00000000000E+00 0.  1.
</event>
<event>
 7    1  0.2891523E-011  0.5052886E+02  0.7816164E-02  0.1300439E+00
        -11   -1    0    0    0    0  0.00000000000E+00  0.00000000000E+00  0.45593999997E+02  0.45594000000E+02  0.51100000000E-03 0.  1.
         11   -1    0    0    0    0 -0.00000000000E+00 -0.00000000000E+00 -0.45593999997E+02  0.45594000000E+02  0.51100000000E-03 0. -1.
    9900012    2    1    2    0    0 -0.29037450764E+02  0.20903030229E+01  0.28383495106E+02  0.50528859478E+02  0.29999998868E+02 0.  0.
         12    1    1    2    0    0  0.29037450764E+02 -0.20903030229E+01 -0.28383495106E+02  0.40659140522E+02  0.00000000000E+00 0. -1.
         11    1    3    3    0    0 -0.29087821898E+01  0.49036961343E+01  0.16365499564E+02  0.17330228672E+02  0.51100000000E-03 0.  1.
        -11    1    3    3    0    0 -0.22461708856E+02  0.42724618528E+01  0.76970357300E+01  0.24125228585E+02  0.51100000000E-03 0. -1.
         12    1    3    3    0    0 -0.36669597181E+01 -0.70858549642E+01  0.43209598124E+01  0.90734022201E+01  0.00000000000E+00 0. -1.
</event>
<event>
 7    1  0.2891523E-011  0.5052887E+02  0.7816164E-02  0.1300439E+00
        -11   -1    0    0    0    0  0.00000000000E+00  0.00000000000E+00  0.45593999997E+02  0.45594000000E+02  0.51100000000E-03 0.  1.
         11   -1    0    0    0    0 -0.00000000000E+00 -0.00000000000E+00 -0.45593999997E+02  0.45594000000E+02  0.51100000000E-03 0. -1.
    9900012    2    1    2    0    0 -0.19695391850E+02 -0.14569258110E+02  0.32449861082E+02  0.50528865402E+02  0.30000016876E+02 0.  0.
         12    1    1    2    0    0  0.19695391850E+02  0.14569258110E+02 -0.32449861082E+02  0.40659134598E+02  0.00000000000E+00 0. -1.
         11    1    3    3    0    0 -0.73067273923E+01  0.27734768104E+01  0.82508149682E+00  0.78588293366E+01  0.51100000000E-03 0. -1.
        -11    1    3    3    0    0  0.44517192467E+01 -0.84485070658E+01  0.93711011486E+01  0.13379559518E+02  0.51100000000E-03 0.  1.
         12    1    3    3    0    0 -0.16840383704E+02 -0.88942278548E+01  0.22253678437E+02  0.29290476548E+02  0.00000000000E+00 0. -1.
</event>
<event>
 7    1  0.2891523E-011  0.5052885E+02  0.7816164E-02  0.1300439E+00
        -11   -1    0    0    0    0  0.00000000000E+00  0.00000000000E+00  0.45593999997E+02  0.45594000000E+02  0.51100000000E-03 0.  1.
         11   -1    0    0    0    0 -0.00000000000E+00 -0.00000000000E+00 -0.45593999997E+02  0.45594000000E+02  0.51100000000E-03 0. -1.
    9900012    2    1    2    0    0  0.33897718394E+02  0.22393066376E+02  0.16313649165E+01  0.50528854835E+02  0.29999984756E+02 0.  0.
         12    1    1    2    0    0 -0.33897718394E+02 -0.22393066376E+02 -0.16313649165E+01  0.40659145165E+02  0.00000000000E+00 0. -1.
         11    1    3    3    0    0  0.15319549677E+02  0.15654033028E+02 -0.69349972970E+01  0.22974584656E+02  0.51100000000E-03 0. -1.
        -11    1    3    3    0    0  0.12327331607E+01 -0.37899901029E+01  0.58553204944E+01  0.70829679075E+01  0.51100000000E-03 0.  1.
        -12    1    3    3    0    0  0.17345435556E+02  0.10529023451E+02  0.27110417191E+01  0.20471302271E+02  0.00000000000E+00 0.  1.
</event>
<event>
 7    1  0.2891523E-011  0.5052885E+02  0.7816164E-02  0.1300439E+00
        -11   -1    0    0    0    0  0.00000000000E+00  0.00000000000E+00  0.45593999997E+02  0.45594000000E+02  0.51100000000E-03 0.  1.
         11   -1    0    0    0    0 -0.00000000000E+00 -0.00000000000E+00 -0.45593999997E+02  0.45594000000E+02  0.51100000000E-03 0. -1.
    9900012    2    1    2    0    0 -0.14949316612E+02 -0.12153035370E+02  0.35804856954E+02  0.50528854444E+02  0.29999983568E+02 0.  0.
         12    1    1    2    0    0  0.14949316612E+02  0.12153035370E+02 -0.35804856954E+02  0.40659145556E+02  0.00000000000E+00 0. -1.
         11    1    3    3    0    0 -0.29235517588E+01  0.41500737936E+01  0.44998204209E+01  0.67837048477E+01  0.51100000000E-03 0. -1.
        -11    1    3    3    0    0 -0.10327228700E+02 -0.16072705981E+02  0.85582580141E+01  0.20933879494E+02  0.51100000000E-03 0.  1.
        -12    1    3    3    0    0 -0.16985361526E+01 -0.23040318198E+00  0.22746778519E+02  0.22811270102E+02  0.00000000000E+00 0.  1.
</event>
<event>
 7    1  0.2891523E-011  0.5052886E+02  0.7816164E-02  0.1300439E+00
        -11   -1    0    0    0    0  0.00000000000E+00  0.00000000000E+00  0.45593999997E+02  0.45594000000E+02  0.51100000000E-03 0.  1.
         11   -1    0    0    0    0 -0.00000000000E+00 -0.00000000000E+00 -0.45593999997E+02  0.45594000000E+02  0.51100000000E-03 0. -1.
    9900012    2    1    2    0    0  0.23026374251E+02  0.11913576997E+02  0.31321212543E+02  0.50528861013E+02  0.30000003534E+02 0.  0.
         12    1    1    2    0    0 -0.23026374251E+02 -0.11913576997E+02 -0.31321212543E+02  0.40659138987E+02  0.00000000000E+00 0. -1.
         11    1    3    3    0    0  0.15985584119E+02 -0.38485087626E+01  0.44556354719E+01  0.17035334075E+02  0.51100000000E-03 0. -1.
        -11    1    3    3    0    0  0.40173240851E+01  0.16164009556E+02  0.24537847528E+02  0.29656703446E+02  0.51100000000E-03 0.  1.
        -12    1    3    3    0    0  0.30234660469E+01 -0.40192379694E+00  0.23277295435E+01  0.38368234913E+01  0.00000000000E+00 0.  1.
</event>
<event>
 7    1  0.2891523E-011  0.5052890E+02  0.7816164E-02  0.1300439E+00
        -11   -1    0    0    0    0  0.00000000000E+00  0.00000000000E+00  0.45593999997E+02  0.45594000000E+02  0.51100000000E-03 0.  1.
         11   -1    0    0    0    0 -0.00000000000E+00 -0.00000000000E+00 -0.45593999997E+02  0.45594000000E+02  0.51100000000E-03 0. -1.
    9900012    2    1    2    0    0  0.38269038552E+02 -0.13694567874E+02  0.10496719464E+01  0.50528901238E+02  0.30000125803E+02 0.  0.
         12    1    1    2    0    0 -0.38269038552E+02  0.13694567874E+02 -0.10496719464E+01  0.40659098762E+02  0.00000000000E+00 0. -1.
         11    1    3    3    0    0  0.78782257141E+01  0.38373394928E+00  0.78654564843E+01  0.11139079770E+02  0.51100000000E-03 0. -1.
        -11    1    3    3    0    0  0.13519191579E+02 -0.11516962834E+02 -0.12141249825E+02  0.21513226663E+02  0.51100000000E-03 0.  1.
        -12    1    3    3    0    0  0.16871621258E+02 -0.25613389894E+01  0.53254652872E+01  0.17876594805E+02  0.00000000000E+00 0.  1.
</event>
<event>
 7    1  0.2891523E-011  0.5052885E+02  0.7816164E-02  0.1300439E+00
        -11   -1    0    0    0    0  0.00000000000E+00  0.00000000000E+00  0.45593999997E+02  0.45594000000E+02  0.51100000000E-03 0.  1.
         11   -1    0    0    0    0 -0.00000000000E+00 -0.00000000000E+00 -0.45593999997E+02  0.45594000000E+02  0.51100000000E-03 0. -1.
    9900012    2    1    2    0    0  0.22232192598E+01 -0.40120050551E+02 -0.62133155350E+01  0.50528850353E+02  0.29999971134E+02 0.  0.
         12    1    1    2    0    0 -0.22232192598E+01  0.40120050551E+02  0.62133155350E+01  0.40659149647E+02  0.00000000000E+00 0. -1.
         11    1    3    3    0    0 -0.82143545132E+01 -0.31084681244E+02  0.22461487376E+01  0.32230082415E+02  0.51100000000E-03 0. -1.
        -11    1    3    3    0    0  0.71705317816E+01 -0.71987993828E+01 -0.99911454392E+01  0.14249990387E+02  0.51100000000E-03 0.  1.
         12    1    3    3    0    0  0.32670419914E+01 -0.18365699242E+01  0.15316811667E+01  0.40487775509E+01  0.00000000000E+00 0. -1.
</event>
<event>
 7    1  0.2891523E-011  0.5052886E+02  0.7816164E-02  0.1300439E+00
        -11   -1    0    0    0    0  0.00000000000E+00  0.00000000000E+00  0.45593999997E+02  0.45594000000E+02  0.51100000000E-03 0.  1.
         11   -1    0    0    0    0 -0.00000000000E+00 -0.00000000000E+00 -0.45593999997E+02  0.45594000000E+02  0.51100000000E-03 0. -1.
    9900012    2    1    2    0    0 -0.14955361469E+02 -0.37409371535E+02  0.54810478495E+01  0.50528858337E+02  0.29999995400E+02 0.  0.
         12    1    1    2    0    0  0.14955361469E+02  0.37409371535E+02 -0.54810478495E+01  0.40659141663E+02  0.00000000000E+00 0. -1.
         11    1    3    3    0    0  0.44787908978E+01 -0.27413922379E+01 -0.43421195856E+01  0.68138683628E+01  0.51100000000E-03 0. -1.
        -11    1    3    3    0    0 -0.20093760620E+02 -0.22545756678E+02  0.48129438739E+01  0.30581608673E+02  0.51100000000E-03 0.  1.
        -12    1    3    3    0    0  0.65960825332E+00 -0.12122222618E+02  0.50102235613E+01  0.13133381301E+02  0.00000000000E+00 0.  1.
</event>
<event>
 7    1  0.2891523E-011  0.5052885E+02  0.7816164E-02  0.1300439E+00
        -11   -1    0    0    0    0  0.00000000000E+00  0.00000000000E+00  0.45593999997E+02  0.45594000000E+02  0.51100000000E-03 0.  1.
         11   -1    0    0    0    0 -0.00000000000E+00 -0.00000000000E+00 -0.45593999997E+02  0.45594000000E+02  0.51100000000E-03 0. -1.
    9900012    2    1    2    0    0 -0.36252308581E+02  0.18399396156E+02  0.63125286515E+00  0.50528854208E+02  0.29999982851E+02 0.  0.
         12    1    1    2    0    0  0.36252308581E+02 -0.18399396156E+02 -0.63125286515E+00  0.40659145792E+02  0.00000000000E+00 0. -1.
         11    1    3    3    0    0 -0.68171361686E+01  0.30012950476E+01  0.70008517929E+01  0.10222183895E+02  0.51100000000E-03 0. -1.
        -11    1    3    3    0    0 -0.10315975906E+02  0.17310668510E+02 -0.62268491900E+01  0.21091520909E+02  0.51100000000E-03 0.  1.
        -12    1    3    3    0    0 -0.19119196506E+02 -0.19125674017E+01 -0.14274973768E+00  0.19215149403E+02  0.00000000000E+00 0.  1.
</event>
<event>
 7    1  0.2891523E-011  0.5052886E+02  0.7816164E-02  0.1300439E+00
        -11   -1    0    0    0    0  0.00000000000E+00  0.00000000000E+00  0.45593999997E+02  0.45594000000E+02  0.51100000000E-03 0.  1.
         11   -1    0    0    0    0 -0.00000000000E+00 -0.00000000000E+00 -0.45593999997E+02  0.45594000000E+02  0.51100000000E-03 0. -1.
    9900012    2    1    2    0    0 -0.50693509767E+01 -0.23116852495E+02  0.33061736006E+02  0.50528861097E+02  0.30000003790E+02 0.  0.
         12    1    1    2    0    0  0.50693509767E+01  0.23116852495E+02 -0.33061736006E+02  0.40659138903E+02  0.00000000000E+00 0. -1.
         11    1    3    3    0    0  0.28970934425E+01  0.39258886430E+01 -0.64715961553E+00  0.49218459831E+01  0.51100000000E-03 0. -1.
        -11    1    3    3    0    0 -0.10730963443E+02 -0.21994131806E+02  0.23736963741E+02  0.34093091063E+02  0.51100000000E-03 0.  1.
         12    1    3    3    0    0  0.27645190234E+01 -0.50486093321E+01  0.99719318809E+01  0.11513924051E+02  0.00000000000E+00 0. -1.
</event>
<event>
 7    1  0.2891523E-011  0.5052886E+02  0.7816164E-02  0.1300439E+00
        -11   -1    0    0    0    0  0.00000000000E+00  0.00000000000E+00  0.45593999997E+02  0.45594000000E+02  0.51100000000E-03 0. -1.
         11   -1    0    0    0    0 -0.00000000000E+00 -0.00000000000E+00 -0.45593999997E+02  0.45594000000E+02  0.51100000000E-03 0.  1.
    9900012    2    1    2    0    0  0.21656123129E+02 -0.33960311227E+02 -0.55565737168E+01  0.50528856882E+02  0.29999990979E+02 0.  0.
         12    1    1    2    0    0 -0.21656123129E+02  0.33960311227E+02  0.55565737168E+01  0.40659143118E+02  0.00000000000E+00 0. -1.
         11    1    3    3    0    0 -0.61867699343E+01 -0.76558664430E+01  0.34210979595E+01  0.10420764114E+02  0.51100000000E-03 0. -1.
        -11    1    3    3    0    0  0.31443212186E+01 -0.20924989571E+00 -0.95938262430E+00  0.32940790406E+01  0.51100000000E-03 0.  1.
         12    1    3    3    0    0  0.24698571845E+02 -0.26095194888E+02 -0.80182890520E+01  0.36814013728E+02  0.00000000000E+00 0. -1.
</event>
<event>
 7    1  0.2891523E-011  0.5052886E+02  0.7816164E-02  0.1300439E+00
        -11   -1    0    0    0    0  0.00000000000E+00  0.00000000000E+00  0.45593999997E+02  0.45594000000E+02  0.51100000000E-03 0. -1.
         11   -1    0    0    0    0 -0.00000000000E+00 -0.00000000000E+00 -0.45593999997E+02  0.45594000000E+02  0.51100000000E-03 0.  1.
    9900012    2    1    2    0    0 -0.40411420816E+02  0.19324345456E+01 -0.40433300276E+01  0.50528858920E+02  0.29999997174E+02 0.  0.
         12    1    1    2    0    0  0.40411420816E+02 -0.19324345456E+01  0.40433300276E+01  0.40659141080E+02  0.00000000000E+00 0. -1.
         11    1    3    3    0    0  0.26960075252E+01 -0.83933913126E+00 -0.15994043574E+01  0.32451565930E+01  0.51100000000E-03 0. -1.
        -11    1    3    3    0    0 -0.32699700074E+02  0.26988958501E+01 -0.10137029236E+02  0.34341138387E+02  0.51100000000E-03 0.  1.
        -12    1    3    3    0    0 -0.10407728267E+02  0.72877826780E-01  0.76931035658E+01  0.12942563940E+02  0.00000000000E+00 0.  1.
</event>
<event>
 7    1  0.2891523E-011  0.5052887E+02  0.7816164E-02  0.1300439E+00
        -11   -1    0    0    0    0  0.00000000000E+00  0.00000000000E+00  0.45593999997E+02  0.45594000000E+02  0.51100000000E-03 0.  1.
         11   -1    0    0    0    0 -0.00000000000E+00 -0.00000000000E+00 -0.45593999997E+02  0.45594000000E+02  0.51100000000E-03 0. -1.
    9900012    2    1    2    0    0  0.43487606338E+01  0.58962755016E+01  0.39993589720E+02  0.50528868153E+02  0.30000025239E+02 0.  0.
         12    1    1    2    0    0 -0.43487606338E+01 -0.58962755016E+01 -0.39993589720E+02  0.40659131847E+02  0.00000000000E+00 0. -1.
         11    1    3    3    0    0  0.73200177433E+01 -0.11894589527E+01 -0.13206877709E+01  0.75327079336E+01  0.51100000000E-03 0. -1.
        -11    1    3    3    0    0  0.88684882248E+00  0.23293699605E+01  0.30229053109E+02  0.30331635587E+02  0.51100000000E-03 0.  1.
         12    1    3    3    0    0 -0.38581059320E+01  0.47563644938E+01  0.11085224382E+02  0.12664524633E+02  0.00000000000E+00 0. -1.
</event>
<event>
 7    1  0.2891523E-011  0.5052886E+02  0.7816164E-02  0.1300439E+00
        -11   -1    0    0    0    0  0.00000000000E+00  0.00000000000E+00  0.45593999997E+02  0.45594000000E+02  0.51100000000E-03 0. -1.
         11   -1    0    0    0    0 -0.00000000000E+00 -0.00000000000E+00 -0.45593999997E+02  0.45594000000E+02  0.51100000000E-03 0.  1.
    9900012    2    1    2    0    0 -0.18382049836E+01  0.76235192200E+01 -0.39895723686E+02  0.50528858208E+02  0.29999995008E+02 0.  0.
         12    1    1    2    0    0  0.18382049836E+01 -0.76235192200E+01  0.39895723686E+02  0.40659141792E+02  0.00000000000E+00 0. -1.
         11    1    3    3    0    0 -0.87639547151E+01 -0.15253973928E+00 -0.33320975211E+01  0.93772621149E+01  0.51100000000E-03 0. -1.
        -11    1    3    3    0    0  0.89922368795E+00  0.35762874050E+01 -0.32594199541E+02  0.32802138327E+02  0.51100000000E-03 0.  1.
         12    1    3    3    0    0  0.60265260435E+01  0.41997715543E+01 -0.39694266241E+01  0.83494577659E+01  0.00000000000E+00 0. -1.
</event>
<event>
 7    1  0.2891523E-011  0.5052878E+02  0.7816164E-02  0.1300439E+00
        -11   -1    0    0    0    0  0.00000000000E+00  0.00000000000E+00  0.45593999997E+02  0.45594000000E+02  0.51100000000E-03 0.  1.
         11   -1    0    0    0    0 -0.00000000000E+00 -0.00000000000E+00 -0.45593999997E+02  0.45594000000E+02  0.51100000000E-03 0. -1.
    9900012    2    1    2    0    0  0.13539725124E+02  0.85603121124E+01  0.37370697660E+02  0.50528780338E+02  0.29999758314E+02 0.  0.
         12    1    1    2    0    0 -0.13539725124E+02 -0.85603121124E+01 -0.37370697660E+02  0.40659219662E+02  0.00000000000E+00 0. -1.
         11    1    3    3    0    0 -0.93133300130E+00  0.33410376063E+01  0.18596382134E+01  0.39355009837E+01  0.51100000000E-03 0. -1.
        -11    1    3    3    0    0  0.16094829297E+02  0.42309654520E+00  0.68645727972E+01  0.17502711240E+02  0.51100000000E-03 0.  1.
        -12    1    3    3    0    0 -0.16237711717E+01  0.47961779609E+01  0.28646486650E+02  0.29090568115E+02  0.00000000000E+00 0.  1.
</event>
<event>
 7    1  0.2891523E-011  0.5052885E+02  0.7816164E-02  0.1300439E+00
        -11   -1    0    0    0    0  0.00000000000E+00  0.00000000000E+00  0.45593999997E+02  0.45594000000E+02  0.51100000000E-03 0.  1.
         11   -1    0    0    0    0 -0.00000000000E+00 -0.00000000000E+00 -0.45593999997E+02  0.45594000000E+02  0.51100000000E-03 0. -1.
    9900012    2    1    2    0    0 -0.21048752190E+02  0.34783670018E+02 -0.46115442199E+00  0.50528851804E+02  0.29999975542E+02 0.  0.
         12    1    1    2    0    0  0.21048752190E+02 -0.34783670018E+02  0.46115442199E+00  0.40659148196E+02  0.00000000000E+00 0. -1.
         11    1    3    3    0    0 -0.69098035789E+01  0.15928530953E+02 -0.77025826882E+01  0.18994558803E+02  0.51100000000E-03 0. -1.
        -11    1    3    3    0    0  0.10803045640E+01  0.12024496045E+02  0.85612198210E+01  0.14800339462E+02  0.51100000000E-03 0.  1.
        -12    1    3    3    0    0 -0.15219253175E+02  0.68306430196E+01 -0.13197915548E+01  0.16733953538E+02  0.00000000000E+00 0.  1.
</event>
<event>
 7    1  0.2891523E-011  0.5052885E+02  0.7816164E-02  0.1300439E+00
        -11   -1    0    0    0    0  0.00000000000E+00  0.00000000000E+00  0.45593999997E+02  0.45594000000E+02  0.51100000000E-03 0. -1.
         11   -1    0    0    0    0 -0.00000000000E+00 -0.00000000000E+00 -0.45593999997E+02  0.45594000000E+02  0.51100000000E-03 0.  1.
    9900012    2    1    2    0    0  0.21630083594E+02 -0.27152050057E+02  0.21167710577E+02  0.50528852079E+02  0.29999976380E+02 0.  0.
         12    1    1    2    0    0 -0.21630083594E+02  0.27152050057E+02 -0.21167710577E+02  0.40659147921E+02  0.00000000000E+00 0. -1.
         11    1    3    3    0    0  0.53615484483E+00 -0.12111160011E+02  0.93955035232E+01  0.15337638200E+02  0.51100000000E-03 0. -1.
        -11    1    3    3    0    0  0.18197978249E+02 -0.55771701077E+00  0.46347503677E+01  0.18787186373E+02  0.51100000000E-03 0.  1.
        -12    1    3    3    0    0  0.28959505002E+01 -0.14483173035E+02  0.71374566859E+01  0.16404027506E+02  0.00000000000E+00 0.  1.
</event>
<event>
 7    1  0.2891523E-011  0.5052886E+02  0.7816164E-02  0.1300439E+00
        -11   -1    0    0    0    0  0.00000000000E+00  0.00000000000E+00  0.45593999997E+02  0.45594000000E+02  0.51100000000E-03 0.  1.
         11   -1    0    0    0    0 -0.00000000000E+00 -0.00000000000E+00 -0.45593999997E+02  0.45594000000E+02  0.51100000000E-03 0. -1.
    9900012    2    1    2    0    0 -0.33818133591E+01 -0.23822187314E+02  0.32775481929E+02  0.50528862211E+02  0.30000007178E+02 0.  0.
         12    1    1    2    0    0  0.33818133591E+01  0.23822187314E+02 -0.32775481929E+02  0.40659137789E+02  0.00000000000E+00 0. -1.
         11    1    3    3    0    0 -0.33260749410E+01  0.35011132500E+01  0.27664499528E+01  0.55654123032E+01  0.51100000000E-03 0. -1.
        -11    1    3    3    0    0 -0.86561092107E+01 -0.16561878155E+02  0.11690019343E+02  0.22042699181E+02  0.51100000000E-03 0.  1.
        -12    1    3    3    0    0  0.86003707925E+01 -0.10761422409E+02  0.18319012634E+02  0.22920750728E+02  0.00000000000E+00 0.  1.
</event>
<event>
 7    1  0.2891523E-011  0.5052886E+02  0.7816164E-02  0.1300439E+00
        -11   -1    0    0    0    0  0.00000000000E+00  0.00000000000E+00  0.45593999997E+02  0.45594000000E+02  0.51100000000E-03 0. -1.
         11   -1    0    0    0    0 -0.00000000000E+00 -0.00000000000E+00 -0.45593999997E+02  0.45594000000E+02  0.51100000000E-03 0.  1.
    9900012    2    1    2    0    0  0.26864357740E+02 -0.31743119489E+01 -0.30354503739E+02  0.50528857481E+02  0.29999992798E+02 0.  0.
         12    1    1    2    0    0 -0.26864357740E+02  0.31743119489E+01  0.30354503739E+02  0.40659142519E+02  0.00000000000E+00 0. -1.
         11    1    3    3    0    0  0.24949246876E+02 -0.91555912267E+01 -0.29099507252E+02  0.39409022989E+02  0.51100000000E-03 0. -1.
        -11    1    3    3    0    0  0.51580972818E+01  0.53003080931E+01 -0.21225432400E+01  0.76944410789E+01  0.51100000000E-03 0.  1.
         12    1    3    3    0    0 -0.32429864178E+01  0.68097118463E+00  0.86754675273E+00  0.34253934122E+01  0.00000000000E+00 0. -1.
</event>
<event>
 7    1  0.2891523E-011  0.5052886E+02  0.7816164E-02  0.1300439E+00
        -11   -1    0    0    0    0  0.00000000000E+00  0.00000000000E+00  0.45593999997E+02  0.45594000000E+02  0.51100000000E-03 0. -1.
         11   -1    0    0    0    0 -0.00000000000E+00 -0.00000000000E+00 -0.45593999997E+02  0.45594000000E+02  0.51100000000E-03 0.  1.
    9900012    2    1    2    0    0 -0.33957302690E+02  0.89146987229E+01 -0.20508422209E+02  0.50528860304E+02  0.30000001380E+02 0.  0.
         12    1    1    2    0    0  0.33957302690E+02 -0.89146987229E+01  0.20508422209E+02  0.40659139696E+02  0.00000000000E+00 0. -1.
         11    1    3    3    0    0 -0.52864334788E+01 -0.48537489488E+01  0.42291877072E+00  0.71891667341E+01  0.51100000000E-03 0. -1.
        -11    1    3    3    0    0 -0.26938761213E+02  0.12811094965E+02 -0.88751800513E+01  0.31122175874E+02  0.51100000000E-03 0.  1.
        -12    1    3    3    0    0 -0.17321079982E+01  0.95735270675E+00 -0.12056160929E+02  0.12217517696E+02  0.00000000000E+00 0.  1.
</event>
<event>
 7    1  0.2891523E-011  0.5052885E+02  0.7816164E-02  0.1300439E+00
        -11   -1    0    0    0    0  0.00000000000E+00  0.00000000000E+00  0.45593999997E+02  0.45594000000E+02  0.51100000000E-03 0. -1.
         11   -1    0    0    0    0 -0.00000000000E+00 -0.00000000000E+00 -0.45593999997E+02  0.45594000000E+02  0.51100000000E-03 0.  1.
    9900012    2    1    2    0    0  0.15703453770E+02 -0.37485422981E+02  0.11877206052E+01  0.50528854945E+02  0.29999985090E+02 0.  0.
         12    1    1    2    0    0 -0.15703453770E+02  0.37485422981E+02 -0.11877206052E+01  0.40659145055E+02  0.00000000000E+00 0. -1.
         11    1    3    3    0    0  0.19279623525E+02 -0.24831214102E+02  0.83623494596E+01  0.32530323788E+02  0.51100000000E-03 0. -1.
        -11    1    3    3    0    0 -0.68641942111E+01 -0.67752680640E+01 -0.53071129175E+01  0.11008490691E+02  0.51100000000E-03 0.  1.
         12    1    3    3    0    0  0.32880244561E+01 -0.58789408155E+01 -0.18675159369E+01  0.69900404656E+01  0.00000000000E+00 0. -1.
</event>
<event>
 7    1  0.2891523E-011  0.5052885E+02  0.7816164E-02  0.1300439E+00
        -11   -1    0    0    0    0  0.00000000000E+00  0.00000000000E+00  0.45593999997E+02  0.45594000000E+02  0.51100000000E-03 0. -1.
         11   -1    0    0    0    0 -0.00000000000E+00 -0.00000000000E+00 -0.45593999997E+02  0.45594000000E+02  0.51100000000E-03 0.  1.
    9900012    2    1    2    0    0  0.33821447369E+02  0.20682502259E+02 -0.90282940894E+01  0.50528852247E+02  0.29999976890E+02 0.  0.
         12    1    1    2    0    0 -0.33821447369E+02 -0.20682502259E+02  0.90282940894E+01  0.40659147753E+02  0.00000000000E+00 0. -1.
         11    1    3    3    0    0  0.14904559143E+02  0.22040613661E+02  0.12218497922E+01  0.26635079332E+02  0.51100000000E-03 0. -1.
        -11    1    3    3    0    0  0.62594218072E+01  0.44014180196E+01 -0.30886757434E+01  0.82518337388E+01  0.51100000000E-03 0.  1.
         12    1    3    3    0    0  0.12657466419E+02 -0.57595294220E+01 -0.71614681382E+01  0.15641939176E+02  0.00000000000E+00 0. -1.
</event>
<event>
 7    1  0.2891523E-011  0.5052883E+02  0.7816164E-02  0.1300439E+00
        -11   -1    0    0    0    0  0.00000000000E+00  0.00000000000E+00  0.45593999997E+02  0.45594000000E+02  0.51100000000E-03 0. -1.
         11   -1    0    0    0    0 -0.00000000000E+00 -0.00000000000E+00 -0.45593999997E+02  0.45594000000E+02  0.51100000000E-03 0.  1.
    9900012    2    1    2    0    0 -0.22182411419E+02 -0.55749422525E+01 -0.33615895687E+02  0.50528833748E+02  0.29999920660E+02 0.  0.
         12    1    1    2    0    0  0.22182411419E+02  0.55749422525E+01  0.33615895687E+02  0.40659166252E+02  0.00000000000E+00 0. -1.
         11    1    3    3    0    0 -0.11505317499E+02 -0.89627948310E+01 -0.44727315861E+00  0.14591232829E+02  0.51100000000E-03 0. -1.
        -11    1    3    3    0    0 -0.90375084479E+01 -0.10490422788E+01 -0.22265068775E+02  0.24052241818E+02  0.51100000000E-03 0.  1.
         12    1    3    3    0    0 -0.16395854720E+01  0.44368948573E+01 -0.10903553754E+02  0.11885359101E+02  0.00000000000E+00 0. -1.
</event>
<event>
 7    1  0.2891523E-011  0.5052884E+02  0.7816164E-02  0.1300439E+00
        -11   -1    0    0    0    0  0.00000000000E+00  0.00000000000E+00  0.45593999997E+02  0.45594000000E+02  0.51100000000E-03 0. -1.
         11   -1    0    0    0    0 -0.00000000000E+00 -0.00000000000E+00 -0.45593999997E+02  0.45594000000E+02  0.51100000000E-03 0.  1.
    9900012    2    1    2    0    0  0.17433660872E+02 -0.30241839345E+02 -0.20848644496E+02  0.50528839216E+02  0.29999937281E+02 0.  0.
         12    1    1    2    0    0 -0.17433660872E+02  0.30241839345E+02  0.20848644496E+02  0.40659160784E+02  0.00000000000E+00 0. -1.
         11    1    3    3    0    0 -0.14928693479E+01 -0.69813490145E+01 -0.16921203596E+02  0.18365593493E+02  0.51100000000E-03 0. -1.
        -11    1    3    3    0    0  0.19728680133E+02 -0.21135944111E+02 -0.16696667799E+01  0.28960951998E+02  0.51100000000E-03 0.  1.
        -12    1    3    3    0    0 -0.80214991290E+00 -0.21245462197E+01 -0.22577741196E+01  0.32022937244E+01  0.00000000000E+00 0.  1.
</event>
<event>
 7    1  0.2891523E-011  0.5052885E+02  0.7816164E-02  0.1300439E+00
        -11   -1    0    0    0    0  0.00000000000E+00  0.00000000000E+00  0.45593999997E+02  0.45594000000E+02  0.51100000000E-03 0. -1.
         11   -1    0    0    0    0 -0.00000000000E+00 -0.00000000000E+00 -0.45593999997E+02  0.45594000000E+02  0.51100000000E-03 0.  1.
    9900012    2    1    2    0    0 -0.35152334592E+02  0.12245974305E+02 -0.16355902964E+02  0.50528854956E+02  0.29999985124E+02 0.  0.
         12    1    1    2    0    0  0.35152334592E+02 -0.12245974305E+02  0.16355902964E+02  0.40659145044E+02  0.00000000000E+00 0. -1.
         11    1    3    3    0    0 -0.26900786978E+02  0.32043596339E+01 -0.13685649547E+01  0.27125508861E+02  0.51100000000E-03 0. -1.
        -11    1    3    3    0    0 -0.13244524820E+01  0.96066731701E+01 -0.12915649331E+02  0.16151047696E+02  0.51100000000E-03 0.  1.
        -12    1    3    3    0    0 -0.69270951323E+01 -0.56505849945E+00 -0.20716886787E+01  0.72522983985E+01  0.00000000000E+00 0.  1.
</event>
<event>
 7    1  0.2891523E-011  0.5052885E+02  0.7816164E-02  0.1300439E+00
        -11   -1    0    0    0    0  0.00000000000E+00  0.00000000000E+00  0.45593999997E+02  0.45594000000E+02  0.51100000000E-03 0.  1.
         11   -1    0    0    0    0 -0.00000000000E+00 -0.00000000000E+00 -0.45593999997E+02  0.45594000000E+02  0.51100000000E-03 0. -1.
    9900012    2    1    2    0    0 -0.38046374285E+02  0.14181455434E+02  0.21273990459E+01  0.50528854643E+02  0.29999984174E+02 0.  0.
         12    1    1    2    0    0  0.38046374285E+02 -0.14181455434E+02 -0.21273990459E+01  0.40659145357E+02  0.00000000000E+00 0. -1.
         11    1    3    3    0    0 -0.53774229281E+01 -0.22209457634E+01  0.11360367069E+02  0.12763511180E+02  0.51100000000E-03 0. -1.
        -11    1    3    3    0    0 -0.18809698272E+02  0.10629661485E+02 -0.53567822073E+01  0.22259594971E+02  0.51100000000E-03 0.  1.
         12    1    3    3    0    0 -0.13859253084E+02  0.57727397122E+01 -0.38761858160E+01  0.15505748493E+02  0.00000000000E+00 0. -1.
</event>
<event>
 7    1  0.2891523E-011  0.5052886E+02  0.7816164E-02  0.1300439E+00
        -11   -1    0    0    0    0  0.00000000000E+00  0.00000000000E+00  0.45593999997E+02  0.45594000000E+02  0.51100000000E-03 0.  1.
         11   -1    0    0    0    0 -0.00000000000E+00 -0.00000000000E+00 -0.45593999997E+02  0.45594000000E+02  0.51100000000E-03 0. -1.
    9900012    2    1    2    0    0  0.36622781496E+02 -0.11266032778E+02  0.13601988656E+02  0.50528859398E+02  0.29999998626E+02 0.  0.
         12    1    1    2    0    0 -0.36622781496E+02  0.11266032778E+02 -0.13601988656E+02  0.40659140602E+02  0.00000000000E+00 0. -1.
         11    1    3    3    0    0  0.12779847033E+01 -0.31542592813E+01 -0.61629557033E+01  0.70402144696E+01  0.51100000000E-03 0. -1.
        -11    1    3    3    0    0  0.23653030937E+02 -0.76270096817E+01  0.19818122235E+02  0.31786712922E+02  0.51100000000E-03 0.  1.
        -12    1    3    3    0    0  0.11691765856E+02 -0.48476381482E+00 -0.53177875878E-01  0.11701932006E+02  0.00000000000E+00 0.  1.
</event>
<event>
 7    1  0.2891523E-011  0.5052886E+02  0.7816164E-02  0.1300439E+00
        -11   -1    0    0    0    0  0.00000000000E+00  0.00000000000E+00  0.45593999997E+02  0.45594000000E+02  0.51100000000E-03 0.  1.
         11   -1    0    0    0    0 -0.00000000000E+00 -0.00000000000E+00 -0.45593999997E+02  0.45594000000E+02  0.51100000000E-03 0. -1.
    9900012    2    1    2    0    0  0.34087173986E+02  0.15451644924E+02  0.15889520211E+02  0.50528860636E+02  0.30000002390E+02 0.  0.
         12    1    1    2    0    0 -0.34087173986E+02 -0.15451644924E+02 -0.15889520211E+02  0.40659139364E+02  0.00000000000E+00 0. -1.
         11    1    3    3    0    0  0.17030683757E+02 -0.38144022288E+01  0.65475381047E+01  0.18640389188E+02  0.51100000000E-03 0. -1.
        -11    1    3    3    0    0  0.19823500256E+02  0.13184400534E+02  0.73529429976E+01  0.24917169800E+02  0.51100000000E-03 0.  1.
         12    1    3    3    0    0 -0.27670100269E+01  0.60816466195E+01  0.19890391090E+01  0.69713016483E+01  0.00000000000E+00 0. -1.
</event>
<event>
 7    1  0.2891523E-011  0.5052886E+02  0.7816164E-02  0.1300439E+00
        -11   -1    0    0    0    0  0.00000000000E+00  0.00000000000E+00  0.45593999997E+02  0.45594000000E+02  0.51100000000E-03 0. -1.
         11   -1    0    0    0    0 -0.00000000000E+00 -0.00000000000E+00 -0.45593999997E+02  0.45594000000E+02  0.51100000000E-03 0.  1.
    9900012    2    1    2    0    0 -0.23282605480E+02 -0.23511051299E+02 -0.23628714842E+02  0.50528863066E+02  0.30000009775E+02 0.  0.
         12    1    1    2    0    0  0.23282605480E+02  0.23511051299E+02  0.23628714842E+02  0.40659136934E+02  0.00000000000E+00 0. -1.
         11    1    3    3    0    0 -0.32928921685E+01 -0.62680206803E+01  0.34376811360E+01  0.78707606961E+01  0.51100000000E-03 0. -1.
        -11    1    3    3    0    0 -0.12746426370E+02 -0.49288777886E+01 -0.24627118378E+02  0.28164874957E+02  0.51100000000E-03 0.  1.
        -12    1    3    3    0    0 -0.72432869413E+01 -0.12314152830E+02 -0.24392776005E+01  0.14493227413E+02  0.00000000000E+00 0.  1.
</event>
<event>
 7    1  0.2891523E-011  0.5052885E+02  0.7816164E-02  0.1300439E+00
        -11   -1    0    0    0    0  0.00000000000E+00  0.00000000000E+00  0.45593999997E+02  0.45594000000E+02  0.51100000000E-03 0.  1.
         11   -1    0    0    0    0 -0.00000000000E+00 -0.00000000000E+00 -0.45593999997E+02  0.45594000000E+02  0.51100000000E-03 0. -1.
    9900012    2    1    2    0    0  0.33672823828E+00  0.35962825587E+02 -0.18966503902E+02  0.50528849980E+02  0.29999969999E+02 0.  0.
         12    1    1    2    0    0 -0.33672823828E+00 -0.35962825587E+02  0.18966503902E+02  0.40659150020E+02  0.00000000000E+00 0. -1.
         11    1    3    3    0    0 -0.20748916703E+01  0.27843488520E+02 -0.20938192128E+01  0.27999091191E+02  0.51100000000E-03 0. -1.
        -11    1    3    3    0    0  0.61481096158E+01  0.16997611416E+01 -0.36118282233E+01  0.73303303583E+01  0.51100000000E-03 0.  1.
         12    1    3    3    0    0 -0.37364897073E+01  0.64195759256E+01 -0.13260856466E+02  0.15199428430E+02  0.00000000000E+00 0. -1.
</event>
<event>
 7    1  0.2891523E-011  0.5052889E+02  0.7816164E-02  0.1300439E+00
        -11   -1    0    0    0    0  0.00000000000E+00  0.00000000000E+00  0.45593999997E+02  0.45594000000E+02  0.51100000000E-03 0.  1.
         11   -1    0    0    0    0 -0.00000000000E+00 -0.00000000000E+00 -0.45593999997E+02  0.45594000000E+02  0.51100000000E-03 0. -1.
    9900012    2    1    2    0    0  0.30178644459E+02 -0.43517662375E+01  0.26897486983E+02  0.50528889622E+02  0.30000090494E+02 0.  0.
         12    1    1    2    0    0 -0.30178644459E+02  0.43517662375E+01 -0.26897486983E+02  0.40659110378E+02  0.00000000000E+00 0. -1.
         11    1    3    3    0    0 -0.24055226306E+00 -0.40558578053E+01  0.85097546210E+00  0.41511453150E+01  0.51100000000E-03 0. -1.
        -11    1    3    3    0    0  0.23587847189E+02  0.70142165805E+01  0.26750220610E+02  0.36347765711E+02  0.51100000000E-03 0.  1.
        -12    1    3    3    0    0  0.68313495333E+01 -0.73101250126E+01 -0.70370908932E+00  0.10029978596E+02  0.00000000000E+00 0.  1.
</event>
<event>
 7    1  0.2891523E-011  0.5052886E+02  0.7816164E-02  0.1300439E+00
        -11   -1    0    0    0    0  0.00000000000E+00  0.00000000000E+00  0.45593999997E+02  0.45594000000E+02  0.51100000000E-03 0.  1.
         11   -1    0    0    0    0 -0.00000000000E+00 -0.00000000000E+00 -0.45593999997E+02  0.45594000000E+02  0.51100000000E-03 0. -1.
    9900012    2    1    2    0    0 -0.21053001602E+02  0.67679863868E+01  0.34119367965E+02  0.50528858512E+02  0.29999995933E+02 0.  0.
         12    1    1    2    0    0  0.21053001602E+02 -0.67679863868E+01 -0.34119367965E+02  0.40659141488E+02  0.00000000000E+00 0. -1.
         11    1    3    3    0    0  0.94152842599E+00  0.11733886142E+02  0.38557566758E+01  0.12386985895E+02  0.51100000000E-03 0. -1.
        -11    1    3    3    0    0 -0.13981628688E+02 -0.12478676536E+01  0.15286299333E+02  0.20753651775E+02  0.51100000000E-03 0.  1.
         12    1    3    3    0    0 -0.80129013397E+01 -0.37180321014E+01  0.14977311956E+02  0.17388220841E+02  0.00000000000E+00 0. -1.
</event>
<event>
 7    1  0.2891523E-011  0.5052885E+02  0.7816164E-02  0.1300439E+00
        -11   -1    0    0    0    0  0.00000000000E+00  0.00000000000E+00  0.45593999997E+02  0.45594000000E+02  0.51100000000E-03 0.  1.
         11   -1    0    0    0    0 -0.00000000000E+00 -0.00000000000E+00 -0.45593999997E+02  0.45594000000E+02  0.51100000000E-03 0. -1.
    9900012    2    1    2    0    0 -0.23580543277E+02  0.17572285059E+02  0.28077377205E+02  0.50528851778E+02  0.29999975464E+02 0.  0.
         12    1    1    2    0    0  0.23580543277E+02 -0.17572285059E+02 -0.28077377205E+02  0.40659148222E+02  0.00000000000E+00 0. -1.
         11    1    3    3    0    0 -0.62460599923E+01  0.78677409308E+01 -0.23753263420E+01  0.10322634754E+02  0.51100000000E-03 0. -1.
        -11    1    3    3    0    0 -0.14346831275E+02  0.14392290610E+02  0.20880679286E+02  0.29137130338E+02  0.51100000000E-03 0.  1.
        -12    1    3    3    0    0 -0.29876520104E+01 -0.46877464814E+01  0.95720242602E+01  0.11069086685E+02  0.00000000000E+00 0.  1.
</event>
<event>
 7    1  0.2891523E-011  0.5052886E+02  0.7816164E-02  0.1300439E+00
        -11   -1    0    0    0    0  0.00000000000E+00  0.00000000000E+00  0.45593999997E+02  0.45594000000E+02  0.51100000000E-03 0.  1.
         11   -1    0    0    0    0 -0.00000000000E+00 -0.00000000000E+00 -0.45593999997E+02  0.45594000000E+02  0.51100000000E-03 0. -1.
    9900012    2    1    2    0    0  0.16708493769E+01  0.39633536421E+02  0.89194432421E+01  0.50528863086E+02  0.30000009836E+02 0.  0.
         12    1    1    2    0    0 -0.16708493769E+01 -0.39633536421E+02 -0.89194432421E+01  0.40659136914E+02  0.00000000000E+00 0. -1.
         11    1    3    3    0    0  0.10278560707E+02  0.13098882712E+02  0.65725809881E+01  0.17900512831E+02  0.51100000000E-03 0. -1.
        -11    1    3    3    0    0 -0.10705613067E+02  0.26558957647E+02 -0.10286951330E+01  0.28653910665E+02  0.51100000000E-03 0.  1.
        -12    1    3    3    0    0  0.20979017375E+01 -0.24303938886E-01  0.33755573870E+01  0.39744395900E+01  0.00000000000E+00 0.  1.
</event>
<event>
 7    1  0.2891523E-011  0.5052887E+02  0.7816164E-02  0.1300439E+00
        -11   -1    0    0    0    0  0.00000000000E+00  0.00000000000E+00  0.45593999997E+02  0.45594000000E+02  0.51100000000E-03 0. -1.
         11   -1    0    0    0    0 -0.00000000000E+00 -0.00000000000E+00 -0.45593999997E+02  0.45594000000E+02  0.51100000000E-03 0.  1.
    9900012    2    1    2    0    0 -0.10985713813E+02 -0.14972997692E+02 -0.36170273368E+02  0.50528865191E+02  0.30000016235E+02 0.  0.
         12    1    1    2    0    0  0.10985713813E+02  0.14972997692E+02  0.36170273368E+02  0.40659134809E+02  0.00000000000E+00 0. -1.
         11    1    3    3    0    0 -0.16364474194E+01 -0.96197103941E+01  0.13566154136E+01  0.98517609525E+01  0.51100000000E-03 0. -1.
        -11    1    3    3    0    0 -0.48203446817E+01 -0.83627997320E+01 -0.18218154689E+02  0.20617305904E+02  0.51100000000E-03 0.  1.
         12    1    3    3    0    0 -0.45289217122E+01  0.30095124337E+01 -0.19308734093E+02  0.20059798334E+02  0.00000000000E+00 0. -1.
</event>
<event>
 7    1  0.2891523E-011  0.5052885E+02  0.7816164E-02  0.1300439E+00
        -11   -1    0    0    0    0  0.00000000000E+00  0.00000000000E+00  0.45593999997E+02  0.45594000000E+02  0.51100000000E-03 0.  1.
         11   -1    0    0    0    0 -0.00000000000E+00 -0.00000000000E+00 -0.45593999997E+02  0.45594000000E+02  0.51100000000E-03 0. -1.
    9900012    2    1    2    0    0 -0.10666734963E+02 -0.23457491472E+01  0.39164839044E+02  0.50528851076E+02  0.29999973332E+02 0.  0.
         12    1    1    2    0    0  0.10666734963E+02  0.23457491472E+01 -0.39164839044E+02  0.40659148924E+02  0.00000000000E+00 0. -1.
         11    1    3    3    0    0 -0.75158997827E+01 -0.73016091021E+01  0.36196830873E+01  0.11086223475E+02  0.51100000000E-03 0. -1.
        -11    1    3    3    0    0 -0.92747113752E+00 -0.58292355380E+00  0.32893474150E+02  0.32911709838E+02  0.51100000000E-03 0.  1.
        -12    1    3    3    0    0 -0.22233640425E+01  0.55387835087E+01  0.26516818072E+01  0.65309177632E+01  0.00000000000E+00 0.  1.
</event>
<event>
 7    1  0.2891523E-011  0.5052887E+02  0.7816164E-02  0.1300439E+00
        -11   -1    0    0    0    0  0.00000000000E+00  0.00000000000E+00  0.45593999997E+02  0.45594000000E+02  0.51100000000E-03 0.  1.
         11   -1    0    0    0    0 -0.00000000000E+00 -0.00000000000E+00 -0.45593999997E+02  0.45594000000E+02  0.51100000000E-03 0. -1.
    9900012    2    1    2    0    0 -0.30505739357E+01 -0.90794334307E+01  0.39514846839E+02  0.50528865313E+02  0.30000016606E+02 0.  0.
         12    1    1    2    0    0  0.30505739357E+01  0.90794334307E+01 -0.39514846839E+02  0.40659134687E+02  0.00000000000E+00 0. -1.
         11    1    3    3    0    0  0.49758718310E+01  0.46198412825E+01  0.20772393517E+02  0.21853937097E+02  0.51100000000E-03 0. -1.
        -11    1    3    3    0    0 -0.75187519329E+01 -0.13632867503E+02  0.21122643392E+02  0.26240289082E+02  0.51100000000E-03 0.  1.
         12    1    3    3    0    0 -0.50769383377E+00 -0.66407210129E-01 -0.23801900697E+01  0.24346391343E+01  0.00000000000E+00 0. -1.
</event>
<event>
 7    1  0.2891523E-011  0.5052886E+02  0.7816164E-02  0.1300439E+00
        -11   -1    0    0    0    0  0.00000000000E+00  0.00000000000E+00  0.45593999997E+02  0.45594000000E+02  0.51100000000E-03 0.  1.
         11   -1    0    0    0    0 -0.00000000000E+00 -0.00000000000E+00 -0.45593999997E+02  0.45594000000E+02  0.51100000000E-03 0. -1.
    9900012    2    1    2    0    0  0.29296838153E+02  0.21867298783E+02  0.17795573669E+02  0.50528856822E+02  0.29999990795E+02 0.  0.
         12    1    1    2    0    0 -0.29296838153E+02 -0.21867298783E+02 -0.17795573669E+02  0.40659143178E+02  0.00000000000E+00 0. -1.
         11    1    3    3    0    0  0.27368192346E+01  0.11982241917E+02  0.16768463539E+02  0.20790518767E+02  0.51100000000E-03 0. -1.
        -11    1    3    3    0    0  0.80732992688E+01  0.44992282865E+01  0.43223358297E+01  0.10203127145E+02  0.51100000000E-03 0.  1.
         12    1    3    3    0    0  0.18486719649E+02  0.53858285788E+01 -0.32952256991E+01  0.19535210909E+02  0.00000000000E+00 0. -1.
</event>
<event>
 7    1  0.2891523E-011  0.5052886E+02  0.7816164E-02  0.1300439E+00
        -11   -1    0    0    0    0  0.00000000000E+00  0.00000000000E+00  0.45593999997E+02  0.45594000000E+02  0.51100000000E-03 0.  1.
         11   -1    0    0    0    0 -0.00000000000E+00 -0.00000000000E+00 -0.45593999997E+02  0.45594000000E+02  0.51100000000E-03 0. -1.
    9900012    2    1    2    0    0  0.34962341562E+02  0.94918239298E+01  0.18458221574E+02  0.50528855977E+02  0.29999988228E+02 0.  0.
         12    1    1    2    0    0 -0.34962341562E+02 -0.94918239298E+01 -0.18458221574E+02  0.40659144023E+02  0.00000000000E+00 0. -1.
         11    1    3    3    0    0  0.10936554826E+02  0.39546647785E+01  0.14464767353E+01  0.11719210732E+02  0.51100000000E-03 0. -1.
        -11    1    3    3    0    0  0.44724221122E+01 -0.86910881255E+01  0.10409766730E+01  0.98296085909E+01  0.51100000000E-03 0.  1.
        -12    1    3    3    0    0  0.19553364624E+02  0.14228247277E+02  0.15970768166E+02  0.28980036655E+02  0.00000000000E+00 0.  1.
</event>
<event>
 7    1  0.2891523E-011  0.5052886E+02  0.7816164E-02  0.1300439E+00
        -11   -1    0    0    0    0  0.00000000000E+00  0.00000000000E+00  0.45593999997E+02  0.45594000000E+02  0.51100000000E-03 0.  1.
         11   -1    0    0    0    0 -0.00000000000E+00 -0.00000000000E+00 -0.45593999997E+02  0.45594000000E+02  0.51100000000E-03 0. -1.
    9900012    2    1    2    0    0  0.14633439755E+02 -0.26723182360E+02  0.26923958410E+02  0.50528861163E+02  0.30000003992E+02 0.  0.
         12    1    1    2    0    0 -0.14633439755E+02  0.26723182360E+02 -0.26923958410E+02  0.40659138837E+02  0.00000000000E+00 0. -1.
         11    1    3    3    0    0 -0.56989960884E+01 -0.11710292458E+02  0.87002317533E+01  0.15662169029E+02  0.51100000000E-03 0. -1.
        -11    1    3    3    0    0  0.14082960823E+02 -0.11484974395E+02  0.20445433708E+02  0.27354162063E+02  0.51100000000E-03 0.  1.
         12    1    3    3    0    0  0.62494750201E+01 -0.35279155068E+01 -0.22217070515E+01  0.75125300713E+01  0.00000000000E+00 0. -1.
</event>
<event>
 7    1  0.2891523E-011  0.5052885E+02  0.7816164E-02  0.1300439E+00
        -11   -1    0    0    0    0  0.00000000000E+00  0.00000000000E+00  0.45593999997E+02  0.45594000000E+02  0.51100000000E-03 0.  1.
         11   -1    0    0    0    0 -0.00000000000E+00 -0.00000000000E+00 -0.45593999997E+02  0.45594000000E+02  0.51100000000E-03 0. -1.
    9900012    2    1    2    0    0  0.26977863150E+02  0.14593135263E+02  0.26690852046E+02  0.50528852445E+02  0.29999977492E+02 0.  0.
         12    1    1    2    0    0 -0.26977863150E+02 -0.14593135263E+02 -0.26690852046E+02  0.40659147555E+02  0.00000000000E+00 0. -1.
         11    1    3    3    0    0  0.28613785871E+02  0.35934378598E+01  0.22688046224E+02  0.36693445998E+02  0.51100000000E-03 0. -1.
        -11    1    3    3    0    0 -0.30718658617E+01  0.48647661192E+01  0.47890413501E+01  0.74858016658E+01  0.51100000000E-03 0.  1.
        -12    1    3    3    0    0  0.14359431413E+01  0.61349312840E+01 -0.78623552838E+00  0.63496047807E+01  0.00000000000E+00 0.  1.
</event>
<event>
 7    1  0.2891523E-011  0.5052886E+02  0.7816164E-02  0.1300439E+00
        -11   -1    0    0    0    0  0.00000000000E+00  0.00000000000E+00  0.45593999997E+02  0.45594000000E+02  0.51100000000E-03 0. -1.
         11   -1    0    0    0    0 -0.00000000000E+00 -0.00000000000E+00 -0.45593999997E+02  0.45594000000E+02  0.51100000000E-03 0.  1.
    9900012    2    1    2    0    0 -0.18047378440E+02  0.29696393132E+02 -0.21108813140E+02  0.50528860489E+02  0.30000001942E+02 0.  0.
         12    1    1    2    0    0  0.18047378440E+02 -0.29696393132E+02  0.21108813140E+02  0.40659139511E+02  0.00000000000E+00 0. -1.
         11    1    3    3    0    0 -0.44058712774E+00  0.15889877738E+02 -0.23753410487E+01  0.16072478866E+02  0.51100000000E-03 0. -1.
        -11    1    3    3    0    0 -0.10383762814E+02  0.67662323666E+01 -0.20750686126E+02  0.24170134579E+02  0.51100000000E-03 0.  1.
        -12    1    3    3    0    0 -0.72230284978E+01  0.70402830274E+01  0.20172140340E+01  0.10286247044E+02  0.00000000000E+00 0.  1.
</event>
<event>
 7    1  0.2891523E-011  0.5052885E+02  0.7816164E-02  0.1300439E+00
        -11   -1    0    0    0    0  0.00000000000E+00  0.00000000000E+00  0.45593999997E+02  0.45594000000E+02  0.51100000000E-03 0. -1.
         11   -1    0    0    0    0 -0.00000000000E+00 -0.00000000000E+00 -0.45593999997E+02  0.45594000000E+02  0.51100000000E-03 0.  1.
    9900012    2    1    2    0    0  0.36585776350E+02  0.16447376595E+02  0.66431433501E+01  0.50528848736E+02  0.29999966217E+02 0.  0.
         12    1    1    2    0    0 -0.36585776350E+02 -0.16447376595E+02 -0.66431433501E+01  0.40659151264E+02  0.00000000000E+00 0. -1.
         11    1    3    3    0    0  0.47337197082E+01 -0.95815927708E+00  0.10527807247E+02  0.11582784517E+02  0.51100000000E-03 0. -1.
        -11    1    3    3    0    0  0.24327966656E+02  0.59564278316E+01 -0.28148028430E+01  0.25204208169E+02  0.51100000000E-03 0.  1.
        -12    1    3    3    0    0  0.75240899855E+01  0.11449108040E+02 -0.10698610537E+01  0.13741856050E+02  0.00000000000E+00 0.  1.
</event>
<event>
 7    1  0.2891523E-011  0.5052886E+02  0.7816164E-02  0.1300439E+00
        -11   -1    0    0    0    0  0.00000000000E+00  0.00000000000E+00  0.45593999997E+02  0.45594000000E+02  0.51100000000E-03 0. -1.
         11   -1    0    0    0    0 -0.00000000000E+00 -0.00000000000E+00 -0.45593999997E+02  0.45594000000E+02  0.51100000000E-03 0.  1.
    9900012    2    1    2    0    0 -0.25268619515E+02  0.85941806539E+01 -0.30672502425E+02  0.50528862302E+02  0.30000007454E+02 0.  0.
         12    1    1    2    0    0  0.25268619515E+02 -0.85941806539E+01  0.30672502425E+02  0.40659137698E+02  0.00000000000E+00 0. -1.
         11    1    3    3    0    0 -0.13682588513E+02 -0.31748326668E+00 -0.64053058672E+01  0.15110988305E+02  0.51100000000E-03 0. -1.
        -11    1    3    3    0    0 -0.83760403137E+01  0.69325562855E+01 -0.28045679770E+02  0.30079536931E+02  0.51100000000E-03 0.  1.
        -12    1    3    3    0    0 -0.32099906880E+01  0.19791076350E+01  0.37784832118E+01  0.53383370660E+01  0.00000000000E+00 0.  1.
</event>
<event>
 7    1  0.2891523E-011  0.5052888E+02  0.7816164E-02  0.1300439E+00
        -11   -1    0    0    0    0  0.00000000000E+00  0.00000000000E+00  0.45593999997E+02  0.45594000000E+02  0.51100000000E-03 0.  1.
         11   -1    0    0    0    0 -0.00000000000E+00 -0.00000000000E+00 -0.45593999997E+02  0.45594000000E+02  0.51100000000E-03 0. -1.
    9900012    2    1    2    0    0 -0.34815491506E+02  0.54565638332E+01  0.20279821583E+02  0.50528884157E+02  0.30000073885E+02 0.  0.
         12    1    1    2    0    0  0.34815491506E+02 -0.54565638332E+01 -0.20279821583E+02  0.40659115843E+02  0.00000000000E+00 0. -1.
         11    1    3    3    0    0 -0.49639924397E+01  0.37359901270E+01 -0.71901579430E+00  0.62542647165E+01  0.51100000000E-03 0. -1.
        -11    1    3    3    0    0 -0.33705658700E+02 -0.95039943732E+00  0.20721530059E+02  0.39577221931E+02  0.51100000000E-03 0.  1.
        -12    1    3    3    0    0  0.38541596342E+01  0.26709731435E+01  0.27730731852E+00  0.46973975101E+01  0.00000000000E+00 0.  1.
</event>
<event>
 7    1  0.2891523E-011  0.5052885E+02  0.7816164E-02  0.1300439E+00
        -11   -1    0    0    0    0  0.00000000000E+00  0.00000000000E+00  0.45593999997E+02  0.45594000000E+02  0.51100000000E-03 0.  1.
         11   -1    0    0    0    0 -0.00000000000E+00 -0.00000000000E+00 -0.45593999997E+02  0.45594000000E+02  0.51100000000E-03 0. -1.
    9900012    2    1    2    0    0  0.17670478164E+02 -0.15606238001E+02  0.33126517559E+02  0.50528848156E+02  0.29999964456E+02 0.  0.
         12    1    1    2    0    0 -0.17670478164E+02  0.15606238001E+02 -0.33126517559E+02  0.40659151844E+02  0.00000000000E+00 0. -1.
         11    1    3    3    0    0 -0.73461732772E+01  0.46551979773E+00  0.60951716484E+01  0.95568869505E+01  0.51100000000E-03 0. -1.
        -11    1    3    3    0    0  0.14566672290E+02 -0.13427314070E+02  0.15230315445E+02  0.24988861790E+02  0.51100000000E-03 0.  1.
         12    1    3    3    0    0  0.10449979151E+02 -0.26444437289E+01  0.11801030465E+02  0.15983099416E+02  0.00000000000E+00 0. -1.
</event>
<event>
 7    1  0.2891523E-011  0.5052887E+02  0.7816164E-02  0.1300439E+00
        -11   -1    0    0    0    0  0.00000000000E+00  0.00000000000E+00  0.45593999997E+02  0.45594000000E+02  0.51100000000E-03 0.  1.
         11   -1    0    0    0    0 -0.00000000000E+00 -0.00000000000E+00 -0.45593999997E+02  0.45594000000E+02  0.51100000000E-03 0. -1.
    9900012    2    1    2    0    0 -0.27390346317E+02 -0.27521609845E+02  0.12062123275E+02  0.50528869442E+02  0.30000029155E+02 0.  0.
         12    1    1    2    0    0  0.27390346317E+02  0.27521609845E+02 -0.12062123275E+02  0.40659130558E+02  0.00000000000E+00 0. -1.
         11    1    3    3    0    0 -0.34388764973E+00 -0.11230437369E+02  0.16177588220E+01  0.11351569323E+02  0.51100000000E-03 0. -1.
        -11    1    3    3    0    0 -0.30109877589E+02 -0.16940455019E+02  0.88523432460E+01  0.35664376147E+02  0.51100000000E-03 0.  1.
        -12    1    3    3    0    0  0.30634189219E+01  0.64928254349E+00  0.15920212073E+01  0.35129239725E+01  0.00000000000E+00 0.  1.
</event>
<event>
 7    1  0.2891523E-011  0.5052886E+02  0.7816164E-02  0.1300439E+00
        -11   -1    0    0    0    0  0.00000000000E+00  0.00000000000E+00  0.45593999997E+02  0.45594000000E+02  0.51100000000E-03 0.  1.
         11   -1    0    0    0    0 -0.00000000000E+00 -0.00000000000E+00 -0.45593999997E+02  0.45594000000E+02  0.51100000000E-03 0. -1.
    9900012    2    1    2    0    0  0.30888215272E+02 -0.22805755459E+02  0.13378405936E+02  0.50528855024E+02  0.29999985331E+02 0.  0.
         12    1    1    2    0    0 -0.30888215272E+02  0.22805755459E+02 -0.13378405936E+02  0.40659144976E+02  0.00000000000E+00 0. -1.
         11    1    3    3    0    0  0.20472904706E+02 -0.22062569030E+02  0.58245728564E+01  0.30656523425E+02  0.51100000000E-03 0.  1.
        -11    1    3    3    0    0  0.14373696769E+02 -0.18193289721E+00  0.61479083676E+01  0.15634354350E+02  0.51100000000E-03 0. -1.
        -12    1    3    3    0    0 -0.39583862030E+01 -0.56125353186E+00  0.14059247123E+01  0.42379772481E+01  0.00000000000E+00 0.  1.
</event>
<event>
 7    1  0.2891523E-011  0.5052886E+02  0.7816164E-02  0.1300439E+00
        -11   -1    0    0    0    0  0.00000000000E+00  0.00000000000E+00  0.45593999997E+02  0.45594000000E+02  0.51100000000E-03 0.  1.
         11   -1    0    0    0    0 -0.00000000000E+00 -0.00000000000E+00 -0.45593999997E+02  0.45594000000E+02  0.51100000000E-03 0. -1.
    9900012    2    1    2    0    0 -0.29650419631E+02  0.19142569354E+02  0.20188612523E+02  0.50528863002E+02  0.30000009582E+02 0.  0.
         12    1    1    2    0    0  0.29650419631E+02 -0.19142569354E+02 -0.20188612523E+02  0.40659136998E+02  0.00000000000E+00 0. -1.
         11    1    3    3    0    0 -0.11002273085E+02  0.19049224018E+02  0.12793358506E+02  0.25447848059E+02  0.51100000000E-03 0. -1.
        -11    1    3    3    0    0 -0.37468990939E+01 -0.49901867052E+01  0.69357061133E+01  0.93298036273E+01  0.51100000000E-03 0.  1.
        -12    1    3    3    0    0 -0.14901247452E+02  0.50835320413E+01  0.45954790364E+00  0.15751211316E+02  0.00000000000E+00 0.  1.
</event>
<event>
 7    1  0.2891523E-011  0.5052888E+02  0.7816164E-02  0.1300439E+00
        -11   -1    0    0    0    0  0.00000000000E+00  0.00000000000E+00  0.45593999997E+02  0.45594000000E+02  0.51100000000E-03 0.  1.
         11   -1    0    0    0    0 -0.00000000000E+00 -0.00000000000E+00 -0.45593999997E+02  0.45594000000E+02  0.51100000000E-03 0. -1.
    9900012    2    1    2    0    0  0.11876228955E+02 -0.34779771491E+02  0.17392151132E+02  0.50528877528E+02  0.30000053735E+02 0.  0.
         12    1    1    2    0    0 -0.11876228955E+02  0.34779771491E+02 -0.17392151132E+02  0.40659122472E+02  0.00000000000E+00 0. -1.
         11    1    3    3    0    0  0.83220382709E+01  0.21304377774E+01  0.37936839118E+01  0.93907999654E+01  0.51100000000E-03 0. -1.
        -11    1    3    3    0    0  0.47566434284E+01 -0.22987254095E+02  0.13667326773E+02  0.27163124432E+02  0.51100000000E-03 0.  1.
         12    1    3    3    0    0 -0.12024527445E+01 -0.13922955174E+02 -0.68859552942E-01  0.13974953131E+02  0.00000000000E+00 0. -1.
</event>
<event>
 7    1  0.2891523E-011  0.5052887E+02  0.7816164E-02  0.1300439E+00
        -11   -1    0    0    0    0  0.00000000000E+00  0.00000000000E+00  0.45593999997E+02  0.45594000000E+02  0.51100000000E-03 0. -1.
         11   -1    0    0    0    0 -0.00000000000E+00 -0.00000000000E+00 -0.45593999997E+02  0.45594000000E+02  0.51100000000E-03 0.  1.
    9900012    2    1    2    0    0  0.35818968063E+00  0.40144629812E+02  0.64378286124E+01  0.50528865235E+02  0.30000016369E+02 0.  0.
         12    1    1    2    0    0 -0.35818968063E+00 -0.40144629812E+02 -0.64378286124E+01  0.40659134765E+02  0.00000000000E+00 0. -1.
         11    1    3    3    0    0  0.12017261120E+02  0.26578886722E+02  0.45342408810E+01  0.29519673522E+02  0.51100000000E-03 0.  1.
        -11    1    3    3    0    0 -0.11512848262E+02  0.66713994982E+01 -0.13685936841E+01  0.13376333402E+02  0.51100000000E-03 0. -1.
         12    1    3    3    0    0 -0.14622317805E+00  0.68943435914E+01  0.32721814155E+01  0.76328583106E+01  0.00000000000E+00 0. -1.
</event>
<event>
 7    1  0.2891523E-011  0.5052886E+02  0.7816164E-02  0.1300439E+00
        -11   -1    0    0    0    0  0.00000000000E+00  0.00000000000E+00  0.45593999997E+02  0.45594000000E+02  0.51100000000E-03 0.  1.
         11   -1    0    0    0    0 -0.00000000000E+00 -0.00000000000E+00 -0.45593999997E+02  0.45594000000E+02  0.51100000000E-03 0. -1.
    9900012    2    1    2    0    0 -0.82945497246E+01 -0.69220798286E+01  0.39197590939E+02  0.50528857366E+02  0.29999992451E+02 0.  0.
         12    1    1    2    0    0  0.82945497246E+01  0.69220798286E+01 -0.39197590939E+02  0.40659142634E+02  0.00000000000E+00 0. -1.
         11    1    3    3    0    0 -0.27665136664E+01  0.21992372890E+01 -0.28723219501E+01  0.45541712929E+01  0.51100000000E-03 0. -1.
        -11    1    3    3    0    0 -0.52122050833E+01 -0.85172748283E+01  0.43371103054E+02  0.44505770780E+02  0.51100000000E-03 0.  1.
        -12    1    3    3    0    0 -0.31583097489E+00 -0.60404228932E+00 -0.13011901653E+01  0.14689152931E+01  0.00000000000E+00 0.  1.
</event>
<event>
 7    1  0.2891523E-011  0.5052886E+02  0.7816164E-02  0.1300439E+00
        -11   -1    0    0    0    0  0.00000000000E+00  0.00000000000E+00  0.45593999997E+02  0.45594000000E+02  0.51100000000E-03 0.  1.
         11   -1    0    0    0    0 -0.00000000000E+00 -0.00000000000E+00 -0.45593999997E+02  0.45594000000E+02  0.51100000000E-03 0. -1.
    9900012    2    1    2    0    0  0.20144141070E+02  0.26700653103E+02  0.23118268852E+02  0.50528860188E+02  0.30000001026E+02 0.  0.
         12    1    1    2    0    0 -0.20144141070E+02 -0.26700653103E+02 -0.23118268852E+02  0.40659139812E+02  0.00000000000E+00 0. -1.
         11    1    3    3    0    0 -0.14248423297E+01 -0.17459376806E+01  0.12477663477E+01  0.25759260798E+01  0.51100000000E-03 0. -1.
        -11    1    3    3    0    0  0.10562186706E+02  0.27223065901E+02  0.81415227546E+01  0.30314014879E+02  0.51100000000E-03 0.  1.
        -12    1    3    3    0    0  0.11006796693E+02  0.12235248827E+01  0.13728979750E+02  0.17638919229E+02  0.00000000000E+00 0.  1.
</event>
<event>
 7    1  0.2891523E-011  0.5052887E+02  0.7816164E-02  0.1300439E+00
        -11   -1    0    0    0    0  0.00000000000E+00  0.00000000000E+00  0.45593999997E+02  0.45594000000E+02  0.51100000000E-03 0. -1.
         11   -1    0    0    0    0 -0.00000000000E+00 -0.00000000000E+00 -0.45593999997E+02  0.45594000000E+02  0.51100000000E-03 0.  1.
    9900012    2    1    2    0    0  0.10782669069E+02 -0.30402558812E+02 -0.24750424412E+02  0.50528867654E+02  0.30000023720E+02 0.  0.
         12    1    1    2    0    0 -0.10782669069E+02  0.30402558812E+02  0.24750424412E+02  0.40659132346E+02  0.00000000000E+00 0. -1.
         11    1    3    3    0    0  0.12104845556E+02 -0.47481694572E+01  0.95894601181E+00  0.13038097133E+02  0.51100000000E-03 0. -1.
        -11    1    3    3    0    0 -0.46883961538E+01 -0.17687571152E+02 -0.14584891223E+02  0.23399792392E+02  0.51100000000E-03 0.  1.
         12    1    3    3    0    0  0.33662196664E+01 -0.79668182031E+01 -0.11124479201E+02  0.14090978128E+02  0.00000000000E+00 0. -1.
</event>
<event>
 7    1  0.2891523E-011  0.5052887E+02  0.7816164E-02  0.1300439E+00
        -11   -1    0    0    0    0  0.00000000000E+00  0.00000000000E+00  0.45593999997E+02  0.45594000000E+02  0.51100000000E-03 0. -1.
         11   -1    0    0    0    0 -0.00000000000E+00 -0.00000000000E+00 -0.45593999997E+02  0.45594000000E+02  0.51100000000E-03 0.  1.
    9900012    2    1    2    0    0 -0.30275114266E+02 -0.23852824973E+02 -0.12947019256E+02  0.50528866823E+02  0.30000021197E+02 0.  0.
         12    1    1    2    0    0  0.30275114266E+02  0.23852824973E+02  0.12947019256E+02  0.40659133177E+02  0.00000000000E+00 0. -1.
         11    1    3    3    0    0 -0.28545918977E+02 -0.25274702105E+02 -0.40263009082E+01  0.38339159563E+02  0.51100000000E-03 0. -1.
        -11    1    3    3    0    0  0.20567434838E+01  0.93225754349E+00 -0.79307378442E+01  0.82459627031E+01  0.51100000000E-03 0.  1.
        -12    1    3    3    0    0 -0.37859387729E+01  0.48961958837E+00 -0.98998050369E+00  0.39437445571E+01  0.00000000000E+00 0.  1.
</event>
<event>
 7    1  0.2891523E-011  0.5052886E+02  0.7816164E-02  0.1300439E+00
        -11   -1    0    0    0    0  0.00000000000E+00  0.00000000000E+00  0.45593999997E+02  0.45594000000E+02  0.51100000000E-03 0.  1.
         11   -1    0    0    0    0 -0.00000000000E+00 -0.00000000000E+00 -0.45593999997E+02  0.45594000000E+02  0.51100000000E-03 0. -1.
    9900012    2    1    2    0    0  0.37296550899E+01 -0.27971884203E+02  0.29271639905E+02  0.50528861596E+02  0.30000005308E+02 0.  0.
         12    1    1    2    0    0 -0.37296550899E+01  0.27971884203E+02 -0.29271639905E+02  0.40659138404E+02  0.00000000000E+00 0. -1.
         11    1    3    3    0    0 -0.98476733393E+01 -0.11015663989E+02  0.17591897671E+02  0.22973819605E+02  0.51100000000E-03 0. -1.
        -11    1    3    3    0    0  0.92178747774E+01 -0.27557526086E+01  0.72727841852E+01  0.12060546336E+02  0.51100000000E-03 0.  1.
        -12    1    3    3    0    0  0.43594536518E+01 -0.14200467606E+02  0.44069580488E+01  0.15494495655E+02  0.00000000000E+00 0.  1.
</event>
<event>
 7    1  0.2891523E-011  0.5052886E+02  0.7816164E-02  0.1300439E+00
        -11   -1    0    0    0    0  0.00000000000E+00  0.00000000000E+00  0.45593999997E+02  0.45594000000E+02  0.51100000000E-03 0.  1.
         11   -1    0    0    0    0 -0.00000000000E+00 -0.00000000000E+00 -0.45593999997E+02  0.45594000000E+02  0.51100000000E-03 0. -1.
    9900012    2    1    2    0    0  0.29541279110E+02 -0.27593530329E+02  0.43675715315E+01  0.50528858733E+02  0.29999996606E+02 0.  0.
         12    1    1    2    0    0 -0.29541279110E+02  0.27593530329E+02 -0.43675715315E+01  0.40659141267E+02  0.00000000000E+00 0. -1.
         11    1    3    3    0    0 -0.34207291476E+01 -0.84999554563E+01  0.56399407370E+01  0.10759161791E+02  0.51100000000E-03 0. -1.
        -11    1    3    3    0    0  0.13325776431E+02 -0.34000216480E+01  0.34828836075E+01  0.14186858115E+02  0.51100000000E-03 0.  1.
         12    1    3    3    0    0  0.19636231826E+02 -0.15693553225E+02 -0.47552528130E+01  0.25582838828E+02  0.00000000000E+00 0. -1.
</event>
<event>
 7    1  0.2891523E-011  0.5052887E+02  0.7816164E-02  0.1300439E+00
        -11   -1    0    0    0    0  0.00000000000E+00  0.00000000000E+00  0.45593999997E+02  0.45594000000E+02  0.51100000000E-03 0. -1.
         11   -1    0    0    0    0 -0.00000000000E+00 -0.00000000000E+00 -0.45593999997E+02  0.45594000000E+02  0.51100000000E-03 0.  1.
    9900012    2    1    2    0    0 -0.40051141033E+02 -0.20055823882E+01 -0.67118343441E+01  0.50528868442E+02  0.30000026118E+02 0.  0.
         12    1    1    2    0    0  0.40051141033E+02  0.20055823882E+01  0.67118343441E+01  0.40659131558E+02  0.00000000000E+00 0. -1.
         11    1    3    3    0    0 -0.12266179093E+01 -0.55760409473E+01 -0.13392156102E+01  0.58643262915E+01  0.51100000000E-03 0. -1.
        -11    1    3    3    0    0 -0.39792814266E+02 -0.68901929831E+00 -0.60104405697E+01  0.40250070943E+02  0.51100000000E-03 0.  1.
        -12    1    3    3    0    0  0.96829114237E+00  0.42594778574E+01  0.63782183576E+00  0.44144712082E+01  0.00000000000E+00 0.  1.
</event>
<event>
 7    1  0.2891523E-011  0.5052882E+02  0.7816164E-02  0.1300439E+00
        -11   -1    0    0    0    0  0.00000000000E+00  0.00000000000E+00  0.45593999997E+02  0.45594000000E+02  0.51100000000E-03 0. -1.
         11   -1    0    0    0    0 -0.00000000000E+00 -0.00000000000E+00 -0.45593999997E+02  0.45594000000E+02  0.51100000000E-03 0.  1.
    9900012    2    1    2    0    0 -0.20239085167E+02  0.14090467297E+02 -0.32326573059E+02  0.50528816993E+02  0.29999869733E+02 0.  0.
         12    1    1    2    0    0  0.20239085167E+02 -0.14090467297E+02  0.32326573059E+02  0.40659183007E+02  0.00000000000E+00 0. -1.
         11    1    3    3    0    0 -0.52615610824E+01 -0.11646485089E+01  0.35655712849E+01  0.64617126230E+01  0.51100000000E-03 0. -1.
        -11    1    3    3    0    0 -0.46125723915E+01  0.85969710897E+01 -0.27451585871E+02  0.29133714200E+02  0.51100000000E-03 0.  1.
        -12    1    3    3    0    0 -0.10364951693E+02  0.66581447159E+01 -0.84405584729E+01  0.14933390171E+02  0.00000000000E+00 0.  1.
</event>
<event>
 7    1  0.2891523E-011  0.5052886E+02  0.7816164E-02  0.1300439E+00
        -11   -1    0    0    0    0  0.00000000000E+00  0.00000000000E+00  0.45593999997E+02  0.45594000000E+02  0.51100000000E-03 0.  1.
         11   -1    0    0    0    0 -0.00000000000E+00 -0.00000000000E+00 -0.45593999997E+02  0.45594000000E+02  0.51100000000E-03 0. -1.
    9900012    2    1    2    0    0  0.35606145102E+02  0.18719015948E+02 -0.59132649850E+01  0.50528857979E+02  0.29999994314E+02 0.  0.
         12    1    1    2    0    0 -0.35606145102E+02 -0.18719015948E+02  0.59132649850E+01  0.40659142021E+02  0.00000000000E+00 0. -1.
         11    1    3    3    0    0  0.45783957442E+01  0.80331519424E+01 -0.73493982992E+01  0.11811303626E+02  0.51100000000E-03 0. -1.
        -11    1    3    3    0    0  0.84840647743E+01 -0.55524375535E+01  0.38135812152E+01  0.10832927574E+02  0.51100000000E-03 0.  1.
        -12    1    3    3    0    0  0.22543684583E+02  0.16238301559E+02 -0.23774479010E+01  0.27884626780E+02  0.00000000000E+00 0.  1.
</event>
<event>
 7    1  0.2891523E-011  0.5052886E+02  0.7816164E-02  0.1300439E+00
        -11   -1    0    0    0    0  0.00000000000E+00  0.00000000000E+00  0.45593999997E+02  0.45594000000E+02  0.51100000000E-03 0.  1.
         11   -1    0    0    0    0 -0.00000000000E+00 -0.00000000000E+00 -0.45593999997E+02  0.45594000000E+02  0.51100000000E-03 0. -1.
    9900012    2    1    2    0    0 -0.24070073916E+02 -0.32411295893E+02  0.48274966146E+01  0.50528864699E+02  0.30000014740E+02 0.  0.
         12    1    1    2    0    0  0.24070073916E+02  0.32411295893E+02 -0.48274966146E+01  0.40659135301E+02  0.00000000000E+00 0. -1.
         11    1    3    3    0    0  0.53522772015E+01 -0.36735148844E+01  0.71473239433E+00  0.65308824445E+01  0.51100000000E-03 0. -1.
        -11    1    3    3    0    0 -0.26778470999E+02 -0.26387894369E+02 -0.12010734206E+01  0.37614492631E+02  0.51100000000E-03 0.  1.
         12    1    3    3    0    0 -0.26438801190E+01 -0.23498866397E+01  0.53138376408E+01  0.63834896237E+01  0.00000000000E+00 0. -1.
</event>
<event>
 7    1  0.2891523E-011  0.5052886E+02  0.7816164E-02  0.1300439E+00
        -11   -1    0    0    0    0  0.00000000000E+00  0.00000000000E+00  0.45593999997E+02  0.45594000000E+02  0.51100000000E-03 0. -1.
         11   -1    0    0    0    0 -0.00000000000E+00 -0.00000000000E+00 -0.45593999997E+02  0.45594000000E+02  0.51100000000E-03 0.  1.
    9900012    2    1    2    0    0 -0.14596718217E+02 -0.30630551959E+02 -0.22402465454E+02  0.50528863826E+02  0.30000012085E+02 0.  0.
         12    1    1    2    0    0  0.14596718217E+02  0.30630551959E+02  0.22402465454E+02  0.40659136174E+02  0.00000000000E+00 0. -1.
         11    1    3    3    0    0 -0.10878172092E+02 -0.47025843216E+01 -0.10601064871E+02  0.15900676212E+02  0.51100000000E-03 0. -1.
        -11    1    3    3    0    0 -0.49594228952E+01 -0.18935812256E+02  0.14141330913E+01  0.19625509775E+02  0.51100000000E-03 0.  1.
        -12    1    3    3    0    0  0.12408767699E+01 -0.69921553816E+01 -0.13215533674E+02  0.15002677839E+02  0.00000000000E+00 0.  1.
</event>
<event>
 7    1  0.2891523E-011  0.5052886E+02  0.7816164E-02  0.1300439E+00
        -11   -1    0    0    0    0  0.00000000000E+00  0.00000000000E+00  0.45593999997E+02  0.45594000000E+02  0.51100000000E-03 0.  1.
         11   -1    0    0    0    0 -0.00000000000E+00 -0.00000000000E+00 -0.45593999997E+02  0.45594000000E+02  0.51100000000E-03 0. -1.
    9900012    2    1    2    0    0 -0.31848249911E+02  0.10467567463E+02  0.23006184818E+02  0.50528861656E+02  0.30000005491E+02 0.  0.
         12    1    1    2    0    0  0.31848249911E+02 -0.10467567463E+02 -0.23006184818E+02  0.40659138344E+02  0.00000000000E+00 0. -1.
         11    1    3    3    0    0 -0.24198621402E+02 -0.63214529688E+01  0.10206174807E+02  0.27012960776E+02  0.51100000000E-03 0.  1.
        -11    1    3    3    0    0 -0.63521727322E+00  0.95766674210E+01  0.72293348940E+01  0.12015795569E+02  0.51100000000E-03 0. -1.
        -12    1    3    3    0    0 -0.70144112352E+01  0.72123530113E+01  0.55706751164E+01  0.11500105312E+02  0.00000000000E+00 0.  1.
</event>
<event>
 7    1  0.2891523E-011  0.5052887E+02  0.7816164E-02  0.1300439E+00
        -11   -1    0    0    0    0  0.00000000000E+00  0.00000000000E+00  0.45593999997E+02  0.45594000000E+02  0.51100000000E-03 0.  1.
         11   -1    0    0    0    0 -0.00000000000E+00 -0.00000000000E+00 -0.45593999997E+02  0.45594000000E+02  0.51100000000E-03 0. -1.
    9900012    2    1    2    0    0  0.17768555921E+02  0.22759803838E+02  0.28625762001E+02  0.50528874328E+02  0.30000044009E+02 0.  0.
         12    1    1    2    0    0 -0.17768555921E+02 -0.22759803838E+02 -0.28625762001E+02  0.40659125672E+02  0.00000000000E+00 0. -1.
         11    1    3    3    0    0 -0.53497017518E+01  0.78628877624E+01  0.10568715512E+02  0.14217667201E+02  0.51100000000E-03 0. -1.
        -11    1    3    3    0    0  0.13312078468E+02  0.15407688442E+02  0.70194388279E+01  0.21537892608E+02  0.51100000000E-03 0.  1.
        -12    1    3    3    0    0  0.98061792052E+01 -0.51077236729E+00  0.11037607661E+02  0.14773314519E+02  0.00000000000E+00 0.  1.
</event>
<event>
 7    1  0.2891523E-011  0.5052886E+02  0.7816164E-02  0.1300439E+00
        -11   -1    0    0    0    0  0.00000000000E+00  0.00000000000E+00  0.45593999997E+02  0.45594000000E+02  0.51100000000E-03 0.  1.
         11   -1    0    0    0    0 -0.00000000000E+00 -0.00000000000E+00 -0.45593999997E+02  0.45594000000E+02  0.51100000000E-03 0. -1.
    9900012    2    1    2    0    0  0.65952047519E+01 -0.33894150782E+01  0.39977253278E+02  0.50528860315E+02  0.30000001412E+02 0.  0.
         12    1    1    2    0    0 -0.65952047519E+01  0.33894150782E+01 -0.39977253278E+02  0.40659139685E+02  0.00000000000E+00 0. -1.
         11    1    3    3    0    0  0.28405592539E+01 -0.13082787526E+02  0.17689269698E+02  0.22184191872E+02  0.51100000000E-03 0. -1.
        -11    1    3    3    0    0  0.45233530312E-01  0.42531984535E+01  0.21258939513E+02  0.21680273352E+02  0.51100000000E-03 0.  1.
         12    1    3    3    0    0  0.37094119677E+01  0.54401739939E+01  0.10290440677E+01  0.66643950906E+01  0.00000000000E+00 0. -1.
</event>
<event>
 7    1  0.2891523E-011  0.5052886E+02  0.7816164E-02  0.1300439E+00
        -11   -1    0    0    0    0  0.00000000000E+00  0.00000000000E+00  0.45593999997E+02  0.45594000000E+02  0.51100000000E-03 0.  1.
         11   -1    0    0    0    0 -0.00000000000E+00 -0.00000000000E+00 -0.45593999997E+02  0.45594000000E+02  0.51100000000E-03 0. -1.
    9900012    2    1    2    0    0  0.71844201247E+01  0.13771630116E+02  0.37575153141E+02  0.50528858074E+02  0.29999994602E+02 0.  0.
         12    1    1    2    0    0 -0.71844201247E+01 -0.13771630116E+02 -0.37575153141E+02  0.40659141926E+02  0.00000000000E+00 0. -1.
         11    1    3    3    0    0  0.23118585580E+01  0.22414695255E+02  0.28888039782E+02  0.36637168232E+02  0.51100000000E-03 0. -1.
        -11    1    3    3    0    0  0.21538502077E+01 -0.75300555505E+01  0.69979971878E+01  0.10502988728E+02  0.51100000000E-03 0.  1.
         12    1    3    3    0    0  0.27187113590E+01 -0.11130095891E+01  0.16891161716E+01  0.33887011141E+01  0.00000000000E+00 0. -1.
</event>
<event>
 7    1  0.2891523E-011  0.5052884E+02  0.7816164E-02  0.1300439E+00
        -11   -1    0    0    0    0  0.00000000000E+00  0.00000000000E+00  0.45593999997E+02  0.45594000000E+02  0.51100000000E-03 0. -1.
         11   -1    0    0    0    0 -0.00000000000E+00 -0.00000000000E+00 -0.45593999997E+02  0.45594000000E+02  0.51100000000E-03 0.  1.
    9900012    2    1    2    0    0  0.16185971730E+02  0.20724650928E+02 -0.31010815545E+02  0.50528837223E+02  0.29999931223E+02 0.  0.
         12    1    1    2    0    0 -0.16185971730E+02 -0.20724650928E+02  0.31010815545E+02  0.40659162777E+02  0.00000000000E+00 0. -1.
         11    1    3    3    0    0  0.25779784896E+01 -0.98462749413E+00 -0.21605237986E+02  0.21780766128E+02  0.51100000000E-03 0. -1.
        -11    1    3    3    0    0  0.14199319795E+02  0.16037272318E+02 -0.67583953315E+01  0.22460870280E+02  0.51100000000E-03 0.  1.
         12    1    3    3    0    0 -0.59132655427E+00  0.56720061043E+01 -0.26471822275E+01  0.62872008149E+01  0.00000000000E+00 0. -1.
</event>
<event>
 7    1  0.2891523E-011  0.5052886E+02  0.7816164E-02  0.1300439E+00
        -11   -1    0    0    0    0  0.00000000000E+00  0.00000000000E+00  0.45593999997E+02  0.45594000000E+02  0.51100000000E-03 0.  1.
         11   -1    0    0    0    0 -0.00000000000E+00 -0.00000000000E+00 -0.45593999997E+02  0.45594000000E+02  0.51100000000E-03 0. -1.
    9900012    2    1    2    0    0 -0.22885895071E+02  0.36634086860E+01  0.33406294705E+02  0.50528864712E+02  0.30000014779E+02 0.  0.
         12    1    1    2    0    0  0.22885895071E+02 -0.36634086860E+01 -0.33406294705E+02  0.40659135288E+02  0.00000000000E+00 0. -1.
         11    1    3    3    0    0 -0.13207441499E+02  0.97311649111E+01  0.66736174912E+01  0.17710710098E+02  0.51100000000E-03 0. -1.
        -11    1    3    3    0    0 -0.11184552941E+02 -0.92344278106E+01  0.25009692131E+02  0.28911132497E+02  0.51100000000E-03 0.  1.
        -12    1    3    3    0    0  0.15060993682E+01  0.31666715855E+01  0.17229850827E+01  0.39070221182E+01  0.00000000000E+00 0.  1.
</event>
<event>
 7    1  0.2891523E-011  0.5052886E+02  0.7816164E-02  0.1300439E+00
        -11   -1    0    0    0    0  0.00000000000E+00  0.00000000000E+00  0.45593999997E+02  0.45594000000E+02  0.51100000000E-03 0.  1.
         11   -1    0    0    0    0 -0.00000000000E+00 -0.00000000000E+00 -0.45593999997E+02  0.45594000000E+02  0.51100000000E-03 0. -1.
    9900012    2    1    2    0    0  0.33064191755E+02 -0.20253085512E+01  0.23575896890E+02  0.50528861232E+02  0.30000004202E+02 0.  0.
         12    1    1    2    0    0 -0.33064191755E+02  0.20253085512E+01 -0.23575896890E+02  0.40659138768E+02  0.00000000000E+00 0. -1.
         11    1    3    3    0    0  0.18367089572E+02 -0.11604594726E+02  0.98377290019E+01  0.23849476101E+02  0.51100000000E-03 0.  1.
        -11    1    3    3    0    0 -0.27927140695E+01  0.11642730622E+01  0.38503529993E+01  0.48969380349E+01  0.51100000000E-03 0. -1.
         12    1    3    3    0    0  0.17489816253E+02  0.84150131128E+01  0.98878148887E+01  0.21782447097E+02  0.00000000000E+00 0. -1.
</event>
<event>
 7    1  0.2891523E-011  0.5052885E+02  0.7816164E-02  0.1300439E+00
        -11   -1    0    0    0    0  0.00000000000E+00  0.00000000000E+00  0.45593999997E+02  0.45594000000E+02  0.51100000000E-03 0.  1.
         11   -1    0    0    0    0 -0.00000000000E+00 -0.00000000000E+00 -0.45593999997E+02  0.45594000000E+02  0.51100000000E-03 0. -1.
    9900012    2    1    2    0    0 -0.17207208397E+02 -0.25998339027E+02  0.26099129029E+02  0.50528853562E+02  0.29999980888E+02 0.  0.
         12    1    1    2    0    0  0.17207208397E+02  0.25998339027E+02 -0.26099129029E+02  0.40659146438E+02  0.00000000000E+00 0. -1.
         11    1    3    3    0    0 -0.98200429128E+01  0.51258110058E+00  0.15514421652E+02  0.18368267792E+02  0.51100000000E-03 0. -1.
        -11    1    3    3    0    0 -0.52473344150E+01 -0.27401415373E+02  0.10593541767E+02  0.29842841861E+02  0.51100000000E-03 0.  1.
        -12    1    3    3    0    0 -0.21398310693E+01  0.89049524537E+00 -0.88343904089E-02  0.23177439103E+01  0.00000000000E+00 0.  1.
</event>
<event>
 7    1  0.2891523E-011  0.5052886E+02  0.7816164E-02  0.1300439E+00
        -11   -1    0    0    0    0  0.00000000000E+00  0.00000000000E+00  0.45593999997E+02  0.45594000000E+02  0.51100000000E-03 0.  1.
         11   -1    0    0    0    0 -0.00000000000E+00 -0.00000000000E+00 -0.45593999997E+02  0.45594000000E+02  0.51100000000E-03 0. -1.
    9900012    2    1    2    0    0  0.31205993856E+02  0.14457492742E+02  0.21687153209E+02  0.50528858798E+02  0.29999996803E+02 0.  0.
         12    1    1    2    0    0 -0.31205993856E+02 -0.14457492742E+02 -0.21687153209E+02  0.40659141202E+02  0.00000000000E+00 0. -1.
         11    1    3    3    0    0  0.32008673673E+02  0.13966964002E+02  0.17555442328E+02  0.39087399880E+02  0.51100000000E-03 0. -1.
        -11    1    3    3    0    0 -0.31951547106E+01 -0.33954029564E+01  0.49558289506E+01  0.68042645238E+01  0.51100000000E-03 0.  1.
        -12    1    3    3    0    0  0.23924748939E+01  0.38859316961E+01 -0.82411806976E+00  0.46371943950E+01  0.00000000000E+00 0.  1.
</event>
<event>
 7    1  0.2891523E-011  0.5052886E+02  0.7816164E-02  0.1300439E+00
        -11   -1    0    0    0    0  0.00000000000E+00  0.00000000000E+00  0.45593999997E+02  0.45594000000E+02  0.51100000000E-03 0.  1.
         11   -1    0    0    0    0 -0.00000000000E+00 -0.00000000000E+00 -0.45593999997E+02  0.45594000000E+02  0.51100000000E-03 0. -1.
    9900012    2    1    2    0    0 -0.25800773665E+02 -0.27884947730E+02  0.14488451266E+02  0.50528862630E+02  0.30000008449E+02 0.  0.
         12    1    1    2    0    0  0.25800773665E+02  0.27884947730E+02 -0.14488451266E+02  0.40659137370E+02  0.00000000000E+00 0. -1.
         11    1    3    3    0    0  0.32788410877E+01 -0.17217429778E+01  0.50660666133E+01  0.62753668380E+01  0.51100000000E-03 0. -1.
        -11    1    3    3    0    0 -0.12408256823E+02 -0.22930658190E+02  0.37022377483E+01  0.26334131598E+02  0.51100000000E-03 0.  1.
        -12    1    3    3    0    0 -0.16671357930E+02 -0.32325465623E+01  0.57201469041E+01  0.17919364193E+02  0.00000000000E+00 0.  1.
</event>
<event>
 7    1  0.2891523E-011  0.5052886E+02  0.7816164E-02  0.1300439E+00
        -11   -1    0    0    0    0  0.00000000000E+00  0.00000000000E+00  0.45593999997E+02  0.45594000000E+02  0.51100000000E-03 0.  1.
         11   -1    0    0    0    0 -0.00000000000E+00 -0.00000000000E+00 -0.45593999997E+02  0.45594000000E+02  0.51100000000E-03 0. -1.
    9900012    2    1    2    0    0 -0.18505481211E+02 -0.36085172986E+01  0.36023478952E+02  0.50528864892E+02  0.30000015325E+02 0.  0.
         12    1    1    2    0    0  0.18505481211E+02  0.36085172986E+01 -0.36023478952E+02  0.40659135108E+02  0.00000000000E+00 0. -1.
         11    1    3    3    0    0 -0.16755375895E+02 -0.18557391441E+00  0.16419721729E+02  0.23460271119E+02  0.51100000000E-03 0.  1.
        -11    1    3    3    0    0  0.59322751094E+01 -0.77913562663E+01  0.11133112986E+02  0.14827114536E+02  0.51100000000E-03 0. -1.
         12    1    3    3    0    0 -0.76823804253E+01  0.43684128822E+01  0.84706442374E+01  0.12241479237E+02  0.00000000000E+00 0. -1.
</event>
<event>
 7    1  0.2891523E-011  0.5052885E+02  0.7816164E-02  0.1300439E+00
        -11   -1    0    0    0    0  0.00000000000E+00  0.00000000000E+00  0.45593999997E+02  0.45594000000E+02  0.51100000000E-03 0.  1.
         11   -1    0    0    0    0 -0.00000000000E+00 -0.00000000000E+00 -0.45593999997E+02  0.45594000000E+02  0.51100000000E-03 0. -1.
    9900012    2    1    2    0    0 -0.10097342270E+02 -0.11755137647E+02  0.37590254477E+02  0.50528845881E+02  0.29999957541E+02 0.  0.
         12    1    1    2    0    0  0.10097342270E+02  0.11755137647E+02 -0.37590254477E+02  0.40659154119E+02  0.00000000000E+00 0. -1.
         11    1    3    3    0    0 -0.15345281002E+02  0.17385696330E+01  0.11105574538E+02  0.19021936270E+02  0.51100000000E-03 0. -1.
        -11    1    3    3    0    0 -0.16713403256E+01 -0.49667751244E+01  0.13617024646E+02  0.14590599511E+02  0.51100000000E-03 0.  1.
         12    1    3    3    0    0  0.69192790578E+01 -0.85269321558E+01  0.12867655293E+02  0.16916310100E+02  0.00000000000E+00 0. -1.
</event>
<event>
 7    1  0.2891523E-011  0.5052886E+02  0.7816164E-02  0.1300439E+00
        -11   -1    0    0    0    0  0.00000000000E+00  0.00000000000E+00  0.45593999997E+02  0.45594000000E+02  0.51100000000E-03 0.  1.
         11   -1    0    0    0    0 -0.00000000000E+00 -0.00000000000E+00 -0.45593999997E+02  0.45594000000E+02  0.51100000000E-03 0. -1.
    9900012    2    1    2    0    0 -0.85691907873E+01 -0.50943982196E+01  0.39418036502E+02  0.50528861720E+02  0.30000005685E+02 0.  0.
         12    1    1    2    0    0  0.85691907873E+01  0.50943982196E+01 -0.39418036502E+02  0.40659138280E+02  0.00000000000E+00 0. -1.
         11    1    3    3    0    0 -0.16327255157E+02 -0.67660415147E+01  0.25799344457E+02  0.31272428006E+02  0.51100000000E-03 0. -1.
        -11    1    3    3    0    0  0.77698554388E+01  0.56649703138E+01  0.93845695083E+01  0.13436245283E+02  0.51100000000E-03 0.  1.
         12    1    3    3    0    0 -0.11791068804E-01 -0.39933270186E+01  0.42341225372E+01  0.58201884305E+01  0.00000000000E+00 0. -1.
</event>
<event>
 7    1  0.2891523E-011  0.5052886E+02  0.7816164E-02  0.1300439E+00
        -11   -1    0    0    0    0  0.00000000000E+00  0.00000000000E+00  0.45593999997E+02  0.45594000000E+02  0.51100000000E-03 0.  1.
         11   -1    0    0    0    0 -0.00000000000E+00 -0.00000000000E+00 -0.45593999997E+02  0.45594000000E+02  0.51100000000E-03 0. -1.
    9900012    2    1    2    0    0  0.26498681606E+02 -0.18666231480E+01  0.30781503404E+02  0.50528863749E+02  0.30000011853E+02 0.  0.
         12    1    1    2    0    0 -0.26498681606E+02  0.18666231480E+01 -0.30781503404E+02  0.40659136251E+02  0.00000000000E+00 0. -1.
         11    1    3    3    0    0  0.84911445593E+01  0.12039429499E+02  0.16209848694E+02  0.21904487977E+02  0.51100000000E-03 0. -1.
        -11    1    3    3    0    0  0.32487487544E+01 -0.37524791022E+01  0.82491415457E+01  0.96272428235E+01  0.51100000000E-03 0.  1.
         12    1    3    3    0    0  0.14758788292E+02 -0.10153573544E+02  0.63225131645E+01  0.18997132949E+02  0.00000000000E+00 0. -1.
</event>
<event>
 7    1  0.2891523E-011  0.5052887E+02  0.7816164E-02  0.1300439E+00
        -11   -1    0    0    0    0  0.00000000000E+00  0.00000000000E+00  0.45593999997E+02  0.45594000000E+02  0.51100000000E-03 0. -1.
         11   -1    0    0    0    0 -0.00000000000E+00 -0.00000000000E+00 -0.45593999997E+02  0.45594000000E+02  0.51100000000E-03 0.  1.
    9900012    2    1    2    0    0  0.77772942715E+01 -0.20992157221E+02 -0.33941247464E+02  0.50528865105E+02  0.30000015974E+02 0.  0.
         12    1    1    2    0    0 -0.77772942715E+01  0.20992157221E+02  0.33941247464E+02  0.40659134895E+02  0.00000000000E+00 0. -1.
         11    1    3    3    0    0  0.93545315435E+00  0.15334312282E+01  0.36435316711E+01  0.40622416515E+01  0.51100000000E-03 0. -1.
        -11    1    3    3    0    0 -0.18233371421E+01 -0.12656621440E+02 -0.11219978150E+02  0.17011835132E+02  0.51100000000E-03 0.  1.
         12    1    3    3    0    0  0.86651782592E+01 -0.98689670086E+01 -0.26364800985E+02  0.29454788322E+02  0.00000000000E+00 0. -1.
</event>
<event>
 7    1  0.2891523E-011  0.5052888E+02  0.7816164E-02  0.1300439E+00
        -11   -1    0    0    0    0  0.00000000000E+00  0.00000000000E+00  0.45593999997E+02  0.45594000000E+02  0.51100000000E-03 0. -1.
         11   -1    0    0    0    0 -0.00000000000E+00 -0.00000000000E+00 -0.45593999997E+02  0.45594000000E+02  0.51100000000E-03 0.  1.
    9900012    2    1    2    0    0  0.30343025622E+02 -0.85512405210E+01 -0.25677646067E+02  0.50528875245E+02  0.30000046794E+02 0.  0.
         12    1    1    2    0    0 -0.30343025622E+02  0.85512405210E+01  0.25677646067E+02  0.40659124755E+02  0.00000000000E+00 0. -1.
         11    1    3    3    0    0  0.16620728947E+02 -0.31042604075E+00 -0.25888278361E+02  0.30766019434E+02  0.51100000000E-03 0. -1.
        -11    1    3    3    0    0  0.70374227066E+01 -0.87704785179E+01 -0.38946372874E+01  0.11900202168E+02  0.51100000000E-03 0.  1.
         12    1    3    3    0    0  0.66848739677E+01  0.52966403766E+00  0.41052695814E+01  0.78626536420E+01  0.00000000000E+00 0. -1.
</event>
<event>
 7    1  0.2891523E-011  0.5052886E+02  0.7816164E-02  0.1300439E+00
        -11   -1    0    0    0    0  0.00000000000E+00  0.00000000000E+00  0.45593999997E+02  0.45594000000E+02  0.51100000000E-03 0. -1.
         11   -1    0    0    0    0 -0.00000000000E+00 -0.00000000000E+00 -0.45593999997E+02  0.45594000000E+02  0.51100000000E-03 0.  1.
    9900012    2    1    2    0    0 -0.16923937291E+02  0.29170315401E+02 -0.22712088728E+02  0.50528856768E+02  0.29999990632E+02 0.  0.
         12    1    1    2    0    0  0.16923937291E+02 -0.29170315401E+02  0.22712088728E+02  0.40659143232E+02  0.00000000000E+00 0. -1.
         11    1    3    3    0    0 -0.14592684184E+02  0.31476965540E+01 -0.17759629990E+01  0.15033578088E+02  0.51100000000E-03 0. -1.
        -11    1    3    3    0    0 -0.59556996524E+01  0.15307109954E+02 -0.78705945696E+01  0.18213298236E+02  0.51100000000E-03 0.  1.
         12    1    3    3    0    0  0.36244465459E+01  0.10715508893E+02 -0.13065531159E+02  0.17281980444E+02  0.00000000000E+00 0. -1.
</event>
<event>
 7    1  0.2891523E-011  0.5052887E+02  0.7816164E-02  0.1300439E+00
        -11   -1    0    0    0    0  0.00000000000E+00  0.00000000000E+00  0.45593999997E+02  0.45594000000E+02  0.51100000000E-03 0.  1.
         11   -1    0    0    0    0 -0.00000000000E+00 -0.00000000000E+00 -0.45593999997E+02  0.45594000000E+02  0.51100000000E-03 0. -1.
    9900012    2    1    2    0    0  0.24184052985E+02 -0.32297132021E+02  0.50191657560E+01  0.50528865965E+02  0.30000018587E+02 0.  0.
         12    1    1    2    0    0 -0.24184052985E+02  0.32297132021E+02 -0.50191657560E+01  0.40659134035E+02  0.00000000000E+00 0. -1.
         11    1    3    3    0    0  0.13699487115E+02 -0.15055634684E+01  0.10208913508E+02  0.17151226890E+02  0.51100000000E-03 0. -1.
        -11    1    3    3    0    0  0.88316566774E+01 -0.26583029743E+02 -0.25153338038E+01  0.28124411716E+02  0.51100000000E-03 0.  1.
         12    1    3    3    0    0  0.16529091925E+01 -0.42085388099E+01 -0.26744139479E+01  0.52532273583E+01  0.00000000000E+00 0. -1.
</event>
<event>
 7    1  0.2891523E-011  0.5052895E+02  0.7816164E-02  0.1300438E+00
        -11   -1    0    0    0    0  0.00000000000E+00  0.00000000000E+00  0.45593999997E+02  0.45594000000E+02  0.51100000000E-03 0. -1.
         11   -1    0    0    0    0 -0.00000000000E+00 -0.00000000000E+00 -0.45593999997E+02  0.45594000000E+02  0.51100000000E-03 0.  1.
    9900012    2    1    2    0    0  0.26578038125E+02  0.13185670062E+02 -0.27801155119E+02  0.50528951419E+02  0.30000278332E+02 0.  0.
         12    1    1    2    0    0 -0.26578038125E+02 -0.13185670062E+02  0.27801155119E+02  0.40659048581E+02  0.00000000000E+00 0. -1.
         11    1    3    3    0    0  0.20604183034E+02  0.64519099837E+01 -0.19479783154E+01  0.21678425236E+02  0.51100000000E-03 0. -1.
        -11    1    3    3    0    0  0.14774372921E+01  0.73124689500E+01 -0.20612885099E+02  0.21921360712E+02  0.51100000000E-03 0.  1.
        -12    1    3    3    0    0  0.44964177990E+01 -0.57870887130E+00 -0.52402917048E+01  0.69291654715E+01  0.00000000000E+00 0.  1.
</event>
<event>
 7    1  0.2891523E-011  0.5052887E+02  0.7816164E-02  0.1300439E+00
        -11   -1    0    0    0    0  0.00000000000E+00  0.00000000000E+00  0.45593999997E+02  0.45594000000E+02  0.51100000000E-03 0. -1.
         11   -1    0    0    0    0 -0.00000000000E+00 -0.00000000000E+00 -0.45593999997E+02  0.45594000000E+02  0.51100000000E-03 0.  1.
    9900012    2    1    2    0    0  0.26612595891E+02  0.82101586130E+01 -0.29623102772E+02  0.50528865942E+02  0.30000018519E+02 0.  0.
         12    1    1    2    0    0 -0.26612595891E+02 -0.82101586130E+01  0.29623102772E+02  0.40659134058E+02  0.00000000000E+00 0. -1.
         11    1    3    3    0    0  0.11311319424E+01  0.66994103270E+01  0.24050717594E+01  0.72073524009E+01  0.51100000000E-03 0. -1.
        -11    1    3    3    0    0  0.85473526054E+01  0.17051475670E+01 -0.21943473574E+02  0.23611031268E+02  0.51100000000E-03 0.  1.
         12    1    3    3    0    0  0.16934111343E+02 -0.19439928108E+00 -0.10084700957E+02  0.19710482273E+02  0.00000000000E+00 0. -1.
</event>
<event>
 7    1  0.2891523E-011  0.5052886E+02  0.7816164E-02  0.1300439E+00
        -11   -1    0    0    0    0  0.00000000000E+00  0.00000000000E+00  0.45593999997E+02  0.45594000000E+02  0.51100000000E-03 0.  1.
         11   -1    0    0    0    0 -0.00000000000E+00 -0.00000000000E+00 -0.45593999997E+02  0.45594000000E+02  0.51100000000E-03 0. -1.
    9900012    2    1    2    0    0  0.25991132784E+02 -0.22327443413E+02  0.21888625229E+02  0.50528860472E+02  0.30000001890E+02 0.  0.
         12    1    1    2    0    0 -0.25991132784E+02  0.22327443413E+02 -0.21888625229E+02  0.40659139528E+02  0.00000000000E+00 0. -1.
         11    1    3    3    0    0 -0.23760476982E+01  0.62582796847E+00  0.14520072662E+01  0.28540477698E+01  0.51100000000E-03 0. -1.
        -11    1    3    3    0    0  0.11421186371E+02 -0.21118548698E+02  0.46765272455E+01  0.24460304670E+02  0.51100000000E-03 0.  1.
        -12    1    3    3    0    0  0.16945994111E+02 -0.18347226844E+01  0.15760090718E+02  0.23214508032E+02  0.00000000000E+00 0.  1.
</event>
<event>
 7    1  0.2891523E-011  0.5052886E+02  0.7816164E-02  0.1300439E+00
        -11   -1    0    0    0    0  0.00000000000E+00  0.00000000000E+00  0.45593999997E+02  0.45594000000E+02  0.51100000000E-03 0.  1.
         11   -1    0    0    0    0 -0.00000000000E+00 -0.00000000000E+00 -0.45593999997E+02  0.45594000000E+02  0.51100000000E-03 0. -1.
    9900012    2    1    2    0    0  0.28857966562E+02  0.28465005624E+02  0.31822699656E+01  0.50528860543E+02  0.30000002107E+02 0.  0.
         12    1    1    2    0    0 -0.28857966562E+02 -0.28465005624E+02 -0.31822699656E+01  0.40659139457E+02  0.00000000000E+00 0. -1.
         11    1    3    3    0    0  0.60640855450E+01  0.11625048062E+02 -0.95430467718E+01  0.16216800482E+02  0.51100000000E-03 0. -1.
        -11    1    3    3    0    0  0.17681208479E+02  0.19051280975E+02  0.85902051823E+01  0.27374587949E+02  0.51100000000E-03 0.  1.
         12    1    3    3    0    0  0.51126725385E+01 -0.22113234133E+01  0.41351115551E+01  0.69374721115E+01  0.00000000000E+00 0. -1.
</event>
<event>
 7    1  0.2891523E-011  0.5052885E+02  0.7816164E-02  0.1300439E+00
        -11   -1    0    0    0    0  0.00000000000E+00  0.00000000000E+00  0.45593999997E+02  0.45594000000E+02  0.51100000000E-03 0.  1.
         11   -1    0    0    0    0 -0.00000000000E+00 -0.00000000000E+00 -0.45593999997E+02  0.45594000000E+02  0.51100000000E-03 0. -1.
    9900012    2    1    2    0    0 -0.28039074045E+02  0.20067499650E+02  0.21546975739E+02  0.50528851226E+02  0.29999973788E+02 0.  0.
         12    1    1    2    0    0  0.28039074045E+02 -0.20067499650E+02 -0.21546975739E+02  0.40659148774E+02  0.00000000000E+00 0. -1.
         11    1    3    3    0    0 -0.15011326030E+02  0.11750172328E+02  0.10130282992E+02  0.21587706980E+02  0.51100000000E-03 0. -1.
        -11    1    3    3    0    0  0.25850626944E+01  0.27060215853E+01  0.11766096320E+02  0.12346907501E+02  0.51100000000E-03 0.  1.
         12    1    3    3    0    0 -0.15612810709E+02  0.56113057368E+01 -0.34940357276E+00  0.16594236746E+02  0.00000000000E+00 0. -1.
</event>
<event>
 7    1  0.2891523E-011  0.5052883E+02  0.7816164E-02  0.1300439E+00
        -11   -1    0    0    0    0  0.00000000000E+00  0.00000000000E+00  0.45593999997E+02  0.45594000000E+02  0.51100000000E-03 0. -1.
         11   -1    0    0    0    0 -0.00000000000E+00 -0.00000000000E+00 -0.45593999997E+02  0.45594000000E+02  0.51100000000E-03 0.  1.
    9900012    2    1    2    0    0  0.26718787639E+02  0.23264683522E+02 -0.19950666704E+02  0.50528828658E+02  0.29999905188E+02 0.  0.
         12    1    1    2    0    0 -0.26718787639E+02 -0.23264683522E+02  0.19950666704E+02  0.40659171342E+02  0.00000000000E+00 0. -1.
         11    1    3    3    0    0  0.10083110286E+02  0.95921843231E+01  0.69910461194E+01  0.15574140080E+02  0.51100000000E-03 0. -1.
        -11    1    3    3    0    0  0.97898309240E+01  0.67308309867E+01 -0.10580243522E+02  0.15908690346E+02  0.51100000000E-03 0.  1.
         12    1    3    3    0    0  0.68458464289E+01  0.69416682123E+01 -0.16361469302E+02  0.19045998231E+02  0.00000000000E+00 0. -1.
</event>
<event>
 7    1  0.2891523E-011  0.5052887E+02  0.7816164E-02  0.1300439E+00
        -11   -1    0    0    0    0  0.00000000000E+00  0.00000000000E+00  0.45593999997E+02  0.45594000000E+02  0.51100000000E-03 0.  1.
         11   -1    0    0    0    0 -0.00000000000E+00 -0.00000000000E+00 -0.45593999997E+02  0.45594000000E+02  0.51100000000E-03 0. -1.
    9900012    2    1    2    0    0  0.26295312785E+02 -0.16391575066E+02  0.26325611291E+02  0.50528867970E+02  0.30000024681E+02 0.  0.
         12    1    1    2    0    0 -0.26295312785E+02  0.16391575066E+02 -0.26325611291E+02  0.40659132030E+02  0.00000000000E+00 0. -1.
         11    1    3    3    0    0  0.35825704820E+01  0.71122832181E+01  0.21809416351E+01  0.82568692922E+01  0.51100000000E-03 0. -1.
        -11    1    3    3    0    0  0.81739708542E+01 -0.16778863319E+02  0.12366086904E+02  0.22388929394E+02  0.51100000000E-03 0.  1.
         12    1    3    3    0    0  0.14538771448E+02 -0.67249949645E+01  0.11778582752E+02  0.19883069284E+02  0.00000000000E+00 0. -1.
</event>
<event>
 7    1  0.2891523E-011  0.5052886E+02  0.7816164E-02  0.1300439E+00
        -11   -1    0    0    0    0  0.00000000000E+00  0.00000000000E+00  0.45593999997E+02  0.45594000000E+02  0.51100000000E-03 0. -1.
         11   -1    0    0    0    0 -0.00000000000E+00 -0.00000000000E+00 -0.45593999997E+02  0.45594000000E+02  0.51100000000E-03 0.  1.
    9900012    2    1    2    0    0 -0.20029296711E+02  0.37854172295E+01 -0.35180441014E+02  0.50528861540E+02  0.30000005138E+02 0.  0.
         12    1    1    2    0    0  0.20029296711E+02 -0.37854172295E+01  0.35180441014E+02  0.40659138460E+02  0.00000000000E+00 0. -1.
         11    1    3    3    0    0 -0.81370503888E+01  0.13041618815E+02 -0.12942552546E+02  0.20094901767E+02  0.51100000000E-03 0. -1.
        -11    1    3    3    0    0 -0.69768061442E+01 -0.25799510782E+01 -0.20707884278E+02  0.22003373448E+02  0.51100000000E-03 0.  1.
         12    1    3    3    0    0 -0.49154401779E+01 -0.66762505072E+01 -0.15300041902E+01  0.84305863260E+01  0.00000000000E+00 0. -1.
</event>
<event>
 7    1  0.2891523E-011  0.5052888E+02  0.7816164E-02  0.1300439E+00
        -11   -1    0    0    0    0  0.00000000000E+00  0.00000000000E+00  0.45593999997E+02  0.45594000000E+02  0.51100000000E-03 0. -1.
         11   -1    0    0    0    0 -0.00000000000E+00 -0.00000000000E+00 -0.45593999997E+02  0.45594000000E+02  0.51100000000E-03 0.  1.
    9900012    2    1    2    0    0 -0.13936612400E+02 -0.37970796060E+02 -0.41416761224E+01  0.50528880485E+02  0.30000062723E+02 0.  0.
         12    1    1    2    0    0  0.13936612400E+02  0.37970796060E+02  0.41416761224E+01  0.40659119515E+02  0.00000000000E+00 0. -1.
         11    1    3    3    0    0  0.59804952044E+01 -0.22522051060E+02 -0.28076169390E+01  0.23471084764E+02  0.51100000000E-03 0. -1.
        -11    1    3    3    0    0 -0.17505801295E+02 -0.12486994418E+02  0.24979207562E+01  0.21647579933E+02  0.51100000000E-03 0.  1.
        -12    1    3    3    0    0 -0.24113063087E+01 -0.29617505818E+01 -0.38319799397E+01  0.54102157888E+01  0.00000000000E+00 0.  1.
</event>
<event>
 7    1  0.2891523E-011  0.5052886E+02  0.7816164E-02  0.1300439E+00
        -11   -1    0    0    0    0  0.00000000000E+00  0.00000000000E+00  0.45593999997E+02  0.45594000000E+02  0.51100000000E-03 0.  1.
         11   -1    0    0    0    0 -0.00000000000E+00 -0.00000000000E+00 -0.45593999997E+02  0.45594000000E+02  0.51100000000E-03 0. -1.
    9900012    2    1    2    0    0  0.20721928452E+02  0.69461101484E+01  0.34285844039E+02  0.50528857529E+02  0.29999992947E+02 0.  0.
         12    1    1    2    0    0 -0.20721928452E+02 -0.69461101484E+01 -0.34285844039E+02  0.40659142471E+02  0.00000000000E+00 0. -1.
         11    1    3    3    0    0 -0.78346064189E+00  0.13629594483E+01 -0.42317208035E+01  0.45143028537E+01  0.51100000000E-03 0. -1.
        -11    1    3    3    0    0  0.19456180560E+02  0.83034665362E+01  0.36087915370E+02  0.41830947330E+02  0.51100000000E-03 0.  1.
        -12    1    3    3    0    0  0.20492085347E+01 -0.27203158362E+01  0.24296494721E+01  0.41836073459E+01  0.00000000000E+00 0.  1.
</event>
<event>
 7    1  0.2891523E-011  0.5052885E+02  0.7816164E-02  0.1300439E+00
        -11   -1    0    0    0    0  0.00000000000E+00  0.00000000000E+00  0.45593999997E+02  0.45594000000E+02  0.51100000000E-03 0.  1.
         11   -1    0    0    0    0 -0.00000000000E+00 -0.00000000000E+00 -0.45593999997E+02  0.45594000000E+02  0.51100000000E-03 0. -1.
    9900012    2    1    2    0    0 -0.18391824531E+02  0.19316725704E+02  0.30688287299E+02  0.50528854918E+02  0.29999985008E+02 0.  0.
         12    1    1    2    0    0  0.18391824531E+02 -0.19316725704E+02 -0.30688287299E+02  0.40659145082E+02  0.00000000000E+00 0. -1.
         11    1    3    3    0    0 -0.18744829803E+02  0.77158522609E+01  0.13463150847E+02  0.24334326607E+02  0.51100000000E-03 0.  1.
        -11    1    3    3    0    0  0.50571535524E+01 -0.10643230334E+01  0.13359630517E+01  0.53378256911E+01  0.51100000000E-03 0. -1.
         12    1    3    3    0    0 -0.47041482809E+01  0.12665196476E+02  0.15889173400E+02  0.20856702620E+02  0.00000000000E+00 0. -1.
</event>
<event>
 7    1  0.2891523E-011  0.5052886E+02  0.7816164E-02  0.1300439E+00
        -11   -1    0    0    0    0  0.00000000000E+00  0.00000000000E+00  0.45593999997E+02  0.45594000000E+02  0.51100000000E-03 0. -1.
         11   -1    0    0    0    0 -0.00000000000E+00 -0.00000000000E+00 -0.45593999997E+02  0.45594000000E+02  0.51100000000E-03 0.  1.
    9900012    2    1    2    0    0 -0.31531255222E+02 -0.78159198250E+01 -0.24451121585E+02  0.50528855821E+02  0.29999987753E+02 0.  0.
         12    1    1    2    0    0  0.31531255222E+02  0.78159198250E+01  0.24451121585E+02  0.40659144179E+02  0.00000000000E+00 0. -1.
         11    1    3    3    0    0 -0.61662011667E+01  0.74470573820E+01 -0.19699153449E+01  0.98671813202E+01  0.51100000000E-03 0. -1.
        -11    1    3    3    0    0 -0.13192068020E+02 -0.16350467371E+02 -0.17931633469E+02  0.27620860251E+02  0.51100000000E-03 0.  1.
         12    1    3    3    0    0 -0.12172986036E+02  0.10874901637E+01 -0.45495727711E+01  0.13040814249E+02  0.00000000000E+00 0. -1.
</event>
<event>
 7    1  0.2891523E-011  0.5052885E+02  0.7816164E-02  0.1300439E+00
        -11   -1    0    0    0    0  0.00000000000E+00  0.00000000000E+00  0.45593999997E+02  0.45594000000E+02  0.51100000000E-03 0.  1.
         11   -1    0    0    0    0 -0.00000000000E+00 -0.00000000000E+00 -0.45593999997E+02  0.45594000000E+02  0.51100000000E-03 0. -1.
    9900012    2    1    2    0    0  0.13214656503E+01  0.26279633595E+02  0.30996785271E+02  0.50528854529E+02  0.29999983825E+02 0.  0.
         12    1    1    2    0    0 -0.13214656503E+01 -0.26279633595E+02 -0.30996785271E+02  0.40659145471E+02  0.00000000000E+00 0. -1.
         11    1    3    3    0    0  0.12861620357E+02  0.17603714454E+02  0.16032903274E+02  0.27062262072E+02  0.51100000000E-03 0.  1.
        -11    1    3    3    0    0 -0.86611324558E+01  0.22274664732E+01  0.27467982357E+01  0.93553045442E+01  0.51100000000E-03 0. -1.
        -12    1    3    3    0    0 -0.28790222510E+01  0.64484526677E+01  0.12217083761E+02  0.14111287913E+02  0.00000000000E+00 0.  1.
</event>
<event>
 7    1  0.2891523E-011  0.5052885E+02  0.7816164E-02  0.1300439E+00
        -11   -1    0    0    0    0  0.00000000000E+00  0.00000000000E+00  0.45593999997E+02  0.45594000000E+02  0.51100000000E-03 0.  1.
         11   -1    0    0    0    0 -0.00000000000E+00 -0.00000000000E+00 -0.45593999997E+02  0.45594000000E+02  0.51100000000E-03 0. -1.
    9900012    2    1    2    0    0  0.21272667651E+02  0.27830868621E+02  0.20641778222E+02  0.50528847951E+02  0.29999963831E+02 0.  0.
         12    1    1    2    0    0 -0.21272667651E+02 -0.27830868621E+02 -0.20641778222E+02  0.40659152049E+02  0.00000000000E+00 0. -1.
         11    1    3    3    0    0  0.10734915504E+01  0.95929520433E+00 -0.20021361253E+01  0.24660050128E+01  0.51100000000E-03 0. -1.
        -11    1    3    3    0    0  0.25434686327E+02  0.18787876012E+02  0.21773387710E+02  0.38392550922E+02  0.51100000000E-03 0.  1.
        -12    1    3    3    0    0 -0.52355102266E+01  0.80836974042E+01  0.87052663716E+00  0.96702920164E+01  0.00000000000E+00 0.  1.
</event>
<event>
 7    1  0.2891523E-011  0.5052885E+02  0.7816164E-02  0.1300439E+00
        -11   -1    0    0    0    0  0.00000000000E+00  0.00000000000E+00  0.45593999997E+02  0.45594000000E+02  0.51100000000E-03 0.  1.
         11   -1    0    0    0    0 -0.00000000000E+00 -0.00000000000E+00 -0.45593999997E+02  0.45594000000E+02  0.51100000000E-03 0. -1.
    9900012    2    1    2    0    0 -0.15678585629E+02 -0.34922176583E+02  0.13703654379E+02  0.50528848410E+02  0.29999965228E+02 0.  0.
         12    1    1    2    0    0  0.15678585629E+02  0.34922176583E+02 -0.13703654379E+02  0.40659151590E+02  0.00000000000E+00 0. -1.
         11    1    3    3    0    0 -0.72802260669E+01 -0.11937001662E+02 -0.91095293901E+01  0.16687636928E+02  0.51100000000E-03 0. -1.
        -11    1    3    3    0    0 -0.52559640701E+01 -0.72789650602E+01  0.82152969359E+01  0.12169617687E+02  0.51100000000E-03 0.  1.
         12    1    3    3    0    0 -0.31423954922E+01 -0.15706209861E+02  0.14597886833E+02  0.21671593795E+02  0.00000000000E+00 0. -1.
</event>
<event>
 7    1  0.2891523E-011  0.5052888E+02  0.7816164E-02  0.1300439E+00
        -11   -1    0    0    0    0  0.00000000000E+00  0.00000000000E+00  0.45593999997E+02  0.45594000000E+02  0.51100000000E-03 0. -1.
         11   -1    0    0    0    0 -0.00000000000E+00 -0.00000000000E+00 -0.45593999997E+02  0.45594000000E+02  0.51100000000E-03 0.  1.
    9900012    2    1    2    0    0 -0.14046872311E+02 -0.37951334634E+02 -0.39428355694E+01  0.50528875875E+02  0.30000048711E+02 0.  0.
         12    1    1    2    0    0  0.14046872311E+02  0.37951334634E+02  0.39428355694E+01  0.40659124125E+02  0.00000000000E+00 0. -1.
         11    1    3    3    0    0 -0.64191762707E+01 -0.19227258922E+02  0.11843237858E+02  0.23476703194E+02  0.51100000000E-03 0. -1.
        -11    1    3    3    0    0 -0.40016465511E+01 -0.72491491300E+01 -0.15724482225E+01  0.84282816696E+01  0.51100000000E-03 0.  1.
         12    1    3    3    0    0 -0.36260494895E+01 -0.11474926582E+02 -0.14213625205E+02  0.18623891012E+02  0.00000000000E+00 0. -1.
</event>
<event>
 7    1  0.2891523E-011  0.5052886E+02  0.7816164E-02  0.1300439E+00
        -11   -1    0    0    0    0  0.00000000000E+00  0.00000000000E+00  0.45593999997E+02  0.45594000000E+02  0.51100000000E-03 0. -1.
         11   -1    0    0    0    0 -0.00000000000E+00 -0.00000000000E+00 -0.45593999997E+02  0.45594000000E+02  0.51100000000E-03 0.  1.
    9900012    2    1    2    0    0 -0.15869184855E+01  0.34486901303E+02 -0.21477914828E+02  0.50528862071E+02  0.30000006751E+02 0.  0.
         12    1    1    2    0    0  0.15869184855E+01 -0.34486901303E+02  0.21477914828E+02  0.40659137929E+02  0.00000000000E+00 0. -1.
         11    1    3    3    0    0  0.11465029389E+02  0.84432031342E+01 -0.97368307334E+00  0.14271742607E+02  0.51100000000E-03 0. -1.
        -11    1    3    3    0    0 -0.52050753114E+01  0.49097255481E+01 -0.32019908011E+01  0.78390662267E+01  0.51100000000E-03 0.  1.
         12    1    3    3    0    0 -0.78468725631E+01  0.21133972621E+02 -0.17302240953E+02  0.28418053237E+02  0.00000000000E+00 0. -1.
</event>
<event>
 7    1  0.2891523E-011  0.5052885E+02  0.7816164E-02  0.1300439E+00
        -11   -1    0    0    0    0  0.00000000000E+00  0.00000000000E+00  0.45593999997E+02  0.45594000000E+02  0.51100000000E-03 0.  1.
         11   -1    0    0    0    0 -0.00000000000E+00 -0.00000000000E+00 -0.45593999997E+02  0.45594000000E+02  0.51100000000E-03 0. -1.
    9900012    2    1    2    0    0 -0.40446903655E+02  0.33318925867E+01  0.24724561524E+01  0.50528848964E+02  0.29999966912E+02 0.  0.
         12    1    1    2    0    0  0.40446903655E+02 -0.33318925867E+01 -0.24724561524E+01  0.40659151036E+02  0.00000000000E+00 0. -1.
         11    1    3    3    0    0 -0.30389703144E+02 -0.97986638603E+01  0.34418443376E+01  0.32115325988E+02  0.51100000000E-03 0. -1.
        -11    1    3    3    0    0 -0.58502427738E+01  0.38098181467E+01 -0.35992593956E+01  0.78545988619E+01  0.51100000000E-03 0.  1.
         12    1    3    3    0    0 -0.42069577373E+01  0.93207383003E+01  0.26298712104E+01  0.10558924114E+02  0.00000000000E+00 0. -1.
</event>
<event>
 7    1  0.2891523E-011  0.5052885E+02  0.7816164E-02  0.1300439E+00
        -11   -1    0    0    0    0  0.00000000000E+00  0.00000000000E+00  0.45593999997E+02  0.45594000000E+02  0.51100000000E-03 0. -1.
         11   -1    0    0    0    0 -0.00000000000E+00 -0.00000000000E+00 -0.45593999997E+02  0.45594000000E+02  0.51100000000E-03 0.  1.
    9900012    2    1    2    0    0 -0.20959666614E+02 -0.32594822549E+02  0.12305942327E+02  0.50528852221E+02  0.29999976810E+02 0.  0.
         12    1    1    2    0    0  0.20959666614E+02  0.32594822549E+02 -0.12305942327E+02  0.40659147779E+02  0.00000000000E+00 0. -1.
         11    1    3    3    0    0 -0.18352666031E+02 -0.24560183459E+02  0.51781772477E+01  0.31093994305E+02  0.51100000000E-03 0.  1.
        -11    1    3    3    0    0 -0.87239169159E+00  0.47691963606E+01  0.36071605113E+01  0.60430049152E+01  0.51100000000E-03 0. -1.
        -12    1    3    3    0    0 -0.17346088907E+01 -0.12803835451E+02  0.35206045685E+01  0.13391853000E+02  0.00000000000E+00 0.  1.
</event>
<event>
 7    1  0.2891523E-011  0.5052886E+02  0.7816164E-02  0.1300439E+00
        -11   -1    0    0    0    0  0.00000000000E+00  0.00000000000E+00  0.45593999997E+02  0.45594000000E+02  0.51100000000E-03 0.  1.
         11   -1    0    0    0    0 -0.00000000000E+00 -0.00000000000E+00 -0.45593999997E+02  0.45594000000E+02  0.51100000000E-03 0. -1.
    9900012    2    1    2    0    0 -0.15469377903E+02  0.19770548970E+02  0.31984201496E+02  0.50528863209E+02  0.30000010209E+02 0.  0.
         12    1    1    2    0    0  0.15469377903E+02 -0.19770548970E+02 -0.31984201496E+02  0.40659136791E+02  0.00000000000E+00 0. -1.
         11    1    3    3    0    0  0.53173154858E+01  0.41636955603E+01  0.10891654394E+02  0.12815550726E+02  0.51100000000E-03 0. -1.
        -11    1    3    3    0    0 -0.11875864607E+02 -0.12008373032E+01  0.56268664670E+01  0.13196203882E+02  0.51100000000E-03 0.  1.
        -12    1    3    3    0    0 -0.89108287816E+01  0.16807690713E+02  0.15465680635E+02  0.24517108601E+02  0.00000000000E+00 0.  1.
</event>
<event>
 7    1  0.2891523E-011  0.5052886E+02  0.7816164E-02  0.1300439E+00
        -11   -1    0    0    0    0  0.00000000000E+00  0.00000000000E+00  0.45593999997E+02  0.45594000000E+02  0.51100000000E-03 0. -1.
         11   -1    0    0    0    0 -0.00000000000E+00 -0.00000000000E+00 -0.45593999997E+02  0.45594000000E+02  0.51100000000E-03 0.  1.
    9900012    2    1    2    0    0  0.36099358720E+02 -0.56420158629E+01 -0.17837301044E+02  0.50528863862E+02  0.30000012194E+02 0.  0.
         12    1    1    2    0    0 -0.36099358720E+02  0.56420158629E+01  0.17837301044E+02  0.40659136138E+02  0.00000000000E+00 0. -1.
         11    1    3    3    0    0  0.19347347167E+02  0.39365257387E+01  0.36387739779E+01  0.20076273399E+02  0.51100000000E-03 0. -1.
        -11    1    3    3    0    0  0.16622686004E+02 -0.10614500366E+02 -0.21762667984E+02  0.29369968098E+02  0.51100000000E-03 0.  1.
         12    1    3    3    0    0  0.12932554921E+00  0.10359587642E+01  0.28659296270E+00  0.10826223650E+01  0.00000000000E+00 0. -1.
</event>
<event>
 7    1  0.2891523E-011  0.5052886E+02  0.7816164E-02  0.1300439E+00
        -11   -1    0    0    0    0  0.00000000000E+00  0.00000000000E+00  0.45593999997E+02  0.45594000000E+02  0.51100000000E-03 0.  1.
         11   -1    0    0    0    0 -0.00000000000E+00 -0.00000000000E+00 -0.45593999997E+02  0.45594000000E+02  0.51100000000E-03 0. -1.
    9900012    2    1    2    0    0 -0.11020995063E+02  0.35883317539E+02  0.15623397316E+02  0.50528863838E+02  0.30000012122E+02 0.  0.
         12    1    1    2    0    0  0.11020995063E+02 -0.35883317539E+02 -0.15623397316E+02  0.40659136162E+02  0.00000000000E+00 0. -1.
         11    1    3    3    0    0 -0.19166649083E+02  0.29664440918E+02  0.12527972144E+02  0.37473851928E+02  0.51100000000E-03 0. -1.
        -11    1    3    3    0    0  0.66350545667E+01  0.78178866459E+01  0.34668585561E+01  0.10824158592E+02  0.51100000000E-03 0.  1.
         12    1    3    3    0    0  0.15105994533E+01 -0.15990100247E+01 -0.37143338473E+00  0.22308533180E+01  0.00000000000E+00 0. -1.
</event>
<event>
 7    1  0.2891523E-011  0.5052886E+02  0.7816164E-02  0.1300439E+00
        -11   -1    0    0    0    0  0.00000000000E+00  0.00000000000E+00  0.45593999997E+02  0.45594000000E+02  0.51100000000E-03 0.  1.
         11   -1    0    0    0    0 -0.00000000000E+00 -0.00000000000E+00 -0.45593999997E+02  0.45594000000E+02  0.51100000000E-03 0. -1.
    9900012    2    1    2    0    0 -0.69295206345E+01  0.12707721505E+02  0.37995546850E+02  0.50528855610E+02  0.29999987113E+02 0.  0.
         12    1    1    2    0    0  0.69295206345E+01 -0.12707721505E+02 -0.37995546850E+02  0.40659144390E+02  0.00000000000E+00 0. -1.
         11    1    3    3    0    0 -0.75525603816E+01  0.86436240055E+01  0.16575621796E+01  0.11597453035E+02  0.51100000000E-03 0. -1.
        -11    1    3    3    0    0  0.68471222336E+01  0.18891765319E+01  0.14975081576E+02  0.16574231183E+02  0.51100000000E-03 0.  1.
        -12    1    3    3    0    0 -0.62240824865E+01  0.21749209679E+01  0.21362903095E+02  0.22357171392E+02  0.00000000000E+00 0.  1.
</event>
<event>
 7    1  0.2891523E-011  0.5052887E+02  0.7816164E-02  0.1300439E+00
        -11   -1    0    0    0    0  0.00000000000E+00  0.00000000000E+00  0.45593999997E+02  0.45594000000E+02  0.51100000000E-03 0.  1.
         11   -1    0    0    0    0 -0.00000000000E+00 -0.00000000000E+00 -0.45593999997E+02  0.45594000000E+02  0.51100000000E-03 0. -1.
    9900012    2    1    2    0    0  0.25200692079E+02 -0.20209552921E+02 -0.24691372773E+02  0.50528870644E+02  0.30000032810E+02 0.  0.
         12    1    1    2    0    0 -0.25200692079E+02  0.20209552921E+02  0.24691372773E+02  0.40659129356E+02  0.00000000000E+00 0. -1.
         11    1    3    3    0    0  0.13917578741E+02  0.58667452024E+01 -0.11369896362E+02  0.18904820571E+02  0.51100000000E-03 0. -1.
        -11    1    3    3    0    0  0.97762298872E+01 -0.22448385608E+02 -0.12894216441E+02  0.27672468359E+02  0.51100000000E-03 0.  1.
         12    1    3    3    0    0  0.15068834512E+01 -0.36279125159E+01 -0.42725996935E+00  0.39515817137E+01  0.00000000000E+00 0. -1.
</event>
<event>
 7    1  0.2891523E-011  0.5052886E+02  0.7816164E-02  0.1300439E+00
        -11   -1    0    0    0    0  0.00000000000E+00  0.00000000000E+00  0.45593999997E+02  0.45594000000E+02  0.51100000000E-03 0.  1.
         11   -1    0    0    0    0 -0.00000000000E+00 -0.00000000000E+00 -0.45593999997E+02  0.45594000000E+02  0.51100000000E-03 0. -1.
    9900012    2    1    2    0    0  0.14101651252E+02 -0.30150289546E+02  0.23351000522E+02  0.50528858923E+02  0.29999997183E+02 0.  0.
         12    1    1    2    0    0 -0.14101651252E+02  0.30150289546E+02 -0.23351000522E+02  0.40659141077E+02  0.00000000000E+00 0. -1.
         11    1    3    3    0    0  0.11965739709E+02 -0.34692780683E+01  0.63715699001E+01  0.13993274111E+02  0.51100000000E-03 0.  1.
        -11    1    3    3    0    0 -0.56112757891E+01 -0.61070648240E+01 -0.70200358979E+00  0.83231884544E+01  0.51100000000E-03 0. -1.
        -12    1    3    3    0    0  0.77471873318E+01 -0.20573946653E+02  0.17681434212E+02  0.28212396358E+02  0.00000000000E+00 0.  1.
</event>
<event>
 7    1  0.2891523E-011  0.5052886E+02  0.7816164E-02  0.1300439E+00
        -11   -1    0    0    0    0  0.00000000000E+00  0.00000000000E+00  0.45593999997E+02  0.45594000000E+02  0.51100000000E-03 0.  1.
         11   -1    0    0    0    0 -0.00000000000E+00 -0.00000000000E+00 -0.45593999997E+02  0.45594000000E+02  0.51100000000E-03 0. -1.
    9900012    2    1    2    0    0  0.23070784975E+02  0.32938412102E+02  0.59971037289E+01  0.50528863704E+02  0.30000011716E+02 0.  0.
         12    1    1    2    0    0 -0.23070784975E+02 -0.32938412102E+02 -0.59971037289E+01  0.40659136296E+02  0.00000000000E+00 0. -1.
         11    1    3    3    0    0  0.21516782430E+02  0.15655865440E+02  0.25486184563E+01  0.26731507722E+02  0.51100000000E-03 0. -1.
        -11    1    3    3    0    0 -0.15707006832E+01  0.59586938978E+01  0.89175707677E+01  0.10839566516E+02  0.51100000000E-03 0.  1.
        -12    1    3    3    0    0  0.31247032286E+01  0.11323852764E+02 -0.54690854951E+01  0.12957789466E+02  0.00000000000E+00 0.  1.
</event>
<event>
 7    1  0.2891523E-011  0.5052886E+02  0.7816164E-02  0.1300439E+00
        -11   -1    0    0    0    0  0.00000000000E+00  0.00000000000E+00  0.45593999997E+02  0.45594000000E+02  0.51100000000E-03 0.  1.
         11   -1    0    0    0    0 -0.00000000000E+00 -0.00000000000E+00 -0.45593999997E+02  0.45594000000E+02  0.51100000000E-03 0. -1.
    9900012    2    1    2    0    0 -0.20690624167E+02  0.10998170447E+02  0.33228060595E+02  0.50528859668E+02  0.29999999447E+02 0.  0.
         12    1    1    2    0    0  0.20690624167E+02 -0.10998170447E+02 -0.33228060595E+02  0.40659140332E+02  0.00000000000E+00 0. -1.
         11    1    3    3    0    0 -0.46011316541E+01  0.13541176655E+02  0.79553391565E+01  0.16365246685E+02  0.51100000000E-03 0. -1.
        -11    1    3    3    0    0 -0.16853698971E+02 -0.13832672462E+01  0.11802133633E+02  0.20621613802E+02  0.51100000000E-03 0.  1.
        -12    1    3    3    0    0  0.76420645728E+00 -0.11597389622E+01  0.13470587806E+02  0.13541999181E+02  0.00000000000E+00 0.  1.
</event>
<event>
 7    1  0.2891523E-011  0.5052886E+02  0.7816164E-02  0.1300439E+00
        -11   -1    0    0    0    0  0.00000000000E+00  0.00000000000E+00  0.45593999997E+02  0.45594000000E+02  0.51100000000E-03 0. -1.
         11   -1    0    0    0    0 -0.00000000000E+00 -0.00000000000E+00 -0.45593999997E+02  0.45594000000E+02  0.51100000000E-03 0.  1.
    9900012    2    1    2    0    0 -0.27553952450E+02  0.27489848021E+02 -0.11758125613E+02  0.50528861326E+02  0.30000004485E+02 0.  0.
         12    1    1    2    0    0  0.27553952450E+02 -0.27489848021E+02  0.11758125613E+02  0.40659138674E+02  0.00000000000E+00 0. -1.
         11    1    3    3    0    0 -0.26107912527E+02  0.17925733368E+02 -0.99699723754E+01  0.33201737345E+02  0.51100000000E-03 0. -1.
        -11    1    3    3    0    0 -0.23896681915E+00  0.12567626288E+02  0.15644272497E+01  0.12666876826E+02  0.51100000000E-03 0.  1.
         12    1    3    3    0    0 -0.12070731037E+01 -0.30035116348E+01 -0.33525804876E+01  0.46602471548E+01  0.00000000000E+00 0. -1.
</event>
<event>
 7    1  0.2891523E-011  0.5052886E+02  0.7816164E-02  0.1300439E+00
        -11   -1    0    0    0    0  0.00000000000E+00  0.00000000000E+00  0.45593999997E+02  0.45594000000E+02  0.51100000000E-03 0.  1.
         11   -1    0    0    0    0 -0.00000000000E+00 -0.00000000000E+00 -0.45593999997E+02  0.45594000000E+02  0.51100000000E-03 0. -1.
    9900012    2    1    2    0    0 -0.15007379560E+02 -0.37375844615E+02 -0.55669037883E+01  0.50528860563E+02  0.30000002168E+02 0.  0.
         12    1    1    2    0    0  0.15007379560E+02  0.37375844615E+02  0.55669037883E+01  0.40659139437E+02  0.00000000000E+00 0. -1.
         11    1    3    3    0    0  0.23726561356E+01 -0.23295937282E+02  0.56890140078E+00  0.23423360990E+02  0.51100000000E-03 0. -1.
        -11    1    3    3    0    0 -0.18138159243E+02 -0.15749027833E+02 -0.41048564134E+01  0.24369541334E+02  0.51100000000E-03 0.  1.
        -12    1    3    3    0    0  0.75812354701E+00  0.16691205004E+01 -0.20309487757E+01  0.27359582392E+01  0.00000000000E+00 0.  1.
</event>
<event>
 7    1  0.2891523E-011  0.5052886E+02  0.7816164E-02  0.1300439E+00
        -11   -1    0    0    0    0  0.00000000000E+00  0.00000000000E+00  0.45593999997E+02  0.45594000000E+02  0.51100000000E-03 0. -1.
         11   -1    0    0    0    0 -0.00000000000E+00 -0.00000000000E+00 -0.45593999997E+02  0.45594000000E+02  0.51100000000E-03 0.  1.
    9900012    2    1    2    0    0 -0.14934346554E+02  0.37805892551E+02 -0.91946476399E+00  0.50528860388E+02  0.30000001635E+02 0.  0.
         12    1    1    2    0    0  0.14934346554E+02 -0.37805892551E+02  0.91946476399E+00  0.40659139612E+02  0.00000000000E+00 0. -1.
         11    1    3    3    0    0 -0.47318048682E+00  0.12629188763E+02  0.80305966497E+01  0.14973669938E+02  0.51100000000E-03 0. -1.
        -11    1    3    3    0    0 -0.13666733608E+02  0.19914289602E+02 -0.14250906661E+02  0.28043660225E+02  0.51100000000E-03 0.  1.
        -12    1    3    3    0    0 -0.79443245938E+00  0.52624141846E+01  0.53008452476E+01  0.75115302251E+01  0.00000000000E+00 0.  1.
</event>
<event>
 7    1  0.2891523E-011  0.5052886E+02  0.7816164E-02  0.1300439E+00
        -11   -1    0    0    0    0  0.00000000000E+00  0.00000000000E+00  0.45593999997E+02  0.45594000000E+02  0.51100000000E-03 0. -1.
         11   -1    0    0    0    0 -0.00000000000E+00 -0.00000000000E+00 -0.45593999997E+02  0.45594000000E+02  0.51100000000E-03 0.  1.
    9900012    2    1    2    0    0 -0.33264035022E+02 -0.13718326590E+02 -0.18933490100E+02  0.50528861326E+02  0.30000004486E+02 0.  0.
         12    1    1    2    0    0  0.33264035022E+02  0.13718326590E+02  0.18933490100E+02  0.40659138674E+02  0.00000000000E+00 0. -1.
         11    1    3    3    0    0 -0.17206702256E+02 -0.10137247421E+02  0.35718779322E+01  0.20287747535E+02  0.51100000000E-03 0.  1.
        -11    1    3    3    0    0 -0.61549410715E+01  0.42670962904E+01 -0.96563876980E+01  0.12220361451E+02  0.51100000000E-03 0. -1.
         12    1    3    3    0    0 -0.99023916938E+01 -0.78481754595E+01 -0.12848980334E+02  0.18020752341E+02  0.00000000000E+00 0. -1.
</event>
<event>
 7    1  0.2891523E-011  0.5052887E+02  0.7816164E-02  0.1300439E+00
        -11   -1    0    0    0    0  0.00000000000E+00  0.00000000000E+00  0.45593999997E+02  0.45594000000E+02  0.51100000000E-03 0.  1.
         11   -1    0    0    0    0 -0.00000000000E+00 -0.00000000000E+00 -0.45593999997E+02  0.45594000000E+02  0.51100000000E-03 0. -1.
    9900012    2    1    2    0    0  0.33105960880E+01 -0.38829403304E+02  0.11596659466E+02  0.50528866731E+02  0.30000020916E+02 0.  0.
         12    1    1    2    0    0 -0.33105960880E+01  0.38829403304E+02 -0.11596659466E+02  0.40659133269E+02  0.00000000000E+00 0. -1.
         11    1    3    3    0    0 -0.57380206470E+01 -0.17641316032E+02 -0.44803709969E+01  0.19084408212E+02  0.51100000000E-03 0. -1.
        -11    1    3    3    0    0  0.10398540657E+02 -0.13925403459E+02  0.49180466722E+01  0.18061940445E+02  0.51100000000E-03 0.  1.
         12    1    3    3    0    0 -0.13499239220E+01 -0.72626838131E+01  0.11158983791E+02  0.13382518074E+02  0.00000000000E+00 0. -1.
</event>
<event>
 7    1  0.2891523E-011  0.5052886E+02  0.7816164E-02  0.1300439E+00
        -11   -1    0    0    0    0  0.00000000000E+00  0.00000000000E+00  0.45593999997E+02  0.45594000000E+02  0.51100000000E-03 0.  1.
         11   -1    0    0    0    0 -0.00000000000E+00 -0.00000000000E+00 -0.45593999997E+02  0.45594000000E+02  0.51100000000E-03 0. -1.
    9900012    2    1    2    0    0  0.33883235227E+02 -0.21021260344E+02 -0.79497506632E+01  0.50528861402E+02  0.30000004718E+02 0.  0.
         12    1    1    2    0    0 -0.33883235227E+02  0.21021260344E+02  0.79497506632E+01  0.40659138598E+02  0.00000000000E+00 0. -1.
         11    1    3    3    0    0  0.73867580384E+01  0.99589270769E+00 -0.86322027076E+00  0.75034089652E+01  0.51100000000E-03 0. -1.
        -11    1    3    3    0    0  0.12352193586E+02 -0.24416818165E+02 -0.83507605134E+00  0.27376176650E+02  0.51100000000E-03 0.  1.
        -12    1    3    3    0    0  0.14144283603E+02  0.23996651132E+01 -0.62514543411E+01  0.15649275787E+02  0.00000000000E+00 0.  1.
</event>
<event>
 7    1  0.2891523E-011  0.5052886E+02  0.7816164E-02  0.1300439E+00
        -11   -1    0    0    0    0  0.00000000000E+00  0.00000000000E+00  0.45593999997E+02  0.45594000000E+02  0.51100000000E-03 0. -1.
         11   -1    0    0    0    0 -0.00000000000E+00 -0.00000000000E+00 -0.45593999997E+02  0.45594000000E+02  0.51100000000E-03 0.  1.
    9900012    2    1    2    0    0  0.23741692931E+02  0.32086563035E+02 -0.77427418938E+01  0.50528861265E+02  0.30000004300E+02 0.  0.
         12    1    1    2    0    0 -0.23741692931E+02 -0.32086563035E+02  0.77427418938E+01  0.40659138735E+02  0.00000000000E+00 0. -1.
         11    1    3    3    0    0  0.20796608929E+02  0.21188229961E+02 -0.13525839005E+02  0.32624965178E+02  0.51100000000E-03 0.  1.
        -11    1    3    3    0    0 -0.15898293330E+01  0.47519568908E+01 -0.33274407519E+01  0.60150240081E+01  0.51100000000E-03 0. -1.
         12    1    3    3    0    0  0.45349133348E+01  0.61463761839E+01  0.91105378628E+01  0.11888872078E+02  0.00000000000E+00 0. -1.
</event>
<event>
 7    1  0.2891523E-011  0.5052885E+02  0.7816164E-02  0.1300439E+00
        -11   -1    0    0    0    0  0.00000000000E+00  0.00000000000E+00  0.45593999997E+02  0.45594000000E+02  0.51100000000E-03 0.  1.
         11   -1    0    0    0    0 -0.00000000000E+00 -0.00000000000E+00 -0.45593999997E+02  0.45594000000E+02  0.51100000000E-03 0. -1.
    9900012    2    1    2    0    0  0.30759805494E+01  0.84276220802E+01  0.39657024856E+02  0.50528854771E+02  0.29999984563E+02 0.  0.
         12    1    1    2    0    0 -0.30759805494E+01 -0.84276220802E+01 -0.39657024856E+02  0.40659145229E+02  0.00000000000E+00 0. -1.
         11    1    3    3    0    0 -0.46481494333E+01  0.11970845487E+02  0.19323392142E+02  0.23201291321E+02  0.51100000000E-03 0. -1.
        -11    1    3    3    0    0  0.12124289167E+02 -0.39890099177E+01  0.10436844253E+02  0.16487519709E+02  0.51100000000E-03 0.  1.
         12    1    3    3    0    0 -0.44001591848E+01  0.44578651055E+00  0.98967884610E+01  0.10840043741E+02  0.00000000000E+00 0. -1.
</event>
<event>
 7    1  0.2891523E-011  0.5052886E+02  0.7816164E-02  0.1300439E+00
        -11   -1    0    0    0    0  0.00000000000E+00  0.00000000000E+00  0.45593999997E+02  0.45594000000E+02  0.51100000000E-03 0.  1.
         11   -1    0    0    0    0 -0.00000000000E+00 -0.00000000000E+00 -0.45593999997E+02  0.45594000000E+02  0.51100000000E-03 0. -1.
    9900012    2    1    2    0    0  0.11571816284E+02 -0.88964618159E+01  0.37948802743E+02  0.50528860872E+02  0.30000003108E+02 0.  0.
         12    1    1    2    0    0 -0.11571816284E+02  0.88964618159E+01 -0.37948802743E+02  0.40659139128E+02  0.00000000000E+00 0. -1.
         11    1    3    3    0    0  0.14669213966E+01  0.22595364813E+01  0.73997068862E+01  0.78748349670E+01  0.51100000000E-03 0. -1.
        -11    1    3    3    0    0  0.15616943395E+02 -0.50996772555E+01  0.30292867368E+02  0.34460897300E+02  0.51100000000E-03 0.  1.
        -12    1    3    3    0    0 -0.55120485072E+01 -0.60563210417E+01  0.25622848922E+00  0.81931286054E+01  0.00000000000E+00 0.  1.
</event>
<event>
 7    1  0.2891523E-011  0.5052887E+02  0.7816164E-02  0.1300439E+00
        -11   -1    0    0    0    0  0.00000000000E+00  0.00000000000E+00  0.45593999997E+02  0.45594000000E+02  0.51100000000E-03 0.  1.
         11   -1    0    0    0    0 -0.00000000000E+00 -0.00000000000E+00 -0.45593999997E+02  0.45594000000E+02  0.51100000000E-03 0. -1.
    9900012    2    1    2    0    0  0.30991348653E+02 -0.10074790332E+02  0.24314593066E+02  0.50528873994E+02  0.30000042993E+02 0.  0.
         12    1    1    2    0    0 -0.30991348653E+02  0.10074790332E+02 -0.24314593066E+02  0.40659126006E+02  0.00000000000E+00 0. -1.
         11    1    3    3    0    0  0.62057597419E+01  0.63007033803E+01  0.21620584666E+01  0.91041097388E+01  0.51100000000E-03 0. -1.
        -11    1    3    3    0    0  0.18582449863E+02 -0.38291994619E+01  0.19448180024E+02  0.27169871512E+02  0.51100000000E-03 0.  1.
        -12    1    3    3    0    0  0.62031390479E+01 -0.12546294250E+02  0.27043545754E+01  0.14254892744E+02  0.00000000000E+00 0.  1.
</event>
<event>
 7    1  0.2891523E-011  0.5052888E+02  0.7816164E-02  0.1300439E+00
        -11   -1    0    0    0    0  0.00000000000E+00  0.00000000000E+00  0.45593999997E+02  0.45594000000E+02  0.51100000000E-03 0.  1.
         11   -1    0    0    0    0 -0.00000000000E+00 -0.00000000000E+00 -0.45593999997E+02  0.45594000000E+02  0.51100000000E-03 0. -1.
    9900012    2    1    2    0    0 -0.20120066762E+02  0.34929097360E+02  0.53202425434E+01  0.50528881593E+02  0.30000066090E+02 0.  0.
         12    1    1    2    0    0  0.20120066762E+02 -0.34929097360E+02 -0.53202425434E+01  0.40659118407E+02  0.00000000000E+00 0. -1.
         11    1    3    3    0    0  0.22908866558E+01  0.21657298132E+01 -0.70872204429E+01  0.77567545507E+01  0.51100000000E-03 0. -1.
        -11    1    3    3    0    0 -0.14212362737E+02  0.26935953103E+02  0.11909272848E+02  0.32701186586E+02  0.51100000000E-03 0.  1.
        -12    1    3    3    0    0 -0.81985906808E+01  0.58274144445E+01  0.49819013785E+00  0.10070940456E+02  0.00000000000E+00 0.  1.
</event>
<event>
 7    1  0.2891523E-011  0.5052886E+02  0.7816164E-02  0.1300439E+00
        -11   -1    0    0    0    0  0.00000000000E+00  0.00000000000E+00  0.45593999997E+02  0.45594000000E+02  0.51100000000E-03 0.  1.
         11   -1    0    0    0    0 -0.00000000000E+00 -0.00000000000E+00 -0.45593999997E+02  0.45594000000E+02  0.51100000000E-03 0. -1.
    9900012    2    1    2    0    0  0.28801411316E+02  0.14053953711E+02  0.25022610810E+02  0.50528856373E+02  0.29999989431E+02 0.  0.
         12    1    1    2    0    0 -0.28801411316E+02 -0.14053953711E+02 -0.25022610810E+02  0.40659143627E+02  0.00000000000E+00 0. -1.
         11    1    3    3    0    0 -0.19216153063E+00  0.81220291030E+01 -0.62994040973E+00  0.81486875008E+01  0.51100000000E-03 0. -1.
        -11    1    3    3    0    0  0.28944751427E+02  0.68142391946E+01  0.27391689170E+02  0.40429409182E+02  0.51100000000E-03 0.  1.
        -12    1    3    3    0    0  0.48821419768E-01 -0.88231458651E+00 -0.17391379497E+01  0.19507596902E+01  0.00000000000E+00 0.  1.
</event>
<event>
 7    1  0.2891523E-011  0.5052885E+02  0.7816164E-02  0.1300439E+00
        -11   -1    0    0    0    0  0.00000000000E+00  0.00000000000E+00  0.45593999997E+02  0.45594000000E+02  0.51100000000E-03 0. -1.
         11   -1    0    0    0    0 -0.00000000000E+00 -0.00000000000E+00 -0.45593999997E+02  0.45594000000E+02  0.51100000000E-03 0.  1.
    9900012    2    1    2    0    0  0.48979288826E+01  0.29880417272E+02 -0.27135531302E+02  0.50528854624E+02  0.29999984115E+02 0.  0.
         12    1    1    2    0    0 -0.48979288826E+01 -0.29880417272E+02  0.27135531302E+02  0.40659145376E+02  0.00000000000E+00 0. -1.
         11    1    3    3    0    0 -0.34547545132E+01  0.18763301431E+02 -0.19889576774E+02  0.27560697993E+02  0.51100000000E-03 0. -1.
        -11    1    3    3    0    0  0.95466252454E+01  0.46530238410E+01  0.27812804084E+01  0.10978351671E+02  0.51100000000E-03 0.  1.
        -12    1    3    3    0    0 -0.11939418496E+01  0.64640919993E+01 -0.10027234936E+02  0.11989804960E+02  0.00000000000E+00 0.  1.
</event>
<event>
 7    1  0.2891523E-011  0.5052886E+02  0.7816164E-02  0.1300439E+00
        -11   -1    0    0    0    0  0.00000000000E+00  0.00000000000E+00  0.45593999997E+02  0.45594000000E+02  0.51100000000E-03 0.  1.
         11   -1    0    0    0    0 -0.00000000000E+00 -0.00000000000E+00 -0.45593999997E+02  0.45594000000E+02  0.51100000000E-03 0. -1.
    9900012    2    1    2    0    0 -0.20905681100E+02 -0.25029512168E+02  0.24282538509E+02  0.50528860091E+02  0.30000000734E+02 0.  0.
         12    1    1    2    0    0  0.20905681100E+02  0.25029512168E+02 -0.24282538509E+02  0.40659139909E+02  0.00000000000E+00 0. -1.
         11    1    3    3    0    0 -0.15215864601E+02 -0.28890059987E+02  0.27669844414E+02  0.42799280272E+02  0.51100000000E-03 0.  1.
        -11    1    3    3    0    0 -0.41425697415E+01  0.22521135400E+01 -0.23552456618E+01  0.52706813458E+01  0.51100000000E-03 0. -1.
        -12    1    3    3    0    0 -0.15472467579E+01  0.16084342787E+01 -0.10320602434E+01  0.24588984738E+01  0.00000000000E+00 0.  1.
</event>
<event>
 7    1  0.2891523E-011  0.5052886E+02  0.7816164E-02  0.1300439E+00
        -11   -1    0    0    0    0  0.00000000000E+00  0.00000000000E+00  0.45593999997E+02  0.45594000000E+02  0.51100000000E-03 0.  1.
         11   -1    0    0    0    0 -0.00000000000E+00 -0.00000000000E+00 -0.45593999997E+02  0.45594000000E+02  0.51100000000E-03 0. -1.
    9900012    2    1    2    0    0 -0.13725141219E+02 -0.36952912228E+02 -0.99633581986E+01  0.50528859204E+02  0.29999998038E+02 0.  0.
         12    1    1    2    0    0  0.13725141219E+02  0.36952912228E+02  0.99633581986E+01  0.40659140796E+02  0.00000000000E+00 0. -1.
         11    1    3    3    0    0 -0.31031299758E+01 -0.75491833603E+01 -0.37775377145E+01  0.89938521502E+01  0.51100000000E-03 0. -1.
        -11    1    3    3    0    0 -0.50765795292E+01 -0.33292065028E+01  0.89994168114E+01  0.10855633508E+02  0.51100000000E-03 0.  1.
        -12    1    3    3    0    0 -0.55454317139E+01 -0.26074522365E+02 -0.15185237295E+02  0.30679373546E+02  0.00000000000E+00 0.  1.
</event>
<event>
 7    1  0.2891523E-011  0.5052886E+02  0.7816164E-02  0.1300439E+00
        -11   -1    0    0    0    0  0.00000000000E+00  0.00000000000E+00  0.45593999997E+02  0.45594000000E+02  0.51100000000E-03 0. -1.
         11   -1    0    0    0    0 -0.00000000000E+00 -0.00000000000E+00 -0.45593999997E+02  0.45594000000E+02  0.51100000000E-03 0.  1.
    9900012    2    1    2    0    0  0.22913639967E+02  0.33587180748E+02 -0.17983317791E+00  0.50528856537E+02  0.29999989931E+02 0.  0.
         12    1    1    2    0    0 -0.22913639967E+02 -0.33587180748E+02  0.17983317791E+00  0.40659143463E+02  0.00000000000E+00 0. -1.
         11    1    3    3    0    0  0.12405589184E+02  0.69060585258E+01  0.98019424702E+00  0.14232113982E+02  0.51100000000E-03 0. -1.
        -11    1    3    3    0    0 -0.53114461243E+01  0.12775055374E+02  0.43902374354E+01  0.14515084731E+02  0.51100000000E-03 0.  1.
        -12    1    3    3    0    0  0.15819496907E+02  0.13906066849E+02 -0.55502648604E+01  0.21781657825E+02  0.00000000000E+00 0.  1.
</event>
<event>
 7    1  0.2891523E-011  0.5052881E+02  0.7816164E-02  0.1300439E+00
        -11   -1    0    0    0    0  0.00000000000E+00  0.00000000000E+00  0.45593999997E+02  0.45594000000E+02  0.51100000000E-03 0. -1.
         11   -1    0    0    0    0 -0.00000000000E+00 -0.00000000000E+00 -0.45593999997E+02  0.45594000000E+02  0.51100000000E-03 0.  1.
    9900012    2    1    2    0    0 -0.36951871139E+02 -0.16030440115E+02 -0.55456515656E+01  0.50528806178E+02  0.29999836859E+02 0.  0.
         12    1    1    2    0    0  0.36951871139E+02  0.16030440115E+02  0.55456515656E+01  0.40659193822E+02  0.00000000000E+00 0. -1.
         11    1    3    3    0    0 -0.17567733753E+02 -0.11530121948E+01  0.19592492975E+01  0.17714213626E+02  0.51100000000E-03 0. -1.
        -11    1    3    3    0    0 -0.10705695836E+02 -0.88415868530E+01 -0.14549338728E+02  0.20111410669E+02  0.51100000000E-03 0.  1.
         12    1    3    3    0    0 -0.86784415503E+01 -0.60358410675E+01  0.70444378644E+01  0.12703181883E+02  0.00000000000E+00 0. -1.
</event>
<event>
 7    1  0.2891523E-011  0.5052885E+02  0.7816164E-02  0.1300439E+00
        -11   -1    0    0    0    0  0.00000000000E+00  0.00000000000E+00  0.45593999997E+02  0.45594000000E+02  0.51100000000E-03 0.  1.
         11   -1    0    0    0    0 -0.00000000000E+00 -0.00000000000E+00 -0.45593999997E+02  0.45594000000E+02  0.51100000000E-03 0. -1.
    9900012    2    1    2    0    0  0.15518024193E+02  0.11027780182E+02  0.35926942393E+02  0.50528853424E+02  0.29999980467E+02 0.  0.
         12    1    1    2    0    0 -0.15518024193E+02 -0.11027780182E+02 -0.35926942393E+02  0.40659146576E+02  0.00000000000E+00 0. -1.
         11    1    3    3    0    0 -0.10452346457E+01  0.11323984312E+02  0.12051579322E+02  0.16570024158E+02  0.51100000000E-03 0. -1.
        -11    1    3    3    0    0  0.16782503175E+02 -0.39683302476E+01  0.10735679142E+02  0.20313908159E+02  0.51100000000E-03 0.  1.
        -12    1    3    3    0    0 -0.21924433573E+00  0.36721261180E+01  0.13139683928E+02  0.13644921108E+02  0.00000000000E+00 0.  1.
</event>
<event>
 7    1  0.2891523E-011  0.5052885E+02  0.7816164E-02  0.1300439E+00
        -11   -1    0    0    0    0  0.00000000000E+00  0.00000000000E+00  0.45593999997E+02  0.45594000000E+02  0.51100000000E-03 0. -1.
         11   -1    0    0    0    0 -0.00000000000E+00 -0.00000000000E+00 -0.45593999997E+02  0.45594000000E+02  0.51100000000E-03 0.  1.
    9900012    2    1    2    0    0  0.34639002513E+02 -0.71759834801E+01 -0.20045236079E+02  0.50528846991E+02  0.29999960912E+02 0.  0.
         12    1    1    2    0    0 -0.34639002513E+02  0.71759834801E+01  0.20045236079E+02  0.40659153009E+02  0.00000000000E+00 0. -1.
         11    1    3    3    0    0  0.88779670282E+01 -0.12283175663E+02  0.19927864592E+01  0.15286134275E+02  0.51100000000E-03 0. -1.
        -11    1    3    3    0    0  0.11291207997E+02  0.12712523836E+01 -0.14676536536E+02  0.18560931701E+02  0.51100000000E-03 0.  1.
         12    1    3    3    0    0  0.14469827488E+02  0.38359397997E+01 -0.73614860016E+01  0.16681781015E+02  0.00000000000E+00 0. -1.
</event>
<event>
 7    1  0.2891523E-011  0.5052886E+02  0.7816164E-02  0.1300439E+00
        -11   -1    0    0    0    0  0.00000000000E+00  0.00000000000E+00  0.45593999997E+02  0.45594000000E+02  0.51100000000E-03 0.  1.
         11   -1    0    0    0    0 -0.00000000000E+00 -0.00000000000E+00 -0.45593999997E+02  0.45594000000E+02  0.51100000000E-03 0. -1.
    9900012    2    1    2    0    0  0.14836247099E+02 -0.12568171269E+02  0.35708439540E+02  0.50528858206E+02  0.29999995004E+02 0.  0.
         12    1    1    2    0    0 -0.14836247099E+02  0.12568171269E+02 -0.35708439540E+02  0.40659141794E+02  0.00000000000E+00 0. -1.
         11    1    3    3    0    0 -0.38207171433E+01 -0.25030361640E+01  0.34957399000E+01  0.57518055632E+01  0.51100000000E-03 0. -1.
        -11    1    3    3    0    0  0.11327439190E+02  0.27215237514E+01  0.29579511089E+01  0.12019444461E+02  0.51100000000E-03 0.  1.
        -12    1    3    3    0    0  0.73295250524E+01 -0.12786658856E+02  0.29254748531E+02  0.32757608182E+02  0.00000000000E+00 0.  1.
</event>
<event>
 7    1  0.2891523E-011  0.5052886E+02  0.7816164E-02  0.1300439E+00
        -11   -1    0    0    0    0  0.00000000000E+00  0.00000000000E+00  0.45593999997E+02  0.45594000000E+02  0.51100000000E-03 0.  1.
         11   -1    0    0    0    0 -0.00000000000E+00 -0.00000000000E+00 -0.45593999997E+02  0.45594000000E+02  0.51100000000E-03 0. -1.
    9900012    2    1    2    0    0  0.17422894908E+02 -0.16845760152E+02  0.32647038048E+02  0.50528855944E+02  0.29999988127E+02 0.  0.
         12    1    1    2    0    0 -0.17422894908E+02  0.16845760152E+02 -0.32647038048E+02  0.40659144056E+02  0.00000000000E+00 0. -1.
         11    1    3    3    0    0  0.57035815524E+01 -0.41157307572E+01 -0.11069039908E+01  0.71200645290E+01  0.51100000000E-03 0. -1.
        -11    1    3    3    0    0  0.16043344977E+02 -0.14570283717E+02  0.31399949071E+02  0.38152835904E+02  0.51100000000E-03 0.  1.
        -12    1    3    3    0    0 -0.43240316217E+01  0.18402543217E+01  0.23539929681E+01  0.52559555105E+01  0.00000000000E+00 0.  1.
</event>
<event>
 7    1  0.2891523E-011  0.5052886E+02  0.7816164E-02  0.1300439E+00
        -11   -1    0    0    0    0  0.00000000000E+00  0.00000000000E+00  0.45593999997E+02  0.45594000000E+02  0.51100000000E-03 0.  1.
         11   -1    0    0    0    0 -0.00000000000E+00 -0.00000000000E+00 -0.45593999997E+02  0.45594000000E+02  0.51100000000E-03 0. -1.
    9900012    2    1    2    0    0  0.37176021567E+02  0.15489812558E+02 -0.55834424545E+01  0.50528859548E+02  0.29999999083E+02 0.  0.
         12    1    1    2    0    0 -0.37176021567E+02 -0.15489812558E+02  0.55834424545E+01  0.40659140452E+02  0.00000000000E+00 0. -1.
         11    1    3    3    0    0 -0.18622622853E+00 -0.11151172689E+01  0.23182271865E+01  0.25792138882E+01  0.51100000000E-03 0. -1.
        -11    1    3    3    0    0  0.17849079116E+02  0.67151018840E+01 -0.15723955663E+02  0.24716897066E+02  0.51100000000E-03 0.  1.
        -12    1    3    3    0    0  0.19513168679E+02  0.98898279427E+01  0.78222860220E+01  0.23232748594E+02  0.00000000000E+00 0.  1.
</event>
<event>
 7    1  0.2891523E-011  0.5052891E+02  0.7816164E-02  0.1300439E+00
        -11   -1    0    0    0    0  0.00000000000E+00  0.00000000000E+00  0.45593999997E+02  0.45594000000E+02  0.51100000000E-03 0.  1.
         11   -1    0    0    0    0 -0.00000000000E+00 -0.00000000000E+00 -0.45593999997E+02  0.45594000000E+02  0.51100000000E-03 0. -1.
    9900012    2    1    2    0    0  0.21773286941E+02 -0.29962246365E+02  0.16773484044E+02  0.50528905096E+02  0.30000137528E+02 0.  0.
         12    1    1    2    0    0 -0.21773286941E+02  0.29962246365E+02 -0.16773484044E+02  0.40659094904E+02  0.00000000000E+00 0. -1.
         11    1    3    3    0    0  0.19497531508E+00 -0.21514276286E+02  0.80516213968E+01  0.22972390099E+02  0.51100000000E-03 0.  1.
        -11    1    3    3    0    0  0.83753583096E+01  0.24833314490E+01  0.48193369148E+01  0.99769519623E+01  0.51100000000E-03 0. -1.
         12    1    3    3    0    0  0.13202953316E+02 -0.10931301528E+02  0.39025257328E+01  0.17579563034E+02  0.00000000000E+00 0. -1.
</event>
<event>
 7    1  0.2891523E-011  0.5052886E+02  0.7816164E-02  0.1300439E+00
        -11   -1    0    0    0    0  0.00000000000E+00  0.00000000000E+00  0.45593999997E+02  0.45594000000E+02  0.51100000000E-03 0.  1.
         11   -1    0    0    0    0 -0.00000000000E+00 -0.00000000000E+00 -0.45593999997E+02  0.45594000000E+02  0.51100000000E-03 0. -1.
    9900012    2    1    2    0    0  0.41318188458E+01 -0.98889968698E+01  0.39221188006E+02  0.50528858658E+02  0.29999996377E+02 0.  0.
         12    1    1    2    0    0 -0.41318188458E+01  0.98889968698E+01 -0.39221188006E+02  0.40659141342E+02  0.00000000000E+00 0. -1.
         11    1    3    3    0    0 -0.65612829175E+01 -0.29699152164E+00  0.16339557872E+02  0.17610218318E+02  0.51100000000E-03 0. -1.
        -11    1    3    3    0    0  0.11421541444E+02 -0.11993086022E+02  0.24757197597E+02  0.29785979158E+02  0.51100000000E-03 0.  1.
        -12    1    3    3    0    0 -0.72843968081E+00  0.24010806735E+01 -0.18755674636E+01  0.31326611818E+01  0.00000000000E+00 0.  1.
</event>
<event>
 7    1  0.2891523E-011  0.5052886E+02  0.7816164E-02  0.1300439E+00
        -11   -1    0    0    0    0  0.00000000000E+00  0.00000000000E+00  0.45593999997E+02  0.45594000000E+02  0.51100000000E-03 0.  1.
         11   -1    0    0    0    0 -0.00000000000E+00 -0.00000000000E+00 -0.45593999997E+02  0.45594000000E+02  0.51100000000E-03 0. -1.
    9900012    2    1    2    0    0  0.31036517195E+02  0.95566664344E+01  0.24465699152E+02  0.50528859478E+02  0.29999998870E+02 0.  0.
         12    1    1    2    0    0 -0.31036517195E+02 -0.95566664344E+01 -0.24465699152E+02  0.40659140522E+02  0.00000000000E+00 0. -1.
         11    1    3    3    0    0  0.30289908553E+02  0.14430757449E+02  0.11670227618E+02  0.35523506775E+02  0.51100000000E-03 0. -1.
        -11    1    3    3    0    0  0.18210452136E+01 -0.37136314937E+00  0.84643410377E+01  0.86659786362E+01  0.51100000000E-03 0.  1.
         12    1    3    3    0    0 -0.10744365713E+01 -0.45027278657E+01  0.43311304969E+01  0.63393740668E+01  0.00000000000E+00 0. -1.
</event>
<event>
 7    1  0.2891523E-011  0.5052886E+02  0.7816164E-02  0.1300439E+00
        -11   -1    0    0    0    0  0.00000000000E+00  0.00000000000E+00  0.45593999997E+02  0.45594000000E+02  0.51100000000E-03 0.  1.
         11   -1    0    0    0    0 -0.00000000000E+00 -0.00000000000E+00 -0.45593999997E+02  0.45594000000E+02  0.51100000000E-03 0. -1.
    9900012    2    1    2    0    0 -0.21911311461E+02 -0.19296375743E+02  0.28296825616E+02  0.50528855559E+02  0.29999986958E+02 0.  0.
         12    1    1    2    0    0  0.21911311461E+02  0.19296375743E+02 -0.28296825616E+02  0.40659144441E+02  0.00000000000E+00 0. -1.
         11    1    3    3    0    0 -0.19558135906E+02 -0.10895625411E+02  0.18797505442E+02  0.29233226717E+02  0.51100000000E-03 0. -1.
        -11    1    3    3    0    0  0.81116036446E+00 -0.12421337528E+02  0.10249443762E+02  0.16124475334E+02  0.51100000000E-03 0.  1.
         12    1    3    3    0    0 -0.31643359187E+01  0.40205871956E+01 -0.75012358769E+00  0.51711535077E+01  0.00000000000E+00 0. -1.
</event>
<event>
 7    1  0.2891523E-011  0.5052886E+02  0.7816164E-02  0.1300439E+00
        -11   -1    0    0    0    0  0.00000000000E+00  0.00000000000E+00  0.45593999997E+02  0.45594000000E+02  0.51100000000E-03 0.  1.
         11   -1    0    0    0    0 -0.00000000000E+00 -0.00000000000E+00 -0.45593999997E+02  0.45594000000E+02  0.51100000000E-03 0. -1.
    9900012    2    1    2    0    0 -0.84269971759E+01  0.23738062077E+02  0.31916383268E+02  0.50528863346E+02  0.30000010627E+02 0.  0.
         12    1    1    2    0    0  0.84269971759E+01 -0.23738062077E+02 -0.31916383268E+02  0.40659136654E+02  0.00000000000E+00 0. -1.
         11    1    3    3    0    0 -0.83267567712E+01  0.99170434947E+01  0.30078391507E+02  0.32747400903E+02  0.51100000000E-03 0. -1.
        -11    1    3    3    0    0 -0.49017727138E-01  0.14550701565E+02  0.43323611891E+01  0.15182050998E+02  0.51100000000E-03 0.  1.
         12    1    3    3    0    0 -0.51222677486E-01 -0.72968298294E+00 -0.24943694282E+01  0.25994114454E+01  0.00000000000E+00 0. -1.
</event>
<event>
 7    1  0.2891523E-011  0.5052884E+02  0.7816164E-02  0.1300439E+00
        -11   -1    0    0    0    0  0.00000000000E+00  0.00000000000E+00  0.45593999997E+02  0.45594000000E+02  0.51100000000E-03 0. -1.
         11   -1    0    0    0    0 -0.00000000000E+00 -0.00000000000E+00 -0.45593999997E+02  0.45594000000E+02  0.51100000000E-03 0.  1.
    9900012    2    1    2    0    0 -0.30520653182E+01 -0.40097467169E+02  0.60037513055E+01  0.50528843518E+02  0.29999950357E+02 0.  0.
         12    1    1    2    0    0  0.30520653182E+01  0.40097467169E+02 -0.60037513055E+01  0.40659156482E+02  0.00000000000E+00 0. -1.
         11    1    3    3    0    0  0.57931339118E+01 -0.24767555764E+02  0.14125861192E+02  0.29095225961E+02  0.51100000000E-03 0. -1.
        -11    1    3    3    0    0 -0.20835478308E+01 -0.47370268643E+01  0.17391999127E+01  0.54594332741E+01  0.51100000000E-03 0.  1.
         12    1    3    3    0    0 -0.67616513991E+01 -0.10592884541E+02 -0.98613097993E+01  0.15974184282E+02  0.00000000000E+00 0. -1.
</event>
<event>
 7    1  0.2891523E-011  0.5052887E+02  0.7816164E-02  0.1300439E+00
        -11   -1    0    0    0    0  0.00000000000E+00  0.00000000000E+00  0.45593999997E+02  0.45594000000E+02  0.51100000000E-03 0.  1.
         11   -1    0    0    0    0 -0.00000000000E+00 -0.00000000000E+00 -0.45593999997E+02  0.45594000000E+02  0.51100000000E-03 0. -1.
    9900012    2    1    2    0    0 -0.18547678394E+01 -0.33366428089E+01  0.40479521742E+02  0.50528867822E+02  0.30000024233E+02 0.  0.
         12    1    1    2    0    0  0.18547678394E+01  0.33366428089E+01 -0.40479521742E+02  0.40659132178E+02  0.00000000000E+00 0. -1.
         11    1    3    3    0    0  0.17151639554E+01 -0.72002996156E+01  0.12527113612E+02  0.14550418470E+02  0.51100000000E-03 0.  1.
        -11    1    3    3    0    0 -0.10559766520E+02  0.62577011978E+00  0.48717733939E+01  0.11646219707E+02  0.51100000000E-03 0. -1.
        -12    1    3    3    0    0  0.69898347252E+01  0.32378866869E+01  0.23080634737E+02  0.24332229646E+02  0.00000000000E+00 0.  1.
</event>
<event>
 7    1  0.2891523E-011  0.5052886E+02  0.7816164E-02  0.1300439E+00
        -11   -1    0    0    0    0  0.00000000000E+00  0.00000000000E+00  0.45593999997E+02  0.45594000000E+02  0.51100000000E-03 0.  1.
         11   -1    0    0    0    0 -0.00000000000E+00 -0.00000000000E+00 -0.45593999997E+02  0.45594000000E+02  0.51100000000E-03 0. -1.
    9900012    2    1    2    0    0  0.17460386076E+02 -0.17163509144E+02  0.32460967066E+02  0.50528861902E+02  0.30000006236E+02 0.  0.
         12    1    1    2    0    0 -0.17460386076E+02  0.17163509144E+02 -0.32460967066E+02  0.40659138098E+02  0.00000000000E+00 0. -1.
         11    1    3    3    0    0  0.12456223341E+02 -0.74452063376E+01 -0.91468703723E+00  0.14540469386E+02  0.51100000000E-03 0. -1.
        -11    1    3    3    0    0  0.54921568649E+01 -0.52760571160E+01  0.12480271779E+02  0.14620456548E+02  0.51100000000E-03 0.  1.
         12    1    3    3    0    0 -0.48799413041E+00 -0.44422456900E+01  0.20895382324E+02  0.21367935968E+02  0.00000000000E+00 0. -1.
</event>
<event>
 7    1  0.2891523E-011  0.5052887E+02  0.7816164E-02  0.1300439E+00
        -11   -1    0    0    0    0  0.00000000000E+00  0.00000000000E+00  0.45593999997E+02  0.45594000000E+02  0.51100000000E-03 0.  1.
         11   -1    0    0    0    0 -0.00000000000E+00 -0.00000000000E+00 -0.45593999997E+02  0.45594000000E+02  0.51100000000E-03 0. -1.
    9900012    2    1    2    0    0  0.40287368569E+02  0.54855495287E+01 -0.43828417301E-01  0.50528865224E+02  0.30000016334E+02 0.  0.
         12    1    1    2    0    0 -0.40287368569E+02 -0.54855495287E+01  0.43828417301E-01  0.40659134776E+02  0.00000000000E+00 0. -1.
         11    1    3    3    0    0  0.17633447436E+01  0.81564886506E+01  0.33883722161E+01  0.90065952684E+01  0.51100000000E-03 0. -1.
        -11    1    3    3    0    0  0.23237685855E+02 -0.78463255927E+01 -0.58206024607E+01  0.25207821851E+02  0.51100000000E-03 0.  1.
        -12    1    3    3    0    0  0.15286337970E+02  0.51753864707E+01  0.23884018274E+01  0.16314448104E+02  0.00000000000E+00 0.  1.
</event>
<event>
 7    1  0.2891523E-011  0.5052886E+02  0.7816164E-02  0.1300439E+00
        -11   -1    0    0    0    0  0.00000000000E+00  0.00000000000E+00  0.45593999997E+02  0.45594000000E+02  0.51100000000E-03 0.  1.
         11   -1    0    0    0    0 -0.00000000000E+00 -0.00000000000E+00 -0.45593999997E+02  0.45594000000E+02  0.51100000000E-03 0. -1.
    9900012    2    1    2    0    0 -0.25744751299E+02 -0.50912911441E+01  0.31055626133E+02  0.50528863518E+02  0.30000011149E+02 0.  0.
         12    1    1    2    0    0  0.25744751299E+02  0.50912911441E+01 -0.31055626133E+02  0.40659136482E+02  0.00000000000E+00 0. -1.
         11    1    3    3    0    0 -0.26858999933E+02 -0.13080895948E+01  0.14206314851E+02  0.30412766360E+02  0.51100000000E-03 0. -1.
        -11    1    3    3    0    0  0.21470429582E+01 -0.38805997115E+01  0.14269214050E+01  0.46588574288E+01  0.51100000000E-03 0.  1.
         12    1    3    3    0    0 -0.10327943249E+01  0.97398162163E-01  0.15422389877E+02  0.15457239729E+02  0.00000000000E+00 0. -1.
</event>
<event>
 7    1  0.2891523E-011  0.5052887E+02  0.7816164E-02  0.1300439E+00
        -11   -1    0    0    0    0  0.00000000000E+00  0.00000000000E+00  0.45593999997E+02  0.45594000000E+02  0.51100000000E-03 0.  1.
         11   -1    0    0    0    0 -0.00000000000E+00 -0.00000000000E+00 -0.45593999997E+02  0.45594000000E+02  0.51100000000E-03 0. -1.
    9900012    2    1    2    0    0 -0.34322907769E+02  0.17951087279E+02  0.12363724884E+02  0.50528865415E+02  0.30000016915E+02 0.  0.
         12    1    1    2    0    0  0.34322907769E+02 -0.17951087279E+02 -0.12363724884E+02  0.40659134585E+02  0.00000000000E+00 0. -1.
         11    1    3    3    0    0 -0.23311968726E+02  0.60585899906E+01 -0.18571486014E+01  0.24157884836E+02  0.51100000000E-03 0. -1.
        -11    1    3    3    0    0 -0.41274475287E+01 -0.64244931716E+00  0.10923807879E+02  0.11695218812E+02  0.51100000000E-03 0.  1.
         12    1    3    3    0    0 -0.68834915142E+01  0.12534946605E+02  0.32970656068E+01  0.14675761767E+02  0.00000000000E+00 0. -1.
</event>
<event>
 7    1  0.2891523E-011  0.5052881E+02  0.7816164E-02  0.1300439E+00
        -11   -1    0    0    0    0  0.00000000000E+00  0.00000000000E+00  0.45593999997E+02  0.45594000000E+02  0.51100000000E-03 0.  1.
         11   -1    0    0    0    0 -0.00000000000E+00 -0.00000000000E+00 -0.45593999997E+02  0.45594000000E+02  0.51100000000E-03 0. -1.
    9900012    2    1    2    0    0 -0.35913582762E+02 -0.14650846394E+02  0.12195779366E+02  0.50528809634E+02  0.29999847365E+02 0.  0.
         12    1    1    2    0    0  0.35913582762E+02  0.14650846394E+02 -0.12195779366E+02  0.40659190366E+02  0.00000000000E+00 0. -1.
         11    1    3    3    0    0 -0.18520814403E+02 -0.33475417562E-01  0.18200426528E+02  0.25966848342E+02  0.51100000000E-03 0. -1.
        -11    1    3    3    0    0 -0.82700501869E+01 -0.91987840910E+01  0.70963222602E-03  0.12369776053E+02  0.51100000000E-03 0.  1.
         12    1    3    3    0    0 -0.91227181719E+01 -0.54185868856E+01 -0.60053567944E+01  0.12192185239E+02  0.00000000000E+00 0. -1.
</event>
<event>
 7    1  0.2891523E-011  0.5052886E+02  0.7816164E-02  0.1300439E+00
        -11   -1    0    0    0    0  0.00000000000E+00  0.00000000000E+00  0.45593999997E+02  0.45594000000E+02  0.51100000000E-03 0. -1.
         11   -1    0    0    0    0 -0.00000000000E+00 -0.00000000000E+00 -0.45593999997E+02  0.45594000000E+02  0.51100000000E-03 0.  1.
    9900012    2    1    2    0    0  0.61761772712E+01 -0.84172775563E+01 -0.39295926397E+02  0.50528861316E+02  0.30000004455E+02 0.  0.
         12    1    1    2    0    0 -0.61761772712E+01  0.84172775563E+01  0.39295926397E+02  0.40659138684E+02  0.00000000000E+00 0. -1.
         11    1    3    3    0    0 -0.60231287484E+00 -0.67410447249E+01 -0.12182335438E+01  0.68766676530E+01  0.51100000000E-03 0. -1.
        -11    1    3    3    0    0 -0.29066227302E+00  0.72662937304E+01 -0.26195725589E+02  0.27186385353E+02  0.51100000000E-03 0.  1.
        -12    1    3    3    0    0  0.70691524190E+01 -0.89425265617E+01 -0.11881967264E+02  0.16465808310E+02  0.00000000000E+00 0.  1.
</event>
<event>
 7    1  0.2891523E-011  0.5052886E+02  0.7816164E-02  0.1300439E+00
        -11   -1    0    0    0    0  0.00000000000E+00  0.00000000000E+00  0.45593999997E+02  0.45594000000E+02  0.51100000000E-03 0.  1.
         11   -1    0    0    0    0 -0.00000000000E+00 -0.00000000000E+00 -0.45593999997E+02  0.45594000000E+02  0.51100000000E-03 0. -1.
    9900012    2    1    2    0    0 -0.65509972669E+01  0.41552857023E+01  0.39912200258E+02  0.50528859651E+02  0.29999999396E+02 0.  0.
         12    1    1    2    0    0  0.65509972669E+01 -0.41552857023E+01 -0.39912200258E+02  0.40659140349E+02  0.00000000000E+00 0. -1.
         11    1    3    3    0    0  0.62278164561E+01 -0.41428992172E+01  0.71918459804E+00  0.75144220325E+01  0.51100000000E-03 0. -1.
        -11    1    3    3    0    0 -0.92206742093E+01  0.70005907082E+01  0.36693793905E+02  0.38476793195E+02  0.51100000000E-03 0.  1.
        -12    1    3    3    0    0 -0.35581395137E+01  0.12975942114E+01  0.24992217548E+01  0.45376444237E+01  0.00000000000E+00 0.  1.
</event>
<event>
 7    1  0.2891523E-011  0.5052886E+02  0.7816164E-02  0.1300439E+00
        -11   -1    0    0    0    0  0.00000000000E+00  0.00000000000E+00  0.45593999997E+02  0.45594000000E+02  0.51100000000E-03 0.  1.
         11   -1    0    0    0    0 -0.00000000000E+00 -0.00000000000E+00 -0.45593999997E+02  0.45594000000E+02  0.51100000000E-03 0. -1.
    9900012    2    1    2    0    0 -0.20456328786E+02  0.32825321336E+02 -0.12538049721E+02  0.50528858358E+02  0.29999995466E+02 0.  0.
         12    1    1    2    0    0  0.20456328786E+02 -0.32825321336E+02  0.12538049721E+02  0.40659141642E+02  0.00000000000E+00 0. -1.
         11    1    3    3    0    0 -0.15264534086E+01 -0.68668120766E+00 -0.40604930896E+01  0.43919466619E+01  0.51100000000E-03 0. -1.
        -11    1    3    3    0    0 -0.21467816070E+02  0.30213452168E+02 -0.13650519077E+02  0.39497550431E+02  0.51100000000E-03 0.  1.
        -12    1    3    3    0    0  0.25379406924E+01  0.32985503764E+01  0.51729624461E+01  0.66393612654E+01  0.00000000000E+00 0.  1.
</event>
<event>
 7    1  0.2891523E-011  0.5052885E+02  0.7816164E-02  0.1300439E+00
        -11   -1    0    0    0    0  0.00000000000E+00  0.00000000000E+00  0.45593999997E+02  0.45594000000E+02  0.51100000000E-03 0. -1.
         11   -1    0    0    0    0 -0.00000000000E+00 -0.00000000000E+00 -0.45593999997E+02  0.45594000000E+02  0.51100000000E-03 0.  1.
    9900012    2    1    2    0    0 -0.12282761419E+02  0.27778927286E+02 -0.27030191155E+02  0.50528852651E+02  0.29999978119E+02 0.  0.
         12    1    1    2    0    0  0.12282761419E+02 -0.27778927286E+02  0.27030191155E+02  0.40659147349E+02  0.00000000000E+00 0. -1.
         11    1    3    3    0    0  0.57968116770E+00 -0.68750360158E+00 -0.13084012777E+00  0.90874135954E+00  0.51100000000E-03 0. -1.
        -11    1    3    3    0    0 -0.90631686675E+00  0.14324776890E+01  0.55041760531E+01  0.57592844067E+01  0.51100000000E-03 0.  1.
        -12    1    3    3    0    0 -0.11956125720E+02  0.27033953199E+02 -0.32403527080E+02  0.43860826885E+02  0.00000000000E+00 0.  1.
</event>
<event>
 7    1  0.2891523E-011  0.5052886E+02  0.7816164E-02  0.1300439E+00
        -11   -1    0    0    0    0  0.00000000000E+00  0.00000000000E+00  0.45593999997E+02  0.45594000000E+02  0.51100000000E-03 0.  1.
         11   -1    0    0    0    0 -0.00000000000E+00 -0.00000000000E+00 -0.45593999997E+02  0.45594000000E+02  0.51100000000E-03 0. -1.
    9900012    2    1    2    0    0  0.28278050010E+01 -0.19584169186E+01  0.40513375023E+02  0.50528862851E+02  0.30000009121E+02 0.  0.
         12    1    1    2    0    0 -0.28278050010E+01  0.19584169186E+01 -0.40513375023E+02  0.40659137149E+02  0.00000000000E+00 0. -1.
         11    1    3    3    0    0 -0.87852585049E+01 -0.77603949502E+01  0.65931768604E+01  0.13448958255E+02  0.51100000000E-03 0. -1.
        -11    1    3    3    0    0  0.17122514994E+01  0.31910726959E+01  0.16328586135E+02  0.16725354274E+02  0.51100000000E-03 0.  1.
         12    1    3    3    0    0  0.99008120064E+01  0.26109053356E+01  0.17591612028E+02  0.20354550322E+02  0.00000000000E+00 0. -1.
</event>
<event>
 7    1  0.2891523E-011  0.5052886E+02  0.7816164E-02  0.1300439E+00
        -11   -1    0    0    0    0  0.00000000000E+00  0.00000000000E+00  0.45593999997E+02  0.45594000000E+02  0.51100000000E-03 0.  1.
         11   -1    0    0    0    0 -0.00000000000E+00 -0.00000000000E+00 -0.45593999997E+02  0.45594000000E+02  0.51100000000E-03 0. -1.
    9900012    2    1    2    0    0 -0.11888922880E+02 -0.38792974113E+02  0.26313657398E+01  0.50528863100E+02  0.30000009878E+02 0.  0.
         12    1    1    2    0    0  0.11888922880E+02  0.38792974113E+02 -0.26313657398E+01  0.40659136900E+02  0.00000000000E+00 0. -1.
         11    1    3    3    0    0 -0.58643242308E+01 -0.10798861017E+02 -0.33289140019E+01  0.12731353684E+02  0.51100000000E-03 0. -1.
        -11    1    3    3    0    0 -0.61543803003E+01  0.14550401489E+01  0.54424962175E+01  0.83435186854E+01  0.51100000000E-03 0.  1.
        -12    1    3    3    0    0  0.12978165088E+00 -0.29449153246E+02  0.51778352421E+00  0.29453990730E+02  0.00000000000E+00 0.  1.
</event>
<event>
 7    1  0.2891523E-011  0.5052886E+02  0.7816164E-02  0.1300439E+00
        -11   -1    0    0    0    0  0.00000000000E+00  0.00000000000E+00  0.45593999997E+02  0.45594000000E+02  0.51100000000E-03 0.  1.
         11   -1    0    0    0    0 -0.00000000000E+00 -0.00000000000E+00 -0.45593999997E+02  0.45594000000E+02  0.51100000000E-03 0. -1.
    9900012    2    1    2    0    0  0.25111204543E+02 -0.26492179214E+02  0.17909712907E+02  0.50528856262E+02  0.29999989093E+02 0.  0.
         12    1    1    2    0    0 -0.25111204543E+02  0.26492179214E+02 -0.17909712907E+02  0.40659143738E+02  0.00000000000E+00 0. -1.
         11    1    3    3    0    0  0.12059528029E+02 -0.94799382957E+01 -0.25189024316E+01  0.15544977199E+02  0.51100000000E-03 0. -1.
        -11    1    3    3    0    0 -0.30247834993E+01 -0.10129205412E+02  0.10375864173E+02  0.14812450003E+02  0.51100000000E-03 0.  1.
        -12    1    3    3    0    0  0.16076460013E+02 -0.68830355063E+01  0.10052751166E+02  0.20171429060E+02  0.00000000000E+00 0.  1.
</event>
<event>
 7    1  0.2891523E-011  0.5052885E+02  0.7816164E-02  0.1300439E+00
        -11   -1    0    0    0    0  0.00000000000E+00  0.00000000000E+00  0.45593999997E+02  0.45594000000E+02  0.51100000000E-03 0.  1.
         11   -1    0    0    0    0 -0.00000000000E+00 -0.00000000000E+00 -0.45593999997E+02  0.45594000000E+02  0.51100000000E-03 0. -1.
    9900012    2    1    2    0    0 -0.27524066264E+02  0.29539099407E+02 -0.47993947611E+01  0.50528845957E+02  0.29999957769E+02 0.  0.
         12    1    1    2    0    0  0.27524066264E+02 -0.29539099407E+02  0.47993947611E+01  0.40659154043E+02  0.00000000000E+00 0. -1.
         11    1    3    3    0    0 -0.23908620096E+01  0.10649212657E+02 -0.57806775176E+01  0.12350634971E+02  0.51100000000E-03 0. -1.
        -11    1    3    3    0    0 -0.18943657744E+02  0.20346043652E+01  0.51673555705E+01  0.19740905437E+02  0.51100000000E-03 0.  1.
        -12    1    3    3    0    0 -0.61895465104E+01  0.16855282385E+02 -0.41860728141E+01  0.18437305548E+02  0.00000000000E+00 0.  1.
</event>
<event>
 7    1  0.2891523E-011  0.5052887E+02  0.7816164E-02  0.1300439E+00
        -11   -1    0    0    0    0  0.00000000000E+00  0.00000000000E+00  0.45593999997E+02  0.45594000000E+02  0.51100000000E-03 0. -1.
         11   -1    0    0    0    0 -0.00000000000E+00 -0.00000000000E+00 -0.45593999997E+02  0.45594000000E+02  0.51100000000E-03 0.  1.
    9900012    2    1    2    0    0 -0.90486418653E+01 -0.39382732732E+02  0.45041810812E+01  0.50528865672E+02  0.30000017697E+02 0.  0.
         12    1    1    2    0    0  0.90486418653E+01  0.39382732732E+02 -0.45041810812E+01  0.40659134328E+02  0.00000000000E+00 0. -1.
         11    1    3    3    0    0 -0.99818253988E+01 -0.50516641847E+01 -0.44355305768E+01  0.12034537012E+02  0.51100000000E-03 0. -1.
        -11    1    3    3    0    0 -0.65427759916E+00 -0.20524028479E+02 -0.22421367911E+01  0.20656500232E+02  0.51100000000E-03 0.  1.
         12    1    3    3    0    0  0.15874611327E+01 -0.13807040069E+02  0.11181848449E+02  0.17837828429E+02  0.00000000000E+00 0. -1.
</event>
<event>
 7    1  0.2891523E-011  0.5052886E+02  0.7816164E-02  0.1300439E+00
        -11   -1    0    0    0    0  0.00000000000E+00  0.00000000000E+00  0.45593999997E+02  0.45594000000E+02  0.51100000000E-03 0.  1.
         11   -1    0    0    0    0 -0.00000000000E+00 -0.00000000000E+00 -0.45593999997E+02  0.45594000000E+02  0.51100000000E-03 0. -1.
    9900012    2    1    2    0    0 -0.14387070973E+01  0.19440587233E+02  0.35681359998E+02  0.50528858821E+02  0.29999996874E+02 0.  0.
         12    1    1    2    0    0  0.14387070973E+01 -0.19440587233E+02 -0.35681359998E+02  0.40659141179E+02  0.00000000000E+00 0. -1.
         11    1    3    3    0    0  0.98009343313E+01 -0.11579203804E+01  0.11854012849E+02  0.15424549078E+02  0.51100000000E-03 0.  1.
        -11    1    3    3    0    0 -0.38493270448E+01  0.14704640337E+00  0.22063901423E+01  0.44392678522E+01  0.51100000000E-03 0. -1.
         12    1    3    3    0    0 -0.73903143838E+01  0.20451461210E+02  0.21620957006E+02  0.30665041891E+02  0.00000000000E+00 0. -1.
</event>
<event>
 7    1  0.2891523E-011  0.5052880E+02  0.7816164E-02  0.1300439E+00
        -11   -1    0    0    0    0  0.00000000000E+00  0.00000000000E+00  0.45593999997E+02  0.45594000000E+02  0.51100000000E-03 0.  1.
         11   -1    0    0    0    0 -0.00000000000E+00 -0.00000000000E+00 -0.45593999997E+02  0.45594000000E+02  0.51100000000E-03 0. -1.
    9900012    2    1    2    0    0 -0.32391000252E+02  0.75246333504E+01  0.23396008515E+02  0.50528804007E+02  0.29999830260E+02 0.  0.
         12    1    1    2    0    0  0.32391000252E+02 -0.75246333504E+01 -0.23396008515E+02  0.40659195993E+02  0.00000000000E+00 0. -1.
         11    1    3    3    0    0  0.15308178756E+01 -0.16222892250E+01  0.32112299557E+01  0.39098879507E+01  0.51100000000E-03 0. -1.
        -11    1    3    3    0    0 -0.18158586669E+02  0.14086535145E+02  0.19409883971E+02  0.30081694404E+02  0.51100000000E-03 0.  1.
        -12    1    3    3    0    0 -0.15763231458E+02 -0.49396125701E+01  0.77489458821E+00  0.16537221652E+02  0.00000000000E+00 0.  1.
</event>
<event>
 7    1  0.2891523E-011  0.5052886E+02  0.7816164E-02  0.1300439E+00
        -11   -1    0    0    0    0  0.00000000000E+00  0.00000000000E+00  0.45593999997E+02  0.45594000000E+02  0.51100000000E-03 0.  1.
         11   -1    0    0    0    0 -0.00000000000E+00 -0.00000000000E+00 -0.45593999997E+02  0.45594000000E+02  0.51100000000E-03 0. -1.
    9900012    2    1    2    0    0  0.31736675221E+02 -0.23301815574E+02 -0.10147626843E+02  0.50528862114E+02  0.30000006880E+02 0.  0.
         12    1    1    2    0    0 -0.31736675221E+02  0.23301815574E+02  0.10147626843E+02  0.40659137886E+02  0.00000000000E+00 0. -1.
         11    1    3    3    0    0  0.58753901240E+01 -0.75590220570E+01 -0.53193748984E+01  0.10952386641E+02  0.51100000000E-03 0. -1.
        -11    1    3    3    0    0  0.11953416355E+02  0.54112409714E+01  0.21958799121E+01  0.13303667925E+02  0.51100000000E-03 0.  1.
        -12    1    3    3    0    0  0.13907868742E+02 -0.21154034489E+02 -0.70241318566E+01  0.26272807547E+02  0.00000000000E+00 0.  1.
</event>
<event>
 7    1  0.2891523E-011  0.5052886E+02  0.7816164E-02  0.1300439E+00
        -11   -1    0    0    0    0  0.00000000000E+00  0.00000000000E+00  0.45593999997E+02  0.45594000000E+02  0.51100000000E-03 0.  1.
         11   -1    0    0    0    0 -0.00000000000E+00 -0.00000000000E+00 -0.45593999997E+02  0.45594000000E+02  0.51100000000E-03 0. -1.
    9900012    2    1    2    0    0  0.34947584674E+02  0.20779492785E+02 -0.21106214584E+00  0.50528861517E+02  0.30000005067E+02 0.  0.
         12    1    1    2    0    0 -0.34947584674E+02 -0.20779492785E+02  0.21106214584E+00  0.40659138483E+02  0.00000000000E+00 0. -1.
         11    1    3    3    0    0  0.17968434824E+02  0.18886582277E+02 -0.11900641600E+02  0.28656463685E+02  0.51100000000E-03 0. -1.
        -11    1    3    3    0    0  0.94806914806E+01  0.43194051206E+01  0.81758734715E+01  0.13243325822E+02  0.51100000000E-03 0.  1.
        -12    1    3    3    0    0  0.74984583693E+01 -0.24264946133E+01  0.35137059827E+01  0.86290720102E+01  0.00000000000E+00 0.  1.
</event>
<event>
 7    1  0.2891523E-011  0.5052890E+02  0.7816164E-02  0.1300439E+00
        -11   -1    0    0    0    0  0.00000000000E+00  0.00000000000E+00  0.45593999997E+02  0.45594000000E+02  0.51100000000E-03 0.  1.
         11   -1    0    0    0    0 -0.00000000000E+00 -0.00000000000E+00 -0.45593999997E+02  0.45594000000E+02  0.51100000000E-03 0. -1.
    9900012    2    1    2    0    0 -0.29255661536E+02 -0.20286010089E+02  0.19640434378E+02  0.50528897701E+02  0.30000115051E+02 0.  0.
         12    1    1    2    0    0  0.29255661536E+02  0.20286010089E+02 -0.19640434378E+02  0.40659102299E+02  0.00000000000E+00 0. -1.
         11    1    3    3    0    0  0.13342855094E+01 -0.34460372676E+00 -0.52381354089E+01  0.54163763138E+01  0.51100000000E-03 0. -1.
        -11    1    3    3    0    0 -0.15282356862E+02 -0.15254139359E+02  0.13383046612E+02  0.25403644143E+02  0.51100000000E-03 0.  1.
         12    1    3    3    0    0 -0.15307590183E+02 -0.46872670026E+01  0.11495523175E+02  0.19708877244E+02  0.00000000000E+00 0. -1.
</event>
<event>
 7    1  0.2891523E-011  0.5052884E+02  0.7816164E-02  0.1300439E+00
        -11   -1    0    0    0    0  0.00000000000E+00  0.00000000000E+00  0.45593999997E+02  0.45594000000E+02  0.51100000000E-03 0. -1.
         11   -1    0    0    0    0 -0.00000000000E+00 -0.00000000000E+00 -0.45593999997E+02  0.45594000000E+02  0.51100000000E-03 0.  1.
    9900012    2    1    2    0    0  0.31144320204E+02 -0.11779301201E+02 -0.23333377028E+02  0.50528842344E+02  0.29999946789E+02 0.  0.
         12    1    1    2    0    0 -0.31144320204E+02  0.11779301201E+02  0.23333377028E+02  0.40659157656E+02  0.00000000000E+00 0. -1.
         11    1    3    3    0    0  0.93300295207E+01  0.40524679858E+01 -0.52411326232E+01  0.11442963736E+02  0.51100000000E-03 0. -1.
        -11    1    3    3    0    0  0.23829263817E+02 -0.12660038254E+02 -0.21115254467E+02  0.34263163224E+02  0.51100000000E-03 0.  1.
         12    1    3    3    0    0 -0.20149731335E+01 -0.31717309323E+01  0.30230100621E+01  0.48227153836E+01  0.00000000000E+00 0. -1.
</event>
<event>
 7    1  0.2891523E-011  0.5052885E+02  0.7816164E-02  0.1300439E+00
        -11   -1    0    0    0    0  0.00000000000E+00  0.00000000000E+00  0.45593999997E+02  0.45594000000E+02  0.51100000000E-03 0. -1.
         11   -1    0    0    0    0 -0.00000000000E+00 -0.00000000000E+00 -0.45593999997E+02  0.45594000000E+02  0.51100000000E-03 0.  1.
    9900012    2    1    2    0    0  0.97404109654E+01  0.32201121821E+02 -0.22833715592E+02  0.50528850721E+02  0.29999972253E+02 0.  0.
         12    1    1    2    0    0 -0.97404109654E+01 -0.32201121821E+02  0.22833715592E+02  0.40659149279E+02  0.00000000000E+00 0. -1.
         11    1    3    3    0    0 -0.23694734568E+01 -0.23900562831E+01 -0.72569950115E+01  0.79994218764E+01  0.51100000000E-03 0. -1.
        -11    1    3    3    0    0  0.14919825722E+02  0.23200369658E+02 -0.86652027489E+01  0.28912697743E+02  0.51100000000E-03 0.  1.
         12    1    3    3    0    0 -0.28099412997E+01  0.11390808446E+02 -0.69115178321E+01  0.13616731102E+02  0.00000000000E+00 0. -1.
</event>
<event>
 7    1  0.2891523E-011  0.5052887E+02  0.7816164E-02  0.1300439E+00
        -11   -1    0    0    0    0  0.00000000000E+00  0.00000000000E+00  0.45593999997E+02  0.45594000000E+02  0.51100000000E-03 0.  1.
         11   -1    0    0    0    0 -0.00000000000E+00 -0.00000000000E+00 -0.45593999997E+02  0.45594000000E+02  0.51100000000E-03 0. -1.
    9900012    2    1    2    0    0 -0.16742294867E+02  0.19193410085E+02  0.31693423265E+02  0.50528874255E+02  0.30000043785E+02 0.  0.
         12    1    1    2    0    0  0.16742294867E+02 -0.19193410085E+02 -0.31693423265E+02  0.40659125745E+02  0.00000000000E+00 0. -1.
         11    1    3    3    0    0 -0.29260697206E+01  0.14414521472E+02  0.15640551722E+01  0.14791436108E+02  0.51100000000E-03 0. -1.
        -11    1    3    3    0    0 -0.12673942097E+02  0.83871742575E+01  0.26150284734E+02  0.30245840908E+02  0.51100000000E-03 0.  1.
         12    1    3    3    0    0 -0.11422830491E+01 -0.36082856448E+01  0.39790833583E+01  0.54915972386E+01  0.00000000000E+00 0. -1.
</event>
<event>
 7    1  0.2891523E-011  0.5052887E+02  0.7816164E-02  0.1300439E+00
        -11   -1    0    0    0    0  0.00000000000E+00  0.00000000000E+00  0.45593999997E+02  0.45594000000E+02  0.51100000000E-03 0.  1.
         11   -1    0    0    0    0 -0.00000000000E+00 -0.00000000000E+00 -0.45593999997E+02  0.45594000000E+02  0.51100000000E-03 0. -1.
    9900012    2    1    2    0    0 -0.35341101972E+02  0.12926551341E+02  0.15397263258E+02  0.50528868996E+02  0.30000027799E+02 0.  0.
         12    1    1    2    0    0  0.35341101972E+02 -0.12926551341E+02 -0.15397263258E+02  0.40659131004E+02  0.00000000000E+00 0. -1.
         11    1    3    3    0    0 -0.22328456572E+02  0.14766671529E+02 -0.96491361207E+00  0.26787042007E+02  0.51100000000E-03 0.  1.
        -11    1    3    3    0    0  0.84211481820E+00 -0.22278444181E+01  0.11298243037E+00  0.23843685556E+01  0.51100000000E-03 0. -1.
         12    1    3    3    0    0 -0.13854760218E+02  0.38772423102E+00  0.16249194440E+02  0.21357458433E+02  0.00000000000E+00 0. -1.
</event>
<event>
 7    1  0.2891523E-011  0.5052886E+02  0.7816164E-02  0.1300439E+00
        -11   -1    0    0    0    0  0.00000000000E+00  0.00000000000E+00  0.45593999997E+02  0.45594000000E+02  0.51100000000E-03 0.  1.
         11   -1    0    0    0    0 -0.00000000000E+00 -0.00000000000E+00 -0.45593999997E+02  0.45594000000E+02  0.51100000000E-03 0. -1.
    9900012    2    1    2    0    0 -0.28740553262E+02 -0.25599722277E+02  0.13107280356E+02  0.50528856123E+02  0.29999988673E+02 0.  0.
         12    1    1    2    0    0  0.28740553262E+02  0.25599722277E+02 -0.13107280356E+02  0.40659143877E+02  0.00000000000E+00 0. -1.
         11    1    3    3    0    0 -0.78937418880E+01 -0.17749506314E+02  0.32337933216E+00  0.19428348098E+02  0.51100000000E-03 0. -1.
        -11    1    3    3    0    0 -0.13840935118E+01 -0.45673482168E+00  0.99881240032E+01  0.10093906227E+02  0.51100000000E-03 0.  1.
        -12    1    3    3    0    0 -0.19462717862E+02 -0.73934811412E+01  0.27957770206E+01  0.21006601799E+02  0.00000000000E+00 0.  1.
</event>
<event>
 7    1  0.2891523E-011  0.5052887E+02  0.7816164E-02  0.1300439E+00
        -11   -1    0    0    0    0  0.00000000000E+00  0.00000000000E+00  0.45593999997E+02  0.45594000000E+02  0.51100000000E-03 0.  1.
         11   -1    0    0    0    0 -0.00000000000E+00 -0.00000000000E+00 -0.45593999997E+02  0.45594000000E+02  0.51100000000E-03 0. -1.
    9900012    2    1    2    0    0 -0.37055633922E+01  0.14508278866E+02  0.37801371461E+02  0.50528867692E+02  0.30000023836E+02 0.  0.
         12    1    1    2    0    0  0.37055633922E+01 -0.14508278866E+02 -0.37801371461E+02  0.40659132308E+02  0.00000000000E+00 0. -1.
         11    1    3    3    0    0 -0.10767894337E+02  0.15735029882E+02  0.28327242049E+02  0.34146322733E+02  0.51100000000E-03 0. -1.
        -11    1    3    3    0    0  0.77227132857E+01  0.15286705702E+01  0.16261756573E+01  0.80387549866E+01  0.51100000000E-03 0.  1.
         12    1    3    3    0    0 -0.66038234102E+00 -0.27554215868E+01  0.78479537549E+01  0.83437899720E+01  0.00000000000E+00 0. -1.
</event>
<event>
 7    1  0.2891523E-011  0.5052886E+02  0.7816164E-02  0.1300439E+00
        -11   -1    0    0    0    0  0.00000000000E+00  0.00000000000E+00  0.45593999997E+02  0.45594000000E+02  0.51100000000E-03 0. -1.
         11   -1    0    0    0    0 -0.00000000000E+00 -0.00000000000E+00 -0.45593999997E+02  0.45594000000E+02  0.51100000000E-03 0.  1.
    9900012    2    1    2    0    0  0.22299716732E+02  0.33801864867E+02 -0.36499470820E+01  0.50528861439E+02  0.30000004830E+02 0.  0.
         12    1    1    2    0    0 -0.22299716732E+02 -0.33801864867E+02  0.36499470820E+01  0.40659138561E+02  0.00000000000E+00 0. -1.
         11    1    3    3    0    0  0.11714255800E+02  0.23225680618E+02 -0.82715619765E+01  0.27296057718E+02  0.51100000000E-03 0. -1.
        -11    1    3    3    0    0  0.13886936065E+02  0.38848489418E+01 -0.67458123858E-01  0.14420249493E+02  0.51100000000E-03 0.  1.
         12    1    3    3    0    0 -0.33014751341E+01  0.66913353073E+01  0.46890730184E+01  0.88125542284E+01  0.00000000000E+00 0. -1.
</event>
<event>
 7    1  0.2891523E-011  0.5052885E+02  0.7816164E-02  0.1300439E+00
        -11   -1    0    0    0    0  0.00000000000E+00  0.00000000000E+00  0.45593999997E+02  0.45594000000E+02  0.51100000000E-03 0. -1.
         11   -1    0    0    0    0 -0.00000000000E+00 -0.00000000000E+00 -0.45593999997E+02  0.45594000000E+02  0.51100000000E-03 0.  1.
    9900012    2    1    2    0    0  0.24884151460E+01 -0.72225126001E+00 -0.40576500660E+02  0.50528852658E+02  0.29999978138E+02 0.  0.
         12    1    1    2    0    0 -0.24884151460E+01  0.72225126001E+00  0.40576500660E+02  0.40659147342E+02  0.00000000000E+00 0. -1.
         11    1    3    3    0    0 -0.24710053346E+01 -0.20019943361E+00  0.32532353425E+01  0.40901696336E+01  0.51100000000E-03 0. -1.
        -11    1    3    3    0    0  0.89198689987E+01 -0.25350315212E+01 -0.37965698664E+02  0.39081769703E+02  0.51100000000E-03 0.  1.
         12    1    3    3    0    0 -0.39604485181E+01  0.20129796948E+01 -0.58640373379E+01  0.73569133213E+01  0.00000000000E+00 0. -1.
</event>
<event>
 7    1  0.2891523E-011  0.5052886E+02  0.7816164E-02  0.1300439E+00
        -11   -1    0    0    0    0  0.00000000000E+00  0.00000000000E+00  0.45593999997E+02  0.45594000000E+02  0.51100000000E-03 0.  1.
         11   -1    0    0    0    0 -0.00000000000E+00 -0.00000000000E+00 -0.45593999997E+02  0.45594000000E+02  0.51100000000E-03 0. -1.
    9900012    2    1    2    0    0 -0.37090721910E+02 -0.25830950109E+01 -0.16455150262E+02  0.50528855865E+02  0.29999987886E+02 0.  0.
         12    1    1    2    0    0  0.37090721910E+02  0.25830950109E+01  0.16455150262E+02  0.40659144135E+02  0.00000000000E+00 0. -1.
         11    1    3    3    0    0 -0.55232458879E+01 -0.15051253903E+01 -0.13224466471E+02  0.14410349103E+02  0.51100000000E-03 0. -1.
        -11    1    3    3    0    0 -0.22575366369E+02 -0.86918933385E+01 -0.21041740459E+01  0.24282168873E+02  0.51100000000E-03 0.  1.
        -12    1    3    3    0    0 -0.89921096536E+01  0.76139237179E+01 -0.11265097459E+01  0.11836337889E+02  0.00000000000E+00 0.  1.
</event>
<event>
 7    1  0.2891523E-011  0.5052888E+02  0.7816164E-02  0.1300439E+00
        -11   -1    0    0    0    0  0.00000000000E+00  0.00000000000E+00  0.45593999997E+02  0.45594000000E+02  0.51100000000E-03 0. -1.
         11   -1    0    0    0    0 -0.00000000000E+00 -0.00000000000E+00 -0.45593999997E+02  0.45594000000E+02  0.51100000000E-03 0.  1.
    9900012    2    1    2    0    0 -0.29792345535E+02 -0.20233377460E+02 -0.18873021119E+02  0.50528876275E+02  0.30000049926E+02 0.  0.
         12    1    1    2    0    0  0.29792345535E+02  0.20233377460E+02  0.18873021119E+02  0.40659123725E+02  0.00000000000E+00 0. -1.
         11    1    3    3    0    0  0.27262659868E+01  0.76016881541E+00  0.31914384379E+01  0.42656373993E+01  0.51100000000E-03 0. -1.
        -11    1    3    3    0    0 -0.12174930578E+02 -0.11853636815E+02 -0.37418525587E+01  0.17399399448E+02  0.51100000000E-03 0.  1.
         12    1    3    3    0    0 -0.20343680944E+02 -0.91399094605E+01 -0.18322606998E+02  0.28863839428E+02  0.00000000000E+00 0. -1.
</event>
<event>
 7    1  0.2891523E-011  0.5052886E+02  0.7816164E-02  0.1300439E+00
        -11   -1    0    0    0    0  0.00000000000E+00  0.00000000000E+00  0.45593999997E+02  0.45594000000E+02  0.51100000000E-03 0. -1.
         11   -1    0    0    0    0 -0.00000000000E+00 -0.00000000000E+00 -0.45593999997E+02  0.45594000000E+02  0.51100000000E-03 0.  1.
    9900012    2    1    2    0    0  0.84276737300E+01 -0.38974364739E+02  0.79459915936E+01  0.50528861130E+02  0.30000003889E+02 0.  0.
         12    1    1    2    0    0 -0.84276737300E+01  0.38974364739E+02 -0.79459915936E+01  0.40659138870E+02  0.00000000000E+00 0. -1.
         11    1    3    3    0    0  0.76438441307E+01 -0.22887764697E+02  0.10857441829E+02  0.26460577644E+02  0.51100000000E-03 0. -1.
        -11    1    3    3    0    0 -0.61817940615E+01 -0.14270631729E+02 -0.53831109495E+01  0.16457320302E+02  0.51100000000E-03 0.  1.
         12    1    3    3    0    0  0.69656236608E+01 -0.18159683125E+01  0.24716607146E+01  0.76109631838E+01  0.00000000000E+00 0. -1.
</event>
<event>
 7    1  0.2891523E-011  0.5052885E+02  0.7816164E-02  0.1300439E+00
        -11   -1    0    0    0    0  0.00000000000E+00  0.00000000000E+00  0.45593999997E+02  0.45594000000E+02  0.51100000000E-03 0.  1.
         11   -1    0    0    0    0 -0.00000000000E+00 -0.00000000000E+00 -0.45593999997E+02  0.45594000000E+02  0.51100000000E-03 0. -1.
    9900012    2    1    2    0    0 -0.36968043998E+02 -0.16477340903E+02  0.38765071668E+01  0.50528851606E+02  0.29999974943E+02 0.  0.
         12    1    1    2    0    0  0.36968043998E+02  0.16477340903E+02 -0.38765071668E+01  0.40659148394E+02  0.00000000000E+00 0. -1.
         11    1    3    3    0    0 -0.26461743674E+02 -0.11035706191E+01  0.17904977721E+01  0.26545199734E+02  0.51100000000E-03 0. -1.
        -11    1    3    3    0    0 -0.13984036172E+02 -0.12756925846E+02  0.37995307827E+01  0.19306187069E+02  0.51100000000E-03 0.  1.
         12    1    3    3    0    0  0.34777358483E+01 -0.26168444382E+01 -0.17135213880E+01  0.46774648039E+01  0.00000000000E+00 0. -1.
</event>
<event>
 7    1  0.2931657E-011  0.5052887E+02  0.7816164E-02  0.1300439E+00
        -11   -1    0    0    0    0  0.00000000000E+00  0.00000000000E+00  0.45593999997E+02  0.45594000000E+02  0.51100000000E-03 0. -1.
         11   -1    0    0    0    0 -0.00000000000E+00 -0.00000000000E+00 -0.45593999997E+02  0.45594000000E+02  0.51100000000E-03 0.  1.
    9900012    2    1    2    0    0 -0.62481470462E+01  0.49161883375E+01 -0.39874262605E+02  0.50528867354E+02  0.30000022808E+02 0.  0.
         12    1    1    2    0    0  0.62481470462E+01 -0.49161883375E+01  0.39874262605E+02  0.40659132646E+02  0.00000000000E+00 0. -1.
         11    1    3    3    0    0  0.55606227064E+01  0.23268873107E+01 -0.21350174002E+01  0.63947813879E+01  0.51100000000E-03 0. -1.
        -11    1    3    3    0    0 -0.84016596184E+01  0.10663262515E+02 -0.27414632621E+02  0.30591749440E+02  0.51100000000E-03 0.  1.
        -12    1    3    3    0    0 -0.34071101341E+01 -0.80739614878E+01 -0.10324612583E+02  0.13542336525E+02  0.00000000000E+00 0.  1.
</event>
<event>
 7    1  0.2891523E-011  0.5052886E+02  0.7816164E-02  0.1300439E+00
        -11   -1    0    0    0    0  0.00000000000E+00  0.00000000000E+00  0.45593999997E+02  0.45594000000E+02  0.51100000000E-03 0.  1.
         11   -1    0    0    0    0 -0.00000000000E+00 -0.00000000000E+00 -0.45593999997E+02  0.45594000000E+02  0.51100000000E-03 0. -1.
    9900012    2    1    2    0    0  0.18918499129E+02 -0.57038858262E+01  0.35534795359E+02  0.50528860757E+02  0.30000002756E+02 0.  0.
         12    1    1    2    0    0 -0.18918499129E+02  0.57038858262E+01 -0.35534795359E+02  0.40659139243E+02  0.00000000000E+00 0. -1.
         11    1    3    3    0    0 -0.14276295617E+00  0.72707082906E+01  0.12838890590E+02  0.14755361471E+02  0.51100000000E-03 0. -1.
        -11    1    3    3    0    0  0.15077165744E+02 -0.29949021006E+01  0.18934463344E+02  0.24388609388E+02  0.51100000000E-03 0.  1.
        -12    1    3    3    0    0  0.39840963411E+01 -0.99796920162E+01  0.37614414251E+01  0.11384889898E+02  0.00000000000E+00 0.  1.
</event>
<event>
 7    1  0.2891523E-011  0.5052886E+02  0.7816164E-02  0.1300439E+00
        -11   -1    0    0    0    0  0.00000000000E+00  0.00000000000E+00  0.45593999997E+02  0.45594000000E+02  0.51100000000E-03 0. -1.
         11   -1    0    0    0    0 -0.00000000000E+00 -0.00000000000E+00 -0.45593999997E+02  0.45594000000E+02  0.51100000000E-03 0.  1.
    9900012    2    1    2    0    0  0.39286756498E+00  0.14967779884E+02 -0.37801814142E+02  0.50528856723E+02  0.29999990496E+02 0.  0.
         12    1    1    2    0    0 -0.39286756498E+00 -0.14967779884E+02  0.37801814142E+02  0.40659143277E+02  0.00000000000E+00 0. -1.
         11    1    3    3    0    0  0.40173254713E+01 -0.63825751996E+01 -0.12366497445E+02  0.14484696387E+02  0.51100000000E-03 0.  1.
        -11    1    3    3    0    0 -0.72516285421E+01  0.18110332280E+02 -0.15264979451E+02  0.24770745844E+02  0.51100000000E-03 0. -1.
        -12    1    3    3    0    0  0.36271706358E+01  0.32400228037E+01 -0.10170337247E+02  0.11273414492E+02  0.00000000000E+00 0.  1.
</event>
<event>
 7    1  0.2891523E-011  0.5052886E+02  0.7816164E-02  0.1300439E+00
        -11   -1    0    0    0    0  0.00000000000E+00  0.00000000000E+00  0.45593999997E+02  0.45594000000E+02  0.51100000000E-03 0.  1.
         11   -1    0    0    0    0 -0.00000000000E+00 -0.00000000000E+00 -0.45593999997E+02  0.45594000000E+02  0.51100000000E-03 0. -1.
    9900012    2    1    2    0    0  0.23457347243E+02 -0.31529161335E+02  0.10432182062E+02  0.50528861092E+02  0.30000003776E+02 0.  0.
         12    1    1    2    0    0 -0.23457347243E+02  0.31529161335E+02 -0.10432182062E+02  0.40659138908E+02  0.00000000000E+00 0. -1.
         11    1    3    3    0    0  0.13229941401E+02 -0.51356267632E+01 -0.64694801738E+01  0.15596800496E+02  0.51100000000E-03 0. -1.
        -11    1    3    3    0    0  0.15043539935E+01 -0.47609462926E+01  0.90228953459E+01  0.10312241814E+02  0.51100000000E-03 0.  1.
         12    1    3    3    0    0  0.87230518487E+01 -0.21632588279E+02  0.78787668904E+01  0.24619818783E+02  0.00000000000E+00 0. -1.
</event>
<event>
 7    1  0.2891523E-011  0.5052887E+02  0.7816164E-02  0.1300439E+00
        -11   -1    0    0    0    0  0.00000000000E+00  0.00000000000E+00  0.45593999997E+02  0.45594000000E+02  0.51100000000E-03 0.  1.
         11   -1    0    0    0    0 -0.00000000000E+00 -0.00000000000E+00 -0.45593999997E+02  0.45594000000E+02  0.51100000000E-03 0. -1.
    9900012    2    1    2    0    0  0.74017451831E+01 -0.36080878041E+02  0.17220606292E+02  0.50528869746E+02  0.30000030079E+02 0.  0.
         12    1    1    2    0    0 -0.74017451831E+01  0.36080878041E+02 -0.17220606292E+02  0.40659130254E+02  0.00000000000E+00 0. -1.
         11    1    3    3    0    0 -0.51076497454E+01 -0.17255265176E+01 -0.54923890058E+00  0.54191504238E+01  0.51100000000E-03 0. -1.
        -11    1    3    3    0    0  0.82793905989E+01 -0.25381960044E+02  0.21734452909E+02  0.34426423687E+02  0.51100000000E-03 0.  1.
        -12    1    3    3    0    0  0.42300043296E+01 -0.89733914793E+01 -0.39646077165E+01  0.10683295634E+02  0.00000000000E+00 0.  1.
</event>
<event>
 7    1  0.2891523E-011  0.5052884E+02  0.7816164E-02  0.1300439E+00
        -11   -1    0    0    0    0  0.00000000000E+00  0.00000000000E+00  0.45593999997E+02  0.45594000000E+02  0.51100000000E-03 0. -1.
         11   -1    0    0    0    0 -0.00000000000E+00 -0.00000000000E+00 -0.45593999997E+02  0.45594000000E+02  0.51100000000E-03 0.  1.
    9900012    2    1    2    0    0 -0.12552285010E+02 -0.38672566965E+02  0.19915116378E+00  0.50528844133E+02  0.29999952227E+02 0.  0.
         12    1    1    2    0    0  0.12552285010E+02  0.38672566965E+02 -0.19915116378E+00  0.40659155867E+02  0.00000000000E+00 0. -1.
         11    1    3    3    0    0  0.51507353378E+01 -0.20257161159E+02  0.38831855983E+01  0.21259392827E+02  0.51100000000E-03 0. -1.
        -11    1    3    3    0    0 -0.16012864906E+02 -0.19479303278E+02 -0.62874882853E+01  0.25988220561E+02  0.51100000000E-03 0.  1.
         12    1    3    3    0    0 -0.16901554417E+01  0.10638974723E+01  0.26034538508E+01  0.32812307450E+01  0.00000000000E+00 0. -1.
</event>
<event>
 7    1  0.2891523E-011  0.5052883E+02  0.7816164E-02  0.1300439E+00
        -11   -1    0    0    0    0  0.00000000000E+00  0.00000000000E+00  0.45593999997E+02  0.45594000000E+02  0.51100000000E-03 0.  1.
         11   -1    0    0    0    0 -0.00000000000E+00 -0.00000000000E+00 -0.45593999997E+02  0.45594000000E+02  0.51100000000E-03 0. -1.
    9900012    2    1    2    0    0  0.19445884161E+02 -0.71803383954E+01  0.34978110532E+02  0.50528832686E+02  0.29999917431E+02 0.  0.
         12    1    1    2    0    0 -0.19445884161E+02  0.71803383954E+01 -0.34978110532E+02  0.40659167314E+02  0.00000000000E+00 0. -1.
         11    1    3    3    0    0  0.12927302307E+01 -0.30633231476E+01  0.17248749359E+02  0.17566287452E+02  0.51100000000E-03 0. -1.
        -11    1    3    3    0    0  0.17043426249E+02 -0.10353250831E+02  0.82927574334E+01  0.21597175907E+02  0.51100000000E-03 0.  1.
         12    1    3    3    0    0  0.11097276817E+01  0.62362355827E+01  0.94366037406E+01  0.11365369326E+02  0.00000000000E+00 0. -1.
</event>
<event>
 7    1  0.2891523E-011  0.5052886E+02  0.7816164E-02  0.1300439E+00
        -11   -1    0    0    0    0  0.00000000000E+00  0.00000000000E+00  0.45593999997E+02  0.45594000000E+02  0.51100000000E-03 0. -1.
         11   -1    0    0    0    0 -0.00000000000E+00 -0.00000000000E+00 -0.45593999997E+02  0.45594000000E+02  0.51100000000E-03 0.  1.
    9900012    2    1    2    0    0  0.29271628638E+01 -0.63689581105E+01 -0.40050393838E+02  0.50528856423E+02  0.29999989584E+02 0.  0.
         12    1    1    2    0    0 -0.29271628638E+01  0.63689581105E+01  0.40050393838E+02  0.40659143577E+02  0.00000000000E+00 0. -1.
         11    1    3    3    0    0  0.99986707325E+01 -0.93540304369E+01 -0.13701938084E+02  0.19370451966E+02  0.51100000000E-03 0. -1.
        -11    1    3    3    0    0 -0.41770583982E+01  0.89092344342E+01 -0.18066834996E+02  0.20572622635E+02  0.51100000000E-03 0.  1.
        -12    1    3    3    0    0 -0.28944494705E+01 -0.59241621078E+01 -0.82816207579E+01  0.10585781823E+02  0.00000000000E+00 0.  1.
</event>
<event>
 7    1  0.2891523E-011  0.5052885E+02  0.7816164E-02  0.1300439E+00
        -11   -1    0    0    0    0  0.00000000000E+00  0.00000000000E+00  0.45593999997E+02  0.45594000000E+02  0.51100000000E-03 0.  1.
         11   -1    0    0    0    0 -0.00000000000E+00 -0.00000000000E+00 -0.45593999997E+02  0.45594000000E+02  0.51100000000E-03 0. -1.
    9900012    2    1    2    0    0 -0.23420627307E+02  0.32616276086E+02 -0.63889657097E+01  0.50528854264E+02  0.29999983020E+02 0.  0.
         12    1    1    2    0    0  0.23420627307E+02 -0.32616276086E+02  0.63889657097E+01  0.40659145736E+02  0.00000000000E+00 0. -1.
         11    1    3    3    0    0 -0.15399977930E+02  0.10433521371E+02 -0.13998840467E+02  0.23280576091E+02  0.51100000000E-03 0. -1.
        -11    1    3    3    0    0 -0.10054021136E+01  0.17571547268E+02  0.65809871761E+01  0.18790409769E+02  0.51100000000E-03 0.  1.
         12    1    3    3    0    0 -0.70152472630E+01  0.46112074471E+01  0.10288875816E+01  0.84578684039E+01  0.00000000000E+00 0. -1.
</event>
<event>
 7    1  0.2891523E-011  0.5052887E+02  0.7816164E-02  0.1300439E+00
        -11   -1    0    0    0    0  0.00000000000E+00  0.00000000000E+00  0.45593999997E+02  0.45594000000E+02  0.51100000000E-03 0. -1.
         11   -1    0    0    0    0 -0.00000000000E+00 -0.00000000000E+00 -0.45593999997E+02  0.45594000000E+02  0.51100000000E-03 0.  1.
    9900012    2    1    2    0    0  0.40517144689E+02 -0.11190187049E+01  0.32052932635E+01  0.50528866690E+02  0.30000020792E+02 0.  0.
         12    1    1    2    0    0 -0.40517144689E+02  0.11190187049E+01 -0.32052932635E+01  0.40659133310E+02  0.00000000000E+00 0. -1.
         11    1    3    3    0    0 -0.93553235598E+00  0.66403993766E+01  0.44389327321E+01  0.80420301375E+01  0.51100000000E-03 0. -1.
        -11    1    3    3    0    0  0.38483152915E+02 -0.69413259929E+01  0.16380616544E+00  0.39104499709E+02  0.51100000000E-03 0.  1.
         12    1    3    3    0    0  0.29695241299E+01 -0.81809208862E+00 -0.13974456341E+01  0.33823368437E+01  0.00000000000E+00 0. -1.
</event>
<event>
 7    1  0.2891523E-011  0.5052885E+02  0.7816164E-02  0.1300439E+00
        -11   -1    0    0    0    0  0.00000000000E+00  0.00000000000E+00  0.45593999997E+02  0.45594000000E+02  0.51100000000E-03 0.  1.
         11   -1    0    0    0    0 -0.00000000000E+00 -0.00000000000E+00 -0.45593999997E+02  0.45594000000E+02  0.51100000000E-03 0. -1.
    9900012    2    1    2    0    0 -0.40231239765E+02 -0.55305606203E+01 -0.20066290229E+01  0.50528852027E+02  0.29999976223E+02 0.  0.
         12    1    1    2    0    0  0.40231239765E+02  0.55305606203E+01  0.20066290229E+01  0.40659147973E+02  0.00000000000E+00 0. -1.
         11    1    3    3    0    0 -0.77285138088E+01 -0.10441656757E+02 -0.77937310375E+01  0.15149269463E+02  0.51100000000E-03 0. -1.
        -11    1    3    3    0    0 -0.62803786071E+01  0.54945257220E+01  0.35076498480E+01  0.90518824603E+01  0.51100000000E-03 0.  1.
         12    1    3    3    0    0 -0.26222347349E+02 -0.58342958554E+00  0.22794521667E+01  0.26327700104E+02  0.00000000000E+00 0. -1.
</event>
<event>
 7    1  0.2891523E-011  0.5052886E+02  0.7816164E-02  0.1300439E+00
        -11   -1    0    0    0    0  0.00000000000E+00  0.00000000000E+00  0.45593999997E+02  0.45594000000E+02  0.51100000000E-03 0.  1.
         11   -1    0    0    0    0 -0.00000000000E+00 -0.00000000000E+00 -0.45593999997E+02  0.45594000000E+02  0.51100000000E-03 0. -1.
    9900012    2    1    2    0    0 -0.23485604335E+02 -0.69527559739E+01  0.32453829177E+02  0.50528862591E+02  0.30000008332E+02 0.  0.
         12    1    1    2    0    0  0.23485604335E+02  0.69527559739E+01 -0.32453829177E+02  0.40659137409E+02  0.00000000000E+00 0. -1.
         11    1    3    3    0    0 -0.11963049901E+02 -0.88276906030E+01 -0.11321944095E+01  0.14910551591E+02  0.51100000000E-03 0. -1.
        -11    1    3    3    0    0 -0.71471112762E+01  0.75940977965E+00  0.17716552225E+02  0.19118946775E+02  0.51100000000E-03 0.  1.
         12    1    3    3    0    0 -0.43754431576E+01  0.11155248494E+01  0.15869471362E+02  0.16499364224E+02  0.00000000000E+00 0. -1.
</event>
<event>
 7    1  0.2891523E-011  0.5052886E+02  0.7816164E-02  0.1300439E+00
        -11   -1    0    0    0    0  0.00000000000E+00  0.00000000000E+00  0.45593999997E+02  0.45594000000E+02  0.51100000000E-03 0. -1.
         11   -1    0    0    0    0 -0.00000000000E+00 -0.00000000000E+00 -0.45593999997E+02  0.45594000000E+02  0.51100000000E-03 0.  1.
    9900012    2    1    2    0    0 -0.92449449108E+01  0.22875133382E+02 -0.32317562036E+02  0.50528861426E+02  0.30000004789E+02 0.  0.
         12    1    1    2    0    0  0.92449449108E+01 -0.22875133382E+02  0.32317562036E+02  0.40659138574E+02  0.00000000000E+00 0. -1.
         11    1    3    3    0    0  0.84883569552E+01 -0.32971576395E+00 -0.37583258309E+01  0.92890219935E+01  0.51100000000E-03 0. -1.
        -11    1    3    3    0    0 -0.32542089252E+01  0.75996774629E+01 -0.10194466511E+02  0.13125247464E+02  0.51100000000E-03 0.  1.
         12    1    3    3    0    0 -0.14479092941E+02  0.15605171683E+02 -0.18364769694E+02  0.28114591968E+02  0.00000000000E+00 0. -1.
</event>
<event>
 7    1  0.2891523E-011  0.5052888E+02  0.7816164E-02  0.1300439E+00
        -11   -1    0    0    0    0  0.00000000000E+00  0.00000000000E+00  0.45593999997E+02  0.45594000000E+02  0.51100000000E-03 0. -1.
         11   -1    0    0    0    0 -0.00000000000E+00 -0.00000000000E+00 -0.45593999997E+02  0.45594000000E+02  0.51100000000E-03 0.  1.
    9900012    2    1    2    0    0  0.39088325444E+02  0.63931326049E+01  0.91866470284E+01  0.50528882767E+02  0.30000069659E+02 0.  0.
         12    1    1    2    0    0 -0.39088325444E+02 -0.63931326049E+01 -0.91866470284E+01  0.40659117233E+02  0.00000000000E+00 0. -1.
         11    1    3    3    0    0  0.41253377582E+02  0.63945279280E+01  0.12546433625E+02  0.43590642875E+02  0.51100000000E-03 0. -1.
        -11    1    3    3    0    0 -0.87905285245E+00 -0.27594304156E+01 -0.23575492653E+01  0.37343311229E+01  0.51100000000E-03 0.  1.
         12    1    3    3    0    0 -0.12859992852E+01  0.27580350925E+01 -0.10022373309E+01  0.32039087690E+01  0.00000000000E+00 0. -1.
</event>
<event>
 7    1  0.2891523E-011  0.5052887E+02  0.7816164E-02  0.1300439E+00
        -11   -1    0    0    0    0  0.00000000000E+00  0.00000000000E+00  0.45593999997E+02  0.45594000000E+02  0.51100000000E-03 0.  1.
         11   -1    0    0    0    0 -0.00000000000E+00 -0.00000000000E+00 -0.45593999997E+02  0.45594000000E+02  0.51100000000E-03 0. -1.
    9900012    2    1    2    0    0 -0.95151878843E+01 -0.29396206362E+02  0.26428949239E+02  0.50528866871E+02  0.30000021340E+02 0.  0.
         12    1    1    2    0    0  0.95151878843E+01  0.29396206362E+02 -0.26428949239E+02  0.40659133129E+02  0.00000000000E+00 0. -1.
         11    1    3    3    0    0 -0.12669810864E+02 -0.10002028961E+02  0.19476509544E+02  0.25296227287E+02  0.51100000000E-03 0. -1.
        -11    1    3    3    0    0  0.70763569910E+01 -0.78240572666E+01 -0.10911367453E+01  0.10605719213E+02  0.51100000000E-03 0.  1.
         12    1    3    3    0    0 -0.39217340111E+01 -0.11570120134E+02  0.80435764409E+01  0.14626920371E+02  0.00000000000E+00 0. -1.
</event>
<event>
 7    1  0.2891523E-011  0.5052886E+02  0.7816164E-02  0.1300439E+00
        -11   -1    0    0    0    0  0.00000000000E+00  0.00000000000E+00  0.45593999997E+02  0.45594000000E+02  0.51100000000E-03 0. -1.
         11   -1    0    0    0    0 -0.00000000000E+00 -0.00000000000E+00 -0.45593999997E+02  0.45594000000E+02  0.51100000000E-03 0.  1.
    9900012    2    1    2    0    0 -0.12454275474E+02  0.34862331350E+02  0.16812916743E+02  0.50528864567E+02  0.30000014339E+02 0.  0.
         12    1    1    2    0    0  0.12454275474E+02 -0.34862331350E+02 -0.16812916743E+02  0.40659135433E+02  0.00000000000E+00 0. -1.
         11    1    3    3    0    0 -0.13387246389E+02  0.13598472729E+01  0.82067546858E+01  0.15761293514E+02  0.51100000000E-03 0. -1.
        -11    1    3    3    0    0  0.14927296284E+01  0.19646587319E+02  0.36315374229E+01  0.20035086707E+02  0.51100000000E-03 0.  1.
         12    1    3    3    0    0 -0.55975871299E+00  0.13855896758E+02  0.49746246338E+01  0.14732484347E+02  0.00000000000E+00 0. -1.
</event>
<event>
 7    1  0.2891523E-011  0.5052885E+02  0.7816164E-02  0.1300439E+00
        -11   -1    0    0    0    0  0.00000000000E+00  0.00000000000E+00  0.45593999997E+02  0.45594000000E+02  0.51100000000E-03 0. -1.
         11   -1    0    0    0    0 -0.00000000000E+00 -0.00000000000E+00 -0.45593999997E+02  0.45594000000E+02  0.51100000000E-03 0.  1.
    9900012    2    1    2    0    0 -0.29971696901E+02  0.97058735007E+01 -0.25703298797E+02  0.50528853863E+02  0.29999981803E+02 0.  0.
         12    1    1    2    0    0  0.29971696901E+02 -0.97058735007E+01  0.25703298797E+02  0.40659146137E+02  0.00000000000E+00 0. -1.
         11    1    3    3    0    0 -0.46322027285E+01 -0.79215017797E+01  0.10041402150E+01  0.92312399165E+01  0.51100000000E-03 0. -1.
        -11    1    3    3    0    0 -0.54510355649E+01  0.71888035046E+01 -0.82561748239E+01  0.12229354339E+02  0.51100000000E-03 0.  1.
         12    1    3    3    0    0 -0.19888458607E+02  0.10438571776E+02 -0.18451264188E+02  0.29068259608E+02  0.00000000000E+00 0. -1.
</event>
<event>
 7    1  0.2891523E-011  0.5052887E+02  0.7816164E-02  0.1300439E+00
        -11   -1    0    0    0    0  0.00000000000E+00  0.00000000000E+00  0.45593999997E+02  0.45594000000E+02  0.51100000000E-03 0.  1.
         11   -1    0    0    0    0 -0.00000000000E+00 -0.00000000000E+00 -0.45593999997E+02  0.45594000000E+02  0.51100000000E-03 0. -1.
    9900012    2    1    2    0    0  0.11947173364E+02  0.19494928723E+02  0.33621095328E+02  0.50528865130E+02  0.30000016050E+02 0.  0.
         12    1    1    2    0    0 -0.11947173364E+02 -0.19494928723E+02 -0.33621095328E+02  0.40659134870E+02  0.00000000000E+00 0. -1.
         11    1    3    3    0    0  0.53618203709E+01  0.64638744589E+00 -0.28937454460E+01  0.61270463836E+01  0.51100000000E-03 0. -1.
        -11    1    3    3    0    0  0.57364161533E+01  0.21270599989E+02  0.28727249360E+02  0.36202206427E+02  0.51100000000E-03 0.  1.
         12    1    3    3    0    0  0.84893684001E+00 -0.24220587116E+01  0.77875914139E+01  0.81996123195E+01  0.00000000000E+00 0. -1.
</event>
<event>
 7    1  0.2891523E-011  0.5052887E+02  0.7816164E-02  0.1300439E+00
        -11   -1    0    0    0    0  0.00000000000E+00  0.00000000000E+00  0.45593999997E+02  0.45594000000E+02  0.51100000000E-03 0. -1.
         11   -1    0    0    0    0 -0.00000000000E+00 -0.00000000000E+00 -0.45593999997E+02  0.45594000000E+02  0.51100000000E-03 0.  1.
    9900012    2    1    2    0    0 -0.24228935894E+02  0.22955071576E+02 -0.23220434406E+02  0.50528865483E+02  0.30000017123E+02 0.  0.
         12    1    1    2    0    0  0.24228935894E+02 -0.22955071576E+02  0.23220434406E+02  0.40659134517E+02  0.00000000000E+00 0. -1.
         11    1    3    3    0    0 -0.14120085661E+01 -0.51907738211E+01 -0.27636924522E+01  0.60478010288E+01  0.51100000000E-03 0. -1.
        -11    1    3    3    0    0 -0.19345022489E+02  0.22444036928E+02 -0.22819990055E+02  0.37399420251E+02  0.51100000000E-03 0.  1.
         12    1    3    3    0    0 -0.34719048396E+01  0.57018084690E+01  0.23632481016E+01  0.70816442033E+01  0.00000000000E+00 0. -1.
</event>
<event>
 7    1  0.2891523E-011  0.5052886E+02  0.7816164E-02  0.1300439E+00
        -11   -1    0    0    0    0  0.00000000000E+00  0.00000000000E+00  0.45593999997E+02  0.45594000000E+02  0.51100000000E-03 0.  1.
         11   -1    0    0    0    0 -0.00000000000E+00 -0.00000000000E+00 -0.45593999997E+02  0.45594000000E+02  0.51100000000E-03 0. -1.
    9900012    2    1    2    0    0  0.93152853044E+00 -0.29080622419E+02  0.28400975569E+02  0.50528858852E+02  0.29999996966E+02 0.  0.
         12    1    1    2    0    0 -0.93152853044E+00  0.29080622419E+02 -0.28400975569E+02  0.40659141148E+02  0.00000000000E+00 0. -1.
         11    1    3    3    0    0 -0.97899926909E+01 -0.18139894178E+02  0.52628305705E+01  0.21274329685E+02  0.51100000000E-03 0. -1.
        -11    1    3    3    0    0  0.59948311738E+01 -0.62954611223E+01  0.20227275054E+02  0.22016209663E+02  0.51100000000E-03 0.  1.
        -12    1    3    3    0    0  0.47266900475E+01 -0.46452671178E+01  0.29108699441E+01  0.72383195033E+01  0.00000000000E+00 0.  1.
</event>
<event>
 7    1  0.2891523E-011  0.5052886E+02  0.7816164E-02  0.1300439E+00
        -11   -1    0    0    0    0  0.00000000000E+00  0.00000000000E+00  0.45593999997E+02  0.45594000000E+02  0.51100000000E-03 0.  1.
         11   -1    0    0    0    0 -0.00000000000E+00 -0.00000000000E+00 -0.45593999997E+02  0.45594000000E+02  0.51100000000E-03 0. -1.
    9900012    2    1    2    0    0 -0.80359770964E+01 -0.28216597184E+02  0.28149815975E+02  0.50528862971E+02  0.30000009486E+02 0.  0.
         12    1    1    2    0    0  0.80359770964E+01  0.28216597184E+02 -0.28149815975E+02  0.40659137029E+02  0.00000000000E+00 0. -1.
         11    1    3    3    0    0 -0.53146437242E+01 -0.94660176541E+00  0.17158453905E+02  0.17987607776E+02  0.51100000000E-03 0. -1.
        -11    1    3    3    0    0 -0.52592064377E+01 -0.27341150583E+02  0.11162433293E+02  0.29996627891E+02  0.51100000000E-03 0.  1.
        -12    1    3    3    0    0  0.25378730656E+01  0.71155163936E-01 -0.17107122320E+00  0.25446273043E+01  0.00000000000E+00 0.  1.
</event>
<event>
 7    1  0.2891523E-011  0.5052886E+02  0.7816164E-02  0.1300439E+00
        -11   -1    0    0    0    0  0.00000000000E+00  0.00000000000E+00  0.45593999997E+02  0.45594000000E+02  0.51100000000E-03 0. -1.
         11   -1    0    0    0    0 -0.00000000000E+00 -0.00000000000E+00 -0.45593999997E+02  0.45594000000E+02  0.51100000000E-03 0.  1.
    9900012    2    1    2    0    0 -0.20874263686E+02  0.29603484652E+02 -0.18467926242E+02  0.50528862187E+02  0.30000007104E+02 0.  0.
         12    1    1    2    0    0  0.20874263686E+02 -0.29603484652E+02  0.18467926242E+02  0.40659137813E+02  0.00000000000E+00 0. -1.
         11    1    3    3    0    0  0.15082163249E+01  0.21086297853E+02 -0.64841909251E+01  0.22112245608E+02  0.51100000000E-03 0. -1.
        -11    1    3    3    0    0  0.17424728024E+00 -0.11314439249E+01 -0.80014565345E-01  0.11475757324E+01  0.51100000000E-03 0.  1.
         12    1    3    3    0    0 -0.22556727291E+02  0.96486307238E+01 -0.11903720752E+02  0.27269040846E+02  0.00000000000E+00 0. -1.
</event>
<event>
 7    1  0.2891523E-011  0.5052886E+02  0.7816164E-02  0.1300439E+00
        -11   -1    0    0    0    0  0.00000000000E+00  0.00000000000E+00  0.45593999997E+02  0.45594000000E+02  0.51100000000E-03 0.  1.
         11   -1    0    0    0    0 -0.00000000000E+00 -0.00000000000E+00 -0.45593999997E+02  0.45594000000E+02  0.51100000000E-03 0. -1.
    9900012    2    1    2    0    0 -0.36573934063E+02  0.11685341757E+02  0.13377813255E+02  0.50528858933E+02  0.29999997213E+02 0.  0.
         12    1    1    2    0    0  0.36573934063E+02 -0.11685341757E+02 -0.13377813255E+02  0.40659141067E+02  0.00000000000E+00 0. -1.
         11    1    3    3    0    0 -0.27493376094E+01  0.92803387460E+00  0.13722800553E+02  0.14026238249E+02  0.51100000000E-03 0. -1.
        -11    1    3    3    0    0 -0.69131497225E+01 -0.27146994926E+00 -0.24583616350E+01  0.73422664899E+01  0.51100000000E-03 0.  1.
         12    1    3    3    0    0 -0.26911446731E+02  0.11028777832E+02  0.21133743380E+01  0.29160354194E+02  0.00000000000E+00 0. -1.
</event>
<event>
 7    1  0.2891523E-011  0.5052886E+02  0.7816164E-02  0.1300439E+00
        -11   -1    0    0    0    0  0.00000000000E+00  0.00000000000E+00  0.45593999997E+02  0.45594000000E+02  0.51100000000E-03 0. -1.
         11   -1    0    0    0    0 -0.00000000000E+00 -0.00000000000E+00 -0.45593999997E+02  0.45594000000E+02  0.51100000000E-03 0.  1.
    9900012    2    1    2    0    0 -0.22836102723E+02 -0.19466351418E+02 -0.27436091523E+02  0.50528861505E+02  0.30000005031E+02 0.  0.
         12    1    1    2    0    0  0.22836102723E+02  0.19466351418E+02  0.27436091523E+02  0.40659138495E+02  0.00000000000E+00 0. -1.
         11    1    3    3    0    0 -0.11526478362E+02  0.10389101094E+01 -0.44639697971E+01  0.12404276048E+02  0.51100000000E-03 0. -1.
        -11    1    3    3    0    0 -0.30280801002E+01 -0.79414158339E+01 -0.21362363231E+02  0.22990996446E+02  0.51100000000E-03 0.  1.
         12    1    3    3    0    0 -0.82815442600E+01 -0.12563845694E+02 -0.16097584950E+01  0.15133589011E+02  0.00000000000E+00 0. -1.
</event>
<event>
 7    1  0.2891523E-011  0.5052885E+02  0.7816164E-02  0.1300439E+00
        -11   -1    0    0    0    0  0.00000000000E+00  0.00000000000E+00  0.45593999997E+02  0.45594000000E+02  0.51100000000E-03 0.  1.
         11   -1    0    0    0    0 -0.00000000000E+00 -0.00000000000E+00 -0.45593999997E+02  0.45594000000E+02  0.51100000000E-03 0. -1.
    9900012    2    1    2    0    0  0.41694813609E+01 -0.62133976156E+01  0.39964679475E+02  0.50528849858E+02  0.29999969628E+02 0.  0.
         12    1    1    2    0    0 -0.41694813609E+01  0.62133976156E+01 -0.39964679475E+02  0.40659150142E+02  0.00000000000E+00 0. -1.
         11    1    3    3    0    0 -0.11922506656E+01  0.83623096082E+01  0.65998450148E+01  0.10719498035E+02  0.51100000000E-03 0. -1.
        -11    1    3    3    0    0  0.89351770448E+01 -0.11566387829E+02  0.31598164589E+02  0.34814691179E+02  0.51100000000E-03 0.  1.
         12    1    3    3    0    0 -0.35734450184E+01 -0.30093193947E+01  0.17666698717E+01  0.49946606445E+01  0.00000000000E+00 0. -1.
</event>
<event>
 7    1  0.2891523E-011  0.5052883E+02  0.7816164E-02  0.1300439E+00
        -11   -1    0    0    0    0  0.00000000000E+00  0.00000000000E+00  0.45593999997E+02  0.45594000000E+02  0.51100000000E-03 0.  1.
         11   -1    0    0    0    0 -0.00000000000E+00 -0.00000000000E+00 -0.45593999997E+02  0.45594000000E+02  0.51100000000E-03 0. -1.
    9900012    2    1    2    0    0  0.14151387852E+01  0.17265506601E+02  0.36784074283E+02  0.50528825675E+02  0.29999896121E+02 0.  0.
         12    1    1    2    0    0 -0.14151387852E+01 -0.17265506601E+02 -0.36784074283E+02  0.40659174325E+02  0.00000000000E+00 0. -1.
         11    1    3    3    0    0 -0.52516911404E+01  0.46837894231E+01  0.70718042272E+01  0.99764000763E+01  0.51100000000E-03 0. -1.
        -11    1    3    3    0    0  0.12089728277E+02  0.10639488859E+02  0.30738216083E+02  0.34701558772E+02  0.51100000000E-03 0.  1.
         12    1    3    3    0    0 -0.54228983512E+01  0.19422283187E+01 -0.10259460273E+01  0.58508668264E+01  0.00000000000E+00 0. -1.
</event>
<event>
 7    1  0.4257360E-011  0.5052889E+02  0.7816164E-02  0.1300439E+00
        -11   -1    0    0    0    0  0.00000000000E+00  0.00000000000E+00  0.45593999997E+02  0.45594000000E+02  0.51100000000E-03 0. -1.
         11   -1    0    0    0    0 -0.00000000000E+00 -0.00000000000E+00 -0.45593999997E+02  0.45594000000E+02  0.51100000000E-03 0.  1.
    9900012    2    1    2    0    0 -0.20005459270E+01  0.64385423143E+01 -0.40096207447E+02  0.50528894467E+02  0.30000105222E+02 0.  0.
         12    1    1    2    0    0  0.20005459270E+01 -0.64385423143E+01  0.40096207447E+02  0.40659105533E+02  0.00000000000E+00 0. -1.
         11    1    3    3    0    0 -0.25696216386E+01 -0.33379555109E+01  0.17861353769E+01  0.45754980280E+01  0.51100000000E-03 0. -1.
        -11    1    3    3    0    0 -0.72064235371E+01  0.64401299644E+01 -0.28753196767E+02  0.30334042572E+02  0.51100000000E-03 0.  1.
        -12    1    3    3    0    0  0.77754992487E+01  0.33363678608E+01 -0.13129146056E+02  0.15619353868E+02  0.00000000000E+00 0.  1.
</event>
<event>
 7    1  0.2891523E-011  0.5052896E+02  0.7816164E-02  0.1300438E+00
        -11   -1    0    0    0    0  0.00000000000E+00  0.00000000000E+00  0.45593999997E+02  0.45594000000E+02  0.51100000000E-03 0.  1.
         11   -1    0    0    0    0 -0.00000000000E+00 -0.00000000000E+00 -0.45593999997E+02  0.45594000000E+02  0.51100000000E-03 0. -1.
    9900012    2    1    2    0    0  0.21553721740E+02  0.16262071717E+02  0.30399665805E+02  0.50528959450E+02  0.30000302744E+02 0.  0.
         12    1    1    2    0    0 -0.21553721740E+02 -0.16262071717E+02 -0.30399665805E+02  0.40659040550E+02  0.00000000000E+00 0. -1.
         11    1    3    3    0    0  0.15730343093E+02  0.17299928990E+02  0.17743851946E+02  0.29352606682E+02  0.51100000000E-03 0. -1.
        -11    1    3    3    0    0 -0.42955064304E+01  0.21004149380E+01  0.85850847707E+01  0.98268407531E+01  0.51100000000E-03 0.  1.
         12    1    3    3    0    0  0.10118885077E+02 -0.31382722113E+01  0.40707290881E+01  0.11349512015E+02  0.00000000000E+00 0. -1.
</event>
<event>
 7    1  0.2891523E-011  0.5052887E+02  0.7816164E-02  0.1300439E+00
        -11   -1    0    0    0    0  0.00000000000E+00  0.00000000000E+00  0.45593999997E+02  0.45594000000E+02  0.51100000000E-03 0. -1.
         11   -1    0    0    0    0 -0.00000000000E+00 -0.00000000000E+00 -0.45593999997E+02  0.45594000000E+02  0.51100000000E-03 0.  1.
    9900012    2    1    2    0    0  0.24954626084E+01 -0.27148180824E+02 -0.30164782396E+02  0.50528866307E+02  0.30000019626E+02 0.  0.
         12    1    1    2    0    0 -0.24954626084E+01  0.27148180824E+02  0.30164782396E+02  0.40659133693E+02  0.00000000000E+00 0. -1.
         11    1    3    3    0    0 -0.24043858540E+01 -0.59762451616E+01  0.32976971252E+01  0.72368075943E+01  0.51100000000E-03 0. -1.
        -11    1    3    3    0    0  0.51466626407E+01 -0.20946103163E+02 -0.35330618277E+02  0.41394202035E+02  0.51100000000E-03 0.  1.
        -12    1    3    3    0    0 -0.24681417828E+00 -0.22583250028E+00  0.18681387559E+01  0.18978566774E+01  0.00000000000E+00 0.  1.
</event>
<event>
 7    1  0.2891523E-011  0.5052887E+02  0.7816164E-02  0.1300439E+00
        -11   -1    0    0    0    0  0.00000000000E+00  0.00000000000E+00  0.45593999997E+02  0.45594000000E+02  0.51100000000E-03 0.  1.
         11   -1    0    0    0    0 -0.00000000000E+00 -0.00000000000E+00 -0.45593999997E+02  0.45594000000E+02  0.51100000000E-03 0. -1.
    9900012    2    1    2    0    0 -0.21946665033E+02  0.32155783396E+01  0.34075929275E+02  0.50528868110E+02  0.30000025106E+02 0.  0.
         12    1    1    2    0    0  0.21946665033E+02 -0.32155783396E+01 -0.34075929275E+02  0.40659131890E+02  0.00000000000E+00 0. -1.
         11    1    3    3    0    0  0.37413213633E+01  0.55176662716E+01  0.26846041280E+01  0.71867396095E+01  0.51100000000E-03 0. -1.
        -11    1    3    3    0    0 -0.21654098426E+02 -0.78284530854E+01  0.24812951896E+02  0.33850660827E+02  0.51100000000E-03 0.  1.
        -12    1    3    3    0    0 -0.40338879702E+01  0.55263651534E+01  0.65783732511E+01  0.94914676735E+01  0.00000000000E+00 0.  1.
</event>
<event>
 7    1  0.2891523E-011  0.5052885E+02  0.7816164E-02  0.1300439E+00
        -11   -1    0    0    0    0  0.00000000000E+00  0.00000000000E+00  0.45593999997E+02  0.45594000000E+02  0.51100000000E-03 0.  1.
         11   -1    0    0    0    0 -0.00000000000E+00 -0.00000000000E+00 -0.45593999997E+02  0.45594000000E+02  0.51100000000E-03 0. -1.
    9900012    2    1    2    0    0  0.15728212038E+02  0.18716926553E+02  0.32487941934E+02  0.50528851403E+02  0.29999974326E+02 0.  0.
         12    1    1    2    0    0 -0.15728212038E+02 -0.18716926553E+02 -0.32487941934E+02  0.40659148597E+02  0.00000000000E+00 0. -1.
         11    1    3    3    0    0  0.20994646189E+01  0.73886833892E+01 -0.31980143669E+00  0.76878259042E+01  0.51100000000E-03 0. -1.
        -11    1    3    3    0    0  0.62680354123E+01 -0.60227178157E+01  0.10888998121E+02  0.13933114446E+02  0.51100000000E-03 0.  1.
        -12    1    3    3    0    0  0.73607120064E+01  0.17350960980E+02  0.21918745249E+02  0.28907911053E+02  0.00000000000E+00 0.  1.
</event>
<event>
 7    1  0.2891523E-011  0.5052885E+02  0.7816164E-02  0.1300439E+00
        -11   -1    0    0    0    0  0.00000000000E+00  0.00000000000E+00  0.45593999997E+02  0.45594000000E+02  0.51100000000E-03 0.  1.
         11   -1    0    0    0    0 -0.00000000000E+00 -0.00000000000E+00 -0.45593999997E+02  0.45594000000E+02  0.51100000000E-03 0. -1.
    9900012    2    1    2    0    0 -0.37157941367E+02  0.56462871529E+01  0.15510420328E+02  0.50528852148E+02  0.29999976590E+02 0.  0.
         12    1    1    2    0    0  0.37157941367E+02 -0.56462871529E+01 -0.15510420328E+02  0.40659147852E+02  0.00000000000E+00 0. -1.
         11    1    3    3    0    0 -0.21237490806E+01  0.35053387883E+01 -0.40764328107E+00  0.41187235260E+01  0.51100000000E-03 0. -1.
        -11    1    3    3    0    0 -0.37530300404E+02 -0.15319181007E+01  0.97439038172E+01  0.38804817785E+02  0.51100000000E-03 0.  1.
        -12    1    3    3    0    0  0.24961081169E+01  0.36728664654E+01  0.61741597915E+01  0.76053108375E+01  0.00000000000E+00 0.  1.
</event>
<event>
 7    1  0.2891523E-011  0.5052888E+02  0.7816164E-02  0.1300439E+00
        -11   -1    0    0    0    0  0.00000000000E+00  0.00000000000E+00  0.45593999997E+02  0.45594000000E+02  0.51100000000E-03 0. -1.
         11   -1    0    0    0    0 -0.00000000000E+00 -0.00000000000E+00 -0.45593999997E+02  0.45594000000E+02  0.51100000000E-03 0.  1.
    9900012    2    1    2    0    0  0.14360818279E+02  0.37578862349E+02 -0.58957919969E+01  0.50528876051E+02  0.30000049243E+02 0.  0.
         12    1    1    2    0    0 -0.14360818279E+02 -0.37578862349E+02  0.58957919969E+01  0.40659123949E+02  0.00000000000E+00 0. -1.
         11    1    3    3    0    0  0.13069825567E+02  0.13180642462E+02  0.58769587453E+01  0.19470190559E+02  0.51100000000E-03 0. -1.
        -11    1    3    3    0    0 -0.60725420869E+01  0.48850025472E+01 -0.21189216412E+01  0.80764377337E+01  0.51100000000E-03 0.  1.
        -12    1    3    3    0    0  0.73635347986E+01  0.19513217340E+02 -0.96538291011E+01  0.22982247758E+02  0.00000000000E+00 0.  1.
</event>
<event>
 7    1  0.2891523E-011  0.5052885E+02  0.7816164E-02  0.1300439E+00
        -11   -1    0    0    0    0  0.00000000000E+00  0.00000000000E+00  0.45593999997E+02  0.45594000000E+02  0.51100000000E-03 0. -1.
         11   -1    0    0    0    0 -0.00000000000E+00 -0.00000000000E+00 -0.45593999997E+02  0.45594000000E+02  0.51100000000E-03 0.  1.
    9900012    2    1    2    0    0  0.17435512546E+02 -0.60607393510E+01 -0.36227564504E+02  0.50528854791E+02  0.29999984623E+02 0.  0.
         12    1    1    2    0    0 -0.17435512546E+02  0.60607393510E+01  0.36227564504E+02  0.40659145209E+02  0.00000000000E+00 0. -1.
         11    1    3    3    0    0 -0.33807547464E+01 -0.63383942631E+00  0.30315301485E+01  0.45849133445E+01  0.51100000000E-03 0. -1.
        -11    1    3    3    0    0  0.96111512046E+01 -0.52508185037E+01 -0.27966840304E+02  0.30034804466E+02  0.51100000000E-03 0.  1.
         12    1    3    3    0    0  0.11205116087E+02 -0.17608142108E+00 -0.11292254349E+02  0.15909136981E+02  0.00000000000E+00 0. -1.
</event>
<event>
 7    1  0.2891523E-011  0.5052885E+02  0.7816164E-02  0.1300439E+00
        -11   -1    0    0    0    0  0.00000000000E+00  0.00000000000E+00  0.45593999997E+02  0.45594000000E+02  0.51100000000E-03 0.  1.
         11   -1    0    0    0    0 -0.00000000000E+00 -0.00000000000E+00 -0.45593999997E+02  0.45594000000E+02  0.51100000000E-03 0. -1.
    9900012    2    1    2    0    0  0.11786954622E+02 -0.17605611510E+02  0.34702686833E+02  0.50528851837E+02  0.29999975645E+02 0.  0.
         12    1    1    2    0    0 -0.11786954622E+02  0.17605611510E+02 -0.34702686833E+02  0.40659148163E+02  0.00000000000E+00 0. -1.
         11    1    3    3    0    0  0.58248655326E+01 -0.18636696603E+00 -0.27934556946E+01  0.64627537550E+01  0.51100000000E-03 0. -1.
        -11    1    3    3    0    0  0.21275895725E+01 -0.94291116891E+01  0.32468371912E+02  0.33876687552E+02  0.51100000000E-03 0.  1.
        -12    1    3    3    0    0  0.38344995169E+01 -0.79901328553E+01  0.50277706148E+01  0.10189410530E+02  0.00000000000E+00 0.  1.
</event>
<event>
 7    1  0.2891523E-011  0.5052886E+02  0.7816164E-02  0.1300439E+00
        -11   -1    0    0    0    0  0.00000000000E+00  0.00000000000E+00  0.45593999997E+02  0.45594000000E+02  0.51100000000E-03 0. -1.
         11   -1    0    0    0    0 -0.00000000000E+00 -0.00000000000E+00 -0.45593999997E+02  0.45594000000E+02  0.51100000000E-03 0.  1.
    9900012    2    1    2    0    0  0.72002576804E+01  0.70494552905E+01 -0.39390693494E+02  0.50528864932E+02  0.30000015447E+02 0.  0.
         12    1    1    2    0    0 -0.72002576804E+01 -0.70494552905E+01  0.39390693494E+02  0.40659135068E+02  0.00000000000E+00 0. -1.
         11    1    3    3    0    0  0.83325975407E+01 -0.60244911265E+01 -0.44854345903E+01  0.11218101392E+02  0.51100000000E-03 0. -1.
        -11    1    3    3    0    0 -0.14578228913E+01  0.52870808272E+01 -0.29048700575E+02  0.29561892304E+02  0.51100000000E-03 0.  1.
        -12    1    3    3    0    0  0.32548303101E+00  0.77868655898E+01 -0.58565583288E+01  0.97488712360E+01  0.00000000000E+00 0.  1.
</event>
<event>
 7    1  0.2891523E-011  0.5052885E+02  0.7816164E-02  0.1300439E+00
        -11   -1    0    0    0    0  0.00000000000E+00  0.00000000000E+00  0.45593999997E+02  0.45594000000E+02  0.51100000000E-03 0. -1.
         11   -1    0    0    0    0 -0.00000000000E+00 -0.00000000000E+00 -0.45593999997E+02  0.45594000000E+02  0.51100000000E-03 0.  1.
    9900012    2    1    2    0    0  0.22098374714E+02 -0.28768552622E+02  0.18362966636E+02  0.50528851846E+02  0.29999975670E+02 0.  0.
         12    1    1    2    0    0 -0.22098374714E+02  0.28768552622E+02 -0.18362966636E+02  0.40659148154E+02  0.00000000000E+00 0. -1.
         11    1    3    3    0    0  0.27788793244E+01  0.46197354749E+01 -0.19266709910E+01  0.57250491287E+01  0.51100000000E-03 0. -1.
        -11    1    3    3    0    0  0.15752068297E+02 -0.31223997495E+02  0.14966696863E+02  0.38040342933E+02  0.51100000000E-03 0.  1.
        -12    1    3    3    0    0  0.35674270927E+01 -0.21642906020E+01  0.53229407640E+01  0.67634597839E+01  0.00000000000E+00 0.  1.
</event>
<event>
 7    1  0.2891523E-011  0.5052886E+02  0.7816164E-02  0.1300439E+00
        -11   -1    0    0    0    0  0.00000000000E+00  0.00000000000E+00  0.45593999997E+02  0.45594000000E+02  0.51100000000E-03 0.  1.
         11   -1    0    0    0    0 -0.00000000000E+00 -0.00000000000E+00 -0.45593999997E+02  0.45594000000E+02  0.51100000000E-03 0. -1.
    9900012    2    1    2    0    0  0.22306504425E+02 -0.31255046631E+02  0.13368153388E+02  0.50528860750E+02  0.30000002734E+02 0.  0.
         12    1    1    2    0    0 -0.22306504425E+02  0.31255046631E+02 -0.13368153388E+02  0.40659139250E+02  0.00000000000E+00 0. -1.
         11    1    3    3    0    0  0.11661661179E+02 -0.28173407025E+02  0.43803165997E+01  0.30804583727E+02  0.51100000000E-03 0. -1.
        -11    1    3    3    0    0 -0.24271721070E+01  0.23454973318E+01  0.21819675048E+01  0.40191422746E+01  0.51100000000E-03 0.  1.
         12    1    3    3    0    0  0.13072015353E+02 -0.54271369383E+01  0.68058692838E+01  0.15705134748E+02  0.00000000000E+00 0. -1.
</event>
<event>
 7    1  0.2891523E-011  0.5052878E+02  0.7816164E-02  0.1300439E+00
        -11   -1    0    0    0    0  0.00000000000E+00  0.00000000000E+00  0.45593999997E+02  0.45594000000E+02  0.51100000000E-03 0.  1.
         11   -1    0    0    0    0 -0.00000000000E+00 -0.00000000000E+00 -0.45593999997E+02  0.45594000000E+02  0.51100000000E-03 0. -1.
    9900012    2    1    2    0    0 -0.28485340016E+02 -0.13830782824E+02  0.25504247464E+02  0.50528784709E+02  0.29999771601E+02 0.  0.
         12    1    1    2    0    0  0.28485340016E+02  0.13830782824E+02 -0.25504247464E+02  0.40659215291E+02  0.00000000000E+00 0. -1.
         11    1    3    3    0    0 -0.26746404591E+02 -0.53336710889E+01  0.15362482910E+02  0.31302141896E+02  0.51100000000E-03 0.  1.
        -11    1    3    3    0    0  0.46484511915E+01  0.11058284138E+01  0.25136840993E+01  0.53990335221E+01  0.51100000000E-03 0. -1.
         12    1    3    3    0    0 -0.63873866164E+01 -0.96029401485E+01  0.76280804550E+01  0.13827609291E+02  0.00000000000E+00 0. -1.
</event>
<event>
 7    1  0.2891523E-011  0.5052885E+02  0.7816164E-02  0.1300439E+00
        -11   -1    0    0    0    0  0.00000000000E+00  0.00000000000E+00  0.45593999997E+02  0.45594000000E+02  0.51100000000E-03 0. -1.
         11   -1    0    0    0    0 -0.00000000000E+00 -0.00000000000E+00 -0.45593999997E+02  0.45594000000E+02  0.51100000000E-03 0.  1.
    9900012    2    1    2    0    0  0.10678518170E+02  0.79721153746E+00 -0.39223717711E+02  0.50528851858E+02  0.29999975708E+02 0.  0.
         12    1    1    2    0    0 -0.10678518170E+02 -0.79721153746E+00  0.39223717711E+02  0.40659148142E+02  0.00000000000E+00 0. -1.
         11    1    3    3    0    0  0.76991615786E+01 -0.39591666055E+01  0.17279083541E+01  0.88282363338E+01  0.51100000000E-03 0. -1.
        -11    1    3    3    0    0 -0.15049877472E+01  0.13496201671E+01 -0.15637360519E+02  0.15767482582E+02  0.51100000000E-03 0.  1.
         12    1    3    3    0    0  0.44843443382E+01  0.34067579758E+01 -0.25314265546E+02  0.25933132942E+02  0.00000000000E+00 0. -1.
</event>
<event>
 7    1  0.2891523E-011  0.5052887E+02  0.7816164E-02  0.1300439E+00
        -11   -1    0    0    0    0  0.00000000000E+00  0.00000000000E+00  0.45593999997E+02  0.45594000000E+02  0.51100000000E-03 0. -1.
         11   -1    0    0    0    0 -0.00000000000E+00 -0.00000000000E+00 -0.45593999997E+02  0.45594000000E+02  0.51100000000E-03 0.  1.
    9900012    2    1    2    0    0 -0.36094142352E+01 -0.14134970448E+02 -0.37951808841E+02  0.50528867509E+02  0.30000023279E+02 0.  0.
         12    1    1    2    0    0  0.36094142352E+01  0.14134970448E+02  0.37951808841E+02  0.40659132491E+02  0.00000000000E+00 0. -1.
         11    1    3    3    0    0 -0.13724114802E+02 -0.13414906397E+02 -0.17488878240E+02  0.25964820490E+02  0.51100000000E-03 0. -1.
        -11    1    3    3    0    0  0.49939736393E+01 -0.23383305201E+01 -0.17670844294E+02  0.18511247949E+02  0.51100000000E-03 0.  1.
         12    1    3    3    0    0  0.51207269270E+01  0.16182664694E+01 -0.27920863072E+01  0.60527990693E+01  0.00000000000E+00 0. -1.
</event>
<event>
 7    1  0.2891523E-011  0.5052887E+02  0.7816164E-02  0.1300439E+00
        -11   -1    0    0    0    0  0.00000000000E+00  0.00000000000E+00  0.45593999997E+02  0.45594000000E+02  0.51100000000E-03 0.  1.
         11   -1    0    0    0    0 -0.00000000000E+00 -0.00000000000E+00 -0.45593999997E+02  0.45594000000E+02  0.51100000000E-03 0. -1.
    9900012    2    1    2    0    0  0.28299660845E+02  0.23506996428E+02  0.17312287315E+02  0.50528868466E+02  0.30000026190E+02 0.  0.
         12    1    1    2    0    0 -0.28299660845E+02 -0.23506996428E+02 -0.17312287315E+02  0.40659131534E+02  0.00000000000E+00 0. -1.
         11    1    3    3    0    0  0.11056545641E+02 -0.89766234632E+00 -0.10576666718E+01  0.11143233743E+02  0.51100000000E-03 0. -1.
        -11    1    3    3    0    0  0.16480871140E+02  0.22871607008E+02  0.86097230601E+01  0.29476377865E+02  0.51100000000E-03 0.  1.
        -12    1    3    3    0    0  0.76224406449E+00  0.15330517668E+01  0.97602309264E+01  0.99092568576E+01  0.00000000000E+00 0.  1.
</event>
<event>
 7    1  0.2891523E-011  0.5052885E+02  0.7816164E-02  0.1300439E+00
        -11   -1    0    0    0    0  0.00000000000E+00  0.00000000000E+00  0.45593999997E+02  0.45594000000E+02  0.51100000000E-03 0.  1.
         11   -1    0    0    0    0 -0.00000000000E+00 -0.00000000000E+00 -0.45593999997E+02  0.45594000000E+02  0.51100000000E-03 0. -1.
    9900012    2    1    2    0    0 -0.24394710271E+02  0.29349382493E+01  0.32395222626E+02  0.50528853419E+02  0.29999980451E+02 0.  0.
         12    1    1    2    0    0  0.24394710271E+02 -0.29349382493E+01 -0.32395222626E+02  0.40659146581E+02  0.00000000000E+00 0. -1.
         11    1    3    3    0    0 -0.10768927970E+02 -0.22200763750E+01 -0.17848390556E+01  0.11139308751E+02  0.51100000000E-03 0. -1.
        -11    1    3    3    0    0 -0.13414829785E+02  0.39325865429E+01  0.35141595350E+02  0.37820029337E+02  0.51100000000E-03 0.  1.
        -12    1    3    3    0    0 -0.21095251557E+00  0.12224280814E+01 -0.96153366782E+00  0.15695153304E+01  0.00000000000E+00 0.  1.
</event>
<event>
 7    1  0.2891523E-011  0.5052886E+02  0.7816164E-02  0.1300439E+00
        -11   -1    0    0    0    0  0.00000000000E+00  0.00000000000E+00  0.45593999997E+02  0.45594000000E+02  0.51100000000E-03 0. -1.
         11   -1    0    0    0    0 -0.00000000000E+00 -0.00000000000E+00 -0.45593999997E+02  0.45594000000E+02  0.51100000000E-03 0.  1.
    9900012    2    1    2    0    0 -0.38568314739E+02  0.55706778453E+01 -0.11602511677E+02  0.50528860429E+02  0.30000001760E+02 0.  0.
         12    1    1    2    0    0  0.38568314739E+02 -0.55706778453E+01  0.11602511677E+02  0.40659139571E+02  0.00000000000E+00 0. -1.
         11    1    3    3    0    0 -0.82913916769E+01 -0.71270675824E+01  0.23102081646E+01  0.11174942071E+02  0.51100000000E-03 0. -1.
        -11    1    3    3    0    0 -0.26223128240E+02  0.12213409274E+02 -0.47399155613E+01  0.29313591056E+02  0.51100000000E-03 0.  1.
        -12    1    3    3    0    0 -0.40537948217E+01  0.48433615387E+00 -0.91728042807E+01  0.10040327302E+02  0.00000000000E+00 0.  1.
</event>
<event>
 7    1  0.2891523E-011  0.5052886E+02  0.7816164E-02  0.1300439E+00
        -11   -1    0    0    0    0  0.00000000000E+00  0.00000000000E+00  0.45593999997E+02  0.45594000000E+02  0.51100000000E-03 0. -1.
         11   -1    0    0    0    0 -0.00000000000E+00 -0.00000000000E+00 -0.45593999997E+02  0.45594000000E+02  0.51100000000E-03 0.  1.
    9900012    2    1    2    0    0 -0.34277779285E+02  0.21649490281E+02 -0.30821227276E+01  0.50528855117E+02  0.29999985612E+02 0.  0.
         12    1    1    2    0    0  0.34277779285E+02 -0.21649490281E+02  0.30821227276E+01  0.40659144883E+02  0.00000000000E+00 0. -1.
         11    1    3    3    0    0  0.20168378876E+01 -0.16857575673E+01 -0.11644367737E+01  0.28749481563E+01  0.51100000000E-03 0. -1.
        -11    1    3    3    0    0 -0.34894803614E+02  0.26634303176E+02 -0.81936998001E+00  0.43905635087E+02  0.51100000000E-03 0.  1.
        -12    1    3    3    0    0 -0.13998135586E+01 -0.32990553282E+01 -0.10983159740E+01  0.37482718733E+01  0.00000000000E+00 0.  1.
</event>
<event>
 7    1  0.2891523E-011  0.5052886E+02  0.7816164E-02  0.1300439E+00
        -11   -1    0    0    0    0  0.00000000000E+00  0.00000000000E+00  0.45593999997E+02  0.45594000000E+02  0.51100000000E-03 0.  1.
         11   -1    0    0    0    0 -0.00000000000E+00 -0.00000000000E+00 -0.45593999997E+02  0.45594000000E+02  0.51100000000E-03 0. -1.
    9900012    2    1    2    0    0  0.49072115087E+01  0.27874847099E+02  0.29190375253E+02  0.50528857941E+02  0.29999994197E+02 0.  0.
         12    1    1    2    0    0 -0.49072115087E+01 -0.27874847099E+02 -0.29190375253E+02  0.40659142059E+02  0.00000000000E+00 0. -1.
         11    1    3    3    0    0  0.53292572150E+01  0.89273348489E+00 -0.27542261249E+01  0.60649581489E+01  0.51100000000E-03 0. -1.
        -11    1    3    3    0    0 -0.32365962608E+01  0.51088668803E+01  0.16408067593E+02  0.17487159820E+02  0.51100000000E-03 0.  1.
         12    1    3    3    0    0  0.28145505545E+01  0.21873246734E+02  0.15536533784E+02  0.26976739973E+02  0.00000000000E+00 0. -1.
</event>
<event>
 7    1  0.2891523E-011  0.5052884E+02  0.7816164E-02  0.1300439E+00
        -11   -1    0    0    0    0  0.00000000000E+00  0.00000000000E+00  0.45593999997E+02  0.45594000000E+02  0.51100000000E-03 0. -1.
         11   -1    0    0    0    0 -0.00000000000E+00 -0.00000000000E+00 -0.45593999997E+02  0.45594000000E+02  0.51100000000E-03 0.  1.
    9900012    2    1    2    0    0  0.89429752102E+01 -0.39531446507E+02 -0.32334141776E+01  0.50528843150E+02  0.29999949237E+02 0.  0.
         12    1    1    2    0    0 -0.89429752102E+01  0.39531446507E+02  0.32334141776E+01  0.40659156850E+02  0.00000000000E+00 0. -1.
         11    1    3    3    0    0  0.22757606834E+01 -0.24659350682E+02  0.26262462103E+01  0.24903008496E+02  0.51100000000E-03 0.  1.
        -11    1    3    3    0    0 -0.10411475799E+01  0.19257951356E+01  0.40875650122E+01  0.46369023257E+01  0.51100000000E-03 0. -1.
        -12    1    3    3    0    0  0.77083621067E+01 -0.16797890961E+02 -0.99472254001E+01  0.20988932328E+02  0.00000000000E+00 0.  1.
</event>
<event>
 7    1  0.2891523E-011  0.5052886E+02  0.7816164E-02  0.1300439E+00
        -11   -1    0    0    0    0  0.00000000000E+00  0.00000000000E+00  0.45593999997E+02  0.45594000000E+02  0.51100000000E-03 0.  1.
         11   -1    0    0    0    0 -0.00000000000E+00 -0.00000000000E+00 -0.45593999997E+02  0.45594000000E+02  0.51100000000E-03 0. -1.
    9900012    2    1    2    0    0  0.23299374084E+02 -0.47072128487E+01  0.32987077269E+02  0.50528856474E+02  0.29999989738E+02 0.  0.
         12    1    1    2    0    0 -0.23299374084E+02  0.47072128487E+01 -0.32987077269E+02  0.40659143526E+02  0.00000000000E+00 0. -1.
         11    1    3    3    0    0  0.15510464370E+01 -0.12654198007E+02  0.16596716799E+02  0.20928102662E+02  0.51100000000E-03 0. -1.
        -11    1    3    3    0    0  0.13155300821E+02  0.70642308933E+01  0.14382675252E+02  0.20732260983E+02  0.51100000000E-03 0.  1.
         12    1    3    3    0    0  0.85930268259E+01  0.88275426541E+00  0.20076852187E+01  0.88684928292E+01  0.00000000000E+00 0. -1.
</event>
<event>
 7    1  0.2891523E-011  0.5052885E+02  0.7816164E-02  0.1300439E+00
        -11   -1    0    0    0    0  0.00000000000E+00  0.00000000000E+00  0.45593999997E+02  0.45594000000E+02  0.51100000000E-03 0.  1.
         11   -1    0    0    0    0 -0.00000000000E+00 -0.00000000000E+00 -0.45593999997E+02  0.45594000000E+02  0.51100000000E-03 0. -1.
    9900012    2    1    2    0    0  0.24811168196E+02  0.31834043479E+02 -0.49158762936E+01  0.50528853044E+02  0.29999979312E+02 0.  0.
         12    1    1    2    0    0 -0.24811168196E+02 -0.31834043479E+02  0.49158762936E+01  0.40659146956E+02  0.00000000000E+00 0. -1.
         11    1    3    3    0    0 -0.49105496917E+01  0.25524457008E+01  0.46716402230E+01  0.72424236250E+01  0.51100000000E-03 0. -1.
        -11    1    3    3    0    0  0.22291188542E+02  0.18972428508E+02 -0.87460018367E+01  0.30550657579E+02  0.51100000000E-03 0.  1.
         12    1    3    3    0    0  0.74305293453E+01  0.10309169270E+02 -0.84151467983E+00  0.12735771840E+02  0.00000000000E+00 0. -1.
</event>
<event>
 7    1  0.2891523E-011  0.5052886E+02  0.7816164E-02  0.1300439E+00
        -11   -1    0    0    0    0  0.00000000000E+00  0.00000000000E+00  0.45593999997E+02  0.45594000000E+02  0.51100000000E-03 0.  1.
         11   -1    0    0    0    0 -0.00000000000E+00 -0.00000000000E+00 -0.45593999997E+02  0.45594000000E+02  0.51100000000E-03 0. -1.
    9900012    2    1    2    0    0 -0.24761813558E+02  0.10344133932E+02  0.30545335106E+02  0.50528855712E+02  0.29999987422E+02 0.  0.
         12    1    1    2    0    0  0.24761813558E+02 -0.10344133932E+02 -0.30545335106E+02  0.40659144288E+02  0.00000000000E+00 0. -1.
         11    1    3    3    0    0 -0.58529392332E+00  0.44959705147E+01 -0.41174823725E+01  0.61245392639E+01  0.51100000000E-03 0. -1.
        -11    1    3    3    0    0 -0.98240874217E+01  0.86165897407E+01  0.17923959848E+02  0.22181673727E+02  0.51100000000E-03 0.  1.
         12    1    3    3    0    0 -0.14352432213E+02 -0.27684263235E+01  0.16738857630E+02  0.22222642721E+02  0.00000000000E+00 0. -1.
</event>
<event>
 7    1  0.2891523E-011  0.5052886E+02  0.7816164E-02  0.1300439E+00
        -11   -1    0    0    0    0  0.00000000000E+00  0.00000000000E+00  0.45593999997E+02  0.45594000000E+02  0.51100000000E-03 0.  1.
         11   -1    0    0    0    0 -0.00000000000E+00 -0.00000000000E+00 -0.45593999997E+02  0.45594000000E+02  0.51100000000E-03 0. -1.
    9900012    2    1    2    0    0  0.34288255307E+02  0.18385870273E+02  0.11808512965E+02  0.50528860116E+02  0.30000000808E+02 0.  0.
         12    1    1    2    0    0 -0.34288255307E+02 -0.18385870273E+02 -0.11808512965E+02  0.40659139884E+02  0.00000000000E+00 0. -1.
         11    1    3    3    0    0  0.83732170603E+00 -0.22900678476E+01 -0.19880248544E+01  0.31460707984E+01  0.51100000000E-03 0. -1.
        -11    1    3    3    0    0  0.28492342187E+02  0.19865477197E+02  0.19458377556E+02  0.39813053198E+02  0.51100000000E-03 0.  1.
        -12    1    3    3    0    0  0.49585914140E+01  0.81046092305E+00 -0.56618397365E+01  0.75697361196E+01  0.00000000000E+00 0.  1.
</event>
<event>
 7    1  0.2891523E-011  0.5052887E+02  0.7816164E-02  0.1300439E+00
        -11   -1    0    0    0    0  0.00000000000E+00  0.00000000000E+00  0.45593999997E+02  0.45594000000E+02  0.51100000000E-03 0.  1.
         11   -1    0    0    0    0 -0.00000000000E+00 -0.00000000000E+00 -0.45593999997E+02  0.45594000000E+02  0.51100000000E-03 0. -1.
    9900012    2    1    2    0    0 -0.39387619335E+02  0.19941333366E+01  0.98895949151E+01  0.50528865574E+02  0.30000017400E+02 0.  0.
         12    1    1    2    0    0  0.39387619335E+02 -0.19941333366E+01 -0.98895949151E+01  0.40659134426E+02  0.00000000000E+00 0. -1.
         11    1    3    3    0    0 -0.36873023657E+01 -0.57180378274E+01  0.10948947846E+02  0.12890756942E+02  0.51100000000E-03 0. -1.
        -11    1    3    3    0    0 -0.14165116992E+02  0.41928863198E+01  0.38620920724E+01  0.15269138500E+02  0.51100000000E-03 0.  1.
         12    1    3    3    0    0 -0.21535199977E+02  0.35192848442E+01 -0.49214450036E+01  0.22368970133E+02  0.00000000000E+00 0. -1.
</event>
<event>
 7    1  0.2891523E-011  0.5052886E+02  0.7816164E-02  0.1300439E+00
        -11   -1    0    0    0    0  0.00000000000E+00  0.00000000000E+00  0.45593999997E+02  0.45594000000E+02  0.51100000000E-03 0. -1.
         11   -1    0    0    0    0 -0.00000000000E+00 -0.00000000000E+00 -0.45593999997E+02  0.45594000000E+02  0.51100000000E-03 0.  1.
    9900012    2    1    2    0    0 -0.15097741601E+02 -0.52653399333E+01 -0.37383154845E+02  0.50528857458E+02  0.29999992730E+02 0.  0.
         12    1    1    2    0    0  0.15097741601E+02  0.52653399333E+01  0.37383154845E+02  0.40659142542E+02  0.00000000000E+00 0. -1.
         11    1    3    3    0    0  0.91267872914E+00  0.11682043532E+01 -0.73323331845E+00  0.16538788450E+01  0.51100000000E-03 0. -1.
        -11    1    3    3    0    0 -0.22290364015E+01  0.63991459657E+01 -0.26760603491E+02  0.27605209143E+02  0.51100000000E-03 0.  1.
        -12    1    3    3    0    0 -0.13781383929E+02 -0.12832690252E+02 -0.98893180356E+01  0.21269769470E+02  0.00000000000E+00 0.  1.
</event>
<event>
 7    1  0.2891523E-011  0.5052880E+02  0.7816164E-02  0.1300439E+00
        -11   -1    0    0    0    0  0.00000000000E+00  0.00000000000E+00  0.45593999997E+02  0.45594000000E+02  0.51100000000E-03 0. -1.
         11   -1    0    0    0    0 -0.00000000000E+00 -0.00000000000E+00 -0.45593999997E+02  0.45594000000E+02  0.51100000000E-03 0.  1.
    9900012    2    1    2    0    0  0.10155437774E+01 -0.40609590030E+02 -0.17321878526E+01  0.50528799241E+02  0.29999815773E+02 0.  0.
         12    1    1    2    0    0 -0.10155437774E+01  0.40609590030E+02  0.17321878526E+01  0.40659200759E+02  0.00000000000E+00 0. -1.
         11    1    3    3    0    0 -0.76607727921E+01 -0.17199034476E+02  0.11675517757E+02  0.22154275927E+02  0.51100000000E-03 0. -1.
        -11    1    3    3    0    0  0.53347866625E+01 -0.13267631474E+02 -0.83347822367E+01  0.16551694441E+02  0.51100000000E-03 0.  1.
         12    1    3    3    0    0  0.33415299071E+01 -0.10142924080E+02 -0.50729233734E+01  0.11822828873E+02  0.00000000000E+00 0. -1.
</event>
<event>
 7    1  0.2891523E-011  0.5052886E+02  0.7816164E-02  0.1300439E+00
        -11   -1    0    0    0    0  0.00000000000E+00  0.00000000000E+00  0.45593999997E+02  0.45594000000E+02  0.51100000000E-03 0.  1.
         11   -1    0    0    0    0 -0.00000000000E+00 -0.00000000000E+00 -0.45593999997E+02  0.45594000000E+02  0.51100000000E-03 0. -1.
    9900012    2    1    2    0    0  0.10727187226E+02  0.19537016834E+02  0.34005855648E+02  0.50528858459E+02  0.29999995771E+02 0.  0.
         12    1    1    2    0    0 -0.10727187226E+02 -0.19537016834E+02 -0.34005855648E+02  0.40659141541E+02  0.00000000000E+00 0. -1.
         11    1    3    3    0    0  0.80002963744E+01 -0.37107726443E+01  0.56338370696E+01  0.10464926951E+02  0.51100000000E-03 0. -1.
        -11    1    3    3    0    0  0.39918287456E+01  0.22142250718E+02  0.30148811049E+02  0.37618675834E+02  0.51100000000E-03 0.  1.
        -12    1    3    3    0    0 -0.12649378939E+01  0.11055387599E+01 -0.17767924711E+01  0.24452556738E+01  0.00000000000E+00 0.  1.
</event>
<event>
 7    1  0.2891523E-011  0.5052885E+02  0.7816164E-02  0.1300439E+00
        -11   -1    0    0    0    0  0.00000000000E+00  0.00000000000E+00  0.45593999997E+02  0.45594000000E+02  0.51100000000E-03 0. -1.
         11   -1    0    0    0    0 -0.00000000000E+00 -0.00000000000E+00 -0.45593999997E+02  0.45594000000E+02  0.51100000000E-03 0.  1.
    9900012    2    1    2    0    0  0.56055826652E+01  0.36816947348E+02 -0.16317352837E+02  0.50528853764E+02  0.29999981501E+02 0.  0.
         12    1    1    2    0    0 -0.56055826652E+01 -0.36816947348E+02  0.16317352837E+02  0.40659146236E+02  0.00000000000E+00 0. -1.
         11    1    3    3    0    0  0.28568309166E+00 -0.42606404159E+01 -0.44020874298E+01  0.61329475445E+01  0.51100000000E-03 0. -1.
        -11    1    3    3    0    0  0.80671916534E+01  0.27450857366E+02 -0.57243314675E+01  0.29178710087E+02  0.51100000000E-03 0.  1.
         12    1    3    3    0    0 -0.27472920798E+01  0.13626730397E+02 -0.61909339402E+01  0.15217196133E+02  0.00000000000E+00 0. -1.
</event>
<event>
 7    1  0.2891523E-011  0.5052886E+02  0.7816164E-02  0.1300439E+00
        -11   -1    0    0    0    0  0.00000000000E+00  0.00000000000E+00  0.45593999997E+02  0.45594000000E+02  0.51100000000E-03 0. -1.
         11   -1    0    0    0    0 -0.00000000000E+00 -0.00000000000E+00 -0.45593999997E+02  0.45594000000E+02  0.51100000000E-03 0.  1.
    9900012    2    1    2    0    0 -0.39045696139E+01  0.97207669704E+01 -0.39286466570E+02  0.50528862898E+02  0.30000009263E+02 0.  0.
         12    1    1    2    0    0  0.39045696139E+01 -0.97207669704E+01  0.39286466570E+02  0.40659137102E+02  0.00000000000E+00 0. -1.
         11    1    3    3    0    0  0.32621083898E+01 -0.54114348118E+01 -0.26054118064E+02  0.26809364898E+02  0.51100000000E-03 0. -1.
        -11    1    3    3    0    0 -0.52404045849E+01  0.14335500113E+02 -0.63554452997E+01  0.16533604837E+02  0.51100000000E-03 0.  1.
        -12    1    3    3    0    0 -0.19262734188E+01  0.79670166947E+00 -0.68769032064E+01  0.71858931626E+01  0.00000000000E+00 0.  1.
</event>
<event>
 7    1  0.2891523E-011  0.5052888E+02  0.7816164E-02  0.1300439E+00
        -11   -1    0    0    0    0  0.00000000000E+00  0.00000000000E+00  0.45593999997E+02  0.45594000000E+02  0.51100000000E-03 0.  1.
         11   -1    0    0    0    0 -0.00000000000E+00 -0.00000000000E+00 -0.45593999997E+02  0.45594000000E+02  0.51100000000E-03 0. -1.
    9900012    2    1    2    0    0 -0.11953805856E+02  0.27844653964E+02  0.27109887997E+02  0.50528877334E+02  0.30000053143E+02 0.  0.
         12    1    1    2    0    0  0.11953805856E+02 -0.27844653964E+02 -0.27109887997E+02  0.40659122666E+02  0.00000000000E+00 0. -1.
         11    1    3    3    0    0 -0.13044666168E+02  0.18291939412E+02  0.17554713909E+02  0.28511863208E+02  0.51100000000E-03 0. -1.
        -11    1    3    3    0    0  0.77773801382E+01  0.72949884272E+01  0.10417240737E+02  0.14907159448E+02  0.51100000000E-03 0.  1.
         12    1    3    3    0    0 -0.66865198254E+01  0.22577261245E+01 -0.86206664958E+00  0.71098546776E+01  0.00000000000E+00 0. -1.
</event>
<event>
 7    1  0.3697596E-011  0.5052886E+02  0.7816164E-02  0.1300439E+00
        -11   -1    0    0    0    0  0.00000000000E+00  0.00000000000E+00  0.45593999997E+02  0.45594000000E+02  0.51100000000E-03 0. -1.
         11   -1    0    0    0    0 -0.00000000000E+00 -0.00000000000E+00 -0.45593999997E+02  0.45594000000E+02  0.51100000000E-03 0.  1.
    9900012    2    1    2    0    0 -0.19916182859E+02  0.31367372358E+02 -0.16510583688E+02  0.50528858813E+02  0.29999996848E+02 0.  0.
         12    1    1    2    0    0  0.19916182859E+02 -0.31367372358E+02  0.16510583688E+02  0.40659141187E+02  0.00000000000E+00 0. -1.
         11    1    3    3    0    0  0.13921261251E+01 -0.24109487127E+01  0.12573534413E+00  0.27868438208E+01  0.51100000000E-03 0. -1.
        -11    1    3    3    0    0 -0.23275527331E+02  0.20657212633E+02 -0.14387041962E+02  0.34284946886E+02  0.51100000000E-03 0.  1.
        -12    1    3    3    0    0  0.19672183471E+01  0.13121108438E+02 -0.22492770696E+01  0.13457068106E+02  0.00000000000E+00 0.  1.
</event>
<event>
 7    1  0.2891523E-011  0.5052885E+02  0.7816164E-02  0.1300439E+00
        -11   -1    0    0    0    0  0.00000000000E+00  0.00000000000E+00  0.45593999997E+02  0.45594000000E+02  0.51100000000E-03 0.  1.
         11   -1    0    0    0    0 -0.00000000000E+00 -0.00000000000E+00 -0.45593999997E+02  0.45594000000E+02  0.51100000000E-03 0. -1.
    9900012    2    1    2    0    0  0.26692014772E+02  0.22655456139E+02  0.20674447949E+02  0.50528854123E+02  0.29999982592E+02 0.  0.
         12    1    1    2    0    0 -0.26692014772E+02 -0.22655456139E+02 -0.20674447949E+02  0.40659145877E+02  0.00000000000E+00 0. -1.
         11    1    3    3    0    0  0.23607931688E+01  0.44593345524E+01  0.17462833846E+02  0.18177171816E+02  0.51100000000E-03 0. -1.
        -11    1    3    3    0    0  0.20974944355E+02  0.13008138337E+02 -0.12774116790E+01  0.24714201071E+02  0.51100000000E-03 0.  1.
        -12    1    3    3    0    0  0.33562772482E+01  0.51879832496E+01  0.44890257813E+01  0.76374812360E+01  0.00000000000E+00 0.  1.
</event>
<event>
 7    1  0.2891523E-011  0.5052886E+02  0.7816164E-02  0.1300439E+00
        -11   -1    0    0    0    0  0.00000000000E+00  0.00000000000E+00  0.45593999997E+02  0.45594000000E+02  0.51100000000E-03 0. -1.
         11   -1    0    0    0    0 -0.00000000000E+00 -0.00000000000E+00 -0.45593999997E+02  0.45594000000E+02  0.51100000000E-03 0.  1.
    9900012    2    1    2    0    0  0.15773073656E+01  0.45505044884E+01 -0.40372899786E+02  0.50528855558E+02  0.29999986953E+02 0.  0.
         12    1    1    2    0    0 -0.15773073656E+01 -0.45505044884E+01  0.40372899786E+02  0.40659144442E+02  0.00000000000E+00 0. -1.
         11    1    3    3    0    0 -0.23964383057E+01  0.95169812963E+01 -0.34473131207E+02  0.35842888067E+02  0.51100000000E-03 0. -1.
        -11    1    3    3    0    0  0.75192052204E+01 -0.23969387112E+01 -0.65541204495E+01  0.10258667431E+02  0.51100000000E-03 0.  1.
         12    1    3    3    0    0 -0.35454595491E+01 -0.25695380967E+01  0.65435186998E+00  0.44273000592E+01  0.00000000000E+00 0. -1.
</event>
<event>
 7    1  0.2891523E-011  0.5052886E+02  0.7816164E-02  0.1300439E+00
        -11   -1    0    0    0    0  0.00000000000E+00  0.00000000000E+00  0.45593999997E+02  0.45594000000E+02  0.51100000000E-03 0.  1.
         11   -1    0    0    0    0 -0.00000000000E+00 -0.00000000000E+00 -0.45593999997E+02  0.45594000000E+02  0.51100000000E-03 0. -1.
    9900012    2    1    2    0    0  0.52588549329E+00  0.39312078267E+02  0.10365808801E+02  0.50528855329E+02  0.29999986259E+02 0.  0.
         12    1    1    2    0    0 -0.52588549329E+00 -0.39312078267E+02 -0.10365808801E+02  0.40659144671E+02  0.00000000000E+00 0. -1.
         11    1    3    3    0    0 -0.65648041252E+01  0.94858589862E+01 -0.44939726784E+01  0.12380386287E+02  0.51100000000E-03 0. -1.
        -11    1    3    3    0    0  0.81149227423E+01  0.19997691401E+02  0.16401604462E+01  0.21643700216E+02  0.51100000000E-03 0.  1.
         12    1    3    3    0    0 -0.10242331238E+01  0.98285278804E+01  0.13219621033E+02  0.16504768827E+02  0.00000000000E+00 0. -1.
</event>
<event>
 7    1  0.2891523E-011  0.5052886E+02  0.7816164E-02  0.1300439E+00
        -11   -1    0    0    0    0  0.00000000000E+00  0.00000000000E+00  0.45593999997E+02  0.45594000000E+02  0.51100000000E-03 0.  1.
         11   -1    0    0    0    0 -0.00000000000E+00 -0.00000000000E+00 -0.45593999997E+02  0.45594000000E+02  0.51100000000E-03 0. -1.
    9900012    2    1    2    0    0  0.62000767239E+01  0.38469473827E+02  0.11611383496E+02  0.50528860872E+02  0.30000003106E+02 0.  0.
         12    1    1    2    0    0 -0.62000767239E+01 -0.38469473827E+02 -0.11611383496E+02  0.40659139128E+02  0.00000000000E+00 0. -1.
         11    1    3    3    0    0  0.10789995426E+02  0.15306064728E+02 -0.15640873582E+01  0.18792178913E+02  0.51100000000E-03 0. -1.
        -11    1    3    3    0    0  0.20456677350E+01  0.12633778547E+02  0.14358613964E+02  0.19234523963E+02  0.51100000000E-03 0.  1.
         12    1    3    3    0    0 -0.66355864374E+01  0.10529630552E+02 -0.11831431101E+01  0.12502157996E+02  0.00000000000E+00 0. -1.
</event>
<event>
 7    1  0.2891523E-011  0.5052886E+02  0.7816164E-02  0.1300439E+00
        -11   -1    0    0    0    0  0.00000000000E+00  0.00000000000E+00  0.45593999997E+02  0.45594000000E+02  0.51100000000E-03 0.  1.
         11   -1    0    0    0    0 -0.00000000000E+00 -0.00000000000E+00 -0.45593999997E+02  0.45594000000E+02  0.51100000000E-03 0. -1.
    9900012    2    1    2    0    0 -0.33596425283E+02  0.10235428244E+02  0.20486142769E+02  0.50528857994E+02  0.29999994358E+02 0.  0.
         12    1    1    2    0    0  0.33596425283E+02 -0.10235428244E+02 -0.20486142769E+02  0.40659142006E+02  0.00000000000E+00 0. -1.
         11    1    3    3    0    0 -0.71847211508E+00  0.12656900071E+01 -0.30925325419E+00  0.14878881714E+01  0.51100000000E-03 0.  1.
        -11    1    3    3    0    0 -0.24251638745E+02  0.15059018600E+02  0.34772897038E+01  0.28757739253E+02  0.51100000000E-03 0. -1.
        -12    1    3    3    0    0 -0.86263144227E+01 -0.60892803624E+01  0.17318106319E+02  0.20283230569E+02  0.00000000000E+00 0.  1.
</event>
<event>
 7    1  0.2891523E-011  0.5052885E+02  0.7816164E-02  0.1300439E+00
        -11   -1    0    0    0    0  0.00000000000E+00  0.00000000000E+00  0.45593999997E+02  0.45594000000E+02  0.51100000000E-03 0. -1.
         11   -1    0    0    0    0 -0.00000000000E+00 -0.00000000000E+00 -0.45593999997E+02  0.45594000000E+02  0.51100000000E-03 0.  1.
    9900012    2    1    2    0    0  0.37390585727E+02 -0.71584631518E+01 -0.14278204533E+02  0.50528848257E+02  0.29999964763E+02 0.  0.
         12    1    1    2    0    0 -0.37390585727E+02  0.71584631518E+01  0.14278204533E+02  0.40659151743E+02  0.00000000000E+00 0. -1.
         11    1    3    3    0    0 -0.43131514901E+01 -0.34259392247E+01 -0.31689274114E+00  0.55173142577E+01  0.51100000000E-03 0. -1.
        -11    1    3    3    0    0  0.20058335482E+02 -0.42251005349E+01 -0.29127678774E+01  0.20704408077E+02  0.51100000000E-03 0.  1.
         12    1    3    3    0    0  0.21645401735E+02  0.49257660778E+00 -0.11048543914E+02  0.24307125923E+02  0.00000000000E+00 0. -1.
</event>
<event>
 7    1  0.2891523E-011  0.5052884E+02  0.7816164E-02  0.1300439E+00
        -11   -1    0    0    0    0  0.00000000000E+00  0.00000000000E+00  0.45593999997E+02  0.45594000000E+02  0.51100000000E-03 0.  1.
         11   -1    0    0    0    0 -0.00000000000E+00 -0.00000000000E+00 -0.45593999997E+02  0.45594000000E+02  0.51100000000E-03 0. -1.
    9900012    2    1    2    0    0 -0.22435660142E+02  0.24353238100E+02  0.23595093929E+02  0.50528837325E+02  0.29999931532E+02 0.  0.
         12    1    1    2    0    0  0.22435660142E+02 -0.24353238100E+02 -0.23595093929E+02  0.40659162675E+02  0.00000000000E+00 0. -1.
         11    1    3    3    0    0 -0.65701175970E+01  0.22540985735E+02  0.10660647549E+02  0.25785885472E+02  0.51100000000E-03 0. -1.
        -11    1    3    3    0    0 -0.70136319704E+01 -0.45266508064E+01  0.10797021399E+02  0.13647610497E+02  0.51100000000E-03 0.  1.
         12    1    3    3    0    0 -0.88519105749E+01  0.63389031713E+01  0.21374249807E+01  0.11095341355E+02  0.00000000000E+00 0. -1.
</event>
<event>
 7    1  0.2891523E-011  0.5052888E+02  0.7816164E-02  0.1300439E+00
        -11   -1    0    0    0    0  0.00000000000E+00  0.00000000000E+00  0.45593999997E+02  0.45594000000E+02  0.51100000000E-03 0.  1.
         11   -1    0    0    0    0 -0.00000000000E+00 -0.00000000000E+00 -0.45593999997E+02  0.45594000000E+02  0.51100000000E-03 0. -1.
    9900012    2    1    2    0    0 -0.11246522714E+02 -0.23846756745E+02  0.30951764264E+02  0.50528883046E+02  0.30000070508E+02 0.  0.
         12    1    1    2    0    0  0.11246522714E+02  0.23846756745E+02 -0.30951764264E+02  0.40659116954E+02  0.00000000000E+00 0. -1.
         11    1    3    3    0    0 -0.12776128411E+01  0.49993667971E+01  0.33086499963E+01  0.61296923253E+01  0.51100000000E-03 0. -1.
        -11    1    3    3    0    0 -0.14087282589E+02 -0.16899926695E+02  0.19208326671E+02  0.29206486725E+02  0.51100000000E-03 0.  1.
        -12    1    3    3    0    0  0.41183727159E+01 -0.11946196847E+02  0.84347875965E+01  0.15192703997E+02  0.00000000000E+00 0.  1.
</event>
<event>
 7    1  0.2891523E-011  0.5052886E+02  0.7816164E-02  0.1300439E+00
        -11   -1    0    0    0    0  0.00000000000E+00  0.00000000000E+00  0.45593999997E+02  0.45594000000E+02  0.51100000000E-03 0.  1.
         11   -1    0    0    0    0 -0.00000000000E+00 -0.00000000000E+00 -0.45593999997E+02  0.45594000000E+02  0.51100000000E-03 0. -1.
    9900012    2    1    2    0    0 -0.22409880597E+02 -0.21724611570E+02  0.26057704813E+02  0.50528862326E+02  0.30000007527E+02 0.  0.
         12    1    1    2    0    0  0.22409880597E+02  0.21724611570E+02 -0.26057704813E+02  0.40659137674E+02  0.00000000000E+00 0. -1.
         11    1    3    3    0    0 -0.12987785614E+02  0.13854189957E+00  0.15308984068E+02  0.20076522668E+02  0.51100000000E-03 0. -1.
        -11    1    3    3    0    0  0.18783815778E+01 -0.12128743867E+02  0.94326179931E+01  0.15479309662E+02  0.51100000000E-03 0.  1.
         12    1    3    3    0    0 -0.11300476561E+02 -0.97344096029E+01  0.13161027522E+01  0.14973029996E+02  0.00000000000E+00 0. -1.
</event>
<event>
 7    1  0.2891523E-011  0.5052880E+02  0.7816164E-02  0.1300439E+00
        -11   -1    0    0    0    0  0.00000000000E+00  0.00000000000E+00  0.45593999997E+02  0.45594000000E+02  0.51100000000E-03 0. -1.
         11   -1    0    0    0    0 -0.00000000000E+00 -0.00000000000E+00 -0.45593999997E+02  0.45594000000E+02  0.51100000000E-03 0.  1.
    9900012    2    1    2    0    0 -0.33774470945E+02  0.14878458758E+02 -0.17061282222E+02  0.50528797183E+02  0.29999809517E+02 0.  0.
         12    1    1    2    0    0  0.33774470945E+02 -0.14878458758E+02  0.17061282222E+02  0.40659202817E+02  0.00000000000E+00 0. -1.
         11    1    3    3    0    0 -0.22364884293E+01 -0.26432488731E+01  0.45386714468E+01  0.57086061226E+01  0.51100000000E-03 0. -1.
        -11    1    3    3    0    0 -0.21413416620E+02  0.43271997974E+01 -0.16650053362E+02  0.27467860248E+02  0.51100000000E-03 0.  1.
         12    1    3    3    0    0 -0.10124565896E+02  0.13194507833E+02 -0.49499003074E+01  0.17352330812E+02  0.00000000000E+00 0. -1.
</event>
<event>
 7    1  0.2891523E-011  0.5052890E+02  0.7816164E-02  0.1300439E+00
        -11   -1    0    0    0    0  0.00000000000E+00  0.00000000000E+00  0.45593999997E+02  0.45594000000E+02  0.51100000000E-03 0.  1.
         11   -1    0    0    0    0 -0.00000000000E+00 -0.00000000000E+00 -0.45593999997E+02  0.45594000000E+02  0.51100000000E-03 0. -1.
    9900012    2    1    2    0    0 -0.29968394150E+02 -0.21750265062E+02  0.16792361581E+02  0.50528904023E+02  0.30000134268E+02 0.  0.
         12    1    1    2    0    0  0.29968394150E+02  0.21750265062E+02 -0.16792361581E+02  0.40659095977E+02  0.00000000000E+00 0. -1.
         11    1    3    3    0    0  0.50195415328E+01 -0.14561285351E+01  0.11933150421E+01  0.53609801866E+01  0.51100000000E-03 0. -1.
        -11    1    3    3    0    0 -0.25776597771E+02 -0.20680964971E+02  0.13586654379E+02  0.35731393511E+02  0.51100000000E-03 0.  1.
         12    1    3    3    0    0 -0.92113379118E+01  0.38682844415E+00  0.20123921602E+01  0.94365303251E+01  0.00000000000E+00 0. -1.
</event>
<event>
 7    1  0.2891523E-011  0.5052886E+02  0.7816164E-02  0.1300439E+00
        -11   -1    0    0    0    0  0.00000000000E+00  0.00000000000E+00  0.45593999997E+02  0.45594000000E+02  0.51100000000E-03 0.  1.
         11   -1    0    0    0    0 -0.00000000000E+00 -0.00000000000E+00 -0.45593999997E+02  0.45594000000E+02  0.51100000000E-03 0. -1.
    9900012    2    1    2    0    0  0.25221317287E+02  0.12585747119E+02  0.29302729365E+02  0.50528858046E+02  0.29999994516E+02 0.  0.
         12    1    1    2    0    0 -0.25221317287E+02 -0.12585747119E+02 -0.29302729365E+02  0.40659141954E+02  0.00000000000E+00 0. -1.
         11    1    3    3    0    0  0.71246342710E+01  0.15975559796E+02  0.21841980454E+02  0.27983049061E+02  0.51100000000E-03 0. -1.
        -11    1    3    3    0    0  0.14142397397E+02 -0.54562165244E+01  0.92285896976E+01  0.17746677744E+02  0.51100000000E-03 0.  1.
         12    1    3    3    0    0  0.39542856192E+01  0.20664038471E+01 -0.17678407872E+01  0.47991312408E+01  0.00000000000E+00 0. -1.
</event>
<event>
 7    1  0.2891523E-011  0.5052887E+02  0.7816164E-02  0.1300439E+00
        -11   -1    0    0    0    0  0.00000000000E+00  0.00000000000E+00  0.45593999997E+02  0.45594000000E+02  0.51100000000E-03 0. -1.
         11   -1    0    0    0    0 -0.00000000000E+00 -0.00000000000E+00 -0.45593999997E+02  0.45594000000E+02  0.51100000000E-03 0.  1.
    9900012    2    1    2    0    0  0.27821110087E+02  0.27128935282E+02  0.11965422549E+02  0.50528872701E+02  0.30000039061E+02 0.  0.
         12    1    1    2    0    0 -0.27821110087E+02 -0.27128935282E+02 -0.11965422549E+02  0.40659127299E+02  0.00000000000E+00 0. -1.
         11    1    3    3    0    0  0.13876346920E+02 -0.41872884243E+01  0.13336313768E+01  0.14555581785E+02  0.51100000000E-03 0. -1.
        -11    1    3    3    0    0  0.96244095227E+01  0.20164156147E+02  0.58786704901E+01  0.23103705737E+02  0.51100000000E-03 0.  1.
         12    1    3    3    0    0  0.43203536441E+01  0.11152067560E+02  0.47531206818E+01  0.12869585179E+02  0.00000000000E+00 0. -1.
</event>
<event>
 7    1  0.2891523E-011  0.5052886E+02  0.7816164E-02  0.1300439E+00
        -11   -1    0    0    0    0  0.00000000000E+00  0.00000000000E+00  0.45593999997E+02  0.45594000000E+02  0.51100000000E-03 0.  1.
         11   -1    0    0    0    0 -0.00000000000E+00 -0.00000000000E+00 -0.45593999997E+02  0.45594000000E+02  0.51100000000E-03 0. -1.
    9900012    2    1    2    0    0 -0.38638146616E+02  0.72638565413E+01  0.10367998700E+02  0.50528863477E+02  0.30000011024E+02 0.  0.
         12    1    1    2    0    0  0.38638146616E+02 -0.72638565413E+01 -0.10367998700E+02  0.40659136523E+02  0.00000000000E+00 0. -1.
         11    1    3    3    0    0 -0.29688721994E+02  0.17957451808E+02  0.97375385675E+01  0.36037618494E+02  0.51100000000E-03 0. -1.
        -11    1    3    3    0    0 -0.36226012641E+01 -0.22396584205E+01  0.13641061169E+01  0.44721466342E+01  0.51100000000E-03 0.  1.
         12    1    3    3    0    0 -0.53268233577E+01 -0.84539368466E+01 -0.73364598478E+00  0.10019098349E+02  0.00000000000E+00 0. -1.
</event>
<event>
 7    1  0.2891523E-011  0.5052886E+02  0.7816164E-02  0.1300439E+00
        -11   -1    0    0    0    0  0.00000000000E+00  0.00000000000E+00  0.45593999997E+02  0.45594000000E+02  0.51100000000E-03 0.  1.
         11   -1    0    0    0    0 -0.00000000000E+00 -0.00000000000E+00 -0.45593999997E+02  0.45594000000E+02  0.51100000000E-03 0. -1.
    9900012    2    1    2    0    0  0.33682744600E+02  0.22164879032E+02  0.52303103636E+01  0.50528864584E+02  0.30000014389E+02 0.  0.
         12    1    1    2    0    0 -0.33682744600E+02 -0.22164879032E+02 -0.52303103636E+01  0.40659135416E+02  0.00000000000E+00 0. -1.
         11    1    3    3    0    0  0.16081241351E+02  0.29952291123E+01 -0.67453583626E+01  0.17693998433E+02  0.51100000000E-03 0. -1.
        -11    1    3    3    0    0  0.57282501059E+01  0.14845974481E+02  0.12427871013E+02  0.20190784674E+02  0.51100000000E-03 0.  1.
        -12    1    3    3    0    0  0.11873253143E+02  0.43236754386E+01 -0.45220228708E+00  0.12644081477E+02  0.00000000000E+00 0.  1.
</event>
<event>
 7    1  0.2891523E-011  0.5052886E+02  0.7816164E-02  0.1300439E+00
        -11   -1    0    0    0    0  0.00000000000E+00  0.00000000000E+00  0.45593999997E+02  0.45594000000E+02  0.51100000000E-03 0.  1.
         11   -1    0    0    0    0 -0.00000000000E+00 -0.00000000000E+00 -0.45593999997E+02  0.45594000000E+02  0.51100000000E-03 0. -1.
    9900012    2    1    2    0    0 -0.14787563128E+02  0.25700664215E+02  0.27820301357E+02  0.50528864102E+02  0.30000012926E+02 0.  0.
         12    1    1    2    0    0  0.14787563128E+02 -0.25700664215E+02 -0.27820301357E+02  0.40659135898E+02  0.00000000000E+00 0. -1.
         11    1    3    3    0    0 -0.73663454994E+01  0.37908726982E+01 -0.44410243259E+00  0.82964443627E+01  0.51100000000E-03 0. -1.
        -11    1    3    3    0    0 -0.38574555780E+01  0.23082101756E+02  0.13538561805E+02  0.27036198717E+02  0.51100000000E-03 0.  1.
        -12    1    3    3    0    0 -0.35637620504E+01 -0.11723102393E+01  0.14725841984E+02  0.15196221023E+02  0.00000000000E+00 0.  1.
</event>
<event>
 7    1  0.2891523E-011  0.5052886E+02  0.7816164E-02  0.1300439E+00
        -11   -1    0    0    0    0  0.00000000000E+00  0.00000000000E+00  0.45593999997E+02  0.45594000000E+02  0.51100000000E-03 0.  1.
         11   -1    0    0    0    0 -0.00000000000E+00 -0.00000000000E+00 -0.45593999997E+02  0.45594000000E+02  0.51100000000E-03 0. -1.
    9900012    2    1    2    0    0 -0.80166126296E+01  0.41518242176E+01  0.39644195293E+02  0.50528856590E+02  0.29999990092E+02 0.  0.
         12    1    1    2    0    0  0.80166126296E+01 -0.41518242176E+01 -0.39644195293E+02  0.40659143410E+02  0.00000000000E+00 0. -1.
         11    1    3    3    0    0 -0.36522687637E+01 -0.94230309213E+01  0.51313968640E+01  0.11334187792E+02  0.51100000000E-03 0. -1.
        -11    1    3    3    0    0 -0.15709945529E+01  0.36673298772E+01  0.24540135196E+02  0.24862332312E+02  0.51100000000E-03 0.  1.
         12    1    3    3    0    0 -0.27933493130E+01  0.99075252617E+01  0.99726632333E+01  0.14332336486E+02  0.00000000000E+00 0. -1.
</event>
<event>
 7    1  0.2891523E-011  0.5052887E+02  0.7816164E-02  0.1300439E+00
        -11   -1    0    0    0    0  0.00000000000E+00  0.00000000000E+00  0.45593999997E+02  0.45594000000E+02  0.51100000000E-03 0.  1.
         11   -1    0    0    0    0 -0.00000000000E+00 -0.00000000000E+00 -0.45593999997E+02  0.45594000000E+02  0.51100000000E-03 0. -1.
    9900012    2    1    2    0    0 -0.21029905507E+02 -0.30006149016E+02  0.17622124075E+02  0.50528866201E+02  0.30000019303E+02 0.  0.
         12    1    1    2    0    0  0.21029905507E+02  0.30006149016E+02 -0.17622124075E+02  0.40659133799E+02  0.00000000000E+00 0. -1.
         11    1    3    3    0    0 -0.21283047942E+01 -0.74083022209E+00 -0.63554189036E+01  0.67431343169E+01  0.51100000000E-03 0. -1.
        -11    1    3    3    0    0 -0.12878486919E+02 -0.24623397961E+02  0.23091277133E+02  0.36129963083E+02  0.51100000000E-03 0.  1.
        -12    1    3    3    0    0 -0.60231137930E+01 -0.46419208334E+01  0.88626584567E+00  0.76557688011E+01  0.00000000000E+00 0.  1.
</event>
<event>
 7    1  0.2891523E-011  0.5052886E+02  0.7816164E-02  0.1300439E+00
        -11   -1    0    0    0    0  0.00000000000E+00  0.00000000000E+00  0.45593999997E+02  0.45594000000E+02  0.51100000000E-03 0. -1.
         11   -1    0    0    0    0 -0.00000000000E+00 -0.00000000000E+00 -0.45593999997E+02  0.45594000000E+02  0.51100000000E-03 0.  1.
    9900012    2    1    2    0    0 -0.69320047220E+01 -0.16776560345E+02 -0.36382142927E+02  0.50528856004E+02  0.29999988311E+02 0.  0.
         12    1    1    2    0    0  0.69320047220E+01  0.16776560345E+02  0.36382142927E+02  0.40659143996E+02  0.00000000000E+00 0. -1.
         11    1    3    3    0    0 -0.49803529168E+01  0.67324181025E+01 -0.11260332018E+02  0.14032977093E+02  0.51100000000E-03 0. -1.
        -11    1    3    3    0    0 -0.11741973786E+01 -0.22694903231E+02 -0.17215506901E+02  0.28509841288E+02  0.51100000000E-03 0.  1.
        -12    1    3    3    0    0 -0.77745442657E+00 -0.81407521626E+00 -0.79063040080E+01  0.79860376227E+01  0.00000000000E+00 0.  1.
</event>
<event>
 7    1  0.2891523E-011  0.5052886E+02  0.7816164E-02  0.1300439E+00
        -11   -1    0    0    0    0  0.00000000000E+00  0.00000000000E+00  0.45593999997E+02  0.45594000000E+02  0.51100000000E-03 0. -1.
         11   -1    0    0    0    0 -0.00000000000E+00 -0.00000000000E+00 -0.45593999997E+02  0.45594000000E+02  0.51100000000E-03 0.  1.
    9900012    2    1    2    0    0 -0.24591091884E+02 -0.32213156100E+02  0.32796988687E+01  0.50528860183E+02  0.30000001013E+02 0.  0.
         12    1    1    2    0    0  0.24591091884E+02  0.32213156100E+02 -0.32796988687E+01  0.40659139817E+02  0.00000000000E+00 0. -1.
         11    1    3    3    0    0 -0.21172270148E+02 -0.26996438035E+02  0.85631525599E+01  0.35360999305E+02  0.51100000000E-03 0. -1.
        -11    1    3    3    0    0  0.24778178960E+01  0.24196251719E+01  0.10593293121E+01  0.36216496726E+01  0.51100000000E-03 0.  1.
        -12    1    3    3    0    0 -0.58966396325E+01 -0.76363432365E+01 -0.63427830033E+01  0.11546211206E+02  0.00000000000E+00 0.  1.
</event>
<event>
 7    1  0.2891523E-011  0.5052886E+02  0.7816164E-02  0.1300439E+00
        -11   -1    0    0    0    0  0.00000000000E+00  0.00000000000E+00  0.45593999997E+02  0.45594000000E+02  0.51100000000E-03 0. -1.
         11   -1    0    0    0    0 -0.00000000000E+00 -0.00000000000E+00 -0.45593999997E+02  0.45594000000E+02  0.51100000000E-03 0.  1.
    9900012    2    1    2    0    0 -0.36156860155E+02 -0.44789404602E+00  0.18591569952E+02  0.50528860577E+02  0.30000002211E+02 0.  0.
         12    1    1    2    0    0  0.36156860155E+02  0.44789404602E+00 -0.18591569952E+02  0.40659139423E+02  0.00000000000E+00 0. -1.
         11    1    3    3    0    0 -0.75595231796E-01 -0.12107824286E+01 -0.11652414380E+00  0.12187234575E+01  0.51100000000E-03 0. -1.
        -11    1    3    3    0    0 -0.59037964647E+01  0.33162534029E+01 -0.68866156690E+01  0.96580445724E+01  0.51100000000E-03 0.  1.
        -12    1    3    3    0    0 -0.30177468458E+02 -0.25533650202E+01  0.25594709764E+02  0.39652092548E+02  0.00000000000E+00 0.  1.
</event>
<event>
 7    1  0.2891523E-011  0.5052896E+02  0.7816164E-02  0.1300438E+00
        -11   -1    0    0    0    0  0.00000000000E+00  0.00000000000E+00  0.45593999997E+02  0.45594000000E+02  0.51100000000E-03 0.  1.
         11   -1    0    0    0    0 -0.00000000000E+00 -0.00000000000E+00 -0.45593999997E+02  0.45594000000E+02  0.51100000000E-03 0. -1.
    9900012    2    1    2    0    0  0.19840292035E+02  0.18999987222E+01  0.35438829720E+02  0.50528956294E+02  0.30000293151E+02 0.  0.
         12    1    1    2    0    0 -0.19840292035E+02 -0.18999987222E+01 -0.35438829720E+02  0.40659043706E+02  0.00000000000E+00 0. -1.
         11    1    3    3    0    0  0.16002187945E+02  0.54920151708E+01  0.19949859325E+02  0.26157773931E+02  0.51100000000E-03 0.  1.
        -11    1    3    3    0    0 -0.63331210646E+01 -0.41328435999E+01  0.27182677298E+01  0.80360312563E+01  0.51100000000E-03 0. -1.
         12    1    3    3    0    0  0.10171225154E+02  0.54082715132E+00  0.12770702665E+02  0.16335151107E+02  0.00000000000E+00 0. -1.
</event>
<event>
 7    1  0.2891523E-011  0.5052886E+02  0.7816164E-02  0.1300439E+00
        -11   -1    0    0    0    0  0.00000000000E+00  0.00000000000E+00  0.45593999997E+02  0.45594000000E+02  0.51100000000E-03 0. -1.
         11   -1    0    0    0    0 -0.00000000000E+00 -0.00000000000E+00 -0.45593999997E+02  0.45594000000E+02  0.51100000000E-03 0.  1.
    9900012    2    1    2    0    0 -0.24064669747E+02  0.25719500968E+02  0.20311680544E+02  0.50528862938E+02  0.30000009387E+02 0.  0.
         12    1    1    2    0    0  0.24064669747E+02 -0.25719500968E+02 -0.20311680544E+02  0.40659137062E+02  0.00000000000E+00 0. -1.
         11    1    3    3    0    0 -0.16689231784E+02  0.30648447447E+01  0.10224733832E+02  0.19810828176E+02  0.51100000000E-03 0. -1.
        -11    1    3    3    0    0  0.31102919237E+01  0.11495597829E+02 -0.79063030391E+00  0.11935149008E+02  0.51100000000E-03 0.  1.
         12    1    3    3    0    0 -0.10485729887E+02  0.11159058394E+02  0.10877577016E+02  0.18782885754E+02  0.00000000000E+00 0. -1.
</event>
<event>
 7    1  0.2891523E-011  0.5052885E+02  0.7816164E-02  0.1300439E+00
        -11   -1    0    0    0    0  0.00000000000E+00  0.00000000000E+00  0.45593999997E+02  0.45594000000E+02  0.51100000000E-03 0. -1.
         11   -1    0    0    0    0 -0.00000000000E+00 -0.00000000000E+00 -0.45593999997E+02  0.45594000000E+02  0.51100000000E-03 0.  1.
    9900012    2    1    2    0    0 -0.29894476764E+02  0.74680628903E+01 -0.26527624937E+02  0.50528848642E+02  0.29999965932E+02 0.  0.
         12    1    1    2    0    0  0.29894476764E+02 -0.74680628903E+01  0.26527624937E+02  0.40659151358E+02  0.00000000000E+00 0. -1.
         11    1    3    3    0    0 -0.19432298088E+02  0.13374469515E+02 -0.61134318871E+01  0.24369339209E+02  0.51100000000E-03 0. -1.
        -11    1    3    3    0    0 -0.11744087702E+02 -0.19689665960E+01 -0.12735145112E+02  0.17435146879E+02  0.51100000000E-03 0.  1.
         12    1    3    3    0    0  0.12819090258E+01 -0.39374400290E+01 -0.76790479382E+01  0.87243625538E+01  0.00000000000E+00 0. -1.
</event>
<event>
 7    1  0.2891523E-011  0.5052886E+02  0.7816164E-02  0.1300439E+00
        -11   -1    0    0    0    0  0.00000000000E+00  0.00000000000E+00  0.45593999997E+02  0.45594000000E+02  0.51100000000E-03 0.  1.
         11   -1    0    0    0    0 -0.00000000000E+00 -0.00000000000E+00 -0.45593999997E+02  0.45594000000E+02  0.51100000000E-03 0. -1.
    9900012    2    1    2    0    0  0.59761665204E+01 -0.31842336773E+02  0.24566582181E+02  0.50528856655E+02  0.29999990289E+02 0.  0.
         12    1    1    2    0    0 -0.59761665204E+01  0.31842336773E+02 -0.24566582181E+02  0.40659143345E+02  0.00000000000E+00 0. -1.
         11    1    3    3    0    0 -0.33397449109E+01 -0.31376208199E+01 -0.39029866322E+01  0.60192911037E+01  0.51100000000E-03 0. -1.
        -11    1    3    3    0    0  0.52267670310E+01 -0.13731761172E+02  0.24369027093E+02  0.28455752322E+02  0.51100000000E-03 0.  1.
        -12    1    3    3    0    0  0.40891444003E+01 -0.14972954781E+02  0.41005417199E+01  0.16053813229E+02  0.00000000000E+00 0.  1.
</event>
<event>
 7    1  0.2891523E-011  0.5052884E+02  0.7816164E-02  0.1300439E+00
        -11   -1    0    0    0    0  0.00000000000E+00  0.00000000000E+00  0.45593999997E+02  0.45594000000E+02  0.51100000000E-03 0. -1.
         11   -1    0    0    0    0 -0.00000000000E+00 -0.00000000000E+00 -0.45593999997E+02  0.45594000000E+02  0.51100000000E-03 0.  1.
    9900012    2    1    2    0    0 -0.78666011435E+01  0.39601493795E+02 -0.47964287787E+01  0.50528838014E+02  0.29999933628E+02 0.  0.
         12    1    1    2    0    0  0.78666011435E+01 -0.39601493795E+02  0.47964287787E+01  0.40659161986E+02  0.00000000000E+00 0. -1.
         11    1    3    3    0    0  0.47871756438E+01 -0.21566327526E+01  0.83173246099E+00  0.53160036326E+01  0.51100000000E-03 0. -1.
        -11    1    3    3    0    0 -0.11313221020E+02  0.23146535738E+02 -0.14384233585E+00  0.25763768696E+02  0.51100000000E-03 0.  1.
         12    1    3    3    0    0 -0.13405557672E+01  0.18611590809E+02 -0.54843189038E+01  0.19449065686E+02  0.00000000000E+00 0. -1.
</event>
<event>
 7    1  0.2891523E-011  0.5052884E+02  0.7816164E-02  0.1300439E+00
        -11   -1    0    0    0    0  0.00000000000E+00  0.00000000000E+00  0.45593999997E+02  0.45594000000E+02  0.51100000000E-03 0. -1.
         11   -1    0    0    0    0 -0.00000000000E+00 -0.00000000000E+00 -0.45593999997E+02  0.45594000000E+02  0.51100000000E-03 0.  1.
    9900012    2    1    2    0    0 -0.10708579760E+01  0.26818400129E+02 -0.30541671616E+02  0.50528843253E+02  0.29999949551E+02 0.  0.
         12    1    1    2    0    0  0.10708579760E+01 -0.26818400129E+02  0.30541671616E+02  0.40659156747E+02  0.00000000000E+00 0. -1.
         11    1    3    3    0    0 -0.42873522806E+01  0.15426510074E+02 -0.22370826932E+02  0.27510225381E+02  0.51100000000E-03 0.  1.
        -11    1    3    3    0    0 -0.37639863652E+01  0.43548176368E+01  0.42300293713E+01  0.71431910761E+01  0.51100000000E-03 0. -1.
        -12    1    3    3    0    0  0.69804806698E+01  0.70370724180E+01 -0.12400874056E+02  0.15875426796E+02  0.00000000000E+00 0.  1.
</event>
<event>
 7    1  0.2891523E-011  0.5052886E+02  0.7816164E-02  0.1300439E+00
        -11   -1    0    0    0    0  0.00000000000E+00  0.00000000000E+00  0.45593999997E+02  0.45594000000E+02  0.51100000000E-03 0.  1.
         11   -1    0    0    0    0 -0.00000000000E+00 -0.00000000000E+00 -0.45593999997E+02  0.45594000000E+02  0.51100000000E-03 0. -1.
    9900012    2    1    2    0    0  0.40478531838E+02  0.54938929988E+00  0.37884826357E+01  0.50528856267E+02  0.29999989110E+02 0.  0.
         12    1    1    2    0    0 -0.40478531838E+02 -0.54938929988E+00 -0.37884826357E+01  0.40659143733E+02  0.00000000000E+00 0. -1.
         11    1    3    3    0    0  0.10731502657E+02 -0.66164815172E+01  0.12073786671E+02  0.17456210980E+02  0.51100000000E-03 0. -1.
        -11    1    3    3    0    0  0.67777075597E+01  0.12947410601E+01 -0.61944824757E+01  0.92728252211E+01  0.51100000000E-03 0.  1.
        -12    1    3    3    0    0  0.22969321622E+02  0.58711297570E+01 -0.20908215593E+01  0.23799820066E+02  0.00000000000E+00 0.  1.
</event>
<event>
 7    1  0.2891523E-011  0.5052881E+02  0.7816164E-02  0.1300439E+00
        -11   -1    0    0    0    0  0.00000000000E+00  0.00000000000E+00  0.45593999997E+02  0.45594000000E+02  0.51100000000E-03 0.  1.
         11   -1    0    0    0    0 -0.00000000000E+00 -0.00000000000E+00 -0.45593999997E+02  0.45594000000E+02  0.51100000000E-03 0. -1.
    9900012    2    1    2    0    0 -0.29984512696E+02  0.20726532880E+02  0.18014137751E+02  0.50528814989E+02  0.29999863640E+02 0.  0.
         12    1    1    2    0    0  0.29984512696E+02 -0.20726532880E+02 -0.18014137751E+02  0.40659185011E+02  0.00000000000E+00 0. -1.
         11    1    3    3    0    0  0.48193137744E+01  0.66321641619E+01  0.77569183490E+00  0.82348700542E+01  0.51100000000E-03 0. -1.
        -11    1    3    3    0    0 -0.28964843672E+02  0.10992945547E+02  0.17674842469E+02  0.35668011962E+02  0.51100000000E-03 0.  1.
        -12    1    3    3    0    0 -0.58389827981E+01  0.31014231711E+01 -0.43639655307E+00  0.66259329724E+01  0.00000000000E+00 0.  1.
</event>
<event>
 7    1  0.2891523E-011  0.5052885E+02  0.7816164E-02  0.1300439E+00
        -11   -1    0    0    0    0  0.00000000000E+00  0.00000000000E+00  0.45593999997E+02  0.45594000000E+02  0.51100000000E-03 0.  1.
         11   -1    0    0    0    0 -0.00000000000E+00 -0.00000000000E+00 -0.45593999997E+02  0.45594000000E+02  0.51100000000E-03 0. -1.
    9900012    2    1    2    0    0  0.11679047099E+02 -0.14915965393E+01  0.38917112092E+02  0.50528848325E+02  0.29999964968E+02 0.  0.
         12    1    1    2    0    0 -0.11679047099E+02  0.14915965393E+01 -0.38917112092E+02  0.40659151675E+02  0.00000000000E+00 0. -1.
         11    1    3    3    0    0  0.63031599381E+01  0.28680793034E+01  0.49693148228E+01  0.85234848604E+01  0.51100000000E-03 0. -1.
        -11    1    3    3    0    0 -0.71141646391E+01 -0.55019541205E+01  0.46254062726E+01  0.10113220115E+02  0.51100000000E-03 0.  1.
        -12    1    3    3    0    0  0.12490051800E+02  0.11422782778E+01  0.29322390997E+02  0.31892143349E+02  0.00000000000E+00 0.  1.
</event>
<event>
 7    1  0.2891523E-011  0.5052885E+02  0.7816164E-02  0.1300439E+00
        -11   -1    0    0    0    0  0.00000000000E+00  0.00000000000E+00  0.45593999997E+02  0.45594000000E+02  0.51100000000E-03 0.  1.
         11   -1    0    0    0    0 -0.00000000000E+00 -0.00000000000E+00 -0.45593999997E+02  0.45594000000E+02  0.51100000000E-03 0. -1.
    9900012    2    1    2    0    0  0.29797854168E+02  0.23502334115E+01  0.27563211334E+02  0.50528851839E+02  0.29999975650E+02 0.  0.
         12    1    1    2    0    0 -0.29797854168E+02 -0.23502334115E+01 -0.27563211334E+02  0.40659148161E+02  0.00000000000E+00 0. -1.
         11    1    3    3    0    0 -0.36641215568E+01  0.36585569113E+00  0.55313824187E+00  0.37236540314E+01  0.51100000000E-03 0. -1.
        -11    1    3    3    0    0  0.20239633083E+02 -0.76344851095E+01  0.17967355868E+02  0.28120348279E+02  0.51100000000E-03 0.  1.
        -12    1    3    3    0    0  0.13222342642E+02  0.96188628299E+01  0.90427172247E+01  0.18684849528E+02  0.00000000000E+00 0.  1.
</event>
<event>
 7    1  0.2891523E-011  0.5052886E+02  0.7816164E-02  0.1300439E+00
        -11   -1    0    0    0    0  0.00000000000E+00  0.00000000000E+00  0.45593999997E+02  0.45594000000E+02  0.51100000000E-03 0. -1.
         11   -1    0    0    0    0 -0.00000000000E+00 -0.00000000000E+00 -0.45593999997E+02  0.45594000000E+02  0.51100000000E-03 0.  1.
    9900012    2    1    2    0    0 -0.56263431431E+00  0.37647592480E+01 -0.40480558076E+02  0.50528861399E+02  0.30000004710E+02 0.  0.
         12    1    1    2    0    0  0.56263431431E+00 -0.37647592480E+01  0.40480558076E+02  0.40659138601E+02  0.00000000000E+00 0. -1.
         11    1    3    3    0    0 -0.75302399178E+01 -0.95128523740E+00 -0.13342874971E+02  0.15350627661E+02  0.51100000000E-03 0. -1.
        -11    1    3    3    0    0  0.12428192744E+02  0.83477792164E+01 -0.22935313514E+02  0.27389304463E+02  0.51100000000E-03 0.  1.
        -12    1    3    3    0    0 -0.54605871406E+01 -0.36317347310E+01 -0.42023695915E+01  0.77889292756E+01  0.00000000000E+00 0.  1.
</event>
<event>
 7    1  0.2891523E-011  0.5052886E+02  0.7816164E-02  0.1300439E+00
        -11   -1    0    0    0    0  0.00000000000E+00  0.00000000000E+00  0.45593999997E+02  0.45594000000E+02  0.51100000000E-03 0.  1.
         11   -1    0    0    0    0 -0.00000000000E+00 -0.00000000000E+00 -0.45593999997E+02  0.45594000000E+02  0.51100000000E-03 0. -1.
    9900012    2    1    2    0    0  0.18648318240E+02 -0.37187983637E+01  0.35938507905E+02  0.50528860991E+02  0.30000003470E+02 0.  0.
         12    1    1    2    0    0 -0.18648318240E+02  0.37187983637E+01 -0.35938507905E+02  0.40659139009E+02  0.00000000000E+00 0. -1.
         11    1    3    3    0    0  0.14703055980E+01  0.95551617633E+00 -0.15142023262E+01  0.23168121764E+01  0.51100000000E-03 0. -1.
        -11    1    3    3    0    0  0.11589210896E+02 -0.14766861253E+02  0.21821261855E+02  0.28784326806E+02  0.51100000000E-03 0.  1.
        -12    1    3    3    0    0  0.55888017459E+01  0.10092546713E+02  0.15631448376E+02  0.19427722009E+02  0.00000000000E+00 0.  1.
</event>
<event>
 7    1  0.2891523E-011  0.5052876E+02  0.7816164E-02  0.1300439E+00
        -11   -1    0    0    0    0  0.00000000000E+00  0.00000000000E+00  0.45593999997E+02  0.45594000000E+02  0.51100000000E-03 0.  1.
         11   -1    0    0    0    0 -0.00000000000E+00 -0.00000000000E+00 -0.45593999997E+02  0.45594000000E+02  0.51100000000E-03 0. -1.
    9900012    2    1    2    0    0  0.34111265794E+02 -0.30285581015E+01  0.21918559659E+02  0.50528759036E+02  0.29999693564E+02 0.  0.
         12    1    1    2    0    0 -0.34111265794E+02  0.30285581015E+01 -0.21918559659E+02  0.40659240964E+02  0.00000000000E+00 0. -1.
         11    1    3    3    0    0  0.24233831301E+02  0.56847839467E+01  0.39999164430E+01  0.25211003151E+02  0.51100000000E-03 0. -1.
        -11    1    3    3    0    0  0.68003510860E+01 -0.88288295944E+01  0.19022599772E+02  0.22046594051E+02  0.51100000000E-03 0.  1.
        -12    1    3    3    0    0  0.30770834069E+01  0.11548754623E+00 -0.11039565560E+01  0.32711618340E+01  0.00000000000E+00 0.  1.
</event>
<event>
 7    1  0.2891523E-011  0.5052886E+02  0.7816164E-02  0.1300439E+00
        -11   -1    0    0    0    0  0.00000000000E+00  0.00000000000E+00  0.45593999997E+02  0.45594000000E+02  0.51100000000E-03 0. -1.
         11   -1    0    0    0    0 -0.00000000000E+00 -0.00000000000E+00 -0.45593999997E+02  0.45594000000E+02  0.51100000000E-03 0.  1.
    9900012    2    1    2    0    0 -0.92921997040E+01  0.38834971578E+02 -0.76593481144E+01  0.50528860728E+02  0.30000002669E+02 0.  0.
         12    1    1    2    0    0  0.92921997040E+01 -0.38834971578E+02  0.76593481144E+01  0.40659139272E+02  0.00000000000E+00 0. -1.
         11    1    3    3    0    0  0.41677088295E+01  0.14463121478E+02  0.69735759802E+01  0.16588623872E+02  0.51100000000E-03 0.  1.
        -11    1    3    3    0    0 -0.15077634558E+02  0.23907394992E+02 -0.15287689782E+02  0.32134281668E+02  0.51100000000E-03 0. -1.
         12    1    3    3    0    0  0.16177260243E+01  0.46445510823E+00  0.65476568719E+00  0.18059551883E+01  0.00000000000E+00 0. -1.
</event>
<event>
 7    1  0.2891523E-011  0.5052882E+02  0.7816164E-02  0.1300439E+00
        -11   -1    0    0    0    0  0.00000000000E+00  0.00000000000E+00  0.45593999997E+02  0.45594000000E+02  0.51100000000E-03 0.  1.
         11   -1    0    0    0    0 -0.00000000000E+00 -0.00000000000E+00 -0.45593999997E+02  0.45594000000E+02  0.51100000000E-03 0. -1.
    9900012    2    1    2    0    0  0.58252882311E+01  0.22762745435E+02  0.33182715805E+02  0.50528816647E+02  0.29999868681E+02 0.  0.
         12    1    1    2    0    0 -0.58252882311E+01 -0.22762745435E+02 -0.33182715805E+02  0.40659183353E+02  0.00000000000E+00 0. -1.
         11    1    3    3    0    0  0.10880300389E+01  0.97423851403E+01  0.83673419032E+00  0.98385975603E+01  0.51100000000E-03 0. -1.
        -11    1    3    3    0    0 -0.45836588745E+01  0.13851726600E+02  0.24324747718E+02  0.28365006791E+02  0.51100000000E-03 0.  1.
        -12    1    3    3    0    0  0.93209170666E+01 -0.83136630588E+00  0.80212338974E+01  0.12325212296E+02  0.00000000000E+00 0.  1.
</event>
<event>
 7    1  0.2891523E-011  0.5052886E+02  0.7816164E-02  0.1300439E+00
        -11   -1    0    0    0    0  0.00000000000E+00  0.00000000000E+00  0.45593999997E+02  0.45594000000E+02  0.51100000000E-03 0. -1.
         11   -1    0    0    0    0 -0.00000000000E+00 -0.00000000000E+00 -0.45593999997E+02  0.45594000000E+02  0.51100000000E-03 0.  1.
    9900012    2    1    2    0    0 -0.34902531244E+01  0.58230559918E+01 -0.40088354462E+02  0.50528855746E+02  0.29999987527E+02 0.  0.
         12    1    1    2    0    0  0.34902531244E+01 -0.58230559918E+01  0.40088354462E+02  0.40659144254E+02  0.00000000000E+00 0. -1.
         11    1    3    3    0    0 -0.12077079474E+02  0.86347443014E+01 -0.10076938168E+02  0.17943225487E+02  0.51100000000E-03 0. -1.
        -11    1    3    3    0    0  0.86150387534E+01  0.59594662462E+00 -0.25561173137E+02  0.26980504397E+02  0.51100000000E-03 0.  1.
         12    1    3    3    0    0 -0.28212404220E-01 -0.34076349342E+01 -0.44502431567E+01  0.56051258629E+01  0.00000000000E+00 0. -1.
</event>
<event>
 7    1  0.2891523E-011  0.5052885E+02  0.7816164E-02  0.1300439E+00
        -11   -1    0    0    0    0  0.00000000000E+00  0.00000000000E+00  0.45593999997E+02  0.45594000000E+02  0.51100000000E-03 0. -1.
         11   -1    0    0    0    0 -0.00000000000E+00 -0.00000000000E+00 -0.45593999997E+02  0.45594000000E+02  0.51100000000E-03 0.  1.
    9900012    2    1    2    0    0 -0.61714144017E+01 -0.25593447772E+02 -0.30984761966E+02  0.50528850984E+02  0.29999973051E+02 0.  0.
         12    1    1    2    0    0  0.61714144017E+01  0.25593447772E+02  0.30984761966E+02  0.40659149016E+02  0.00000000000E+00 0. -1.
         11    1    3    3    0    0  0.12759573445E+01 -0.43661212100E+01  0.12043917011E+01  0.47054905373E+01  0.51100000000E-03 0. -1.
        -11    1    3    3    0    0 -0.14450533255E+02 -0.10522492037E+02 -0.26153654835E+02  0.31678926931E+02  0.51100000000E-03 0.  1.
        -12    1    3    3    0    0  0.70031615085E+01 -0.10704834526E+02 -0.60354988326E+01  0.14144433516E+02  0.00000000000E+00 0.  1.
</event>
<event>
 7    1  0.2891523E-011  0.5052887E+02  0.7816164E-02  0.1300439E+00
        -11   -1    0    0    0    0  0.00000000000E+00  0.00000000000E+00  0.45593999997E+02  0.45594000000E+02  0.51100000000E-03 0. -1.
         11   -1    0    0    0    0 -0.00000000000E+00 -0.00000000000E+00 -0.45593999997E+02  0.45594000000E+02  0.51100000000E-03 0.  1.
    9900012    2    1    2    0    0 -0.19048109412E+01  0.39436621719E+02  0.97102692072E+01  0.50528871070E+02  0.30000034103E+02 0.  0.
         12    1    1    2    0    0  0.19048109412E+01 -0.39436621719E+02 -0.97102692072E+01  0.40659128930E+02  0.00000000000E+00 0. -1.
         11    1    3    3    0    0 -0.40517883628E+00  0.39879423555E+02  0.12330403264E+02  0.41744118602E+02  0.51100000000E-03 0. -1.
        -11    1    3    3    0    0  0.22517504055E+01  0.13069066340E+01 -0.36837516133E+01  0.45109213082E+01  0.51100000000E-03 0.  1.
         12    1    3    3    0    0 -0.37513825105E+01 -0.17497084702E+01  0.10636175561E+01  0.42738311590E+01  0.00000000000E+00 0. -1.
</event>
<event>
 7    1  0.2891523E-011  0.5052886E+02  0.7816164E-02  0.1300439E+00
        -11   -1    0    0    0    0  0.00000000000E+00  0.00000000000E+00  0.45593999997E+02  0.45594000000E+02  0.51100000000E-03 0.  1.
         11   -1    0    0    0    0 -0.00000000000E+00 -0.00000000000E+00 -0.45593999997E+02  0.45594000000E+02  0.51100000000E-03 0. -1.
    9900012    2    1    2    0    0  0.36849727709E+02  0.21231702470E+01  0.17051548779E+02  0.50528860807E+02  0.30000002909E+02 0.  0.
         12    1    1    2    0    0 -0.36849727709E+02 -0.21231702470E+01 -0.17051548779E+02  0.40659139193E+02  0.00000000000E+00 0. -1.
         11    1    3    3    0    0  0.24572797360E+01  0.10523078982E+02  0.67573742233E+01  0.12745019483E+02  0.51100000000E-03 0. -1.
        -11    1    3    3    0    0  0.23292213847E+02 -0.27365651707E+01  0.38892784210E+01  0.23772726005E+02  0.51100000000E-03 0.  1.
         12    1    3    3    0    0  0.11100234127E+02 -0.56633435641E+01  0.64048961348E+01  0.14011115319E+02  0.00000000000E+00 0. -1.
</event>
<event>
 7    1  0.2891523E-011  0.5052886E+02  0.7816164E-02  0.1300439E+00
        -11   -1    0    0    0    0  0.00000000000E+00  0.00000000000E+00  0.45593999997E+02  0.45594000000E+02  0.51100000000E-03 0. -1.
         11   -1    0    0    0    0 -0.00000000000E+00 -0.00000000000E+00 -0.45593999997E+02  0.45594000000E+02  0.51100000000E-03 0.  1.
    9900012    2    1    2    0    0 -0.24314875424E+02 -0.14920886970E+02 -0.28971016888E+02  0.50528857677E+02  0.29999993396E+02 0.  0.
         12    1    1    2    0    0  0.24314875424E+02  0.14920886970E+02  0.28971016888E+02  0.40659142323E+02  0.00000000000E+00 0. -1.
         11    1    3    3    0    0 -0.10383651178E+02  0.57127590682E+01 -0.10521184603E+02  0.15847749167E+02  0.51100000000E-03 0.  1.
        -11    1    3    3    0    0 -0.45146950052E+01 -0.18471509451E+02 -0.85530604680E+01  0.20850275203E+02  0.51100000000E-03 0. -1.
        -12    1    3    3    0    0 -0.94165292410E+01 -0.21621365868E+01 -0.98967718174E+01  0.13830833307E+02  0.00000000000E+00 0.  1.
</event>
<event>
 7    1  0.2891523E-011  0.5052886E+02  0.7816164E-02  0.1300439E+00
        -11   -1    0    0    0    0  0.00000000000E+00  0.00000000000E+00  0.45593999997E+02  0.45594000000E+02  0.51100000000E-03 0.  1.
         11   -1    0    0    0    0 -0.00000000000E+00 -0.00000000000E+00 -0.45593999997E+02  0.45594000000E+02  0.51100000000E-03 0. -1.
    9900012    2    1    2    0    0 -0.19142478216E+02 -0.13650126600E+02  0.33172355640E+02  0.50528860718E+02  0.30000002639E+02 0.  0.
         12    1    1    2    0    0  0.19142478216E+02  0.13650126600E+02 -0.33172355640E+02  0.40659139282E+02  0.00000000000E+00 0. -1.
         11    1    3    3    0    0  0.88490843185E+00 -0.57353803541E+01 -0.88285877186E+00  0.58700162360E+01  0.51100000000E-03 0. -1.
        -11    1    3    3    0    0 -0.21760237751E+02 -0.23815011997E+01  0.20823830143E+02  0.30212768774E+02  0.51100000000E-03 0.  1.
         12    1    3    3    0    0  0.17328511025E+01 -0.55332450463E+01  0.13231384269E+02  0.14446075708E+02  0.00000000000E+00 0. -1.
</event>
<event>
 7    1  0.2891523E-011  0.5052884E+02  0.7816164E-02  0.1300439E+00
        -11   -1    0    0    0    0  0.00000000000E+00  0.00000000000E+00  0.45593999997E+02  0.45594000000E+02  0.51100000000E-03 0.  1.
         11   -1    0    0    0    0 -0.00000000000E+00 -0.00000000000E+00 -0.45593999997E+02  0.45594000000E+02  0.51100000000E-03 0. -1.
    9900012    2    1    2    0    0  0.14467805621E+02 -0.37883722266E+02 -0.29450574163E+01  0.50528841432E+02  0.29999944018E+02 0.  0.
         12    1    1    2    0    0 -0.14467805621E+02  0.37883722266E+02  0.29450574163E+01  0.40659158568E+02  0.00000000000E+00 0. -1.
         11    1    3    3    0    0  0.36757650179E+01 -0.18991923289E+01  0.74121853996E+01  0.84887379880E+01  0.51100000000E-03 0. -1.
        -11    1    3    3    0    0  0.70468037457E+01 -0.13988809903E+02 -0.11905019234E+02  0.19674189405E+02  0.51100000000E-03 0.  1.
        -12    1    3    3    0    0  0.37452368576E+01 -0.21995720034E+02  0.15477764183E+01  0.22365914039E+02  0.00000000000E+00 0.  1.
</event>
<event>
 7    1  0.2891523E-011  0.5052886E+02  0.7816164E-02  0.1300439E+00
        -11   -1    0    0    0    0  0.00000000000E+00  0.00000000000E+00  0.45593999997E+02  0.45594000000E+02  0.51100000000E-03 0.  1.
         11   -1    0    0    0    0 -0.00000000000E+00 -0.00000000000E+00 -0.45593999997E+02  0.45594000000E+02  0.51100000000E-03 0. -1.
    9900012    2    1    2    0    0 -0.26876637085E+02  0.10927250116E+02  0.28485209335E+02  0.50528861213E+02  0.30000004142E+02 0.  0.
         12    1    1    2    0    0  0.26876637085E+02 -0.10927250116E+02 -0.28485209335E+02  0.40659138787E+02  0.00000000000E+00 0. -1.
         11    1    3    3    0    0  0.48759039310E+01  0.31378562576E+01  0.89439145603E+01  0.10658995683E+02  0.51100000000E-03 0. -1.
        -11    1    3    3    0    0 -0.18695722063E+02 -0.10649622772E+01  0.82127927511E+01  0.20447839327E+02  0.51100000000E-03 0.  1.
         12    1    3    3    0    0 -0.13056818953E+02  0.88543561357E+01  0.11328502023E+02  0.19422026204E+02  0.00000000000E+00 0. -1.
</event>
<event>
 7    1  0.2891523E-011  0.5052887E+02  0.7816164E-02  0.1300439E+00
        -11   -1    0    0    0    0  0.00000000000E+00  0.00000000000E+00  0.45593999997E+02  0.45594000000E+02  0.51100000000E-03 0. -1.
         11   -1    0    0    0    0 -0.00000000000E+00 -0.00000000000E+00 -0.45593999997E+02  0.45594000000E+02  0.51100000000E-03 0.  1.
    9900012    2    1    2    0    0  0.10195925522E+02 -0.18083985844E+02  0.34959657844E+02  0.50528866735E+02  0.30000020928E+02 0.  0.
         12    1    1    2    0    0 -0.10195925522E+02  0.18083985844E+02 -0.34959657844E+02  0.40659133265E+02  0.00000000000E+00 0. -1.
         11    1    3    3    0    0 -0.30235694961E+01 -0.20015394448E+02  0.19307169842E+02  0.27973644650E+02  0.51100000000E-03 0. -1.
        -11    1    3    3    0    0  0.49775514741E+01 -0.34764871166E+01  0.39010151727E+01  0.72166405611E+01  0.51100000000E-03 0.  1.
         12    1    3    3    0    0  0.82419435443E+01  0.54078957207E+01  0.11751472830E+02  0.15338581524E+02  0.00000000000E+00 0. -1.
</event>
<event>
 7    1  0.2891523E-011  0.5052882E+02  0.7816164E-02  0.1300439E+00
        -11   -1    0    0    0    0  0.00000000000E+00  0.00000000000E+00  0.45593999997E+02  0.45594000000E+02  0.51100000000E-03 0.  1.
         11   -1    0    0    0    0 -0.00000000000E+00 -0.00000000000E+00 -0.45593999997E+02  0.45594000000E+02  0.51100000000E-03 0. -1.
    9900012    2    1    2    0    0  0.16880065584E+02  0.21795790773E+02  0.29886051899E+02  0.50528816441E+02  0.29999868055E+02 0.  0.
         12    1    1    2    0    0 -0.16880065584E+02 -0.21795790773E+02 -0.29886051899E+02  0.40659183559E+02  0.00000000000E+00 0. -1.
         11    1    3    3    0    0  0.56704172733E+01 -0.29107127511E+01  0.18926034521E+02  0.19970494829E+02  0.51100000000E-03 0. -1.
        -11    1    3    3    0    0  0.43392729899E+01  0.40486018798E+01 -0.50020703096E+00  0.59557262023E+01  0.51100000000E-03 0.  1.
         12    1    3    3    0    0  0.68703753207E+01  0.20657901644E+02  0.11460224409E+02  0.24602595410E+02  0.00000000000E+00 0. -1.
</event>
<event>
 7    1  0.2891523E-011  0.5052887E+02  0.7816164E-02  0.1300439E+00
        -11   -1    0    0    0    0  0.00000000000E+00  0.00000000000E+00  0.45593999997E+02  0.45594000000E+02  0.51100000000E-03 0. -1.
         11   -1    0    0    0    0 -0.00000000000E+00 -0.00000000000E+00 -0.45593999997E+02  0.45594000000E+02  0.51100000000E-03 0.  1.
    9900012    2    1    2    0    0 -0.81183743546E+01  0.39819931651E+02  0.12768225783E+01  0.50528865298E+02  0.30000016559E+02 0.  0.
         12    1    1    2    0    0  0.81183743546E+01 -0.39819931651E+02 -0.12768225783E+01  0.40659134702E+02  0.00000000000E+00 0. -1.
         11    1    3    3    0    0  0.30851029751E+01  0.15365141986E+02 -0.10299985401E+01  0.15705615106E+02  0.51100000000E-03 0. -1.
        -11    1    3    3    0    0 -0.11440536134E+02  0.80758017927E+01  0.95111623009E+01  0.16928279600E+02  0.51100000000E-03 0.  1.
        -12    1    3    3    0    0  0.23705880459E+00  0.16378987872E+02 -0.72043411825E+01  0.17894970591E+02  0.00000000000E+00 0.  1.
</event>
<event>
 7    1  0.2891523E-011  0.5052886E+02  0.7816164E-02  0.1300439E+00
        -11   -1    0    0    0    0  0.00000000000E+00  0.00000000000E+00  0.45593999997E+02  0.45594000000E+02  0.51100000000E-03 0. -1.
         11   -1    0    0    0    0 -0.00000000000E+00 -0.00000000000E+00 -0.45593999997E+02  0.45594000000E+02  0.51100000000E-03 0.  1.
    9900012    2    1    2    0    0 -0.22618584830E+02 -0.97338843807E+01 -0.32354551575E+02  0.50528857209E+02  0.29999991972E+02 0.  0.
         12    1    1    2    0    0  0.22618584830E+02  0.97338843807E+01  0.32354551575E+02  0.40659142791E+02  0.00000000000E+00 0. -1.
         11    1    3    3    0    0 -0.59509238440E+01  0.94507487368E+01 -0.11554774788E+02  0.16069939855E+02  0.51100000000E-03 0. -1.
        -11    1    3    3    0    0 -0.15579748169E+02 -0.16419581006E+02 -0.21697768823E+02  0.31354814073E+02  0.51100000000E-03 0.  1.
        -12    1    3    3    0    0 -0.10879128174E+01 -0.27650521115E+01  0.89799203567E+00  0.31041032802E+01  0.00000000000E+00 0.  1.
</event>
<event>
 7    1  0.2891523E-011  0.5052885E+02  0.7816164E-02  0.1300439E+00
        -11   -1    0    0    0    0  0.00000000000E+00  0.00000000000E+00  0.45593999997E+02  0.45594000000E+02  0.51100000000E-03 0.  1.
         11   -1    0    0    0    0 -0.00000000000E+00 -0.00000000000E+00 -0.45593999997E+02  0.45594000000E+02  0.51100000000E-03 0. -1.
    9900012    2    1    2    0    0 -0.27697500327E+02 -0.12007127373E+02  0.27236814616E+02  0.50528847247E+02  0.29999961693E+02 0.  0.
         12    1    1    2    0    0  0.27697500327E+02  0.12007127373E+02 -0.27236814616E+02  0.40659152753E+02  0.00000000000E+00 0. -1.
         11    1    3    3    0    0  0.25169515298E+01  0.32150405000E+01  0.38281121234E+01  0.55969610603E+01  0.51100000000E-03 0. -1.
        -11    1    3    3    0    0 -0.21851661068E+02 -0.10665095175E+01  0.14289258342E+02  0.26130737422E+02  0.51100000000E-03 0.  1.
         12    1    3    3    0    0 -0.83627907888E+01 -0.14155658356E+02  0.91194441507E+01  0.18801148765E+02  0.00000000000E+00 0. -1.
</event>
<event>
 7    1  0.2891523E-011  0.5052887E+02  0.7816164E-02  0.1300439E+00
        -11   -1    0    0    0    0  0.00000000000E+00  0.00000000000E+00  0.45593999997E+02  0.45594000000E+02  0.51100000000E-03 0. -1.
         11   -1    0    0    0    0 -0.00000000000E+00 -0.00000000000E+00 -0.45593999997E+02  0.45594000000E+02  0.51100000000E-03 0.  1.
    9900012    2    1    2    0    0  0.18570112232E+02  0.16791683831E+02 -0.32036782727E+02  0.50528866196E+02  0.30000019290E+02 0.  0.
         12    1    1    2    0    0 -0.18570112232E+02 -0.16791683831E+02  0.32036782727E+02  0.40659133804E+02  0.00000000000E+00 0. -1.
         11    1    3    3    0    0 -0.24481802557E+01 -0.17802717821E+01  0.23732898526E+01  0.38464866006E+01  0.51100000000E-03 0. -1.
        -11    1    3    3    0    0  0.15903600472E+02  0.54867327708E+01 -0.13905589494E+02  0.21826455596E+02  0.51100000000E-03 0.  1.
         12    1    3    3    0    0  0.51146920163E+01  0.13085222843E+02 -0.20504483085E+02  0.24855923999E+02  0.00000000000E+00 0. -1.
</event>
<event>
 7    1  0.2891523E-011  0.5052886E+02  0.7816164E-02  0.1300439E+00
        -11   -1    0    0    0    0  0.00000000000E+00  0.00000000000E+00  0.45593999997E+02  0.45594000000E+02  0.51100000000E-03 0.  1.
         11   -1    0    0    0    0 -0.00000000000E+00 -0.00000000000E+00 -0.45593999997E+02  0.45594000000E+02  0.51100000000E-03 0. -1.
    9900012    2    1    2    0    0  0.27986924600E+02 -0.69786784933E+01  0.28656514318E+02  0.50528859393E+02  0.29999998610E+02 0.  0.
         12    1    1    2    0    0 -0.27986924600E+02  0.69786784933E+01 -0.28656514318E+02  0.40659140607E+02  0.00000000000E+00 0. -1.
         11    1    3    3    0    0  0.18034972151E+02 -0.89310880982E+01  0.21867809714E+01  0.20243679665E+02  0.51100000000E-03 0. -1.
        -11    1    3    3    0    0  0.10048292972E+02 -0.16766571786E+01  0.23435111721E+02  0.25553548336E+02  0.51100000000E-03 0.  1.
        -12    1    3    3    0    0 -0.96340522917E-01  0.36290667835E+01  0.30346216259E+01  0.47316313918E+01  0.00000000000E+00 0.  1.
</event>
<event>
 7    1  0.2891523E-011  0.5052882E+02  0.7816164E-02  0.1300439E+00
        -11   -1    0    0    0    0  0.00000000000E+00  0.00000000000E+00  0.45593999997E+02  0.45594000000E+02  0.51100000000E-03 0. -1.
         11   -1    0    0    0    0 -0.00000000000E+00 -0.00000000000E+00 -0.45593999997E+02  0.45594000000E+02  0.51100000000E-03 0.  1.
    9900012    2    1    2    0    0  0.29438956389E+02 -0.48607637964E+01 -0.27620454080E+02  0.50528823157E+02  0.29999888469E+02 0.  0.
         12    1    1    2    0    0 -0.29438956389E+02  0.48607637964E+01  0.27620454080E+02  0.40659176843E+02  0.00000000000E+00 0. -1.
         11    1    3    3    0    0  0.17902295274E+02  0.83599385895E+01 -0.53027986222E+01  0.20457282879E+02  0.51100000000E-03 0. -1.
        -11    1    3    3    0    0  0.77463694052E+01 -0.54291019990E+01 -0.18126963072E+02  0.20446715578E+02  0.51100000000E-03 0.  1.
         12    1    3    3    0    0  0.37902917093E+01 -0.77916003869E+01 -0.41906923857E+01  0.96248246998E+01  0.00000000000E+00 0. -1.
</event>
<event>
 7    1  0.2891523E-011  0.5052886E+02  0.7816164E-02  0.1300439E+00
        -11   -1    0    0    0    0  0.00000000000E+00  0.00000000000E+00  0.45593999997E+02  0.45594000000E+02  0.51100000000E-03 0. -1.
         11   -1    0    0    0    0 -0.00000000000E+00 -0.00000000000E+00 -0.45593999997E+02  0.45594000000E+02  0.51100000000E-03 0.  1.
    9900012    2    1    2    0    0  0.26670177161E+02  0.29961596077E+02  0.66460786926E+01  0.50528856486E+02  0.29999989776E+02 0.  0.
         12    1    1    2    0    0 -0.26670177161E+02 -0.29961596077E+02 -0.66460786926E+01  0.40659143514E+02  0.00000000000E+00 0. -1.
         11    1    3    3    0    0 -0.12937577610E+01 -0.86905488605E+00 -0.36577370893E+01  0.39759409471E+01  0.51100000000E-03 0. -1.
        -11    1    3    3    0    0  0.22799203800E+02  0.32567682391E+02  0.10437373605E+02  0.41102267556E+02  0.51100000000E-03 0.  1.
        -12    1    3    3    0    0  0.51647311222E+01 -0.17370314280E+01 -0.13355782339E+00  0.54506479834E+01  0.00000000000E+00 0.  1.
</event>
<event>
 7    1  0.2891523E-011  0.5052885E+02  0.7816164E-02  0.1300439E+00
        -11   -1    0    0    0    0  0.00000000000E+00  0.00000000000E+00  0.45593999997E+02  0.45594000000E+02  0.51100000000E-03 0.  1.
         11   -1    0    0    0    0 -0.00000000000E+00 -0.00000000000E+00 -0.45593999997E+02  0.45594000000E+02  0.51100000000E-03 0. -1.
    9900012    2    1    2    0    0  0.87015062273E+01 -0.39693962869E+02  0.13562450045E+01  0.50528852206E+02  0.29999976764E+02 0.  0.
         12    1    1    2    0    0 -0.87015062273E+01  0.39693962869E+02 -0.13562450045E+01  0.40659147794E+02  0.00000000000E+00 0. -1.
         11    1    3    3    0    0  0.11492323507E+01  0.14119968247E+01 -0.25702904366E+01  0.31497401827E+01  0.51100000000E-03 0. -1.
        -11    1    3    3    0    0  0.73649465864E+01 -0.35440879820E+02 -0.52664532960E+01  0.36579146124E+02  0.51100000000E-03 0.  1.
        -12    1    3    3    0    0  0.18732729020E+00 -0.56650798739E+01  0.91929887371E+01  0.10799965899E+02  0.00000000000E+00 0.  1.
</event>
<event>
 7    1  0.2891523E-011  0.5052886E+02  0.7816164E-02  0.1300439E+00
        -11   -1    0    0    0    0  0.00000000000E+00  0.00000000000E+00  0.45593999997E+02  0.45594000000E+02  0.51100000000E-03 0. -1.
         11   -1    0    0    0    0 -0.00000000000E+00 -0.00000000000E+00 -0.45593999997E+02  0.45594000000E+02  0.51100000000E-03 0.  1.
    9900012    2    1    2    0    0  0.54241131426E+01  0.38335279957E+02  0.12415770521E+02  0.50528855267E+02  0.29999986071E+02 0.  0.
         12    1    1    2    0    0 -0.54241131426E+01 -0.38335279957E+02 -0.12415770521E+02  0.40659144733E+02  0.00000000000E+00 0. -1.
         11    1    3    3    0    0 -0.67493174488E+01  0.28906125441E+02  0.48519384092E+01  0.30077544458E+02  0.51100000000E-03 0. -1.
        -11    1    3    3    0    0  0.87537728226E+01  0.70204901580E+00  0.65346763728E+00  0.88061587350E+01  0.51100000000E-03 0.  1.
        -12    1    3    3    0    0  0.34196577688E+01  0.87271054998E+01  0.69103644750E+01  0.11645152075E+02  0.00000000000E+00 0.  1.
</event>
<event>
 7    1  0.2891523E-011  0.5052887E+02  0.7816164E-02  0.1300439E+00
        -11   -1    0    0    0    0  0.00000000000E+00  0.00000000000E+00  0.45593999997E+02  0.45594000000E+02  0.51100000000E-03 0. -1.
         11   -1    0    0    0    0 -0.00000000000E+00 -0.00000000000E+00 -0.45593999997E+02  0.45594000000E+02  0.51100000000E-03 0.  1.
    9900012    2    1    2    0    0  0.71384942364E+01  0.32274084534E+02 -0.23676794006E+02  0.50528865641E+02  0.30000017601E+02 0.  0.
         12    1    1    2    0    0 -0.71384942364E+01 -0.32274084534E+02  0.23676794006E+02  0.40659134359E+02  0.00000000000E+00 0. -1.
         11    1    3    3    0    0 -0.54280546389E+01  0.11913216158E+02  0.90596651319E+00  0.13122853043E+02  0.51100000000E-03 0. -1.
        -11    1    3    3    0    0  0.31706335565E+01  0.30818867280E+01 -0.14785618041E+02  0.15432609762E+02  0.51100000000E-03 0.  1.
         12    1    3    3    0    0  0.93959153187E+01  0.17278981648E+02 -0.97971424786E+01  0.21973402836E+02  0.00000000000E+00 0. -1.
</event>
<event>
 7    1  0.2891523E-011  0.5052891E+02  0.7816164E-02  0.1300439E+00
        -11   -1    0    0    0    0  0.00000000000E+00  0.00000000000E+00  0.45593999997E+02  0.45594000000E+02  0.51100000000E-03 0.  1.
         11   -1    0    0    0    0 -0.00000000000E+00 -0.00000000000E+00 -0.45593999997E+02  0.45594000000E+02  0.51100000000E-03 0. -1.
    9900012    2    1    2    0    0 -0.19652887050E+02  0.11782416860E+01  0.35574397089E+02  0.50528905677E+02  0.30000139297E+02 0.  0.
         12    1    1    2    0    0  0.19652887050E+02 -0.11782416860E+01 -0.35574397089E+02  0.40659094323E+02  0.00000000000E+00 0. -1.
         11    1    3    3    0    0 -0.49815135414E+01  0.11106936595E+02  0.22804676342E+01  0.12384669982E+02  0.51100000000E-03 0. -1.
        -11    1    3    3    0    0 -0.12977997315E+02 -0.84158662152E+01  0.31971136883E+02  0.35516317550E+02  0.51100000000E-03 0.  1.
        -12    1    3    3    0    0 -0.16933761931E+01 -0.15128286934E+01  0.13227925721E+01  0.26279181448E+01  0.00000000000E+00 0.  1.
</event>
<event>
 7    1  0.2891523E-011  0.5052884E+02  0.7816164E-02  0.1300439E+00
        -11   -1    0    0    0    0  0.00000000000E+00  0.00000000000E+00  0.45593999997E+02  0.45594000000E+02  0.51100000000E-03 0. -1.
         11   -1    0    0    0    0 -0.00000000000E+00 -0.00000000000E+00 -0.45593999997E+02  0.45594000000E+02  0.51100000000E-03 0.  1.
    9900012    2    1    2    0    0 -0.14936660801E+02 -0.93767159482E+00 -0.37804548143E+02  0.50528844522E+02  0.29999953409E+02 0.  0.
         12    1    1    2    0    0  0.14936660801E+02  0.93767159482E+00  0.37804548143E+02  0.40659155478E+02  0.00000000000E+00 0. -1.
         11    1    3    3    0    0 -0.83781554313E+01 -0.82753909317E+00  0.13247198858E+01  0.85225109222E+01  0.51100000000E-03 0. -1.
        -11    1    3    3    0    0 -0.88374856578E+01  0.41998607258E+01 -0.19995379969E+02  0.22261069230E+02  0.51100000000E-03 0.  1.
         12    1    3    3    0    0  0.22789802879E+01 -0.43099932275E+01 -0.19133888059E+02  0.19745264370E+02  0.00000000000E+00 0. -1.
</event>
<event>
 7    1  0.2891523E-011  0.5052885E+02  0.7816164E-02  0.1300439E+00
        -11   -1    0    0    0    0  0.00000000000E+00  0.00000000000E+00  0.45593999997E+02  0.45594000000E+02  0.51100000000E-03 0. -1.
         11   -1    0    0    0    0 -0.00000000000E+00 -0.00000000000E+00 -0.45593999997E+02  0.45594000000E+02  0.51100000000E-03 0.  1.
    9900012    2    1    2    0    0 -0.26801656771E+02  0.23141939129E+01 -0.30487411043E+02  0.50528849354E+02  0.29999968097E+02 0.  0.
         12    1    1    2    0    0  0.26801656771E+02 -0.23141939129E+01  0.30487411043E+02  0.40659150646E+02  0.00000000000E+00 0. -1.
         11    1    3    3    0    0 -0.22587656840E+02 -0.11109965487E+02 -0.23529720136E+02  0.34456948568E+02  0.51100000000E-03 0. -1.
        -11    1    3    3    0    0 -0.33014725743E+01  0.13098023338E+02 -0.63301489144E+01  0.14917396625E+02  0.51100000000E-03 0.  1.
         12    1    3    3    0    0 -0.91252735616E+00  0.32613606220E+00 -0.62754199285E+00  0.11545041618E+01  0.00000000000E+00 0. -1.
</event>
<event>
 7    1  0.2891523E-011  0.5052885E+02  0.7816164E-02  0.1300439E+00
        -11   -1    0    0    0    0  0.00000000000E+00  0.00000000000E+00  0.45593999997E+02  0.45594000000E+02  0.51100000000E-03 0. -1.
         11   -1    0    0    0    0 -0.00000000000E+00 -0.00000000000E+00 -0.45593999997E+02  0.45594000000E+02  0.51100000000E-03 0.  1.
    9900012    2    1    2    0    0  0.29415919389E+02  0.71749534462E+01 -0.27136506073E+02  0.50528853030E+02  0.29999979271E+02 0.  0.
         12    1    1    2    0    0 -0.29415919389E+02 -0.71749534462E+01  0.27136506073E+02  0.40659146970E+02  0.00000000000E+00 0. -1.
         11    1    3    3    0    0 -0.55867249389E+01  0.71958651071E-01 -0.28300252734E+01  0.62630437409E+01  0.51100000000E-03 0. -1.
        -11    1    3    3    0    0  0.19534669268E+02  0.35403892547E+01 -0.77008605357E+01  0.21294152078E+02  0.51100000000E-03 0.  1.
        -12    1    3    3    0    0  0.15467975060E+02  0.35626055405E+01 -0.16605620264E+02  0.22971657211E+02  0.00000000000E+00 0.  1.
</event>
<event>
 7    1  0.2891523E-011  0.5052886E+02  0.7816164E-02  0.1300439E+00
        -11   -1    0    0    0    0  0.00000000000E+00  0.00000000000E+00  0.45593999997E+02  0.45594000000E+02  0.51100000000E-03 0.  1.
         11   -1    0    0    0    0 -0.00000000000E+00 -0.00000000000E+00 -0.45593999997E+02  0.45594000000E+02  0.51100000000E-03 0. -1.
    9900012    2    1    2    0    0  0.16953440411E+02 -0.10280763964E+02  0.35497216192E+02  0.50528860722E+02  0.30000002651E+02 0.  0.
         12    1    1    2    0    0 -0.16953440411E+02  0.10280763964E+02 -0.35497216192E+02  0.40659139278E+02  0.00000000000E+00 0. -1.
         11    1    3    3    0    0  0.12752886631E+02 -0.53979258861E+01  0.81996493853E+01  0.16093724603E+02  0.51100000000E-03 0. -1.
        -11    1    3    3    0    0 -0.60918180171E+01 -0.43276591759E+01  0.21155738292E+02  0.22436669620E+02  0.51100000000E-03 0.  1.
        -12    1    3    3    0    0  0.10292371797E+02 -0.55517890167E+00  0.61418285143E+01  0.11998466499E+02  0.00000000000E+00 0.  1.
</event>
<event>
 7    1  0.2891523E-011  0.5052886E+02  0.7816164E-02  0.1300439E+00
        -11   -1    0    0    0    0  0.00000000000E+00  0.00000000000E+00  0.45593999997E+02  0.45594000000E+02  0.51100000000E-03 0.  1.
         11   -1    0    0    0    0 -0.00000000000E+00 -0.00000000000E+00 -0.45593999997E+02  0.45594000000E+02  0.51100000000E-03 0. -1.
    9900012    2    1    2    0    0  0.30738206935E+02  0.53054109479E+00  0.26609155797E+02  0.50528855743E+02  0.29999987517E+02 0.  0.
         12    1    1    2    0    0 -0.30738206935E+02 -0.53054109479E+00 -0.26609155797E+02  0.40659144257E+02  0.00000000000E+00 0. -1.
         11    1    3    3    0    0  0.95838407200E+01  0.54682918283E+01 -0.39178639117E+01  0.11709051044E+02  0.51100000000E-03 0. -1.
        -11    1    3    3    0    0  0.48120341210E+01 -0.43546385037E+01  0.14669746728E+02  0.16041197530E+02  0.51100000000E-03 0.  1.
         12    1    3    3    0    0  0.16342332094E+02 -0.58311222979E+00  0.15857272981E+02  0.22778607169E+02  0.00000000000E+00 0. -1.
</event>
<event>
 7    1  0.2891523E-011  0.5052885E+02  0.7816164E-02  0.1300439E+00
        -11   -1    0    0    0    0  0.00000000000E+00  0.00000000000E+00  0.45593999997E+02  0.45594000000E+02  0.51100000000E-03 0. -1.
         11   -1    0    0    0    0 -0.00000000000E+00 -0.00000000000E+00 -0.45593999997E+02  0.45594000000E+02  0.51100000000E-03 0.  1.
    9900012    2    1    2    0    0  0.13446021307E+02  0.35610054024E+02  0.14293186922E+02  0.50528848152E+02  0.29999964444E+02 0.  0.
         12    1    1    2    0    0 -0.13446021307E+02 -0.35610054024E+02 -0.14293186922E+02  0.40659151848E+02  0.00000000000E+00 0. -1.
         11    1    3    3    0    0 -0.86767005521E+01  0.53287660446E+01  0.64570585652E+01  0.12057134220E+02  0.51100000000E-03 0. -1.
        -11    1    3    3    0    0  0.69418372734E+01  0.11539916267E+02  0.40130767800E+01  0.14052172703E+02  0.51100000000E-03 0.  1.
         12    1    3    3    0    0  0.15180884585E+02  0.18741371713E+02  0.38230515770E+01  0.24419541229E+02  0.00000000000E+00 0. -1.
</event>
<event>
 7    1  0.2891523E-011  0.5052886E+02  0.7816164E-02  0.1300439E+00
        -11   -1    0    0    0    0  0.00000000000E+00  0.00000000000E+00  0.45593999997E+02  0.45594000000E+02  0.51100000000E-03 0. -1.
         11   -1    0    0    0    0 -0.00000000000E+00 -0.00000000000E+00 -0.45593999997E+02  0.45594000000E+02  0.51100000000E-03 0.  1.
    9900012    2    1    2    0    0  0.36309670133E+02  0.17463288897E+02  0.54595793457E+01  0.50528860672E+02  0.30000002498E+02 0.  0.
         12    1    1    2    0    0 -0.36309670133E+02 -0.17463288897E+02 -0.54595793457E+01  0.40659139328E+02  0.00000000000E+00 0. -1.
         11    1    3    3    0    0  0.19182534845E+02  0.16650155954E+01  0.10353161256E+02  0.21861607175E+02  0.51100000000E-03 0. -1.
        -11    1    3    3    0    0  0.15599147456E+02  0.10287342380E+02 -0.98289132646E+01  0.21113274280E+02  0.51100000000E-03 0.  1.
        -12    1    3    3    0    0  0.15279878324E+01  0.55109309216E+01  0.49353313546E+01  0.75539792175E+01  0.00000000000E+00 0.  1.
</event>
<event>
 7    1  0.2891523E-011  0.5052886E+02  0.7816164E-02  0.1300439E+00
        -11   -1    0    0    0    0  0.00000000000E+00  0.00000000000E+00  0.45593999997E+02  0.45594000000E+02  0.51100000000E-03 0. -1.
         11   -1    0    0    0    0 -0.00000000000E+00 -0.00000000000E+00 -0.45593999997E+02  0.45594000000E+02  0.51100000000E-03 0.  1.
    9900012    2    1    2    0    0  0.31959620080E+02 -0.23782210750E+02 -0.81335619653E+01  0.50528859649E+02  0.29999999389E+02 0.  0.
         12    1    1    2    0    0 -0.31959620080E+02  0.23782210750E+02  0.81335619653E+01  0.40659140351E+02  0.00000000000E+00 0. -1.
         11    1    3    3    0    0  0.24675147464E+02 -0.16303084759E+02  0.66341275077E+01  0.30309488995E+02  0.51100000000E-03 0. -1.
        -11    1    3    3    0    0  0.41564015205E+00 -0.69052556405E+01 -0.74623653374E+01  0.10175569217E+02  0.51100000000E-03 0.  1.
         12    1    3    3    0    0  0.68688324637E+01 -0.57387035035E+00 -0.73053241356E+01  0.10043801438E+02  0.00000000000E+00 0. -1.
</event>
<event>
 7    1  0.2891523E-011  0.5052878E+02  0.7816164E-02  0.1300439E+00
        -11   -1    0    0    0    0  0.00000000000E+00  0.00000000000E+00  0.45593999997E+02  0.45594000000E+02  0.51100000000E-03 0.  1.
         11   -1    0    0    0    0 -0.00000000000E+00 -0.00000000000E+00 -0.45593999997E+02  0.45594000000E+02  0.51100000000E-03 0. -1.
    9900012    2    1    2    0    0  0.17586874576E+02 -0.40135445625E-01  0.36658863074E+02  0.50528781979E+02  0.29999763302E+02 0.  0.
         12    1    1    2    0    0 -0.17586874576E+02  0.40135445625E-01 -0.36658863074E+02  0.40659218021E+02  0.00000000000E+00 0. -1.
         11    1    3    3    0    0 -0.22231972181E+01  0.53721473743E+01  0.97994114416E+01  0.11394342374E+02  0.51100000000E-03 0. -1.
        -11    1    3    3    0    0  0.10012815897E+02 -0.12756927412E+02  0.15347008409E+02  0.22327703566E+02  0.51100000000E-03 0.  1.
        -12    1    3    3    0    0  0.97972558970E+01  0.73446445918E+01  0.11512443223E+02  0.16806736038E+02  0.00000000000E+00 0.  1.
</event>
<event>
 7    1  0.2891523E-011  0.5052885E+02  0.7816164E-02  0.1300439E+00
        -11   -1    0    0    0    0  0.00000000000E+00  0.00000000000E+00  0.45593999997E+02  0.45594000000E+02  0.51100000000E-03 0. -1.
         11   -1    0    0    0    0 -0.00000000000E+00 -0.00000000000E+00 -0.45593999997E+02  0.45594000000E+02  0.51100000000E-03 0.  1.
    9900012    2    1    2    0    0  0.38454853268E+02 -0.45607432242E+01 -0.12393146282E+02  0.50528853509E+02  0.29999980725E+02 0.  0.
         12    1    1    2    0    0 -0.38454853268E+02  0.45607432242E+01  0.12393146282E+02  0.40659146491E+02  0.00000000000E+00 0. -1.
         11    1    3    3    0    0  0.22796797425E+02  0.88282173472E+01 -0.93864470434E+01  0.26186576385E+02  0.51100000000E-03 0. -1.
        -11    1    3    3    0    0  0.16879922942E+02 -0.82838902202E+01 -0.32751801327E+01  0.19086158358E+02  0.51100000000E-03 0.  1.
         12    1    3    3    0    0 -0.12218670990E+01 -0.51050703512E+01  0.26848089373E+00  0.52561187666E+01  0.00000000000E+00 0. -1.
</event>
<event>
 7    1  0.2891523E-011  0.5052886E+02  0.7816164E-02  0.1300439E+00
        -11   -1    0    0    0    0  0.00000000000E+00  0.00000000000E+00  0.45593999997E+02  0.45594000000E+02  0.51100000000E-03 0.  1.
         11   -1    0    0    0    0 -0.00000000000E+00 -0.00000000000E+00 -0.45593999997E+02  0.45594000000E+02  0.51100000000E-03 0. -1.
    9900012    2    1    2    0    0 -0.16444889047E+02 -0.40006434192E+01  0.36969262325E+02  0.50528857358E+02  0.29999992425E+02 0.  0.
         12    1    1    2    0    0  0.16444889047E+02  0.40006434192E+01 -0.36969262325E+02  0.40659142642E+02  0.00000000000E+00 0. -1.
         11    1    3    3    0    0 -0.16775784926E+02 -0.34958544625E+01  0.11519723303E+02  0.20648292509E+02  0.51100000000E-03 0. -1.
        -11    1    3    3    0    0  0.36040614618E+01 -0.72519340560E+01  0.11897766750E+02  0.14392243066E+02  0.51100000000E-03 0.  1.
         12    1    3    3    0    0 -0.32731655823E+01  0.67471450994E+01  0.13551772272E+02  0.15488321782E+02  0.00000000000E+00 0. -1.
</event>
<event>
 7    1  0.2891523E-011  0.5052886E+02  0.7816164E-02  0.1300439E+00
        -11   -1    0    0    0    0  0.00000000000E+00  0.00000000000E+00  0.45593999997E+02  0.45594000000E+02  0.51100000000E-03 0.  1.
         11   -1    0    0    0    0 -0.00000000000E+00 -0.00000000000E+00 -0.45593999997E+02  0.45594000000E+02  0.51100000000E-03 0. -1.
    9900012    2    1    2    0    0 -0.47123810760E+01  0.25670407034E+02  0.31176746349E+02  0.50528857785E+02  0.29999993724E+02 0.  0.
         12    1    1    2    0    0  0.47123810760E+01 -0.25670407034E+02 -0.31176746349E+02  0.40659142215E+02  0.00000000000E+00 0. -1.
         11    1    3    3    0    0  0.10015603527E+00  0.17633584183E+02  0.12562471434E+02  0.21651074134E+02  0.51100000000E-03 0. -1.
        -11    1    3    3    0    0  0.16880795576E+01  0.33268436668E+01  0.20329540982E+02  0.20669004286E+02  0.51100000000E-03 0.  1.
        -12    1    3    3    0    0 -0.65006166689E+01  0.47099791838E+01 -0.17152660663E+01  0.82087793652E+01  0.00000000000E+00 0.  1.
</event>
<event>
 7    1  0.2891523E-011  0.5052888E+02  0.7816164E-02  0.1300439E+00
        -11   -1    0    0    0    0  0.00000000000E+00  0.00000000000E+00  0.45593999997E+02  0.45594000000E+02  0.51100000000E-03 0.  1.
         11   -1    0    0    0    0 -0.00000000000E+00 -0.00000000000E+00 -0.45593999997E+02  0.45594000000E+02  0.51100000000E-03 0. -1.
    9900012    2    1    2    0    0 -0.24268184872E+02  0.11731989682E+02  0.30439775905E+02  0.50528876350E+02  0.30000050154E+02 0.  0.
         12    1    1    2    0    0  0.24268184872E+02 -0.11731989682E+02 -0.30439775905E+02  0.40659123650E+02  0.00000000000E+00 0. -1.
         11    1    3    3    0    0  0.25934781619E+01  0.93285202924E+01  0.99931219793E+01  0.13914377707E+02  0.51100000000E-03 0. -1.
        -11    1    3    3    0    0 -0.14730342272E+02  0.82755962675E+01  0.11380953615E+02  0.20371415819E+02  0.51100000000E-03 0.  1.
         12    1    3    3    0    0 -0.12131320761E+02 -0.58721268784E+01  0.90657003108E+01  0.16243082824E+02  0.00000000000E+00 0. -1.
</event>
<event>
 7    1  0.2891523E-011  0.5052886E+02  0.7816164E-02  0.1300439E+00
        -11   -1    0    0    0    0  0.00000000000E+00  0.00000000000E+00  0.45593999997E+02  0.45594000000E+02  0.51100000000E-03 0.  1.
         11   -1    0    0    0    0 -0.00000000000E+00 -0.00000000000E+00 -0.45593999997E+02  0.45594000000E+02  0.51100000000E-03 0. -1.
    9900012    2    1    2    0    0  0.38127047428E+02 -0.10457579011E+02  0.94938479685E+01  0.50528857688E+02  0.29999993428E+02 0.  0.
         12    1    1    2    0    0 -0.38127047428E+02  0.10457579011E+02 -0.94938479685E+01  0.40659142312E+02  0.00000000000E+00 0. -1.
         11    1    3    3    0    0  0.26243252244E+01 -0.66775186285E+01  0.66751936936E+01  0.97997218851E+01  0.51100000000E-03 0. -1.
        -11    1    3    3    0    0  0.35209113698E+02  0.79717956585E+00  0.51354154551E+01  0.35590584075E+02  0.51100000000E-03 0.  1.
        -12    1    3    3    0    0  0.29360850573E+00 -0.45772399478E+01 -0.23167611802E+01  0.51385517279E+01  0.00000000000E+00 0.  1.
</event>
<event>
 7    1  0.2891523E-011  0.5052886E+02  0.7816164E-02  0.1300439E+00
        -11   -1    0    0    0    0  0.00000000000E+00  0.00000000000E+00  0.45593999997E+02  0.45594000000E+02  0.51100000000E-03 0.  1.
         11   -1    0    0    0    0 -0.00000000000E+00 -0.00000000000E+00 -0.45593999997E+02  0.45594000000E+02  0.51100000000E-03 0. -1.
    9900012    2    1    2    0    0  0.28734516240E+02  0.23858188366E+02  0.16071105169E+02  0.50528855924E+02  0.29999988067E+02 0.  0.
         12    1    1    2    0    0 -0.28734516240E+02 -0.23858188366E+02 -0.16071105169E+02  0.40659144076E+02  0.00000000000E+00 0. -1.
         11    1    3    3    0    0  0.56966758610E+01  0.21561741803E+02  0.63908723307E+01  0.23199225739E+02  0.51100000000E-03 0. -1.
        -11    1    3    3    0    0  0.13582022371E+02  0.23289031805E+01  0.11193316764E+02  0.17753463385E+02  0.51100000000E-03 0.  1.
         12    1    3    3    0    0  0.94558180077E+01 -0.32456617795E-01 -0.15130839264E+01  0.95761668007E+01  0.00000000000E+00 0. -1.
</event>
<event>
 7    1  0.2891523E-011  0.5052886E+02  0.7816164E-02  0.1300439E+00
        -11   -1    0    0    0    0  0.00000000000E+00  0.00000000000E+00  0.45593999997E+02  0.45594000000E+02  0.51100000000E-03 0.  1.
         11   -1    0    0    0    0 -0.00000000000E+00 -0.00000000000E+00 -0.45593999997E+02  0.45594000000E+02  0.51100000000E-03 0. -1.
    9900012    2    1    2    0    0 -0.19623630018E+02  0.34741608179E+02  0.78166265060E+01  0.50528857807E+02  0.29999993790E+02 0.  0.
         12    1    1    2    0    0  0.19623630018E+02 -0.34741608179E+02 -0.78166265060E+01  0.40659142193E+02  0.00000000000E+00 0. -1.
         11    1    3    3    0    0 -0.32100840102E+01  0.15095145987E+01 -0.77708610416E+01  0.85422219162E+01  0.51100000000E-03 0. -1.
        -11    1    3    3    0    0 -0.13488793150E+02  0.21277439266E+02  0.15689644221E+02  0.29678980751E+02  0.51100000000E-03 0.  1.
        -12    1    3    3    0    0 -0.29247528582E+01  0.11954654314E+02 -0.10215667364E+00  0.12307655140E+02  0.00000000000E+00 0.  1.
</event>
<event>
 7    1  0.2891523E-011  0.5052886E+02  0.7816164E-02  0.1300439E+00
        -11   -1    0    0    0    0  0.00000000000E+00  0.00000000000E+00  0.45593999997E+02  0.45594000000E+02  0.51100000000E-03 0.  1.
         11   -1    0    0    0    0 -0.00000000000E+00 -0.00000000000E+00 -0.45593999997E+02  0.45594000000E+02  0.51100000000E-03 0. -1.
    9900012    2    1    2    0    0  0.12293170923E+02 -0.16391650495E+02  0.35119192532E+02  0.50528856608E+02  0.29999990144E+02 0.  0.
         12    1    1    2    0    0 -0.12293170923E+02  0.16391650495E+02 -0.35119192532E+02  0.40659143392E+02  0.00000000000E+00 0. -1.
         11    1    3    3    0    0  0.46925292702E+00 -0.22855025986E+01  0.19015425205E+01  0.30099143935E+01  0.51100000000E-03 0. -1.
        -11    1    3    3    0    0 -0.82496776348E+01 -0.10378961478E+02  0.16246580343E+02  0.20969773378E+02  0.51100000000E-03 0.  1.
        -12    1    3    3    0    0  0.20073595631E+02 -0.37271864180E+01  0.16971069669E+02  0.26549168836E+02  0.00000000000E+00 0.  1.
</event>
<event>
 7    1  0.2891523E-011  0.5052886E+02  0.7816164E-02  0.1300439E+00
        -11   -1    0    0    0    0  0.00000000000E+00  0.00000000000E+00  0.45593999997E+02  0.45594000000E+02  0.51100000000E-03 0. -1.
         11   -1    0    0    0    0 -0.00000000000E+00 -0.00000000000E+00 -0.45593999997E+02  0.45594000000E+02  0.51100000000E-03 0.  1.
    9900012    2    1    2    0    0 -0.14213726630E+02 -0.12505198850E+02  0.35982711837E+02  0.50528861124E+02  0.30000003874E+02 0.  0.
         12    1    1    2    0    0  0.14213726630E+02  0.12505198850E+02 -0.35982711837E+02  0.40659138876E+02  0.00000000000E+00 0. -1.
         11    1    3    3    0    0 -0.74924694122E+01 -0.92058879843E+01  0.30168872683E+02  0.32419845013E+02  0.51100000000E-03 0. -1.
        -11    1    3    3    0    0 -0.57506190134E+01  0.80919310640E+00 -0.42495244631E+01  0.71960316109E+01  0.51100000000E-03 0.  1.
        -12    1    3    3    0    0 -0.97063820421E+00 -0.41085039719E+01  0.10063363617E+02  0.10912984500E+02  0.00000000000E+00 0.  1.
</event>
<event>
 7    1  0.2891523E-011  0.5052886E+02  0.7816164E-02  0.1300439E+00
        -11   -1    0    0    0    0  0.00000000000E+00  0.00000000000E+00  0.45593999997E+02  0.45594000000E+02  0.51100000000E-03 0.  1.
         11   -1    0    0    0    0 -0.00000000000E+00 -0.00000000000E+00 -0.45593999997E+02  0.45594000000E+02  0.51100000000E-03 0. -1.
    9900012    2    1    2    0    0 -0.94404797959E+01  0.25527270147E+02  0.30205981419E+02  0.50528862117E+02  0.30000006890E+02 0.  0.
         12    1    1    2    0    0  0.94404797959E+01 -0.25527270147E+02 -0.30205981419E+02  0.40659137883E+02  0.00000000000E+00 0. -1.
         11    1    3    3    0    0 -0.16727691450E+02  0.21013861713E+02  0.12895321269E+02  0.29794082571E+02  0.51100000000E-03 0. -1.
        -11    1    3    3    0    0  0.17877859970E+01  0.13388322879E+01  0.12681317224E+02  0.12876507968E+02  0.51100000000E-03 0.  1.
         12    1    3    3    0    0  0.54994256570E+01  0.31745761466E+01  0.46293429255E+01  0.78582715777E+01  0.00000000000E+00 0. -1.
</event>
<event>
 7    1  0.2891523E-011  0.5052886E+02  0.7816164E-02  0.1300439E+00
        -11   -1    0    0    0    0  0.00000000000E+00  0.00000000000E+00  0.45593999997E+02  0.45594000000E+02  0.51100000000E-03 0.  1.
         11   -1    0    0    0    0 -0.00000000000E+00 -0.00000000000E+00 -0.45593999997E+02  0.45594000000E+02  0.51100000000E-03 0. -1.
    9900012    2    1    2    0    0  0.22820401364E+02  0.33626279523E+02 -0.12915626640E+01  0.50528861702E+02  0.30000005631E+02 0.  0.
         12    1    1    2    0    0 -0.22820401364E+02 -0.33626279523E+02  0.12915626640E+01  0.40659138298E+02  0.00000000000E+00 0. -1.
         11    1    3    3    0    0 -0.25002694999E+01 -0.40498911572E+01 -0.15540907274E+01  0.50068117807E+01  0.51100000000E-03 0. -1.
        -11    1    3    3    0    0  0.17788132849E+02  0.25380068943E+02  0.16411095121E+01  0.31036411044E+02  0.51100000000E-03 0.  1.
         12    1    3    3    0    0  0.75325380149E+01  0.12296101738E+02 -0.13785814488E+01  0.14485638878E+02  0.00000000000E+00 0. -1.
</event>
<event>
 7    1  0.2891523E-011  0.5052885E+02  0.7816164E-02  0.1300439E+00
        -11   -1    0    0    0    0  0.00000000000E+00  0.00000000000E+00  0.45593999997E+02  0.45594000000E+02  0.51100000000E-03 0. -1.
         11   -1    0    0    0    0 -0.00000000000E+00 -0.00000000000E+00 -0.45593999997E+02  0.45594000000E+02  0.51100000000E-03 0.  1.
    9900012    2    1    2    0    0 -0.26821615540E+02 -0.21403973609E+02 -0.21809102078E+02  0.50528854905E+02  0.29999984970E+02 0.  0.
         12    1    1    2    0    0  0.26821615540E+02  0.21403973609E+02  0.21809102078E+02  0.40659145095E+02  0.00000000000E+00 0. -1.
         11    1    3    3    0    0 -0.16836316160E+02 -0.88443745152E+01 -0.87533712208E+00  0.19038138505E+02  0.51100000000E-03 0.  1.
        -11    1    3    3    0    0 -0.48342864587E+01 -0.66489062428E+01 -0.22085987248E+02  0.23566270659E+02  0.51100000000E-03 0. -1.
         12    1    3    3    0    0 -0.51510129212E+01 -0.59106928509E+01  0.11522222924E+01  0.79244457410E+01  0.00000000000E+00 0. -1.
</event>
<event>
 7    1  0.2891523E-011  0.5052886E+02  0.7816164E-02  0.1300439E+00
        -11   -1    0    0    0    0  0.00000000000E+00  0.00000000000E+00  0.45593999997E+02  0.45594000000E+02  0.51100000000E-03 0. -1.
         11   -1    0    0    0    0 -0.00000000000E+00 -0.00000000000E+00 -0.45593999997E+02  0.45594000000E+02  0.51100000000E-03 0.  1.
    9900012    2    1    2    0    0 -0.22494056193E+02  0.32787304750E+02  0.84956343714E+01  0.50528859329E+02  0.29999998416E+02 0.  0.
         12    1    1    2    0    0  0.22494056193E+02 -0.32787304750E+02 -0.84956343714E+01  0.40659140671E+02  0.00000000000E+00 0. -1.
         11    1    3    3    0    0 -0.12262434836E+02  0.23184396402E+02  0.82714597032E+01  0.27500919812E+02  0.51100000000E-03 0. -1.
        -11    1    3    3    0    0  0.31177363441E+01  0.59228444222E+01 -0.48655029353E+01  0.82748706960E+01  0.51100000000E-03 0.  1.
         12    1    3    3    0    0 -0.13349357701E+02  0.36800639257E+01  0.50896776035E+01  0.14753068821E+02  0.00000000000E+00 0. -1.
</event>
<event>
 7    1  0.2891523E-011  0.5052883E+02  0.7816164E-02  0.1300439E+00
        -11   -1    0    0    0    0  0.00000000000E+00  0.00000000000E+00  0.45593999997E+02  0.45594000000E+02  0.51100000000E-03 0.  1.
         11   -1    0    0    0    0 -0.00000000000E+00 -0.00000000000E+00 -0.45593999997E+02  0.45594000000E+02  0.51100000000E-03 0. -1.
    9900012    2    1    2    0    0 -0.99127563476E+01 -0.10760015623E+02  0.37935835831E+02  0.50528827421E+02  0.29999901430E+02 0.  0.
         12    1    1    2    0    0  0.99127563476E+01  0.10760015623E+02 -0.37935835831E+02  0.40659172579E+02  0.00000000000E+00 0. -1.
         11    1    3    3    0    0 -0.54953757631E+01  0.34770213361E+01  0.57413311525E+01  0.86747746838E+01  0.51100000000E-03 0. -1.
        -11    1    3    3    0    0  0.85348628865E+01 -0.60550553874E+01  0.18743774471E+02  0.21467106510E+02  0.51100000000E-03 0.  1.
        -12    1    3    3    0    0 -0.12952243471E+02 -0.81819815717E+01  0.13450730207E+02  0.20386946227E+02  0.00000000000E+00 0.  1.
</event>
<event>
 7    1  0.2891523E-011  0.5052886E+02  0.7816164E-02  0.1300439E+00
        -11   -1    0    0    0    0  0.00000000000E+00  0.00000000000E+00  0.45593999997E+02  0.45594000000E+02  0.51100000000E-03 0. -1.
         11   -1    0    0    0    0 -0.00000000000E+00 -0.00000000000E+00 -0.45593999997E+02  0.45594000000E+02  0.51100000000E-03 0.  1.
    9900012    2    1    2    0    0 -0.40627807869E+01 -0.39796193999E+02 -0.72747898604E+01  0.50528858199E+02  0.29999994980E+02 0.  0.
         12    1    1    2    0    0  0.40627807869E+01  0.39796193999E+02  0.72747898604E+01  0.40659141801E+02  0.00000000000E+00 0. -1.
         11    1    3    3    0    0 -0.84796144899E+01 -0.34499266591E+01 -0.98558870672E+01  0.13451556267E+02  0.51100000000E-03 0. -1.
        -11    1    3    3    0    0  0.19634760900E+01 -0.17773379806E+02  0.38817439041E+01  0.18297983607E+02  0.51100000000E-03 0.  1.
         12    1    3    3    0    0  0.24533576130E+01 -0.18572887534E+02 -0.13006466973E+01  0.18779318325E+02  0.00000000000E+00 0. -1.
</event>
<event>
 7    1  0.2891523E-011  0.5052881E+02  0.7816164E-02  0.1300439E+00
        -11   -1    0    0    0    0  0.00000000000E+00  0.00000000000E+00  0.45593999997E+02  0.45594000000E+02  0.51100000000E-03 0.  1.
         11   -1    0    0    0    0 -0.00000000000E+00 -0.00000000000E+00 -0.45593999997E+02  0.45594000000E+02  0.51100000000E-03 0. -1.
    9900012    2    1    2    0    0 -0.38872547825E+02  0.11473118281E+02  0.32345779254E+01  0.50528807781E+02  0.29999841732E+02 0.  0.
         12    1    1    2    0    0  0.38872547825E+02 -0.11473118281E+02 -0.32345779254E+01  0.40659192219E+02  0.00000000000E+00 0. -1.
         11    1    3    3    0    0 -0.30265861093E+02  0.38828777553E+01 -0.68364028635E+01  0.31270361234E+02  0.51100000000E-03 0. -1.
        -11    1    3    3    0    0 -0.96217258551E+01  0.53495738005E+01  0.11886340760E+02  0.16201254433E+02  0.51100000000E-03 0.  1.
        -12    1    3    3    0    0  0.10150391227E+01  0.22406667252E+01 -0.18153599715E+01  0.30571921137E+01  0.00000000000E+00 0.  1.
</event>
<event>
 7    1  0.2891523E-011  0.5052887E+02  0.7816164E-02  0.1300439E+00
        -11   -1    0    0    0    0  0.00000000000E+00  0.00000000000E+00  0.45593999997E+02  0.45594000000E+02  0.51100000000E-03 0. -1.
         11   -1    0    0    0    0 -0.00000000000E+00 -0.00000000000E+00 -0.45593999997E+02  0.45594000000E+02  0.51100000000E-03 0.  1.
    9900012    2    1    2    0    0 -0.32261814783E+02  0.10175581280E+02 -0.22556545886E+02  0.50528869294E+02  0.30000028706E+02 0.  0.
         12    1    1    2    0    0  0.32261814783E+02 -0.10175581280E+02  0.22556545886E+02  0.40659130706E+02  0.00000000000E+00 0. -1.
         11    1    3    3    0    0 -0.15320049808E+02  0.19670668163E+02 -0.11244362192E+02  0.27350955988E+02  0.51100000000E-03 0. -1.
        -11    1    3    3    0    0 -0.16912679636E+02 -0.94677499376E+01 -0.11797813268E+02  0.22690646080E+02  0.51100000000E-03 0.  1.
        -12    1    3    3    0    0 -0.29085338800E-01 -0.27336944987E-01  0.48562957464E+00  0.48726722571E+00  0.00000000000E+00 0.  1.
</event>
<event>
 7    1  0.2891523E-011  0.5052884E+02  0.7816164E-02  0.1300439E+00
        -11   -1    0    0    0    0  0.00000000000E+00  0.00000000000E+00  0.45593999997E+02  0.45594000000E+02  0.51100000000E-03 0. -1.
         11   -1    0    0    0    0 -0.00000000000E+00 -0.00000000000E+00 -0.45593999997E+02  0.45594000000E+02  0.51100000000E-03 0.  1.
    9900012    2    1    2    0    0  0.18933139161E+02  0.35623110772E+02 -0.50693100298E+01  0.50528835182E+02  0.29999925018E+02 0.  0.
         12    1    1    2    0    0 -0.18933139161E+02 -0.35623110772E+02  0.50693100298E+01  0.40659164818E+02  0.00000000000E+00 0. -1.
         11    1    3    3    0    0 -0.15410376233E+01  0.10095827569E+01 -0.80976544090E+01  0.83045807533E+01  0.51100000000E-03 0. -1.
        -11    1    3    3    0    0  0.12098183727E+02  0.16621536395E+02 -0.44171934587E+01  0.21027437313E+02  0.51100000000E-03 0.  1.
         12    1    3    3    0    0  0.83759930572E+01  0.17991991619E+02  0.74455378379E+01  0.21196817115E+02  0.00000000000E+00 0. -1.
</event>
<event>
 7    1  0.2891523E-011  0.5052886E+02  0.7816164E-02  0.1300439E+00
        -11   -1    0    0    0    0  0.00000000000E+00  0.00000000000E+00  0.45593999997E+02  0.45594000000E+02  0.51100000000E-03 0. -1.
         11   -1    0    0    0    0 -0.00000000000E+00 -0.00000000000E+00 -0.45593999997E+02  0.45594000000E+02  0.51100000000E-03 0.  1.
    9900012    2    1    2    0    0  0.15853370369E+02 -0.69722794969E+01 -0.36786189078E+02  0.50528859080E+02  0.29999997660E+02 0.  0.
         12    1    1    2    0    0 -0.15853370369E+02  0.69722794969E+01  0.36786189078E+02  0.40659140920E+02  0.00000000000E+00 0. -1.
         11    1    3    3    0    0  0.97264065320E+00 -0.55302932652E+01 -0.18674818119E+02  0.19500743716E+02  0.51100000000E-03 0. -1.
        -11    1    3    3    0    0  0.77486029522E+01  0.92058360749E+01 -0.11336080940E+02  0.16531636244E+02  0.51100000000E-03 0.  1.
        -12    1    3    3    0    0  0.71321267636E+01 -0.10647822306E+02 -0.67752900185E+01  0.14496479120E+02  0.00000000000E+00 0.  1.
</event>
<event>
 7    1  0.2891523E-011  0.5052886E+02  0.7816164E-02  0.1300439E+00
        -11   -1    0    0    0    0  0.00000000000E+00  0.00000000000E+00  0.45593999997E+02  0.45594000000E+02  0.51100000000E-03 0.  1.
         11   -1    0    0    0    0 -0.00000000000E+00 -0.00000000000E+00 -0.45593999997E+02  0.45594000000E+02  0.51100000000E-03 0. -1.
    9900012    2    1    2    0    0  0.10545827472E+02  0.44642250400E+01  0.39013098016E+02  0.50528860817E+02  0.30000002940E+02 0.  0.
         12    1    1    2    0    0 -0.10545827472E+02 -0.44642250400E+01 -0.39013098016E+02  0.40659139183E+02  0.00000000000E+00 0. -1.
         11    1    3    3    0    0  0.42253102389E+01 -0.23892120490E+00  0.15793263582E+00  0.42350056595E+01  0.51100000000E-03 0. -1.
        -11    1    3    3    0    0 -0.33628047051E+01  0.11595721971E+02  0.26650391024E+02  0.29257692416E+02  0.51100000000E-03 0.  1.
        -12    1    3    3    0    0  0.96833219380E+01 -0.68925757257E+01  0.12204774356E+02  0.17036162742E+02  0.00000000000E+00 0.  1.
</event>
<event>
 7    1  0.2891523E-011  0.5052884E+02  0.7816164E-02  0.1300439E+00
        -11   -1    0    0    0    0  0.00000000000E+00  0.00000000000E+00  0.45593999997E+02  0.45594000000E+02  0.51100000000E-03 0.  1.
         11   -1    0    0    0    0 -0.00000000000E+00 -0.00000000000E+00 -0.45593999997E+02  0.45594000000E+02  0.51100000000E-03 0. -1.
    9900012    2    1    2    0    0 -0.24329929032E+02 -0.88595868535E+01  0.31348514955E+02  0.50528842166E+02  0.29999946247E+02 0.  0.
         12    1    1    2    0    0  0.24329929032E+02  0.88595868535E+01 -0.31348514955E+02  0.40659157834E+02  0.00000000000E+00 0. -1.
         11    1    3    3    0    0 -0.81992027943E+01  0.27968531070E+01  0.26719553284E+02  0.28088856184E+02  0.51100000000E-03 0. -1.
        -11    1    3    3    0    0 -0.42025343110E+01 -0.44833813982E+01  0.58284735854E+01  0.84695400107E+01  0.51100000000E-03 0.  1.
         12    1    3    3    0    0 -0.11928191927E+02 -0.71730585622E+01 -0.11995119150E+01  0.13970445971E+02  0.00000000000E+00 0. -1.
</event>
<event>
 7    1  0.2891523E-011  0.5052885E+02  0.7816164E-02  0.1300439E+00
        -11   -1    0    0    0    0  0.00000000000E+00  0.00000000000E+00  0.45593999997E+02  0.45594000000E+02  0.51100000000E-03 0. -1.
         11   -1    0    0    0    0 -0.00000000000E+00 -0.00000000000E+00 -0.45593999997E+02  0.45594000000E+02  0.51100000000E-03 0.  1.
    9900012    2    1    2    0    0  0.34026843004E+02 -0.22103104500E+02 -0.26063216808E+01  0.50528853599E+02  0.29999981000E+02 0.  0.
         12    1    1    2    0    0 -0.34026843004E+02  0.22103104500E+02  0.26063216808E+01  0.40659146401E+02  0.00000000000E+00 0. -1.
         11    1    3    3    0    0  0.71144228072E+01 -0.13898563461E+02  0.84235968148E+01  0.17740971274E+02  0.51100000000E-03 0. -1.
        -11    1    3    3    0    0  0.25670506718E+02 -0.39727559874E+01 -0.11388802885E+02  0.28363048791E+02  0.51100000000E-03 0.  1.
        -12    1    3    3    0    0  0.12419134785E+01 -0.42317850509E+01  0.35888438913E+00  0.44248335347E+01  0.00000000000E+00 0.  1.
</event>
<event>
 7    1  0.2891523E-011  0.5052886E+02  0.7816164E-02  0.1300439E+00
        -11   -1    0    0    0    0  0.00000000000E+00  0.00000000000E+00  0.45593999997E+02  0.45594000000E+02  0.51100000000E-03 0. -1.
         11   -1    0    0    0    0 -0.00000000000E+00 -0.00000000000E+00 -0.45593999997E+02  0.45594000000E+02  0.51100000000E-03 0.  1.
    9900012    2    1    2    0    0  0.50538390614E+00  0.35129029089E+02 -0.20466106566E+02  0.50528860614E+02  0.30000002323E+02 0.  0.
         12    1    1    2    0    0 -0.50538390614E+00 -0.35129029089E+02  0.20466106566E+02  0.40659139386E+02  0.00000000000E+00 0. -1.
         11    1    3    3    0    0  0.73411555100E+01  0.21532244895E+02 -0.12079356512E+02  0.25757348242E+02  0.51100000000E-03 0.  1.
        -11    1    3    3    0    0 -0.10703083214E+02  0.76830658190E+01 -0.11074772959E+02  0.17211510306E+02  0.51100000000E-03 0. -1.
         12    1    3    3    0    0  0.38673116099E+01  0.59137183741E+01  0.26880229053E+01  0.75600020659E+01  0.00000000000E+00 0. -1.
</event>
<event>
 7    1  0.2891523E-011  0.5052886E+02  0.7816164E-02  0.1300439E+00
        -11   -1    0    0    0    0  0.00000000000E+00  0.00000000000E+00  0.45593999997E+02  0.45594000000E+02  0.51100000000E-03 0. -1.
         11   -1    0    0    0    0 -0.00000000000E+00 -0.00000000000E+00 -0.45593999997E+02  0.45594000000E+02  0.51100000000E-03 0.  1.
    9900012    2    1    2    0    0 -0.36158053725E+02  0.12800779551E+02  0.13487061261E+02  0.50528860465E+02  0.30000001869E+02 0.  0.
         12    1    1    2    0    0  0.36158053725E+02 -0.12800779551E+02 -0.13487061261E+02  0.40659139535E+02  0.00000000000E+00 0. -1.
         11    1    3    3    0    0 -0.98929935014E+01 -0.23775850912E+01  0.15674842329E+02  0.18687560397E+02  0.51100000000E-03 0. -1.
        -11    1    3    3    0    0 -0.13135088136E+02  0.33162467285E+01  0.19017131485E+01  0.13680078431E+02  0.51100000000E-03 0.  1.
         12    1    3    3    0    0 -0.13129972087E+02  0.11862117913E+02 -0.40894942169E+01  0.18161221637E+02  0.00000000000E+00 0. -1.
</event>
<event>
 7    1  0.2891523E-011  0.5052885E+02  0.7816164E-02  0.1300439E+00
        -11   -1    0    0    0    0  0.00000000000E+00  0.00000000000E+00  0.45593999997E+02  0.45594000000E+02  0.51100000000E-03 0.  1.
         11   -1    0    0    0    0 -0.00000000000E+00 -0.00000000000E+00 -0.45593999997E+02  0.45594000000E+02  0.51100000000E-03 0. -1.
    9900012    2    1    2    0    0  0.10945478499E+02  0.38416561822E+02  0.75848941433E+01  0.50528851694E+02  0.29999975210E+02 0.  0.
         12    1    1    2    0    0 -0.10945478499E+02 -0.38416561822E+02 -0.75848941433E+01  0.40659148306E+02  0.00000000000E+00 0. -1.
         11    1    3    3    0    0 -0.55051750613E+01  0.13293615726E+02 -0.70891366069E+01  0.16040044564E+02  0.51100000000E-03 0. -1.
        -11    1    3    3    0    0  0.90867650296E+01  0.78426753705E+01  0.85307602497E+01  0.14725852314E+02  0.51100000000E-03 0.  1.
         12    1    3    3    0    0  0.73638885311E+01  0.17280270725E+02  0.61432705006E+01  0.19762954816E+02  0.00000000000E+00 0. -1.
</event>
<event>
 7    1  0.2891523E-011  0.5052886E+02  0.7816164E-02  0.1300439E+00
        -11   -1    0    0    0    0  0.00000000000E+00  0.00000000000E+00  0.45593999997E+02  0.45594000000E+02  0.51100000000E-03 0.  1.
         11   -1    0    0    0    0 -0.00000000000E+00 -0.00000000000E+00 -0.45593999997E+02  0.45594000000E+02  0.51100000000E-03 0. -1.
    9900012    2    1    2    0    0  0.12249776225E+01  0.33133947633E+02  0.23533100089E+02  0.50528857661E+02  0.29999993347E+02 0.  0.
         12    1    1    2    0    0 -0.12249776225E+01 -0.33133947633E+02 -0.23533100089E+02  0.40659142339E+02  0.00000000000E+00 0. -1.
         11    1    3    3    0    0 -0.25588457616E+01  0.17144552034E+02 -0.32865290177E+01  0.17643260167E+02  0.51100000000E-03 0. -1.
        -11    1    3    3    0    0  0.59129989065E+01  0.75746396461E+01  0.94994161934E+01  0.13512129000E+02  0.51100000000E-03 0.  1.
         12    1    3    3    0    0 -0.21291755225E+01  0.84147559533E+01  0.17320212913E+02  0.19373468495E+02  0.00000000000E+00 0. -1.
</event>
<event>
 7    1  0.2891523E-011  0.5052888E+02  0.7816164E-02  0.1300439E+00
        -11   -1    0    0    0    0  0.00000000000E+00  0.00000000000E+00  0.45593999997E+02  0.45594000000E+02  0.51100000000E-03 0.  1.
         11   -1    0    0    0    0 -0.00000000000E+00 -0.00000000000E+00 -0.45593999997E+02  0.45594000000E+02  0.51100000000E-03 0. -1.
    9900012    2    1    2    0    0 -0.26613979043E+02 -0.93619788140E+01  0.29278210667E+02  0.50528878666E+02  0.30000057192E+02 0.  0.
         12    1    1    2    0    0  0.26613979043E+02  0.93619788140E+01 -0.29278210667E+02  0.40659121334E+02  0.00000000000E+00 0. -1.
         11    1    3    3    0    0 -0.10053184983E+02  0.41336426436E+01  0.19110788775E+02  0.21985808552E+02  0.51100000000E-03 0. -1.
        -11    1    3    3    0    0 -0.18245620118E+02 -0.13788925258E+02  0.12172558572E+02  0.25907687965E+02  0.51100000000E-03 0.  1.
        -12    1    3    3    0    0  0.16848260573E+01  0.29330380059E+00 -0.20051366803E+01  0.26353821487E+01  0.00000000000E+00 0.  1.
</event>
<event>
 7    1  0.2891523E-011  0.5052886E+02  0.7816164E-02  0.1300439E+00
        -11   -1    0    0    0    0  0.00000000000E+00  0.00000000000E+00  0.45593999997E+02  0.45594000000E+02  0.51100000000E-03 0.  1.
         11   -1    0    0    0    0 -0.00000000000E+00 -0.00000000000E+00 -0.45593999997E+02  0.45594000000E+02  0.51100000000E-03 0. -1.
    9900012    2    1    2    0    0  0.13886327039E+02 -0.26566658921E+02  0.27469034884E+02  0.50528864221E+02  0.30000013286E+02 0.  0.
         12    1    1    2    0    0 -0.13886327039E+02  0.26566658921E+02 -0.27469034884E+02  0.40659135779E+02  0.00000000000E+00 0. -1.
         11    1    3    3    0    0  0.10848160933E+02 -0.28542202673E+02  0.19786460757E+02  0.36384666531E+02  0.51100000000E-03 0. -1.
        -11    1    3    3    0    0 -0.10782716598E+01  0.31351564254E+01 -0.17778740538E+01  0.37620090372E+01  0.51100000000E-03 0.  1.
        -12    1    3    3    0    0  0.41164377660E+01 -0.11596126730E+01  0.94604481808E+01  0.10382188652E+02  0.00000000000E+00 0.  1.
</event>
<event>
 7    1  0.2891523E-011  0.5052887E+02  0.7816164E-02  0.1300439E+00
        -11   -1    0    0    0    0  0.00000000000E+00  0.00000000000E+00  0.45593999997E+02  0.45594000000E+02  0.51100000000E-03 0. -1.
         11   -1    0    0    0    0 -0.00000000000E+00 -0.00000000000E+00 -0.45593999997E+02  0.45594000000E+02  0.51100000000E-03 0.  1.
    9900012    2    1    2    0    0 -0.37504004740E+02  0.84895562259E+01  0.13211437449E+02  0.50528867988E+02  0.30000024737E+02 0.  0.
         12    1    1    2    0    0  0.37504004740E+02 -0.84895562259E+01 -0.13211437449E+02  0.40659132012E+02  0.00000000000E+00 0. -1.
         11    1    3    3    0    0 -0.10219769770E+02 -0.35227885678E+00  0.10814622109E+02  0.14883677172E+02  0.51100000000E-03 0. -1.
        -11    1    3    3    0    0 -0.20876017859E+02  0.36004533384E+01 -0.77430483270E+01  0.22554959178E+02  0.51100000000E-03 0.  1.
        -12    1    3    3    0    0 -0.64082171110E+01  0.52413817442E+01  0.10139863668E+02  0.13090231638E+02  0.00000000000E+00 0.  1.
</event>
<event>
 7    1  0.2891523E-011  0.5052886E+02  0.7816164E-02  0.1300439E+00
        -11   -1    0    0    0    0  0.00000000000E+00  0.00000000000E+00  0.45593999997E+02  0.45594000000E+02  0.51100000000E-03 0.  1.
         11   -1    0    0    0    0 -0.00000000000E+00 -0.00000000000E+00 -0.45593999997E+02  0.45594000000E+02  0.51100000000E-03 0. -1.
    9900012    2    1    2    0    0 -0.34760035989E+01 -0.21173581401E+02  0.34536395657E+02  0.50528858650E+02  0.29999996353E+02 0.  0.
         12    1    1    2    0    0  0.34760035989E+01  0.21173581401E+02 -0.34536395657E+02  0.40659141350E+02  0.00000000000E+00 0. -1.
         11    1    3    3    0    0  0.11725162334E+01 -0.26269284615E+00  0.25788618809E+02  0.25816596643E+02  0.51100000000E-03 0. -1.
        -11    1    3    3    0    0  0.29132783603E+00 -0.15750562733E+02  0.75495959975E+01  0.17468872268E+02  0.51100000000E-03 0.  1.
         12    1    3    3    0    0 -0.49398476684E+01 -0.51603258215E+01  0.11981808497E+01  0.72433897396E+01  0.00000000000E+00 0. -1.
</event>
<event>
 7    1  0.2891523E-011  0.5052886E+02  0.7816164E-02  0.1300439E+00
        -11   -1    0    0    0    0  0.00000000000E+00  0.00000000000E+00  0.45593999997E+02  0.45594000000E+02  0.51100000000E-03 0.  1.
         11   -1    0    0    0    0 -0.00000000000E+00 -0.00000000000E+00 -0.45593999997E+02  0.45594000000E+02  0.51100000000E-03 0. -1.
    9900012    2    1    2    0    0  0.33019065038E+02 -0.19088840747E+02  0.14089831291E+02  0.50528857819E+02  0.29999993828E+02 0.  0.
         12    1    1    2    0    0 -0.33019065038E+02  0.19088840747E+02 -0.14089831291E+02  0.40659142181E+02  0.00000000000E+00 0. -1.
         11    1    3    3    0    0  0.56448391110E+01  0.12233234806E+01 -0.27740251562E+01  0.64074912997E+01  0.51100000000E-03 0. -1.
        -11    1    3    3    0    0  0.24791455638E+02 -0.22574672250E+02  0.20355164310E+02  0.39224543518E+02  0.51100000000E-03 0.  1.
        -12    1    3    3    0    0  0.25827702883E+01  0.22625080225E+01 -0.34913078626E+01  0.48968230013E+01  0.00000000000E+00 0.  1.
</event>
<event>
 7    1  0.2891523E-011  0.5052886E+02  0.7816164E-02  0.1300439E+00
        -11   -1    0    0    0    0  0.00000000000E+00  0.00000000000E+00  0.45593999997E+02  0.45594000000E+02  0.51100000000E-03 0.  1.
         11   -1    0    0    0    0 -0.00000000000E+00 -0.00000000000E+00 -0.45593999997E+02  0.45594000000E+02  0.51100000000E-03 0. -1.
    9900012    2    1    2    0    0 -0.10196582636E+02  0.21832005773E+02  0.32749940366E+02  0.50528863665E+02  0.30000011597E+02 0.  0.
         12    1    1    2    0    0  0.10196582636E+02 -0.21832005773E+02 -0.32749940366E+02  0.40659136335E+02  0.00000000000E+00 0. -1.
         11    1    3    3    0    0 -0.20568743361E+01 -0.20975514190E+01  0.86798806838E+01  0.91635573298E+01  0.51100000000E-03 0. -1.
        -11    1    3    3    0    0 -0.66433244941E+01  0.27283598732E+02  0.15576316183E+02  0.32111526687E+02  0.51100000000E-03 0.  1.
        -12    1    3    3    0    0 -0.14963838053E+01 -0.33540415397E+01  0.84937434992E+01  0.92537796480E+01  0.00000000000E+00 0.  1.
</event>
<event>
 7    1  0.2891523E-011  0.5052886E+02  0.7816164E-02  0.1300439E+00
        -11   -1    0    0    0    0  0.00000000000E+00  0.00000000000E+00  0.45593999997E+02  0.45594000000E+02  0.51100000000E-03 0. -1.
         11   -1    0    0    0    0 -0.00000000000E+00 -0.00000000000E+00 -0.45593999997E+02  0.45594000000E+02  0.51100000000E-03 0.  1.
    9900012    2    1    2    0    0  0.29387744429E+02 -0.85807041663E+01 -0.26756259156E+02  0.50528863134E+02  0.30000009983E+02 0.  0.
         12    1    1    2    0    0 -0.29387744429E+02  0.85807041663E+01  0.26756259156E+02  0.40659136866E+02  0.00000000000E+00 0. -1.
         11    1    3    3    0    0  0.27082550015E-01  0.70198215613E+01 -0.79437937861E+01  0.10601060711E+02  0.51100000000E-03 0. -1.
        -11    1    3    3    0    0  0.20034838442E+02 -0.47369272412E+01 -0.13681449927E+02  0.24718723742E+02  0.51100000000E-03 0.  1.
         12    1    3    3    0    0  0.93258234375E+01 -0.10863598486E+02 -0.51310154426E+01  0.15209078681E+02  0.00000000000E+00 0. -1.
</event>
<event>
 7    1  0.2891523E-011  0.5052886E+02  0.7816164E-02  0.1300439E+00
        -11   -1    0    0    0    0  0.00000000000E+00  0.00000000000E+00  0.45593999997E+02  0.45594000000E+02  0.51100000000E-03 0.  1.
         11   -1    0    0    0    0 -0.00000000000E+00 -0.00000000000E+00 -0.45593999997E+02  0.45594000000E+02  0.51100000000E-03 0. -1.
    9900012    2    1    2    0    0 -0.16204490099E+02  0.19315770442E+02  0.31897985713E+02  0.50528856136E+02  0.29999988712E+02 0.  0.
         12    1    1    2    0    0  0.16204490099E+02 -0.19315770442E+02 -0.31897985713E+02  0.40659143864E+02  0.00000000000E+00 0. -1.
         11    1    3    3    0    0 -0.12424808148E+01 -0.55861695740E+01  0.71606665212E+01  0.91664712062E+01  0.51100000000E-03 0. -1.
        -11    1    3    3    0    0 -0.55244588580E+01  0.19491486537E+02  0.88507894818E+01  0.22108237555E+02  0.51100000000E-03 0.  1.
        -12    1    3    3    0    0 -0.94375504265E+01  0.54104534796E+01  0.15886529710E+02  0.19254147375E+02  0.00000000000E+00 0.  1.
</event>
<event>
 7    1  0.2891523E-011  0.5052887E+02  0.7816164E-02  0.1300439E+00
        -11   -1    0    0    0    0  0.00000000000E+00  0.00000000000E+00  0.45593999997E+02  0.45594000000E+02  0.51100000000E-03 0.  1.
         11   -1    0    0    0    0 -0.00000000000E+00 -0.00000000000E+00 -0.45593999997E+02  0.45594000000E+02  0.51100000000E-03 0. -1.
    9900012    2    1    2    0    0 -0.35001605010E+02  0.75529825743E+01  0.19261479050E+02  0.50528874650E+02  0.30000044985E+02 0.  0.
         12    1    1    2    0    0  0.35001605010E+02 -0.75529825743E+01 -0.19261479050E+02  0.40659125350E+02  0.00000000000E+00 0. -1.
         11    1    3    3    0    0 -0.12537605914E+02 -0.81160616686E+01  0.14307319050E+02  0.20682393423E+02  0.51100000000E-03 0. -1.
        -11    1    3    3    0    0 -0.19314920905E+02  0.14454303046E+02  0.78807708082E+01  0.25379117300E+02  0.51100000000E-03 0.  1.
        -12    1    3    3    0    0 -0.31490781912E+01  0.12147411968E+01 -0.29266108080E+01  0.44673639265E+01  0.00000000000E+00 0.  1.
</event>
<event>
 7    1  0.2891523E-011  0.5052887E+02  0.7816164E-02  0.1300439E+00
        -11   -1    0    0    0    0  0.00000000000E+00  0.00000000000E+00  0.45593999997E+02  0.45594000000E+02  0.51100000000E-03 0.  1.
         11   -1    0    0    0    0 -0.00000000000E+00 -0.00000000000E+00 -0.45593999997E+02  0.45594000000E+02  0.51100000000E-03 0. -1.
    9900012    2    1    2    0    0 -0.27482193769E+02 -0.28784873565E+02  0.83261745501E+01  0.50528866916E+02  0.30000021478E+02 0.  0.
         12    1    1    2    0    0  0.27482193769E+02  0.28784873565E+02 -0.83261745501E+01  0.40659133084E+02  0.00000000000E+00 0. -1.
         11    1    3    3    0    0  0.44916041826E+01 -0.27228424654E+01 -0.15065213588E+00  0.52546242065E+01  0.51100000000E-03 0. -1.
        -11    1    3    3    0    0 -0.25196156479E+02 -0.27220203192E+02  0.45864716049E+01  0.37374075041E+02  0.51100000000E-03 0.  1.
        -12    1    3    3    0    0 -0.67776414728E+01  0.11581720926E+01  0.38903550811E+01  0.79001676682E+01  0.00000000000E+00 0.  1.
</event>
<event>
 7    1  0.2891523E-011  0.5052886E+02  0.7816164E-02  0.1300439E+00
        -11   -1    0    0    0    0  0.00000000000E+00  0.00000000000E+00  0.45593999997E+02  0.45594000000E+02  0.51100000000E-03 0.  1.
         11   -1    0    0    0    0 -0.00000000000E+00 -0.00000000000E+00 -0.45593999997E+02  0.45594000000E+02  0.51100000000E-03 0. -1.
    9900012    2    1    2    0    0 -0.26210022574E+02 -0.40466106806E+01  0.30819239341E+02  0.50528857672E+02  0.29999993380E+02 0.  0.
         12    1    1    2    0    0  0.26210022574E+02  0.40466106806E+01 -0.30819239341E+02  0.40659142328E+02  0.00000000000E+00 0. -1.
         11    1    3    3    0    0 -0.98615931299E+01 -0.10215015116E+02  0.63083971627E+01  0.15536840989E+02  0.51100000000E-03 0. -1.
        -11    1    3    3    0    0 -0.38782395924E+01  0.18558700280E+01  0.20864155895E+02  0.21302534999E+02  0.51100000000E-03 0.  1.
         12    1    3    3    0    0 -0.12470189851E+02  0.43125344074E+01  0.36466862826E+01  0.13689481684E+02  0.00000000000E+00 0. -1.
</event>
<event>
 7    1  0.2891523E-011  0.5052886E+02  0.7816164E-02  0.1300439E+00
        -11   -1    0    0    0    0  0.00000000000E+00  0.00000000000E+00  0.45593999997E+02  0.45594000000E+02  0.51100000000E-03 0.  1.
         11   -1    0    0    0    0 -0.00000000000E+00 -0.00000000000E+00 -0.45593999997E+02  0.45594000000E+02  0.51100000000E-03 0. -1.
    9900012    2    1    2    0    0  0.26073331289E+02 -0.29996519084E+02  0.85764764526E+01  0.50528859453E+02  0.29999998795E+02 0.  0.
         12    1    1    2    0    0 -0.26073331289E+02  0.29996519084E+02 -0.85764764526E+01  0.40659140547E+02  0.00000000000E+00 0. -1.
         11    1    3    3    0    0 -0.64524860933E+00 -0.43381448933E+01 -0.67856045547E+00  0.44380504094E+01  0.51100000000E-03 0. -1.
        -11    1    3    3    0    0  0.29477794255E+02 -0.23873345757E+02  0.18364846143E+01  0.37976962329E+02  0.51100000000E-03 0.  1.
        -12    1    3    3    0    0 -0.27592143568E+01 -0.17850284332E+01  0.74185522938E+01  0.81138467147E+01  0.00000000000E+00 0.  1.
</event>
<event>
 7    1  0.2891523E-011  0.5052886E+02  0.7816164E-02  0.1300439E+00
        -11   -1    0    0    0    0  0.00000000000E+00  0.00000000000E+00  0.45593999997E+02  0.45594000000E+02  0.51100000000E-03 0.  1.
         11   -1    0    0    0    0 -0.00000000000E+00 -0.00000000000E+00 -0.45593999997E+02  0.45594000000E+02  0.51100000000E-03 0. -1.
    9900012    2    1    2    0    0 -0.28505116784E+02  0.15218087864E+02  0.24678603856E+02  0.50528863643E+02  0.30000011528E+02 0.  0.
         12    1    1    2    0    0  0.28505116784E+02 -0.15218087864E+02 -0.24678603856E+02  0.40659136357E+02  0.00000000000E+00 0. -1.
         11    1    3    3    0    0  0.44149985536E+01  0.38619543548E+01  0.52633197419E+01  0.78809541702E+01  0.51100000000E-03 0. -1.
        -11    1    3    3    0    0 -0.26117509017E+02  0.14976339049E+02  0.13833455546E+02  0.33132755713E+02  0.51100000000E-03 0.  1.
        -12    1    3    3    0    0 -0.68026063206E+01 -0.36202055399E+01  0.55818285676E+01  0.95151537592E+01  0.00000000000E+00 0.  1.
</event>
<event>
 7    1  0.2891523E-011  0.5052886E+02  0.7816164E-02  0.1300439E+00
        -11   -1    0    0    0    0  0.00000000000E+00  0.00000000000E+00  0.45593999997E+02  0.45594000000E+02  0.51100000000E-03 0.  1.
         11   -1    0    0    0    0 -0.00000000000E+00 -0.00000000000E+00 -0.45593999997E+02  0.45594000000E+02  0.51100000000E-03 0. -1.
    9900012    2    1    2    0    0 -0.35585529964E+02  0.73344537607E+01  0.18249432432E+02  0.50528856639E+02  0.29999990240E+02 0.  0.
         12    1    1    2    0    0  0.35585529964E+02 -0.73344537607E+01 -0.18249432432E+02  0.40659143361E+02  0.00000000000E+00 0. -1.
         11    1    3    3    0    0 -0.19517273545E+01 -0.45375338174E+01  0.16810868775E+01  0.52177108162E+01  0.51100000000E-03 0. -1.
        -11    1    3    3    0    0 -0.10430400278E+02  0.15478649846E+02  0.65436778763E+01  0.19778816229E+02  0.51100000000E-03 0.  1.
        -12    1    3    3    0    0 -0.23203402331E+02 -0.36066622675E+01  0.10024667678E+02  0.25532329594E+02  0.00000000000E+00 0.  1.
</event>
<event>
 7    1  0.2891523E-011  0.5052880E+02  0.7816164E-02  0.1300439E+00
        -11   -1    0    0    0    0  0.00000000000E+00  0.00000000000E+00  0.45593999997E+02  0.45594000000E+02  0.51100000000E-03 0. -1.
         11   -1    0    0    0    0 -0.00000000000E+00 -0.00000000000E+00 -0.45593999997E+02  0.45594000000E+02  0.51100000000E-03 0.  1.
    9900012    2    1    2    0    0  0.80393102311E+01 -0.35759930752E+02 -0.17600208841E+02  0.50528800455E+02  0.29999819463E+02 0.  0.
         12    1    1    2    0    0 -0.80393102311E+01  0.35759930752E+02  0.17600208841E+02  0.40659199545E+02  0.00000000000E+00 0. -1.
         11    1    3    3    0    0 -0.34257779385E+01 -0.14553496899E+02 -0.59291930235E+01  0.16084015564E+02  0.51100000000E-03 0. -1.
        -11    1    3    3    0    0  0.13890524562E+02 -0.18963161498E+02 -0.12799668245E+01  0.23541165688E+02  0.51100000000E-03 0.  1.
        -12    1    3    3    0    0 -0.24254363928E+01 -0.22432723547E+01 -0.10391048993E+02  0.10903619203E+02  0.00000000000E+00 0.  1.
</event>
<event>
 7    1  0.2891523E-011  0.5052886E+02  0.7816164E-02  0.1300439E+00
        -11   -1    0    0    0    0  0.00000000000E+00  0.00000000000E+00  0.45593999997E+02  0.45594000000E+02  0.51100000000E-03 0.  1.
         11   -1    0    0    0    0 -0.00000000000E+00 -0.00000000000E+00 -0.45593999997E+02  0.45594000000E+02  0.51100000000E-03 0. -1.
    9900012    2    1    2    0    0 -0.28531798215E+02 -0.12051662967E+02  0.26341219951E+02  0.50528856402E+02  0.29999989519E+02 0.  0.
         12    1    1    2    0    0  0.28531798215E+02  0.12051662967E+02 -0.26341219951E+02  0.40659143598E+02  0.00000000000E+00 0. -1.
         11    1    3    3    0    0  0.23278615113E+01  0.53938555365E+01  0.23139062301E+01  0.63140144969E+01  0.51100000000E-03 0. -1.
        -11    1    3    3    0    0 -0.15943997245E+02 -0.97072183451E+01  0.19093160876E+02  0.26701871257E+02  0.51100000000E-03 0.  1.
         12    1    3    3    0    0 -0.14915662482E+02 -0.77383001582E+01  0.49341528445E+01  0.17512970647E+02  0.00000000000E+00 0. -1.
</event>
<event>
 7    1  0.2891523E-011  0.5052886E+02  0.7816164E-02  0.1300439E+00
        -11   -1    0    0    0    0  0.00000000000E+00  0.00000000000E+00  0.45593999997E+02  0.45594000000E+02  0.51100000000E-03 0.  1.
         11   -1    0    0    0    0 -0.00000000000E+00 -0.00000000000E+00 -0.45593999997E+02  0.45594000000E+02  0.51100000000E-03 0. -1.
    9900012    2    1    2    0    0  0.61755183351E-01  0.77411817920E+01  0.39915356666E+02  0.50528863179E+02  0.30000010118E+02 0.  0.
         12    1    1    2    0    0 -0.61755183351E-01 -0.77411817920E+01 -0.39915356666E+02  0.40659136821E+02  0.00000000000E+00 0. -1.
         11    1    3    3    0    0  0.16697313639E+01 -0.46635681870E+01  0.57055707635E+01  0.75558195493E+01  0.51100000000E-03 0. -1.
        -11    1    3    3    0    0 -0.11655596547E+02  0.10554676658E+02  0.19219329069E+02  0.24832171478E+02  0.51100000000E-03 0.  1.
        -12    1    3    3    0    0  0.10047620366E+02  0.18500733209E+01  0.14990456834E+02  0.18140872151E+02  0.00000000000E+00 0.  1.
</event>
<event>
 7    1  0.2891523E-011  0.5052886E+02  0.7816164E-02  0.1300439E+00
        -11   -1    0    0    0    0  0.00000000000E+00  0.00000000000E+00  0.45593999997E+02  0.45594000000E+02  0.51100000000E-03 0.  1.
         11   -1    0    0    0    0 -0.00000000000E+00 -0.00000000000E+00 -0.45593999997E+02  0.45594000000E+02  0.51100000000E-03 0. -1.
    9900012    2    1    2    0    0 -0.20282367545E+02  0.21666978411E+02 -0.27790879337E+02  0.50528863745E+02  0.30000011839E+02 0.  0.
         12    1    1    2    0    0  0.20282367545E+02 -0.21666978411E+02  0.27790879337E+02  0.40659136255E+02  0.00000000000E+00 0. -1.
         11    1    3    3    0    0 -0.40334699559E+01  0.75698747648E+00 -0.17211345450E+02  0.17693849846E+02  0.51100000000E-03 0. -1.
        -11    1    3    3    0    0 -0.18974027603E+02  0.17317397945E+02 -0.11640023947E+02  0.28202768531E+02  0.51100000000E-03 0.  1.
         12    1    3    3    0    0  0.27251300143E+01  0.35925929889E+01  0.10604900593E+01  0.46322453675E+01  0.00000000000E+00 0. -1.
</event>
<event>
 7    1  0.2891523E-011  0.5052887E+02  0.7816164E-02  0.1300439E+00
        -11   -1    0    0    0    0  0.00000000000E+00  0.00000000000E+00  0.45593999997E+02  0.45594000000E+02  0.51100000000E-03 0. -1.
         11   -1    0    0    0    0 -0.00000000000E+00 -0.00000000000E+00 -0.45593999997E+02  0.45594000000E+02  0.51100000000E-03 0.  1.
    9900012    2    1    2    0    0  0.22110778965E+02 -0.15726156608E+01 -0.34085269147E+02  0.50528865242E+02  0.30000016390E+02 0.  0.
         12    1    1    2    0    0 -0.22110778965E+02  0.15726156608E+01  0.34085269147E+02  0.40659134758E+02  0.00000000000E+00 0. -1.
         11    1    3    3    0    0  0.22440087811E+02  0.60694335217E+01 -0.24118661796E+02  0.33497841891E+02  0.51100000000E-03 0. -1.
        -11    1    3    3    0    0  0.15834171449E+01 -0.71888232356E+01 -0.51715615595E+00  0.73792845261E+01  0.51100000000E-03 0.  1.
        -12    1    3    3    0    0 -0.19127259910E+01 -0.45322594690E+00 -0.94494511946E+01  0.96517388254E+01  0.00000000000E+00 0.  1.
</event>
<event>
 7    1  0.2891523E-011  0.5052885E+02  0.7816164E-02  0.1300439E+00
        -11   -1    0    0    0    0  0.00000000000E+00  0.00000000000E+00  0.45593999997E+02  0.45594000000E+02  0.51100000000E-03 0. -1.
         11   -1    0    0    0    0 -0.00000000000E+00 -0.00000000000E+00 -0.45593999997E+02  0.45594000000E+02  0.51100000000E-03 0.  1.
    9900012    2    1    2    0    0 -0.39010056987E+02  0.55724380866E+01 -0.10016464766E+02  0.50528853689E+02  0.29999981272E+02 0.  0.
         12    1    1    2    0    0  0.39010056987E+02 -0.55724380866E+01  0.10016464766E+02  0.40659146311E+02  0.00000000000E+00 0. -1.
         11    1    3    3    0    0  0.45939051631E+00 -0.92048400659E+00  0.20587397230E+01  0.23014647426E+01  0.51100000000E-03 0. -1.
        -11    1    3    3    0    0 -0.33522730348E+02  0.91051201876E+01 -0.18272518223E+02  0.39249988358E+02  0.51100000000E-03 0.  1.
        -12    1    3    3    0    0 -0.59467171552E+01 -0.26121980943E+01  0.61973137340E+01  0.89774005885E+01  0.00000000000E+00 0.  1.
</event>
<event>
 7    1  0.2891523E-011  0.5052885E+02  0.7816164E-02  0.1300439E+00
        -11   -1    0    0    0    0  0.00000000000E+00  0.00000000000E+00  0.45593999997E+02  0.45594000000E+02  0.51100000000E-03 0. -1.
         11   -1    0    0    0    0 -0.00000000000E+00 -0.00000000000E+00 -0.45593999997E+02  0.45594000000E+02  0.51100000000E-03 0.  1.
    9900012    2    1    2    0    0  0.39063059256E+02 -0.68931196777E+01 -0.89290949491E+01  0.50528850550E+02  0.29999971733E+02 0.  0.
         12    1    1    2    0    0 -0.39063059256E+02  0.68931196777E+01  0.89290949491E+01  0.40659149450E+02  0.00000000000E+00 0. -1.
         11    1    3    3    0    0  0.94862392659E+01  0.63939326406E+01 -0.83685285677E+00  0.11470459145E+02  0.51100000000E-03 0. -1.
        -11    1    3    3    0    0  0.31893503001E+02 -0.15071924944E+02 -0.77192937778E+01  0.36110191801E+02  0.51100000000E-03 0.  1.
        -12    1    3    3    0    0 -0.23166830109E+01  0.17848726261E+01 -0.37294831457E+00  0.29481996048E+01  0.00000000000E+00 0.  1.
</event>
<event>
 7    1  0.2891523E-011  0.5052886E+02  0.7816164E-02  0.1300439E+00
        -11   -1    0    0    0    0  0.00000000000E+00  0.00000000000E+00  0.45593999997E+02  0.45594000000E+02  0.51100000000E-03 0.  1.
         11   -1    0    0    0    0 -0.00000000000E+00 -0.00000000000E+00 -0.45593999997E+02  0.45594000000E+02  0.51100000000E-03 0. -1.
    9900012    2    1    2    0    0  0.18058353236E+02  0.34110476809E+02  0.12788151050E+02  0.50528861335E+02  0.30000004513E+02 0.  0.
         12    1    1    2    0    0 -0.18058353236E+02 -0.34110476809E+02 -0.12788151050E+02  0.40659138665E+02  0.00000000000E+00 0. -1.
         11    1    3    3    0    0 -0.49826797303E+01  0.84281890480E+01  0.10669446424E+02  0.14480972176E+02  0.51100000000E-03 0. -1.
        -11    1    3    3    0    0  0.18629509582E+02  0.15735486186E+02  0.47710909044E+01  0.24848087682E+02  0.51100000000E-03 0.  1.
        -12    1    3    3    0    0  0.44115233840E+01  0.99468015750E+01 -0.26523862780E+01  0.11199801476E+02  0.00000000000E+00 0.  1.
</event>
<event>
 7    1  0.2891523E-011  0.5052886E+02  0.7816164E-02  0.1300439E+00
        -11   -1    0    0    0    0  0.00000000000E+00  0.00000000000E+00  0.45593999997E+02  0.45594000000E+02  0.51100000000E-03 0. -1.
         11   -1    0    0    0    0 -0.00000000000E+00 -0.00000000000E+00 -0.45593999997E+02  0.45594000000E+02  0.51100000000E-03 0.  1.
    9900012    2    1    2    0    0  0.40008424079E+02  0.57379347038E+01 -0.44235682519E+01  0.50528857756E+02  0.29999993635E+02 0.  0.
         12    1    1    2    0    0 -0.40008424079E+02 -0.57379347038E+01  0.44235682519E+01  0.40659142244E+02  0.00000000000E+00 0. -1.
         11    1    3    3    0    0  0.18021098836E+02  0.46908599551E+01  0.11300352956E+02  0.21782152042E+02  0.51100000000E-03 0. -1.
        -11    1    3    3    0    0  0.18041778338E+02 -0.29792772095E+01 -0.10644634425E+02  0.21158688537E+02  0.51100000000E-03 0.  1.
         12    1    3    3    0    0  0.39455469042E+01  0.40263519581E+01 -0.50792867822E+01  0.75880171771E+01  0.00000000000E+00 0. -1.
</event>
<event>
 7    1  0.2891523E-011  0.5052887E+02  0.7816164E-02  0.1300439E+00
        -11   -1    0    0    0    0  0.00000000000E+00  0.00000000000E+00  0.45593999997E+02  0.45594000000E+02  0.51100000000E-03 0.  1.
         11   -1    0    0    0    0 -0.00000000000E+00 -0.00000000000E+00 -0.45593999997E+02  0.45594000000E+02  0.51100000000E-03 0. -1.
    9900012    2    1    2    0    0 -0.27293523587E+02 -0.30135817646E+02 -0.24678226095E+00  0.50528870195E+02  0.30000031446E+02 0.  0.
         12    1    1    2    0    0  0.27293523587E+02  0.30135817646E+02  0.24678226095E+00  0.40659129805E+02  0.00000000000E+00 0. -1.
         11    1    3    3    0    0 -0.24514376424E+02 -0.28589054950E+02 -0.73052498502E+01  0.38362160915E+02  0.51100000000E-03 0.  1.
        -11    1    3    3    0    0  0.29593892618E+01  0.54455202184E+00  0.24893490417E+00  0.30193526716E+01  0.51100000000E-03 0. -1.
         12    1    3    3    0    0 -0.57385364248E+01 -0.20913147177E+01  0.68095326851E+01  0.91473566092E+01  0.00000000000E+00 0. -1.
</event>
<event>
 7    1  0.2891523E-011  0.5052886E+02  0.7816164E-02  0.1300439E+00
        -11   -1    0    0    0    0  0.00000000000E+00  0.00000000000E+00  0.45593999997E+02  0.45594000000E+02  0.51100000000E-03 0. -1.
         11   -1    0    0    0    0 -0.00000000000E+00 -0.00000000000E+00 -0.45593999997E+02  0.45594000000E+02  0.51100000000E-03 0.  1.
    9900012    2    1    2    0    0 -0.15048634387E+02  0.91570746701E+01 -0.36644946835E+02  0.50528861519E+02  0.30000005074E+02 0.  0.
         12    1    1    2    0    0  0.15048634387E+02 -0.91570746701E+01  0.36644946835E+02  0.40659138481E+02  0.00000000000E+00 0. -1.
         11    1    3    3    0    0 -0.11404392842E+01 -0.52020175792E+00 -0.95406723742E+00  0.15752638460E+01  0.51100000000E-03 0. -1.
        -11    1    3    3    0    0 -0.14765317324E+02 -0.67588808765E+01 -0.23074797152E+02  0.28216011948E+02  0.51100000000E-03 0.  1.
        -12    1    3    3    0    0  0.85712222113E+00  0.16436157305E+02 -0.12616082446E+02  0.20737585726E+02  0.00000000000E+00 0.  1.
</event>
<event>
 7    1  0.2891523E-011  0.5052885E+02  0.7816164E-02  0.1300439E+00
        -11   -1    0    0    0    0  0.00000000000E+00  0.00000000000E+00  0.45593999997E+02  0.45594000000E+02  0.51100000000E-03 0.  1.
         11   -1    0    0    0    0 -0.00000000000E+00 -0.00000000000E+00 -0.45593999997E+02  0.45594000000E+02  0.51100000000E-03 0. -1.
    9900012    2    1    2    0    0 -0.27440032719E+02  0.20235422417E+02  0.22152616520E+02  0.50528854230E+02  0.29999982918E+02 0.  0.
         12    1    1    2    0    0  0.27440032719E+02 -0.20235422417E+02 -0.22152616520E+02  0.40659145770E+02  0.00000000000E+00 0. -1.
         11    1    3    3    0    0 -0.21206769856E+02  0.41737311548E+01  0.28457911510E+01  0.21800129519E+02  0.51100000000E-03 0.  1.
        -11    1    3    3    0    0 -0.88854523293E+01  0.16347629426E+02  0.16848567578E+02  0.25101204764E+02  0.51100000000E-03 0. -1.
        -12    1    3    3    0    0  0.26521894662E+01 -0.28593816328E+00  0.24582577914E+01  0.36275199471E+01  0.00000000000E+00 0.  1.
</event>
<event>
 7    1  0.2891523E-011  0.5052886E+02  0.7816164E-02  0.1300439E+00
        -11   -1    0    0    0    0  0.00000000000E+00  0.00000000000E+00  0.45593999997E+02  0.45594000000E+02  0.51100000000E-03 0.  1.
         11   -1    0    0    0    0 -0.00000000000E+00 -0.00000000000E+00 -0.45593999997E+02  0.45594000000E+02  0.51100000000E-03 0. -1.
    9900012    2    1    2    0    0  0.39398825010E+02 -0.97345305955E+01  0.24773885021E+01  0.50528856479E+02  0.29999989752E+02 0.  0.
         12    1    1    2    0    0 -0.39398825010E+02  0.97345305955E+01 -0.24773885021E+01  0.40659143521E+02  0.00000000000E+00 0. -1.
         11    1    3    3    0    0 -0.14120174588E+00 -0.28847859631E+01 -0.74881634798E+01  0.80258657195E+01  0.51100000000E-03 0. -1.
        -11    1    3    3    0    0  0.26224544626E+02 -0.43226287988E+00  0.38610740101E+01  0.26510780539E+02  0.51100000000E-03 0.  1.
         12    1    3    3    0    0  0.13315482130E+02 -0.64174817525E+01  0.61044779718E+01  0.15992210220E+02  0.00000000000E+00 0. -1.
</event>
<event>
 7    1  0.2891523E-011  0.5052886E+02  0.7816164E-02  0.1300439E+00
        -11   -1    0    0    0    0  0.00000000000E+00  0.00000000000E+00  0.45593999997E+02  0.45594000000E+02  0.51100000000E-03 0.  1.
         11   -1    0    0    0    0 -0.00000000000E+00 -0.00000000000E+00 -0.45593999997E+02  0.45594000000E+02  0.51100000000E-03 0. -1.
    9900012    2    1    2    0    0  0.14436650018E+02 -0.33486579323E+02  0.17983272907E+02  0.50528856343E+02  0.29999989339E+02 0.  0.
         12    1    1    2    0    0 -0.14436650018E+02  0.33486579323E+02 -0.17983272907E+02  0.40659143657E+02  0.00000000000E+00 0. -1.
         11    1    3    3    0    0 -0.11394283017E+01  0.26728819195E+01  0.87594209805E+01  0.92287621480E+01  0.51100000000E-03 0. -1.
        -11    1    3    3    0    0  0.71793671771E+01 -0.20554937660E+02  0.10836490547E+01  0.21799611712E+02  0.51100000000E-03 0.  1.
         12    1    3    3    0    0  0.83967111423E+01 -0.15604523583E+02  0.81402028716E+01  0.19500482482E+02  0.00000000000E+00 0. -1.
</event>
<event>
 7    1  0.2891523E-011  0.5052889E+02  0.7816164E-02  0.1300439E+00
        -11   -1    0    0    0    0  0.00000000000E+00  0.00000000000E+00  0.45593999997E+02  0.45594000000E+02  0.51100000000E-03 0. -1.
         11   -1    0    0    0    0 -0.00000000000E+00 -0.00000000000E+00 -0.45593999997E+02  0.45594000000E+02  0.51100000000E-03 0.  1.
    9900012    2    1    2    0    0 -0.23152474137E+02  0.19320861722E+02 -0.27273260040E+02  0.50528887004E+02  0.30000082538E+02 0.  0.
         12    1    1    2    0    0  0.23152474137E+02 -0.19320861722E+02  0.27273260040E+02  0.40659112996E+02  0.00000000000E+00 0. -1.
         11    1    3    3    0    0 -0.10748077385E+01  0.21377937571E+01  0.22632670511E+01  0.32935925413E+01  0.51100000000E-03 0. -1.
        -11    1    3    3    0    0 -0.19750214213E+02  0.15238796495E+02 -0.33796618965E+02  0.42005991642E+02  0.51100000000E-03 0.  1.
        -12    1    3    3    0    0 -0.23274521859E+01  0.19442714700E+01  0.42600918735E+01  0.52293028213E+01  0.00000000000E+00 0.  1.
</event>
<event>
 7    1  0.2891523E-011  0.5052886E+02  0.7816164E-02  0.1300439E+00
        -11   -1    0    0    0    0  0.00000000000E+00  0.00000000000E+00  0.45593999997E+02  0.45594000000E+02  0.51100000000E-03 0.  1.
         11   -1    0    0    0    0 -0.00000000000E+00 -0.00000000000E+00 -0.45593999997E+02  0.45594000000E+02  0.51100000000E-03 0. -1.
    9900012    2    1    2    0    0 -0.17233412422E+01  0.31685872365E+02  0.25420490264E+02  0.50528859111E+02  0.29999997754E+02 0.  0.
         12    1    1    2    0    0  0.17233412422E+01 -0.31685872365E+02 -0.25420490264E+02  0.40659140889E+02  0.00000000000E+00 0. -1.
         11    1    3    3    0    0 -0.12898909179E+02  0.11485260137E+02  0.64262998688E+01  0.18427978422E+02  0.51100000000E-03 0. -1.
        -11    1    3    3    0    0  0.11094304636E+02  0.12802307841E+02  0.77222386277E+01  0.18617616687E+02  0.51100000000E-03 0.  1.
         12    1    3    3    0    0  0.81263301395E-01  0.73983043870E+01  0.11271951767E+02  0.13483264003E+02  0.00000000000E+00 0. -1.
</event>
<event>
 7    1  0.2891523E-011  0.5052886E+02  0.7816164E-02  0.1300439E+00
        -11   -1    0    0    0    0  0.00000000000E+00  0.00000000000E+00  0.45593999997E+02  0.45594000000E+02  0.51100000000E-03 0.  1.
         11   -1    0    0    0    0 -0.00000000000E+00 -0.00000000000E+00 -0.45593999997E+02  0.45594000000E+02  0.51100000000E-03 0. -1.
    9900012    2    1    2    0    0  0.81879639475E+01 -0.21948179364E+02  0.33232515533E+02  0.50528863024E+02  0.30000009648E+02 0.  0.
         12    1    1    2    0    0 -0.81879639475E+01  0.21948179364E+02 -0.33232515533E+02  0.40659136976E+02  0.00000000000E+00 0. -1.
         11    1    3    3    0    0  0.11494571181E+02 -0.20084731709E+02  0.15376955922E+02  0.27784391088E+02  0.51100000000E-03 0. -1.
        -11    1    3    3    0    0 -0.70476063591E+01 -0.46553365712E+01  0.71530817245E+01  0.11068310278E+02  0.51100000000E-03 0.  1.
         12    1    3    3    0    0  0.37409991258E+01  0.27918889158E+01  0.10702477886E+02  0.11676161659E+02  0.00000000000E+00 0. -1.
</event>
<event>
 7    1  0.2891523E-011  0.5052885E+02  0.7816164E-02  0.1300439E+00
        -11   -1    0    0    0    0  0.00000000000E+00  0.00000000000E+00  0.45593999997E+02  0.45594000000E+02  0.51100000000E-03 0. -1.
         11   -1    0    0    0    0 -0.00000000000E+00 -0.00000000000E+00 -0.45593999997E+02  0.45594000000E+02  0.51100000000E-03 0.  1.
    9900012    2    1    2    0    0 -0.90593256306E+00  0.38306384591E+02  0.13600234598E+02  0.50528853484E+02  0.29999980651E+02 0.  0.
         12    1    1    2    0    0  0.90593256306E+00 -0.38306384591E+02 -0.13600234598E+02  0.40659146516E+02  0.00000000000E+00 0. -1.
         11    1    3    3    0    0 -0.71821162073E+00  0.99225179589E+01  0.66386342369E+01  0.11960085926E+02  0.51100000000E-03 0. -1.
        -11    1    3    3    0    0  0.11837668922E+02  0.18414876281E+02  0.68840145205E+01  0.22948370969E+02  0.51100000000E-03 0.  1.
        -12    1    3    3    0    0 -0.12025389865E+02  0.99689903516E+01  0.77585841054E-01  0.15620396589E+02  0.00000000000E+00 0.  1.
</event>
<event>
 7    1  0.2891523E-011  0.5052885E+02  0.7816164E-02  0.1300439E+00
        -11   -1    0    0    0    0  0.00000000000E+00  0.00000000000E+00  0.45593999997E+02  0.45594000000E+02  0.51100000000E-03 0.  1.
         11   -1    0    0    0    0 -0.00000000000E+00 -0.00000000000E+00 -0.45593999997E+02  0.45594000000E+02  0.51100000000E-03 0. -1.
    9900012    2    1    2    0    0  0.37632578955E+02  0.11139680243E+02  0.10623684560E+02  0.50528854062E+02  0.29999982408E+02 0.  0.
         12    1    1    2    0    0 -0.37632578955E+02 -0.11139680243E+02 -0.10623684560E+02  0.40659145938E+02  0.00000000000E+00 0. -1.
         11    1    3    3    0    0  0.14904102030E+02  0.13137174257E+02 -0.65898270557E+01  0.20931875828E+02  0.51100000000E-03 0. -1.
        -11    1    3    3    0    0  0.14091490099E+02  0.21177907101E+01  0.81373818406E+01  0.16409512917E+02  0.51100000000E-03 0.  1.
         12    1    3    3    0    0  0.86369868268E+01 -0.41152847241E+01  0.90761297750E+01  0.13187465317E+02  0.00000000000E+00 0. -1.
</event>
<event>
 7    1  0.2891523E-011  0.5052886E+02  0.7816164E-02  0.1300439E+00
        -11   -1    0    0    0    0  0.00000000000E+00  0.00000000000E+00  0.45593999997E+02  0.45594000000E+02  0.51100000000E-03 0.  1.
         11   -1    0    0    0    0 -0.00000000000E+00 -0.00000000000E+00 -0.45593999997E+02  0.45594000000E+02  0.51100000000E-03 0. -1.
    9900012    2    1    2    0    0 -0.95555787836E+01 -0.36136923025E+02 -0.15999355869E+02  0.50528859824E+02  0.29999999922E+02 0.  0.
         12    1    1    2    0    0  0.95555787836E+01  0.36136923025E+02  0.15999355869E+02  0.40659140176E+02  0.00000000000E+00 0. -1.
         11    1    3    3    0    0 -0.35953346842E+01 -0.79564957278E+01 -0.84483448568E+01  0.12149353351E+02  0.51100000000E-03 0. -1.
        -11    1    3    3    0    0 -0.36010918744E+01 -0.27868904241E+02  0.23479686750E+01  0.28198522008E+02  0.51100000000E-03 0.  1.
        -12    1    3    3    0    0 -0.23591522251E+01 -0.31152305604E+00 -0.98989796872E+01  0.10180984465E+02  0.00000000000E+00 0.  1.
</event>
<event>
 7    1  0.2891523E-011  0.5052887E+02  0.7816164E-02  0.1300439E+00
        -11   -1    0    0    0    0  0.00000000000E+00  0.00000000000E+00  0.45593999997E+02  0.45594000000E+02  0.51100000000E-03 0. -1.
         11   -1    0    0    0    0 -0.00000000000E+00 -0.00000000000E+00 -0.45593999997E+02  0.45594000000E+02  0.51100000000E-03 0.  1.
    9900012    2    1    2    0    0 -0.30969853614E+02 -0.13078476591E+02  0.22868893540E+02  0.50528872186E+02  0.30000037496E+02 0.  0.
         12    1    1    2    0    0  0.30969853614E+02  0.13078476591E+02 -0.22868893540E+02  0.40659127814E+02  0.00000000000E+00 0. -1.
         11    1    3    3    0    0 -0.40691112500E+01  0.73265972404E+01  0.70190154291E+01  0.10931755181E+02  0.51100000000E-03 0. -1.
        -11    1    3    3    0    0 -0.53763862072E+01 -0.12026653335E+02  0.52050114297E+01  0.14164676605E+02  0.51100000000E-03 0.  1.
         12    1    3    3    0    0 -0.21524356157E+02 -0.83784204971E+01  0.10644866682E+02  0.25432440400E+02  0.00000000000E+00 0. -1.
</event>
<event>
 7    1  0.2891523E-011  0.5052887E+02  0.7816164E-02  0.1300439E+00
        -11   -1    0    0    0    0  0.00000000000E+00  0.00000000000E+00  0.45593999997E+02  0.45594000000E+02  0.51100000000E-03 0. -1.
         11   -1    0    0    0    0 -0.00000000000E+00 -0.00000000000E+00 -0.45593999997E+02  0.45594000000E+02  0.51100000000E-03 0.  1.
    9900012    2    1    2    0    0  0.35455396707E+02  0.19058549142E+02 -0.57316176923E+01  0.50528869508E+02  0.30000029355E+02 0.  0.
         12    1    1    2    0    0 -0.35455396707E+02 -0.19058549142E+02  0.57316176923E+01  0.40659130492E+02  0.00000000000E+00 0. -1.
         11    1    3    3    0    0  0.12262831940E+01 -0.42174436781E+01 -0.25674626106E+01  0.50874813187E+01  0.51100000000E-03 0. -1.
        -11    1    3    3    0    0  0.13676658290E+02  0.17722976129E+02  0.44628487573E+01  0.22826999018E+02  0.51100000000E-03 0.  1.
        -12    1    3    3    0    0  0.20552455222E+02  0.55530166914E+01 -0.76270038390E+01  0.22614389171E+02  0.00000000000E+00 0.  1.
</event>
<event>
 7    1  0.2891523E-011  0.5052886E+02  0.7816164E-02  0.1300439E+00
        -11   -1    0    0    0    0  0.00000000000E+00  0.00000000000E+00  0.45593999997E+02  0.45594000000E+02  0.51100000000E-03 0.  1.
         11   -1    0    0    0    0 -0.00000000000E+00 -0.00000000000E+00 -0.45593999997E+02  0.45594000000E+02  0.51100000000E-03 0. -1.
    9900012    2    1    2    0    0  0.20817863296E+02  0.91814216562E+01  0.33696938292E+02  0.50528860977E+02  0.30000003424E+02 0.  0.
         12    1    1    2    0    0 -0.20817863296E+02 -0.91814216562E+01 -0.33696938292E+02  0.40659139023E+02  0.00000000000E+00 0. -1.
         11    1    3    3    0    0  0.10654916774E+02 -0.82027757479E+01  0.11834472509E+02  0.17912775365E+02  0.51100000000E-03 0. -1.
        -11    1    3    3    0    0  0.10394409967E+02  0.11043881950E+02  0.75096671122E+01  0.16923539449E+02  0.51100000000E-03 0.  1.
         12    1    3    3    0    0 -0.23146344463E+00  0.63403154538E+01  0.14352798671E+02  0.15692546163E+02  0.00000000000E+00 0. -1.
</event>
<event>
 7    1  0.2891523E-011  0.5052886E+02  0.7816164E-02  0.1300439E+00
        -11   -1    0    0    0    0  0.00000000000E+00  0.00000000000E+00  0.45593999997E+02  0.45594000000E+02  0.51100000000E-03 0. -1.
         11   -1    0    0    0    0 -0.00000000000E+00 -0.00000000000E+00 -0.45593999997E+02  0.45594000000E+02  0.51100000000E-03 0.  1.
    9900012    2    1    2    0    0 -0.12127681811E+02 -0.21305669723E+02 -0.32436915353E+02  0.50528859501E+02  0.29999998940E+02 0.  0.
         12    1    1    2    0    0  0.12127681811E+02  0.21305669723E+02  0.32436915353E+02  0.40659140499E+02  0.00000000000E+00 0. -1.
         11    1    3    3    0    0 -0.68034525242E+01 -0.57160525461E+01  0.69551531192E+00  0.89131343964E+01  0.51100000000E-03 0. -1.
        -11    1    3    3    0    0 -0.87455626672E+01 -0.13395385372E+02 -0.33894768804E+02  0.37480349094E+02  0.51100000000E-03 0.  1.
        -12    1    3    3    0    0  0.34213333804E+01 -0.21942318049E+01  0.76233813907E+00  0.41353760110E+01  0.00000000000E+00 0.  1.
</event>
<event>
 7    1  0.2891523E-011  0.5052885E+02  0.7816164E-02  0.1300439E+00
        -11   -1    0    0    0    0  0.00000000000E+00  0.00000000000E+00  0.45593999997E+02  0.45594000000E+02  0.51100000000E-03 0.  1.
         11   -1    0    0    0    0 -0.00000000000E+00 -0.00000000000E+00 -0.45593999997E+02  0.45594000000E+02  0.51100000000E-03 0. -1.
    9900012    2    1    2    0    0  0.27898660104E+02  0.15391550980E+02  0.25257309775E+02  0.50528846366E+02  0.29999959014E+02 0.  0.
         12    1    1    2    0    0 -0.27898660104E+02 -0.15391550980E+02 -0.25257309775E+02  0.40659153634E+02  0.00000000000E+00 0. -1.
         11    1    3    3    0    0  0.54677471690E+01  0.49879031879E+01 -0.52730220302E+01  0.90873647945E+01  0.51100000000E-03 0. -1.
        -11    1    3    3    0    0  0.20446153086E+02  0.53812199988E+01  0.28885258565E+02  0.35796101287E+02  0.51100000000E-03 0.  1.
         12    1    3    3    0    0  0.19847598489E+01  0.50224277931E+01  0.16450732402E+01  0.56453802848E+01  0.00000000000E+00 0. -1.
</event>
<event>
 7    1  0.2891523E-011  0.5052874E+02  0.7816164E-02  0.1300439E+00
        -11   -1    0    0    0    0  0.00000000000E+00  0.00000000000E+00  0.45593999997E+02  0.45594000000E+02  0.51100000000E-03 0. -1.
         11   -1    0    0    0    0 -0.00000000000E+00 -0.00000000000E+00 -0.45593999997E+02  0.45594000000E+02  0.51100000000E-03 0.  1.
    9900012    2    1    2    0    0 -0.11692469853E+01 -0.21828798305E+02 -0.34282826894E+02  0.50528735450E+02  0.29999621871E+02 0.  0.
         12    1    1    2    0    0  0.11692469853E+01  0.21828798305E+02  0.34282826894E+02  0.40659264550E+02  0.00000000000E+00 0. -1.
         11    1    3    3    0    0  0.21586958153E+01  0.19908967156E+01  0.23997651489E+01  0.37924280331E+01  0.51100000000E-03 0. -1.
        -11    1    3    3    0    0 -0.85977612409E+01 -0.14319925187E+02 -0.14847051252E+02  0.22347632691E+02  0.51100000000E-03 0.  1.
        -12    1    3    3    0    0  0.52698184403E+01 -0.94997698329E+01 -0.21835540791E+02  0.24388674726E+02  0.00000000000E+00 0.  1.
</event>
<event>
 7    1  0.2891523E-011  0.5052887E+02  0.7816164E-02  0.1300439E+00
        -11   -1    0    0    0    0  0.00000000000E+00  0.00000000000E+00  0.45593999997E+02  0.45594000000E+02  0.51100000000E-03 0. -1.
         11   -1    0    0    0    0 -0.00000000000E+00 -0.00000000000E+00 -0.45593999997E+02  0.45594000000E+02  0.51100000000E-03 0.  1.
    9900012    2    1    2    0    0  0.75804820555E+01 -0.39223360028E+02  0.75650087742E+01  0.50528867719E+02  0.30000023919E+02 0.  0.
         12    1    1    2    0    0 -0.75804820555E+01  0.39223360028E+02 -0.75650087742E+01  0.40659132281E+02  0.00000000000E+00 0. -1.
         11    1    3    3    0    0  0.15986419769E+01 -0.30563952506E+02  0.15493623027E+02  0.34303982330E+02  0.51100000000E-03 0. -1.
        -11    1    3    3    0    0  0.12271655147E+01 -0.82858508557E+01 -0.78125688421E+01  0.11454147361E+02  0.51100000000E-03 0.  1.
        -12    1    3    3    0    0  0.47546745638E+01 -0.37355666693E+00 -0.11604541067E+00  0.47707380277E+01  0.00000000000E+00 0.  1.
</event>
<event>
 7    1  0.2891523E-011  0.5052887E+02  0.7816164E-02  0.1300439E+00
        -11   -1    0    0    0    0  0.00000000000E+00  0.00000000000E+00  0.45593999997E+02  0.45594000000E+02  0.51100000000E-03 0. -1.
         11   -1    0    0    0    0 -0.00000000000E+00 -0.00000000000E+00 -0.45593999997E+02  0.45594000000E+02  0.51100000000E-03 0.  1.
    9900012    2    1    2    0    0 -0.24413449212E+01  0.25800690396E+02 -0.31329361730E+02  0.50528871919E+02  0.30000036684E+02 0.  0.
         12    1    1    2    0    0  0.24413449212E+01 -0.25800690396E+02  0.31329361730E+02  0.40659128081E+02  0.00000000000E+00 0. -1.
         11    1    3    3    0    0  0.63807962016E+01 -0.14315057150E+00 -0.10530303829E+01  0.64686880819E+01  0.51100000000E-03 0. -1.
        -11    1    3    3    0    0 -0.96900549780E+01  0.12009892220E+02 -0.24492589686E+02  0.28948603186E+02  0.51100000000E-03 0.  1.
         12    1    3    3    0    0  0.86791385519E+00  0.13933948748E+02 -0.57837416605E+01  0.15111580651E+02  0.00000000000E+00 0. -1.
</event>
<event>
 7    1  0.2891523E-011  0.5052886E+02  0.7816164E-02  0.1300439E+00
        -11   -1    0    0    0    0  0.00000000000E+00  0.00000000000E+00  0.45593999997E+02  0.45594000000E+02  0.51100000000E-03 0. -1.
         11   -1    0    0    0    0 -0.00000000000E+00 -0.00000000000E+00 -0.45593999997E+02  0.45594000000E+02  0.51100000000E-03 0.  1.
    9900012    2    1    2    0    0  0.27582916016E+02  0.29395894946E+02 -0.53131570530E+01  0.50528861624E+02  0.30000005393E+02 0.  0.
         12    1    1    2    0    0 -0.27582916016E+02 -0.29395894946E+02  0.53131570530E+01  0.40659138376E+02  0.00000000000E+00 0. -1.
         11    1    3    3    0    0 -0.37456022766E+01 -0.20965645671E+01 -0.27080069037E+00  0.43009827567E+01  0.51100000000E-03 0. -1.
        -11    1    3    3    0    0  0.24983489003E+02  0.18764309028E+02 -0.33533749375E+00  0.31247183353E+02  0.51100000000E-03 0.  1.
        -12    1    3    3    0    0  0.63450292898E+01  0.12728150485E+02 -0.47070188689E+01  0.14980695514E+02  0.00000000000E+00 0.  1.
</event>
<event>
 7    1  0.2891523E-011  0.5052886E+02  0.7816164E-02  0.1300439E+00
        -11   -1    0    0    0    0  0.00000000000E+00  0.00000000000E+00  0.45593999997E+02  0.45594000000E+02  0.51100000000E-03 0.  1.
         11   -1    0    0    0    0 -0.00000000000E+00 -0.00000000000E+00 -0.45593999997E+02  0.45594000000E+02  0.51100000000E-03 0. -1.
    9900012    2    1    2    0    0  0.33243809508E+02 -0.14620095548E+02  0.18282982703E+02  0.50528861778E+02  0.30000005861E+02 0.  0.
         12    1    1    2    0    0 -0.33243809508E+02  0.14620095548E+02 -0.18282982703E+02  0.40659138222E+02  0.00000000000E+00 0. -1.
         11    1    3    3    0    0  0.90940079601E+01  0.59779182408E+01  0.14721619492E+02  0.18307445698E+02  0.51100000000E-03 0. -1.
        -11    1    3    3    0    0  0.15415270930E+02 -0.12806066618E+02  0.42868628953E+01  0.20493977501E+02  0.51100000000E-03 0.  1.
         12    1    3    3    0    0  0.87345306182E+01 -0.77919471712E+01 -0.72549968434E+00  0.11727438579E+02  0.00000000000E+00 0. -1.
</event>
<event>
 7    1  0.2891523E-011  0.5052886E+02  0.7816164E-02  0.1300439E+00
        -11   -1    0    0    0    0  0.00000000000E+00  0.00000000000E+00  0.45593999997E+02  0.45594000000E+02  0.51100000000E-03 0.  1.
         11   -1    0    0    0    0 -0.00000000000E+00 -0.00000000000E+00 -0.45593999997E+02  0.45594000000E+02  0.51100000000E-03 0. -1.
    9900012    2    1    2    0    0  0.35604741120E+02 -0.12686824802E+02  0.14983749340E+02  0.50528857633E+02  0.29999993261E+02 0.  0.
         12    1    1    2    0    0 -0.35604741120E+02  0.12686824802E+02 -0.14983749340E+02  0.40659142367E+02  0.00000000000E+00 0. -1.
         11    1    3    3    0    0  0.25662269847E+02 -0.43467822298E+00  0.14435673836E+02  0.29447066377E+02  0.51100000000E-03 0.  1.
        -11    1    3    3    0    0 -0.30151861764E+01 -0.23601687453E+01 -0.23949465793E+01  0.45163606547E+01  0.51100000000E-03 0. -1.
        -12    1    3    3    0    0  0.12957657449E+02 -0.98919778335E+01  0.29430220829E+01  0.16565430601E+02  0.00000000000E+00 0.  1.
</event>
<event>
 7    1  0.2891523E-011  0.5052888E+02  0.7816164E-02  0.1300439E+00
        -11   -1    0    0    0    0  0.00000000000E+00  0.00000000000E+00  0.45593999997E+02  0.45594000000E+02  0.51100000000E-03 0. -1.
         11   -1    0    0    0    0 -0.00000000000E+00 -0.00000000000E+00 -0.45593999997E+02  0.45594000000E+02  0.51100000000E-03 0.  1.
    9900012    2    1    2    0    0 -0.36617106667E+02  0.76617147247E+00 -0.17656856394E+02  0.50528879288E+02  0.30000059082E+02 0.  0.
         12    1    1    2    0    0  0.36617106667E+02 -0.76617147247E+00  0.17656856394E+02  0.40659120712E+02  0.00000000000E+00 0. -1.
         11    1    3    3    0    0 -0.69029259306E+01  0.89625162314E+01 -0.78192382697E-01  0.11312965920E+02  0.51100000000E-03 0. -1.
        -11    1    3    3    0    0 -0.29759255090E+02 -0.33327740758E+01 -0.16654739202E+02  0.34265157007E+02  0.51100000000E-03 0.  1.
        -12    1    3    3    0    0  0.45074353482E-01 -0.48635706832E+01 -0.92392480861E+00  0.49507563603E+01  0.00000000000E+00 0.  1.
</event>
<event>
 7    1  0.2891523E-011  0.5052886E+02  0.7816164E-02  0.1300439E+00
        -11   -1    0    0    0    0  0.00000000000E+00  0.00000000000E+00  0.45593999997E+02  0.45594000000E+02  0.51100000000E-03 0. -1.
         11   -1    0    0    0    0 -0.00000000000E+00 -0.00000000000E+00 -0.45593999997E+02  0.45594000000E+02  0.51100000000E-03 0.  1.
    9900012    2    1    2    0    0 -0.94001103252E+01 -0.36180540134E+02  0.15992882497E+02  0.50528857743E+02  0.29999993597E+02 0.  0.
         12    1    1    2    0    0  0.94001103252E+01  0.36180540134E+02 -0.15992882497E+02  0.40659142257E+02  0.00000000000E+00 0. -1.
         11    1    3    3    0    0 -0.10611458107E+01 -0.97443278543E-01  0.12340737120E+02  0.12386658894E+02  0.51100000000E-03 0. -1.
        -11    1    3    3    0    0 -0.14690558522E+01 -0.23784657831E+02  0.32381606109E+01  0.24048986624E+02  0.51100000000E-03 0.  1.
        -12    1    3    3    0    0 -0.68699086623E+01 -0.12298439024E+02  0.41398476590E+00  0.14093212226E+02  0.00000000000E+00 0.  1.
</event>
<event>
 7    1  0.2891523E-011  0.5052886E+02  0.7816164E-02  0.1300439E+00
        -11   -1    0    0    0    0  0.00000000000E+00  0.00000000000E+00  0.45593999997E+02  0.45594000000E+02  0.51100000000E-03 0. -1.
         11   -1    0    0    0    0 -0.00000000000E+00 -0.00000000000E+00 -0.45593999997E+02  0.45594000000E+02  0.51100000000E-03 0.  1.
    9900012    2    1    2    0    0 -0.45316197472E+01  0.25728805087E+02 -0.31155396291E+02  0.50528859493E+02  0.29999998914E+02 0.  0.
         12    1    1    2    0    0  0.45316197472E+01 -0.25728805087E+02  0.31155396291E+02  0.40659140507E+02  0.00000000000E+00 0. -1.
         11    1    3    3    0    0  0.23483242529E+01 -0.53704871025E+01 -0.15212660782E+01  0.60556592751E+01  0.51100000000E-03 0. -1.
        -11    1    3    3    0    0  0.21034882184E+01  0.56209713442E+01 -0.70706045899E+01  0.92743426217E+01  0.51100000000E-03 0.  1.
         12    1    3    3    0    0 -0.89834322185E+01  0.25478320846E+02 -0.22563525623E+02  0.35198857596E+02  0.00000000000E+00 0. -1.
</event>
<event>
 7    1  0.2891523E-011  0.5052886E+02  0.7816164E-02  0.1300439E+00
        -11   -1    0    0    0    0  0.00000000000E+00  0.00000000000E+00  0.45593999997E+02  0.45594000000E+02  0.51100000000E-03 0.  1.
         11   -1    0    0    0    0 -0.00000000000E+00 -0.00000000000E+00 -0.45593999997E+02  0.45594000000E+02  0.51100000000E-03 0. -1.
    9900012    2    1    2    0    0  0.16412795163E+02 -0.79788254172E+01  0.36333517642E+02  0.50528855833E+02  0.29999987790E+02 0.  0.
         12    1    1    2    0    0 -0.16412795163E+02  0.79788254172E+01 -0.36333517642E+02  0.40659144167E+02  0.00000000000E+00 0. -1.
         11    1    3    3    0    0 -0.59005013588E+01 -0.10314603838E+02  0.16326261124E+02  0.20192913885E+02  0.51100000000E-03 0. -1.
        -11    1    3    3    0    0  0.10882315120E+02  0.66585740354E+00  0.12361971426E+02  0.16482914980E+02  0.51100000000E-03 0.  1.
         12    1    3    3    0    0  0.11430981402E+02  0.16699210174E+01  0.76452850922E+01  0.13853026967E+02  0.00000000000E+00 0. -1.
</event>
<event>
 7    1  0.2891523E-011  0.5052886E+02  0.7816164E-02  0.1300439E+00
        -11   -1    0    0    0    0  0.00000000000E+00  0.00000000000E+00  0.45593999997E+02  0.45594000000E+02  0.51100000000E-03 0.  1.
         11   -1    0    0    0    0 -0.00000000000E+00 -0.00000000000E+00 -0.45593999997E+02  0.45594000000E+02  0.51100000000E-03 0. -1.
    9900012    2    1    2    0    0 -0.48291286882E+01  0.35179280556E+02  0.19805649346E+02  0.50528855760E+02  0.29999987569E+02 0.  0.
         12    1    1    2    0    0  0.48291286882E+01 -0.35179280556E+02 -0.19805649346E+02  0.40659144240E+02  0.00000000000E+00 0. -1.
         11    1    3    3    0    0  0.53559739039E-01  0.19912638394E+02 -0.42140056823E+01  0.20353719085E+02  0.51100000000E-03 0. -1.
        -11    1    3    3    0    0  0.82884018496E-01  0.98862322552E+01  0.18605537164E+02  0.21069182979E+02  0.51100000000E-03 0.  1.
         12    1    3    3    0    0 -0.49655724457E+01  0.53804099070E+01  0.54141178641E+01  0.91059536968E+01  0.00000000000E+00 0. -1.
</event>
<event>
 7    1  0.2891523E-011  0.5052874E+02  0.7816164E-02  0.1300439E+00
        -11   -1    0    0    0    0  0.00000000000E+00  0.00000000000E+00  0.45593999997E+02  0.45594000000E+02  0.51100000000E-03 0.  1.
         11   -1    0    0    0    0 -0.00000000000E+00 -0.00000000000E+00 -0.45593999997E+02  0.45594000000E+02  0.51100000000E-03 0. -1.
    9900012    2    1    2    0    0 -0.14859268971E+01  0.25897497595E+02  0.31309532500E+02  0.50528742926E+02  0.29999644597E+02 0.  0.
         12    1    1    2    0    0  0.14859268971E+01 -0.25897497595E+02 -0.31309532500E+02  0.40659257074E+02  0.00000000000E+00 0. -1.
         11    1    3    3    0    0  0.43301908333E+00  0.20515445716E+02  0.11895765036E+02  0.23718774093E+02  0.51100000000E-03 0. -1.
        -11    1    3    3    0    0 -0.20069334042E+01  0.66994409613E+01  0.22441977634E+02  0.23506438507E+02  0.51100000000E-03 0.  1.
        -12    1    3    3    0    0  0.87987423752E-01 -0.13173890815E+01 -0.30282101705E+01  0.33035303261E+01  0.00000000000E+00 0.  1.
</event>
<event>
 7    1  0.2891523E-011  0.5052880E+02  0.7816164E-02  0.1300439E+00
        -11   -1    0    0    0    0  0.00000000000E+00  0.00000000000E+00  0.45593999997E+02  0.45594000000E+02  0.51100000000E-03 0. -1.
         11   -1    0    0    0    0 -0.00000000000E+00 -0.00000000000E+00 -0.45593999997E+02  0.45594000000E+02  0.51100000000E-03 0.  1.
    9900012    2    1    2    0    0  0.43020604066E+01  0.40410393500E+02 -0.12896890901E+01  0.50528795328E+02  0.29999803879E+02 0.  0.
         12    1    1    2    0    0 -0.43020604066E+01 -0.40410393500E+02  0.12896890901E+01  0.40659204672E+02  0.00000000000E+00 0. -1.
         11    1    3    3    0    0  0.86171743196E+00 -0.38080334384E+01 -0.83847086572E+00  0.39933331008E+01  0.51100000000E-03 0. -1.
        -11    1    3    3    0    0  0.13453102096E+01  0.31701136877E+02 -0.66377087726E+01  0.32416525367E+02  0.51100000000E-03 0.  1.
        -12    1    3    3    0    0  0.20950327651E+01  0.12517290062E+02  0.61864905482E+01  0.14118936861E+02  0.00000000000E+00 0.  1.
</event>
<event>
 7    1  0.2891523E-011  0.5052886E+02  0.7816164E-02  0.1300439E+00
        -11   -1    0    0    0    0  0.00000000000E+00  0.00000000000E+00  0.45593999997E+02  0.45594000000E+02  0.51100000000E-03 0. -1.
         11   -1    0    0    0    0 -0.00000000000E+00 -0.00000000000E+00 -0.45593999997E+02  0.45594000000E+02  0.51100000000E-03 0.  1.
    9900012    2    1    2    0    0  0.25021801696E+02 -0.46862308974E+01 -0.31703537983E+02  0.50528860305E+02  0.30000001382E+02 0.  0.
         12    1    1    2    0    0 -0.25021801696E+02  0.46862308974E+01  0.31703537983E+02  0.40659139695E+02  0.00000000000E+00 0. -1.
         11    1    3    3    0    0  0.68754009882E+01 -0.52146468972E+01 -0.62385663195E+01  0.10648163738E+02  0.51100000000E-03 0. -1.
        -11    1    3    3    0    0  0.10889034682E+02  0.12450258927E+02 -0.16032295716E+02  0.23035071735E+02  0.51100000000E-03 0.  1.
        -12    1    3    3    0    0  0.72573660260E+01 -0.11921842928E+02 -0.94326759473E+01  0.16845624831E+02  0.00000000000E+00 0.  1.
</event>
<event>
 7    1  0.2891523E-011  0.5052886E+02  0.7816164E-02  0.1300439E+00
        -11   -1    0    0    0    0  0.00000000000E+00  0.00000000000E+00  0.45593999997E+02  0.45594000000E+02  0.51100000000E-03 0.  1.
         11   -1    0    0    0    0 -0.00000000000E+00 -0.00000000000E+00 -0.45593999997E+02  0.45594000000E+02  0.51100000000E-03 0. -1.
    9900012    2    1    2    0    0 -0.26605998663E+02 -0.22971783375E+02  0.20434861073E+02  0.50528861502E+02  0.30000005022E+02 0.  0.
         12    1    1    2    0    0  0.26605998663E+02  0.22971783375E+02 -0.20434861073E+02  0.40659138498E+02  0.00000000000E+00 0. -1.
         11    1    3    3    0    0 -0.21172439581E+02 -0.18802982104E+02  0.82703082325E+01  0.29499531053E+02  0.51100000000E-03 0. -1.
        -11    1    3    3    0    0  0.24276747947E+01  0.12120747882E+01  0.11119461824E+02  0.11445748631E+02  0.51100000000E-03 0.  1.
        -12    1    3    3    0    0 -0.78612338767E+01 -0.53808760596E+01  0.10450910163E+01  0.95835818182E+01  0.00000000000E+00 0.  1.
</event>
<event>
 7    1  0.2891523E-011  0.5052886E+02  0.7816164E-02  0.1300439E+00
        -11   -1    0    0    0    0  0.00000000000E+00  0.00000000000E+00  0.45593999997E+02  0.45594000000E+02  0.51100000000E-03 0.  1.
         11   -1    0    0    0    0 -0.00000000000E+00 -0.00000000000E+00 -0.45593999997E+02  0.45594000000E+02  0.51100000000E-03 0. -1.
    9900012    2    1    2    0    0 -0.34831549572E+02 -0.18381244948E+02  0.10102395102E+02  0.50528863288E+02  0.30000010449E+02 0.  0.
         12    1    1    2    0    0  0.34831549572E+02  0.18381244948E+02 -0.10102395102E+02  0.40659136712E+02  0.00000000000E+00 0. -1.
         11    1    3    3    0    0  0.37203800688E+01  0.25087901791E+01  0.79018592607E+00  0.45562759001E+01  0.51100000000E-03 0. -1.
        -11    1    3    3    0    0 -0.33031264146E+02 -0.21431417881E+02  0.71484790064E+01  0.40018381225E+02  0.51100000000E-03 0.  1.
         12    1    3    3    0    0 -0.55206654939E+01  0.54138275343E+00  0.21637301691E+01  0.59542061626E+01  0.00000000000E+00 0. -1.
</event>
<event>
 7    1  0.2891523E-011  0.5052886E+02  0.7816164E-02  0.1300439E+00
        -11   -1    0    0    0    0  0.00000000000E+00  0.00000000000E+00  0.45593999997E+02  0.45594000000E+02  0.51100000000E-03 0. -1.
         11   -1    0    0    0    0 -0.00000000000E+00 -0.00000000000E+00 -0.45593999997E+02  0.45594000000E+02  0.51100000000E-03 0.  1.
    9900012    2    1    2    0    0 -0.21195279158E+02  0.26505523301E+02 -0.22391592605E+02  0.50528855353E+02  0.29999986332E+02 0.  0.
         12    1    1    2    0    0  0.21195279158E+02 -0.26505523301E+02  0.22391592605E+02  0.40659144647E+02  0.00000000000E+00 0. -1.
         11    1    3    3    0    0  0.46879504201E+01  0.87324406936E+01 -0.81976208287E+01  0.12862091087E+02  0.51100000000E-03 0. -1.
        -11    1    3    3    0    0 -0.17735282497E+02  0.15893456962E+02 -0.34671990788E+01  0.24065819936E+02  0.51100000000E-03 0.  1.
         12    1    3    3    0    0 -0.81479470812E+01  0.18796256448E+01 -0.10726772697E+02  0.13600944331E+02  0.00000000000E+00 0. -1.
</event>
<event>
 7    1  0.2891523E-011  0.5052888E+02  0.7816164E-02  0.1300439E+00
        -11   -1    0    0    0    0  0.00000000000E+00  0.00000000000E+00  0.45593999997E+02  0.45594000000E+02  0.51100000000E-03 0. -1.
         11   -1    0    0    0    0 -0.00000000000E+00 -0.00000000000E+00 -0.45593999997E+02  0.45594000000E+02  0.51100000000E-03 0.  1.
    9900012    2    1    2    0    0  0.29591816812E+02  0.11546847819E+02  0.25380281295E+02  0.50528880538E+02  0.30000062885E+02 0.  0.
         12    1    1    2    0    0 -0.29591816812E+02 -0.11546847819E+02 -0.25380281295E+02  0.40659119462E+02  0.00000000000E+00 0. -1.
         11    1    3    3    0    0  0.23408393711E+02  0.14629182394E+02  0.16676164369E+02  0.32249966387E+02  0.51100000000E-03 0. -1.
        -11    1    3    3    0    0 -0.60620499690E-02 -0.45479200297E+01 -0.26506480437E+01  0.52639860047E+01  0.51100000000E-03 0.  1.
         12    1    3    3    0    0  0.61894851511E+01  0.14655854546E+01  0.11354764969E+02  0.13014928147E+02  0.00000000000E+00 0. -1.
</event>
<event>
 7    1  0.2891523E-011  0.5052886E+02  0.7816164E-02  0.1300439E+00
        -11   -1    0    0    0    0  0.00000000000E+00  0.00000000000E+00  0.45593999997E+02  0.45594000000E+02  0.51100000000E-03 0.  1.
         11   -1    0    0    0    0 -0.00000000000E+00 -0.00000000000E+00 -0.45593999997E+02  0.45594000000E+02  0.51100000000E-03 0. -1.
    9900012    2    1    2    0    0  0.13276110216E+02  0.10206806421E+02  0.37050391812E+02  0.50528861627E+02  0.30000005403E+02 0.  0.
         12    1    1    2    0    0 -0.13276110216E+02 -0.10206806421E+02 -0.37050391812E+02  0.40659138373E+02  0.00000000000E+00 0. -1.
         11    1    3    3    0    0  0.74949930695E+01 -0.80230954674E+01  0.25600322421E+02  0.27855367352E+02  0.51100000000E-03 0. -1.
        -11    1    3    3    0    0  0.23235771520E+01  0.12148325189E+02  0.57039259195E+01  0.13620410671E+02  0.51100000000E-03 0.  1.
         12    1    3    3    0    0  0.34575399945E+01  0.60815766987E+01  0.57461434713E+01  0.90530836044E+01  0.00000000000E+00 0. -1.
</event>
<event>
 7    1  0.2891523E-011  0.5052886E+02  0.7816164E-02  0.1300439E+00
        -11   -1    0    0    0    0  0.00000000000E+00  0.00000000000E+00  0.45593999997E+02  0.45594000000E+02  0.51100000000E-03 0.  1.
         11   -1    0    0    0    0 -0.00000000000E+00 -0.00000000000E+00 -0.45593999997E+02  0.45594000000E+02  0.51100000000E-03 0. -1.
    9900012    2    1    2    0    0  0.32281233665E+00 -0.80328505479E+01  0.39856423508E+02  0.50528863382E+02  0.30000010734E+02 0.  0.
         12    1    1    2    0    0 -0.32281233665E+00  0.80328505479E+01 -0.39856423508E+02  0.40659136618E+02  0.00000000000E+00 0. -1.
         11    1    3    3    0    0 -0.78527478337E+01 -0.10408625747E+02  0.67086140076E+01  0.14663241137E+02  0.51100000000E-03 0. -1.
        -11    1    3    3    0    0  0.67478616767E+01  0.46826421159E+01  0.31786115663E+02  0.32830137428E+02  0.51100000000E-03 0.  1.
         12    1    3    3    0    0  0.14276984936E+01 -0.23068669165E+01  0.13616938375E+01  0.30354848157E+01  0.00000000000E+00 0. -1.
</event>
<event>
 7    1  0.2891523E-011  0.5052885E+02  0.7816164E-02  0.1300439E+00
        -11   -1    0    0    0    0  0.00000000000E+00  0.00000000000E+00  0.45593999997E+02  0.45594000000E+02  0.51100000000E-03 0.  1.
         11   -1    0    0    0    0 -0.00000000000E+00 -0.00000000000E+00 -0.45593999997E+02  0.45594000000E+02  0.51100000000E-03 0. -1.
    9900012    2    1    2    0    0 -0.20979860115E+02  0.33553032940E+02 -0.93383983588E+01  0.50528853012E+02  0.29999979215E+02 0.  0.
         12    1    1    2    0    0  0.20979860115E+02 -0.33553032940E+02  0.93383983588E+01  0.40659146988E+02  0.00000000000E+00 0. -1.
         11    1    3    3    0    0  0.17098153515E+00  0.13510217244E+01 -0.87370074943E+01  0.88424993414E+01  0.51100000000E-03 0. -1.
        -11    1    3    3    0    0 -0.40852529560E+01  0.15626670196E+02  0.56103984591E+01  0.17098499474E+02  0.51100000000E-03 0.  1.
         12    1    3    3    0    0 -0.17065588694E+02  0.16575341019E+02 -0.62117893235E+01  0.24587854196E+02  0.00000000000E+00 0. -1.
</event>
<event>
 7    1  0.2891523E-011  0.5052885E+02  0.7816164E-02  0.1300439E+00
        -11   -1    0    0    0    0  0.00000000000E+00  0.00000000000E+00  0.45593999997E+02  0.45594000000E+02  0.51100000000E-03 0. -1.
         11   -1    0    0    0    0 -0.00000000000E+00 -0.00000000000E+00 -0.45593999997E+02  0.45594000000E+02  0.51100000000E-03 0.  1.
    9900012    2    1    2    0    0 -0.37233119871E+02  0.12980235786E+02  0.99183881569E+01  0.50528853920E+02  0.29999981974E+02 0.  0.
         12    1    1    2    0    0  0.37233119871E+02 -0.12980235786E+02 -0.99183881569E+01  0.40659146080E+02  0.00000000000E+00 0. -1.
         11    1    3    3    0    0  0.11945558850E+01 -0.11869445452E+01 -0.18035837612E+01  0.24675323221E+01  0.51100000000E-03 0. -1.
        -11    1    3    3    0    0 -0.24574911086E+02  0.16326185400E+02  0.15789635539E+02  0.33463161466E+02  0.51100000000E-03 0.  1.
        -12    1    3    3    0    0 -0.13852764670E+02 -0.21590050695E+01 -0.40676636211E+01  0.14598160131E+02  0.00000000000E+00 0.  1.
</event>
<event>
 7    1  0.2891523E-011  0.5052885E+02  0.7816164E-02  0.1300439E+00
        -11   -1    0    0    0    0  0.00000000000E+00  0.00000000000E+00  0.45593999997E+02  0.45594000000E+02  0.51100000000E-03 0.  1.
         11   -1    0    0    0    0 -0.00000000000E+00 -0.00000000000E+00 -0.45593999997E+02  0.45594000000E+02  0.51100000000E-03 0. -1.
    9900012    2    1    2    0    0  0.38481592272E+02 -0.13117182051E+02  0.52262126558E+00  0.50528849226E+02  0.29999967706E+02 0.  0.
         12    1    1    2    0    0 -0.38481592272E+02  0.13117182051E+02 -0.52262126558E+00  0.40659150774E+02  0.00000000000E+00 0. -1.
         11    1    3    3    0    0  0.33483688007E+00 -0.77414620511E+01  0.85829535023E+00  0.77960901479E+01  0.51100000000E-03 0. -1.
        -11    1    3    3    0    0  0.23717920358E+02 -0.35397907789E+00  0.83636799395E+01  0.25151862549E+02  0.51100000000E-03 0.  1.
        -12    1    3    3    0    0  0.14428835034E+02 -0.50217409218E+01 -0.86993540242E+01  0.17580896529E+02  0.00000000000E+00 0.  1.
</event>
<event>
 7    1  0.2891523E-011  0.5052887E+02  0.7816164E-02  0.1300439E+00
        -11   -1    0    0    0    0  0.00000000000E+00  0.00000000000E+00  0.45593999997E+02  0.45594000000E+02  0.51100000000E-03 0.  1.
         11   -1    0    0    0    0 -0.00000000000E+00 -0.00000000000E+00 -0.45593999997E+02  0.45594000000E+02  0.51100000000E-03 0. -1.
    9900012    2    1    2    0    0  0.32219765175E+02 -0.23664279357E+02  0.74198004315E+01  0.50528870350E+02  0.30000031917E+02 0.  0.
         12    1    1    2    0    0 -0.32219765175E+02  0.23664279357E+02 -0.74198004315E+01  0.40659129650E+02  0.00000000000E+00 0. -1.
         11    1    3    3    0    0  0.15195187270E+02 -0.90413889599E+01 -0.70876387687E+01  0.19049279621E+02  0.51100000000E-03 0. -1.
        -11    1    3    3    0    0  0.24981158919E+01  0.10968280127E+01  0.89632507927E+01  0.93692838431E+01  0.51100000000E-03 0.  1.
         12    1    3    3    0    0  0.14526462013E+02 -0.15719718410E+02  0.55441884075E+01  0.22110306886E+02  0.00000000000E+00 0. -1.
</event>
<event>
 7    1  0.2891523E-011  0.5052882E+02  0.7816164E-02  0.1300439E+00
        -11   -1    0    0    0    0  0.00000000000E+00  0.00000000000E+00  0.45593999997E+02  0.45594000000E+02  0.51100000000E-03 0. -1.
         11   -1    0    0    0    0 -0.00000000000E+00 -0.00000000000E+00 -0.45593999997E+02  0.45594000000E+02  0.51100000000E-03 0.  1.
    9900012    2    1    2    0    0  0.21460594227E+02  0.33758853754E+02  0.72767804795E+01  0.50528820894E+02  0.29999881591E+02 0.  0.
         12    1    1    2    0    0 -0.21460594227E+02 -0.33758853754E+02 -0.72767804795E+01  0.40659179106E+02  0.00000000000E+00 0. -1.
         11    1    3    3    0    0  0.66126226627E+00 -0.49075638513E+01  0.15273770246E+01  0.51821165151E+01  0.51100000000E-03 0. -1.
        -11    1    3    3    0    0  0.12779111914E+02  0.22709198777E+02 -0.14328474422E+01  0.26097250094E+02  0.51100000000E-03 0.  1.
        -12    1    3    3    0    0  0.80202200470E+01  0.15957218828E+02  0.71822508971E+01  0.19249454286E+02  0.00000000000E+00 0.  1.
</event>
<event>
 7    1  0.2891523E-011  0.5052887E+02  0.7816164E-02  0.1300439E+00
        -11   -1    0    0    0    0  0.00000000000E+00  0.00000000000E+00  0.45593999997E+02  0.45594000000E+02  0.51100000000E-03 0.  1.
         11   -1    0    0    0    0 -0.00000000000E+00 -0.00000000000E+00 -0.45593999997E+02  0.45594000000E+02  0.51100000000E-03 0. -1.
    9900012    2    1    2    0    0  0.79970862596E+00  0.36444342784E+02  0.18009305997E+02  0.50528871169E+02  0.30000034404E+02 0.  0.
         12    1    1    2    0    0 -0.79970862596E+00 -0.36444342784E+02 -0.18009305997E+02  0.40659128831E+02  0.00000000000E+00 0. -1.
         11    1    3    3    0    0  0.75172501054E+01 -0.25909381393E+00 -0.17688239602E+01  0.77268957036E+01  0.51100000000E-03 0. -1.
        -11    1    3    3    0    0  0.13881766910E+01  0.37201581850E+01  0.16237894545E+01  0.42899072136E+01  0.51100000000E-03 0.  1.
         12    1    3    3    0    0 -0.81057181704E+01  0.32983278413E+02  0.18154340502E+02  0.38512068251E+02  0.00000000000E+00 0. -1.
</event>
<event>
 7    1  0.2891523E-011  0.5052886E+02  0.7816164E-02  0.1300439E+00
        -11   -1    0    0    0    0  0.00000000000E+00  0.00000000000E+00  0.45593999997E+02  0.45594000000E+02  0.51100000000E-03 0.  1.
         11   -1    0    0    0    0 -0.00000000000E+00 -0.00000000000E+00 -0.45593999997E+02  0.45594000000E+02  0.51100000000E-03 0. -1.
    9900012    2    1    2    0    0 -0.10405559677E+02  0.37639366392E+02  0.11321121126E+02  0.50528863780E+02  0.30000011946E+02 0.  0.
         12    1    1    2    0    0  0.10405559677E+02 -0.37639366392E+02 -0.11321121126E+02  0.40659136220E+02  0.00000000000E+00 0. -1.
         11    1    3    3    0    0 -0.88959646473E+01  0.65154508288E+01 -0.13957188599E+01  0.11114734271E+02  0.51100000000E-03 0. -1.
        -11    1    3    3    0    0  0.23703954230E+01  0.43316177869E+01  0.11269372063E+02  0.12303675632E+02  0.51100000000E-03 0.  1.
        -12    1    3    3    0    0 -0.38799904527E+01  0.26792297776E+02  0.14474679234E+01  0.27110453877E+02  0.00000000000E+00 0.  1.
</event>
<event>
 7    1  0.2891523E-011  0.5052887E+02  0.7816164E-02  0.1300439E+00
        -11   -1    0    0    0    0  0.00000000000E+00  0.00000000000E+00  0.45593999997E+02  0.45594000000E+02  0.51100000000E-03 0. -1.
         11   -1    0    0    0    0 -0.00000000000E+00 -0.00000000000E+00 -0.45593999997E+02  0.45594000000E+02  0.51100000000E-03 0.  1.
    9900012    2    1    2    0    0 -0.37809031450E+02  0.14751417584E+02 -0.24571710414E+01  0.50528869790E+02  0.30000030214E+02 0.  0.
         12    1    1    2    0    0  0.37809031450E+02 -0.14751417584E+02  0.24571710414E+01  0.40659130210E+02  0.00000000000E+00 0. -1.
         11    1    3    3    0    0  0.95232602469E+00  0.81435504463E+01  0.28776117783E+01  0.86893606517E+01  0.51100000000E-03 0. -1.
        -11    1    3    3    0    0 -0.18536288613E+02  0.22584031056E+01 -0.91637379135E+01  0.20800684435E+02  0.51100000000E-03 0.  1.
         12    1    3    3    0    0 -0.20225068861E+02  0.43494640326E+01  0.38289550938E+01  0.21038824704E+02  0.00000000000E+00 0. -1.
</event>
<event>
 7    1  0.2891523E-011  0.5052888E+02  0.7816164E-02  0.1300439E+00
        -11   -1    0    0    0    0  0.00000000000E+00  0.00000000000E+00  0.45593999997E+02  0.45594000000E+02  0.51100000000E-03 0. -1.
         11   -1    0    0    0    0 -0.00000000000E+00 -0.00000000000E+00 -0.45593999997E+02  0.45594000000E+02  0.51100000000E-03 0.  1.
    9900012    2    1    2    0    0 -0.11273528330E+01 -0.28246726808E+02 -0.29223546981E+02  0.50528878048E+02  0.30000055315E+02 0.  0.
         12    1    1    2    0    0  0.11273528330E+01  0.28246726808E+02  0.29223546981E+02  0.40659121952E+02  0.00000000000E+00 0. -1.
         11    1    3    3    0    0  0.10372112678E+02 -0.59020351217E+01 -0.29587447378E+01  0.12295076684E+02  0.51100000000E-03 0. -1.
        -11    1    3    3    0    0 -0.10025657168E+02 -0.99467375937E+01 -0.19368310225E+02  0.23970457476E+02  0.51100000000E-03 0.  1.
        -12    1    3    3    0    0 -0.14738083430E+01 -0.12397954092E+02 -0.68964920182E+01  0.14263343888E+02  0.00000000000E+00 0.  1.
</event>
<event>
 7    1  0.2891523E-011  0.5052886E+02  0.7816164E-02  0.1300439E+00
        -11   -1    0    0    0    0  0.00000000000E+00  0.00000000000E+00  0.45593999997E+02  0.45594000000E+02  0.51100000000E-03 0. -1.
         11   -1    0    0    0    0 -0.00000000000E+00 -0.00000000000E+00 -0.45593999997E+02  0.45594000000E+02  0.51100000000E-03 0.  1.
    9900012    2    1    2    0    0 -0.14675372738E+02 -0.27028091269E+02 -0.26594759181E+02  0.50528862054E+02  0.30000006699E+02 0.  0.
         12    1    1    2    0    0  0.14675372738E+02  0.27028091269E+02  0.26594759181E+02  0.40659137946E+02  0.00000000000E+00 0. -1.
         11    1    3    3    0    0 -0.80431739906E+01 -0.25324444815E+02 -0.19700339217E+02  0.33077537976E+02  0.51100000000E-03 0. -1.
        -11    1    3    3    0    0 -0.10851725414E+02 -0.24860153246E+01 -0.27109374443E+01  0.11458158610E+02  0.51100000000E-03 0.  1.
         12    1    3    3    0    0  0.42195266660E+01  0.78236887053E+00 -0.41834825193E+01  0.59931654678E+01  0.00000000000E+00 0. -1.
</event>
<event>
 7    1  0.2891523E-011  0.5052886E+02  0.7816164E-02  0.1300439E+00
        -11   -1    0    0    0    0  0.00000000000E+00  0.00000000000E+00  0.45593999997E+02  0.45594000000E+02  0.51100000000E-03 0.  1.
         11   -1    0    0    0    0 -0.00000000000E+00 -0.00000000000E+00 -0.45593999997E+02  0.45594000000E+02  0.51100000000E-03 0. -1.
    9900012    2    1    2    0    0  0.33972084764E+02  0.15649022802E+01  0.22284838894E+02  0.50528861951E+02  0.30000006387E+02 0.  0.
         12    1    1    2    0    0 -0.33972084764E+02 -0.15649022802E+01 -0.22284838894E+02  0.40659138049E+02  0.00000000000E+00 0. -1.
         11    1    3    3    0    0 -0.10602245740E+01 -0.48072687552E+01  0.30026742658E+01  0.57662780058E+01  0.51100000000E-03 0. -1.
        -11    1    3    3    0    0  0.19371434473E+02  0.56296880975E+01  0.20843154489E+02  0.29006601850E+02  0.51100000000E-03 0.  1.
        -12    1    3    3    0    0  0.15660874865E+02  0.74248293789E+00 -0.15609898606E+01  0.15755982095E+02  0.00000000000E+00 0.  1.
</event>
<event>
 7    1  0.2891523E-011  0.5052887E+02  0.7816164E-02  0.1300439E+00
        -11   -1    0    0    0    0  0.00000000000E+00  0.00000000000E+00  0.45593999997E+02  0.45594000000E+02  0.51100000000E-03 0.  1.
         11   -1    0    0    0    0 -0.00000000000E+00 -0.00000000000E+00 -0.45593999997E+02  0.45594000000E+02  0.51100000000E-03 0. -1.
    9900012    2    1    2    0    0  0.69959411789E+01 -0.30371282095E+02 -0.26111432299E+02  0.50528869835E+02  0.30000030351E+02 0.  0.
         12    1    1    2    0    0 -0.69959411789E+01  0.30371282095E+02  0.26111432299E+02  0.40659130165E+02  0.00000000000E+00 0. -1.
         11    1    3    3    0    0  0.44711415672E+01  0.33535702371E+01 -0.77419135854E+01  0.95485478726E+01  0.51100000000E-03 0. -1.
        -11    1    3    3    0    0 -0.37899474936E+01 -0.23049083347E+02 -0.76291860131E+01  0.24572920555E+02  0.51100000000E-03 0.  1.
        -12    1    3    3    0    0  0.63147471053E+01 -0.10675768985E+02 -0.10740332700E+02  0.16407401407E+02  0.00000000000E+00 0.  1.
</event>
<event>
 7    1  0.2891523E-011  0.5052884E+02  0.7816164E-02  0.1300439E+00
        -11   -1    0    0    0    0  0.00000000000E+00  0.00000000000E+00  0.45593999997E+02  0.45594000000E+02  0.51100000000E-03 0. -1.
         11   -1    0    0    0    0 -0.00000000000E+00 -0.00000000000E+00 -0.45593999997E+02  0.45594000000E+02  0.51100000000E-03 0.  1.
    9900012    2    1    2    0    0 -0.13306612807E+02 -0.24067446429E+02  0.29947608908E+02  0.50528841113E+02  0.29999943048E+02 0.  0.
         12    1    1    2    0    0  0.13306612807E+02  0.24067446429E+02 -0.29947608908E+02  0.40659158887E+02  0.00000000000E+00 0. -1.
         11    1    3    3    0    0 -0.14580016944E+02 -0.82766933653E+00  0.20020492244E+02  0.24780678775E+02  0.51100000000E-03 0. -1.
        -11    1    3    3    0    0  0.53017604641E-02 -0.14333718451E+02  0.84289712133E+01  0.16628381422E+02  0.51100000000E-03 0.  1.
         12    1    3    3    0    0  0.12681023758E+01 -0.89060586416E+01  0.14981454510E+01  0.91197809160E+01  0.00000000000E+00 0. -1.
</event>
<event>
 7    1  0.2891523E-011  0.5052887E+02  0.7816164E-02  0.1300439E+00
        -11   -1    0    0    0    0  0.00000000000E+00  0.00000000000E+00  0.45593999997E+02  0.45594000000E+02  0.51100000000E-03 0. -1.
         11   -1    0    0    0    0 -0.00000000000E+00 -0.00000000000E+00 -0.45593999997E+02  0.45594000000E+02  0.51100000000E-03 0.  1.
    9900012    2    1    2    0    0 -0.34575216623E+01 -0.25294099826E+02 -0.31645206748E+02  0.50528867543E+02  0.30000023384E+02 0.  0.
         12    1    1    2    0    0  0.34575216623E+01  0.25294099826E+02  0.31645206748E+02  0.40659132457E+02  0.00000000000E+00 0. -1.
         11    1    3    3    0    0 -0.79207394631E+00  0.26607033336E+01 -0.72685807684E+01  0.77806805624E+01  0.51100000000E-03 0. -1.
        -11    1    3    3    0    0 -0.43041554128E+01 -0.29733933425E+02 -0.26084365642E+02  0.39787267837E+02  0.51100000000E-03 0.  1.
        -12    1    3    3    0    0  0.16387076968E+01  0.17791302657E+01  0.17077396630E+01  0.29609191435E+01  0.00000000000E+00 0.  1.
</event>
<event>
 7    1  0.2891523E-011  0.5052884E+02  0.7816164E-02  0.1300439E+00
        -11   -1    0    0    0    0  0.00000000000E+00  0.00000000000E+00  0.45593999997E+02  0.45594000000E+02  0.51100000000E-03 0. -1.
         11   -1    0    0    0    0 -0.00000000000E+00 -0.00000000000E+00 -0.45593999997E+02  0.45594000000E+02  0.51100000000E-03 0.  1.
    9900012    2    1    2    0    0 -0.38946257884E+02 -0.86291522190E+01 -0.78672547977E+01  0.50528843968E+02  0.29999951725E+02 0.  0.
         12    1    1    2    0    0  0.38946257884E+02  0.86291522190E+01  0.78672547977E+01  0.40659156032E+02  0.00000000000E+00 0. -1.
         11    1    3    3    0    0  0.96830900382E+00  0.35185933341E+01 -0.25875128435E+01  0.44736276503E+01  0.51100000000E-03 0. -1.
        -11    1    3    3    0    0 -0.31634138030E+02 -0.12182768219E+02 -0.11393339215E+02  0.35762364423E+02  0.51100000000E-03 0.  1.
        -12    1    3    3    0    0 -0.82804288584E+01  0.35022666333E-01  0.61135972608E+01  0.10292851895E+02  0.00000000000E+00 0.  1.
</event>
<event>
 7    1  0.2891523E-011  0.5052884E+02  0.7816164E-02  0.1300439E+00
        -11   -1    0    0    0    0  0.00000000000E+00  0.00000000000E+00  0.45593999997E+02  0.45594000000E+02  0.51100000000E-03 0.  1.
         11   -1    0    0    0    0 -0.00000000000E+00 -0.00000000000E+00 -0.45593999997E+02  0.45594000000E+02  0.51100000000E-03 0. -1.
    9900012    2    1    2    0    0 -0.25233479344E+02  0.11961294356E+02  0.29552764396E+02  0.50528844501E+02  0.29999953344E+02 0.  0.
         12    1    1    2    0    0  0.25233479344E+02 -0.11961294356E+02 -0.29552764396E+02  0.40659155499E+02  0.00000000000E+00 0. -1.
         11    1    3    3    0    0 -0.84845977884E+01 -0.34940901603E+01  0.22644749220E+02  0.24433209637E+02  0.51100000000E-03 0. -1.
        -11    1    3    3    0    0 -0.15438538715E+02  0.86913453170E+01  0.73737823382E+01  0.19190117960E+02  0.51100000000E-03 0.  1.
         12    1    3    3    0    0 -0.13103428408E+01  0.67640391997E+01 -0.46576716239E+00  0.69055169036E+01  0.00000000000E+00 0. -1.
</event>
<event>
 7    1  0.2891523E-011  0.5052888E+02  0.7816164E-02  0.1300439E+00
        -11   -1    0    0    0    0  0.00000000000E+00  0.00000000000E+00  0.45593999997E+02  0.45594000000E+02  0.51100000000E-03 0. -1.
         11   -1    0    0    0    0 -0.00000000000E+00 -0.00000000000E+00 -0.45593999997E+02  0.45594000000E+02  0.51100000000E-03 0.  1.
    9900012    2    1    2    0    0  0.39793727418E+02 -0.61165369001E+01 -0.56754817458E+01  0.50528882221E+02  0.30000067999E+02 0.  0.
         12    1    1    2    0    0 -0.39793727418E+02  0.61165369001E+01  0.56754817458E+01  0.40659117779E+02  0.00000000000E+00 0. -1.
         11    1    3    3    0    0  0.67522521509E+01 -0.60132228683E+01 -0.28262714088E+01  0.94730971024E+01  0.51100000000E-03 0. -1.
        -11    1    3    3    0    0  0.13665552633E+02 -0.64953686799E+00  0.10731762819E+02  0.17387925706E+02  0.51100000000E-03 0.  1.
        -12    1    3    3    0    0  0.19375922634E+02  0.54622283621E+00 -0.13580973156E+02  0.23667859413E+02  0.00000000000E+00 0.  1.
</event>
<event>
 7    1  0.2891523E-011  0.5052886E+02  0.7816164E-02  0.1300439E+00
        -11   -1    0    0    0    0  0.00000000000E+00  0.00000000000E+00  0.45593999997E+02  0.45594000000E+02  0.51100000000E-03 0. -1.
         11   -1    0    0    0    0 -0.00000000000E+00 -0.00000000000E+00 -0.45593999997E+02  0.45594000000E+02  0.51100000000E-03 0.  1.
    9900012    2    1    2    0    0 -0.13848977242E+02  0.30567581116E+02 -0.22956359367E+02  0.50528860544E+02  0.30000002109E+02 0.  0.
         12    1    1    2    0    0  0.13848977242E+02 -0.30567581116E+02  0.22956359367E+02  0.40659139456E+02  0.00000000000E+00 0. -1.
         11    1    3    3    0    0 -0.10381745480E+02  0.51621222068E+01 -0.12937725523E+01  0.11666275866E+02  0.51100000000E-03 0. -1.
        -11    1    3    3    0    0  0.13493042236E+01  0.16658872013E+02 -0.23371159430E+02  0.28732381244E+02  0.51100000000E-03 0.  1.
        -12    1    3    3    0    0 -0.48165359849E+01  0.87465868963E+01  0.17085726149E+01  0.10130203434E+02  0.00000000000E+00 0.  1.
</event>
<event>
 7    1  0.2891523E-011  0.5052886E+02  0.7816164E-02  0.1300439E+00
        -11   -1    0    0    0    0  0.00000000000E+00  0.00000000000E+00  0.45593999997E+02  0.45594000000E+02  0.51100000000E-03 0. -1.
         11   -1    0    0    0    0 -0.00000000000E+00 -0.00000000000E+00 -0.45593999997E+02  0.45594000000E+02  0.51100000000E-03 0.  1.
    9900012    2    1    2    0    0 -0.32604937034E+02 -0.13111844914E+02 -0.20449044823E+02  0.50528857975E+02  0.29999994301E+02 0.  0.
         12    1    1    2    0    0  0.32604937034E+02  0.13111844914E+02  0.20449044823E+02  0.40659142025E+02  0.00000000000E+00 0. -1.
         11    1    3    3    0    0 -0.80999255053E+01 -0.14309797993E+01  0.48187194392E+01  0.95329194727E+01  0.51100000000E-03 0. -1.
        -11    1    3    3    0    0 -0.15888873427E+02 -0.13691276061E+01 -0.21990311734E+02  0.27164399857E+02  0.51100000000E-03 0.  1.
        -12    1    3    3    0    0 -0.86161381021E+01 -0.10311737508E+02 -0.32774525281E+01  0.13831538646E+02  0.00000000000E+00 0.  1.
</event>
<event>
 7    1  0.2891523E-011  0.5052886E+02  0.7816164E-02  0.1300439E+00
        -11   -1    0    0    0    0  0.00000000000E+00  0.00000000000E+00  0.45593999997E+02  0.45594000000E+02  0.51100000000E-03 0.  1.
         11   -1    0    0    0    0 -0.00000000000E+00 -0.00000000000E+00 -0.45593999997E+02  0.45594000000E+02  0.51100000000E-03 0. -1.
    9900012    2    1    2    0    0  0.24143560193E+02  0.10174309022E+02  0.31092402732E+02  0.50528861168E+02  0.30000004007E+02 0.  0.
         12    1    1    2    0    0 -0.24143560193E+02 -0.10174309022E+02 -0.31092402732E+02  0.40659138832E+02  0.00000000000E+00 0. -1.
         11    1    3    3    0    0  0.18978753024E+02 -0.58225397013E+01  0.12003867755E+02  0.23198876616E+02  0.51100000000E-03 0. -1.
        -11    1    3    3    0    0  0.40376157817E+01  0.15160545832E+02  0.11098797724E+02  0.19217903171E+02  0.51100000000E-03 0.  1.
         12    1    3    3    0    0  0.11271913881E+01  0.83630289161E+00  0.79897372536E+01  0.81120813811E+01  0.00000000000E+00 0. -1.
</event>
<event>
 7    1  0.2891523E-011  0.5052886E+02  0.7816164E-02  0.1300439E+00
        -11   -1    0    0    0    0  0.00000000000E+00  0.00000000000E+00  0.45593999997E+02  0.45594000000E+02  0.51100000000E-03 0. -1.
         11   -1    0    0    0    0 -0.00000000000E+00 -0.00000000000E+00 -0.45593999997E+02  0.45594000000E+02  0.51100000000E-03 0.  1.
    9900012    2    1    2    0    0 -0.26672057826E+02 -0.21145192427E+02 -0.22240673453E+02  0.50528863424E+02  0.30000010863E+02 0.  0.
         12    1    1    2    0    0  0.26672057826E+02  0.21145192427E+02  0.22240673453E+02  0.40659136576E+02  0.00000000000E+00 0. -1.
         11    1    3    3    0    0 -0.81145312576E+01 -0.91203188265E+00 -0.57623319125E+01  0.99940927060E+01  0.51100000000E-03 0. -1.
        -11    1    3    3    0    0 -0.10644473107E+02 -0.25221233487E+02 -0.99487306646E+01  0.29127180922E+02  0.51100000000E-03 0.  1.
        -12    1    3    3    0    0 -0.79130534616E+01  0.49880729424E+01 -0.65296108759E+01  0.11407589796E+02  0.00000000000E+00 0.  1.
</event>
<event>
 7    1  0.2891523E-011  0.5052885E+02  0.7816164E-02  0.1300439E+00
        -11   -1    0    0    0    0  0.00000000000E+00  0.00000000000E+00  0.45593999997E+02  0.45594000000E+02  0.51100000000E-03 0.  1.
         11   -1    0    0    0    0 -0.00000000000E+00 -0.00000000000E+00 -0.45593999997E+02  0.45594000000E+02  0.51100000000E-03 0. -1.
    9900012    2    1    2    0    0  0.11671113581E+02  0.32502875610E+02 -0.21459598972E+02  0.50528853389E+02  0.29999980361E+02 0.  0.
         12    1    1    2    0    0 -0.11671113581E+02 -0.32502875610E+02  0.21459598972E+02  0.40659146611E+02  0.00000000000E+00 0. -1.
         11    1    3    3    0    0  0.12581982063E+02  0.10974066364E+02  0.23953399689E+01  0.16866358796E+02  0.51100000000E-03 0. -1.
        -11    1    3    3    0    0 -0.26975342115E+01  0.13411000463E+02 -0.20615891166E+02  0.24741596413E+02  0.51100000000E-03 0.  1.
         12    1    3    3    0    0  0.17866657295E+01  0.81178087822E+01 -0.32390477742E+01  0.89208981799E+01  0.00000000000E+00 0. -1.
</event>
<event>
 7    1  0.2891523E-011  0.5052886E+02  0.7816164E-02  0.1300439E+00
        -11   -1    0    0    0    0  0.00000000000E+00  0.00000000000E+00  0.45593999997E+02  0.45594000000E+02  0.51100000000E-03 0.  1.
         11   -1    0    0    0    0 -0.00000000000E+00 -0.00000000000E+00 -0.45593999997E+02  0.45594000000E+02  0.51100000000E-03 0. -1.
    9900012    2    1    2    0    0  0.12311264416E+01 -0.33199554952E+02  0.23440121912E+02  0.50528862815E+02  0.30000009014E+02 0.  0.
         12    1    1    2    0    0 -0.12311264416E+01  0.33199554952E+02 -0.23440121912E+02  0.40659137185E+02  0.00000000000E+00 0. -1.
         11    1    3    3    0    0  0.40396881994E+01  0.22618097789E+01  0.14775045264E+00  0.46321371614E+01  0.51100000000E-03 0. -1.
        -11    1    3    3    0    0 -0.79484158518E+01 -0.27331875597E+02  0.11550334181E+02  0.30718381438E+02  0.51100000000E-03 0.  1.
        -12    1    3    3    0    0  0.51398540940E+01 -0.81294891339E+01  0.11742037279E+02  0.15178344216E+02  0.00000000000E+00 0.  1.
</event>
<event>
 7    1  0.2891523E-011  0.5052886E+02  0.7816164E-02  0.1300439E+00
        -11   -1    0    0    0    0  0.00000000000E+00  0.00000000000E+00  0.45593999997E+02  0.45594000000E+02  0.51100000000E-03 0. -1.
         11   -1    0    0    0    0 -0.00000000000E+00 -0.00000000000E+00 -0.45593999997E+02  0.45594000000E+02  0.51100000000E-03 0.  1.
    9900012    2    1    2    0    0  0.32602725929E+02 -0.13482301679E+02  0.20210271242E+02  0.50528864985E+02  0.30000015607E+02 0.  0.
         12    1    1    2    0    0 -0.32602725929E+02  0.13482301679E+02 -0.20210271242E+02  0.40659135015E+02  0.00000000000E+00 0. -1.
         11    1    3    3    0    0 -0.88756577392E+00 -0.23292482595E+01  0.13534734663E+02  0.13762347660E+02  0.51100000000E-03 0. -1.
        -11    1    3    3    0    0  0.15392952137E+02 -0.43998409483E+01  0.69387190165E+01  0.17448421067E+02  0.51100000000E-03 0.  1.
         12    1    3    3    0    0  0.18097339566E+02 -0.67532124707E+01 -0.26318243802E+00  0.19318096258E+02  0.00000000000E+00 0. -1.
</event>
<event>
 7    1  0.2909979E-011  0.5052886E+02  0.7816164E-02  0.1300439E+00
        -11   -1    0    0    0    0  0.00000000000E+00  0.00000000000E+00  0.45593999997E+02  0.45594000000E+02  0.51100000000E-03 0. -1.
         11   -1    0    0    0    0 -0.00000000000E+00 -0.00000000000E+00 -0.45593999997E+02  0.45594000000E+02  0.51100000000E-03 0.  1.
    9900012    2    1    2    0    0 -0.22126500421E+02 -0.80791648843E+01 -0.33140775819E+02  0.50528856527E+02  0.29999989899E+02 0.  0.
         12    1    1    2    0    0  0.22126500421E+02  0.80791648843E+01  0.33140775819E+02  0.40659143473E+02  0.00000000000E+00 0. -1.
         11    1    3    3    0    0 -0.71174932079E+01 -0.65574779188E+01  0.71449373579E+00  0.97041088091E+01  0.51100000000E-03 0. -1.
        -11    1    3    3    0    0 -0.34003028211E+01 -0.22418953802E+01 -0.27038052067E+02  0.27343087133E+02  0.51100000000E-03 0.  1.
        -12    1    3    3    0    0 -0.11608704392E+02  0.72020841481E+00 -0.68172174877E+01  0.13481660584E+02  0.00000000000E+00 0.  1.
</event>
<event>
 7    1  0.2891523E-011  0.5052888E+02  0.7816164E-02  0.1300439E+00
        -11   -1    0    0    0    0  0.00000000000E+00  0.00000000000E+00  0.45593999997E+02  0.45594000000E+02  0.51100000000E-03 0.  1.
         11   -1    0    0    0    0 -0.00000000000E+00 -0.00000000000E+00 -0.45593999997E+02  0.45594000000E+02  0.51100000000E-03 0. -1.
    9900012    2    1    2    0    0  0.15237162528E+02  0.18567282362E+02  0.32806236074E+02  0.50528877758E+02  0.30000054432E+02 0.  0.
         12    1    1    2    0    0 -0.15237162528E+02 -0.18567282362E+02 -0.32806236074E+02  0.40659122242E+02  0.00000000000E+00 0. -1.
         11    1    3    3    0    0  0.14504630364E+02  0.15184687689E+02  0.42549898485E+01  0.21425778424E+02  0.51100000000E-03 0. -1.
        -11    1    3    3    0    0 -0.25873957294E+00  0.31686854321E+01  0.93622770154E+01  0.98873527654E+01  0.51100000000E-03 0.  1.
         12    1    3    3    0    0  0.99127173678E+00  0.21390924035E+00  0.19188969210E+02  0.19215746568E+02  0.00000000000E+00 0. -1.
</event>
<event>
 7    1  0.2891523E-011  0.5052886E+02  0.7816164E-02  0.1300439E+00
        -11   -1    0    0    0    0  0.00000000000E+00  0.00000000000E+00  0.45593999997E+02  0.45594000000E+02  0.51100000000E-03 0. -1.
         11   -1    0    0    0    0 -0.00000000000E+00 -0.00000000000E+00 -0.45593999997E+02  0.45594000000E+02  0.51100000000E-03 0.  1.
    9900012    2    1    2    0    0 -0.25030045683E+02 -0.21166227225E+02 -0.24055217587E+02  0.50528857671E+02  0.29999993375E+02 0.  0.
         12    1    1    2    0    0  0.25030045683E+02  0.21166227225E+02  0.24055217587E+02  0.40659142329E+02  0.00000000000E+00 0. -1.
         11    1    3    3    0    0 -0.10453110162E+02 -0.33270907721E+00 -0.19970356166E+00  0.10460310185E+02  0.51100000000E-03 0. -1.
        -11    1    3    3    0    0 -0.19125253450E+01 -0.17337098043E+02 -0.19647878551E+02  0.26273025207E+02  0.51100000000E-03 0.  1.
        -12    1    3    3    0    0 -0.12664410175E+02 -0.34964201049E+01 -0.42076354748E+01  0.13795522278E+02  0.00000000000E+00 0.  1.
</event>
<event>
 7    1  0.2891523E-011  0.5052897E+02  0.7816164E-02  0.1300438E+00
        -11   -1    0    0    0    0  0.00000000000E+00  0.00000000000E+00  0.45593999997E+02  0.45594000000E+02  0.51100000000E-03 0. -1.
         11   -1    0    0    0    0 -0.00000000000E+00 -0.00000000000E+00 -0.45593999997E+02  0.45594000000E+02  0.51100000000E-03 0.  1.
    9900012    2    1    2    0    0 -0.26399708187E+02  0.21072355712E+02  0.22631119930E+02  0.50528974472E+02  0.30000348403E+02 0.  0.
         12    1    1    2    0    0  0.26399708187E+02 -0.21072355712E+02 -0.22631119930E+02  0.40659025528E+02  0.00000000000E+00 0. -1.
         11    1    3    3    0    0 -0.22854979459E+01 -0.34767936619E+01  0.10441342779E+02  0.11239805795E+02  0.51100000000E-03 0. -1.
        -11    1    3    3    0    0 -0.11086988214E+02  0.21128499637E+02  0.84189802822E+01  0.25302451142E+02  0.51100000000E-03 0.  1.
         12    1    3    3    0    0 -0.13027222027E+02  0.34206497372E+01  0.37707968693E+01  0.13986717535E+02  0.00000000000E+00 0. -1.
</event>
<event>
 7    1  0.2891523E-011  0.5052886E+02  0.7816164E-02  0.1300439E+00
        -11   -1    0    0    0    0  0.00000000000E+00  0.00000000000E+00  0.45593999997E+02  0.45594000000E+02  0.51100000000E-03 0.  1.
         11   -1    0    0    0    0 -0.00000000000E+00 -0.00000000000E+00 -0.45593999997E+02  0.45594000000E+02  0.51100000000E-03 0. -1.
    9900012    2    1    2    0    0  0.24016982973E+02 -0.31851761364E+02 -0.78622860733E+01  0.50528859387E+02  0.29999998593E+02 0.  0.
         12    1    1    2    0    0 -0.24016982973E+02  0.31851761364E+02  0.78622860733E+01  0.40659140613E+02  0.00000000000E+00 0. -1.
         11    1    3    3    0    0  0.12357470143E+02 -0.66138400309E+01 -0.12348449186E+02  0.18679779063E+02  0.51100000000E-03 0. -1.
        -11    1    3    3    0    0  0.41030714434E+01 -0.12311852682E+02  0.94735743487E+01  0.16067530082E+02  0.51100000000E-03 0.  1.
        -12    1    3    3    0    0  0.75564413867E+01 -0.12926068651E+02 -0.49874112357E+01  0.15781550242E+02  0.00000000000E+00 0.  1.
</event>
<event>
 7    1  0.2891523E-011  0.5052887E+02  0.7816164E-02  0.1300439E+00
        -11   -1    0    0    0    0  0.00000000000E+00  0.00000000000E+00  0.45593999997E+02  0.45594000000E+02  0.51100000000E-03 0. -1.
         11   -1    0    0    0    0 -0.00000000000E+00 -0.00000000000E+00 -0.45593999997E+02  0.45594000000E+02  0.51100000000E-03 0.  1.
    9900012    2    1    2    0    0  0.29995573906E+02  0.25844167043E+02 -0.92471430839E+01  0.50528867209E+02  0.30000022367E+02 0.  0.
         12    1    1    2    0    0 -0.29995573906E+02 -0.25844167043E+02  0.92471430839E+01  0.40659132791E+02  0.00000000000E+00 0. -1.
         11    1    3    3    0    0  0.17338793980E+02  0.20212926911E+02 -0.18051506278E+02  0.32172240677E+02  0.51100000000E-03 0. -1.
        -11    1    3    3    0    0  0.93806452354E+01  0.68747579998E+01  0.92016112314E+01  0.14829984899E+02  0.51100000000E-03 0.  1.
         12    1    3    3    0    0  0.32761346914E+01 -0.12435178681E+01 -0.39724803733E+00  0.35266416330E+01  0.00000000000E+00 0. -1.
</event>
<event>
 7    1  0.2891523E-011  0.5052886E+02  0.7816164E-02  0.1300439E+00
        -11   -1    0    0    0    0  0.00000000000E+00  0.00000000000E+00  0.45593999997E+02  0.45594000000E+02  0.51100000000E-03 0.  1.
         11   -1    0    0    0    0 -0.00000000000E+00 -0.00000000000E+00 -0.45593999997E+02  0.45594000000E+02  0.51100000000E-03 0. -1.
    9900012    2    1    2    0    0  0.25370246320E+02  0.20708698861E+01  0.31705325266E+02  0.50528861413E+02  0.30000004750E+02 0.  0.
         12    1    1    2    0    0 -0.25370246320E+02 -0.20708698861E+01 -0.31705325266E+02  0.40659138587E+02  0.00000000000E+00 0. -1.
         11    1    3    3    0    0  0.14811841130E+02 -0.76477476305E+01  0.32485302368E+01  0.16983275021E+02  0.51100000000E-03 0. -1.
        -11    1    3    3    0    0  0.94549615038E+01  0.47137884205E+01  0.10591888163E+02  0.14960086679E+02  0.51100000000E-03 0.  1.
         12    1    3    3    0    0  0.11034436869E+01  0.50048290961E+01  0.17864906866E+02  0.18585499713E+02  0.00000000000E+00 0. -1.
</event>
<event>
 7    1  0.2891523E-011  0.5052889E+02  0.7816164E-02  0.1300439E+00
        -11   -1    0    0    0    0  0.00000000000E+00  0.00000000000E+00  0.45593999997E+02  0.45594000000E+02  0.51100000000E-03 0.  1.
         11   -1    0    0    0    0 -0.00000000000E+00 -0.00000000000E+00 -0.45593999997E+02  0.45594000000E+02  0.51100000000E-03 0. -1.
    9900012    2    1    2    0    0  0.11694284448E+02 -0.10781314564E+02  0.37418853128E+02  0.50528885377E+02  0.30000077593E+02 0.  0.
         12    1    1    2    0    0 -0.11694284448E+02  0.10781314564E+02 -0.37418853128E+02  0.40659114623E+02  0.00000000000E+00 0. -1.
         11    1    3    3    0    0 -0.64028752249E+01 -0.80214671946E+01  0.15102221725E+02  0.18259732977E+02  0.51100000000E-03 0. -1.
        -11    1    3    3    0    0  0.95244005319E+01 -0.12490201245E+01  0.21472762048E+02  0.23523472681E+02  0.51100000000E-03 0.  1.
         12    1    3    3    0    0  0.85727591413E+01 -0.15108272451E+01  0.84386935526E+00  0.87456797191E+01  0.00000000000E+00 0. -1.
</event>
<event>
 7    1  0.2891523E-011  0.5052886E+02  0.7816164E-02  0.1300439E+00
        -11   -1    0    0    0    0  0.00000000000E+00  0.00000000000E+00  0.45593999997E+02  0.45594000000E+02  0.51100000000E-03 0.  1.
         11   -1    0    0    0    0 -0.00000000000E+00 -0.00000000000E+00 -0.45593999997E+02  0.45594000000E+02  0.51100000000E-03 0. -1.
    9900012    2    1    2    0    0 -0.13487294262E+02 -0.64056911289E+01  0.37818321731E+02  0.50528862725E+02  0.30000008740E+02 0.  0.
         12    1    1    2    0    0  0.13487294262E+02  0.64056911289E+01 -0.37818321731E+02  0.40659137275E+02  0.00000000000E+00 0. -1.
         11    1    3    3    0    0 -0.45156530972E+01  0.60157532127E+01 -0.15494112280E+01  0.76799143892E+01  0.51100000000E-03 0. -1.
        -11    1    3    3    0    0 -0.44961249236E+01 -0.14411289816E+01  0.15417032922E+02  0.16123799070E+02  0.51100000000E-03 0.  1.
         12    1    3    3    0    0 -0.44755162410E+01 -0.10980315360E+02  0.23950700038E+02  0.26725149267E+02  0.00000000000E+00 0. -1.
</event>
<event>
 7    1  0.2891523E-011  0.5052886E+02  0.7816164E-02  0.1300439E+00
        -11   -1    0    0    0    0  0.00000000000E+00  0.00000000000E+00  0.45593999997E+02  0.45594000000E+02  0.51100000000E-03 0.  1.
         11   -1    0    0    0    0 -0.00000000000E+00 -0.00000000000E+00 -0.45593999997E+02  0.45594000000E+02  0.51100000000E-03 0. -1.
    9900012    2    1    2    0    0 -0.31993232251E+02  0.16696439889E+02  0.18730399644E+02  0.50528857293E+02  0.29999992229E+02 0.  0.
         12    1    1    2    0    0  0.31993232251E+02 -0.16696439889E+02 -0.18730399644E+02  0.40659142707E+02  0.00000000000E+00 0. -1.
         11    1    3    3    0    0 -0.80338190343E+01  0.50828177467E+01 -0.23358139190E+01  0.97894489859E+01  0.51100000000E-03 0. -1.
        -11    1    3    3    0    0 -0.80095821680E+01 -0.67047916812E+01  0.80134266215E+01  0.13165205827E+02  0.51100000000E-03 0.  1.
        -12    1    3    3    0    0 -0.15949831049E+02  0.18318413823E+02  0.13052786942E+02  0.27574202480E+02  0.00000000000E+00 0.  1.
</event>
<event>
 7    1  0.2891523E-011  0.5052885E+02  0.7816164E-02  0.1300439E+00
        -11   -1    0    0    0    0  0.00000000000E+00  0.00000000000E+00  0.45593999997E+02  0.45594000000E+02  0.51100000000E-03 0. -1.
         11   -1    0    0    0    0 -0.00000000000E+00 -0.00000000000E+00 -0.45593999997E+02  0.45594000000E+02  0.51100000000E-03 0.  1.
    9900012    2    1    2    0    0  0.38528874891E+02  0.58349461219E+01 -0.11603698148E+02  0.50528848419E+02  0.29999965253E+02 0.  0.
         12    1    1    2    0    0 -0.38528874891E+02 -0.58349461219E+01  0.11603698148E+02  0.40659151581E+02  0.00000000000E+00 0. -1.
         11    1    3    3    0    0  0.72143387448E+01 -0.79800076528E+01  0.37780790934E+01  0.11401801944E+02  0.51100000000E-03 0. -1.
        -11    1    3    3    0    0  0.66272408146E+01  0.83872723248E+01 -0.41458675162E+01  0.11465377255E+02  0.51100000000E-03 0.  1.
         12    1    3    3    0    0  0.24687295332E+02  0.54276814498E+01 -0.11235909725E+02  0.27661669220E+02  0.00000000000E+00 0. -1.
</event>
<event>
 7    1  0.2891523E-011  0.5052880E+02  0.7816164E-02  0.1300439E+00
        -11   -1    0    0    0    0  0.00000000000E+00  0.00000000000E+00  0.45593999997E+02  0.45594000000E+02  0.51100000000E-03 0.  1.
         11   -1    0    0    0    0 -0.00000000000E+00 -0.00000000000E+00 -0.45593999997E+02  0.45594000000E+02  0.51100000000E-03 0. -1.
    9900012    2    1    2    0    0 -0.12299766149E+02 -0.10738633833E+02  0.37236643824E+02  0.50528804888E+02  0.29999832936E+02 0.  0.
         12    1    1    2    0    0  0.12299766149E+02  0.10738633833E+02 -0.37236643824E+02  0.40659195112E+02  0.00000000000E+00 0. -1.
         11    1    3    3    0    0 -0.11987889021E+02 -0.10129857233E+02  0.93875116057E+01  0.18287943164E+02  0.51100000000E-03 0. -1.
        -11    1    3    3    0    0  0.66485289529E+01  0.26298013985E+00  0.49546251247E+01  0.82958065418E+01  0.51100000000E-03 0.  1.
        -12    1    3    3    0    0 -0.69604060800E+01 -0.87175674017E+00  0.22894507094E+02  0.23945055182E+02  0.00000000000E+00 0.  1.
</event>
<event>
 7    1  0.2891523E-011  0.5052886E+02  0.7816164E-02  0.1300439E+00
        -11   -1    0    0    0    0  0.00000000000E+00  0.00000000000E+00  0.45593999997E+02  0.45594000000E+02  0.51100000000E-03 0.  1.
         11   -1    0    0    0    0 -0.00000000000E+00 -0.00000000000E+00 -0.45593999997E+02  0.45594000000E+02  0.51100000000E-03 0. -1.
    9900012    2    1    2    0    0 -0.39532110557E+02  0.92971589546E+01  0.19850912963E+01  0.50528861824E+02  0.30000006001E+02 0.  0.
         12    1    1    2    0    0  0.39532110557E+02 -0.92971589546E+01 -0.19850912963E+01  0.40659138176E+02  0.00000000000E+00 0. -1.
         11    1    3    3    0    0 -0.20749053174E+01  0.12250737765E+00 -0.71865445532E+01  0.74810870206E+01  0.51100000000E-03 0. -1.
        -11    1    3    3    0    0 -0.27680796855E+02  0.13668776401E+02  0.94456363730E+01  0.32284392663E+02  0.51100000000E-03 0.  1.
         12    1    3    3    0    0 -0.97764083843E+01 -0.44941248237E+01 -0.27400052345E+00  0.10763382141E+02  0.00000000000E+00 0. -1.
</event>
<event>
 7    1  0.2891523E-011  0.5052886E+02  0.7816164E-02  0.1300439E+00
        -11   -1    0    0    0    0  0.00000000000E+00  0.00000000000E+00  0.45593999997E+02  0.45594000000E+02  0.51100000000E-03 0. -1.
         11   -1    0    0    0    0 -0.00000000000E+00 -0.00000000000E+00 -0.45593999997E+02  0.45594000000E+02  0.51100000000E-03 0.  1.
    9900012    2    1    2    0    0  0.21348795868E+02 -0.34104572875E+02 -0.58542754027E+01  0.50528861833E+02  0.30000006027E+02 0.  0.
         12    1    1    2    0    0 -0.21348795868E+02  0.34104572875E+02  0.58542754027E+01  0.40659138167E+02  0.00000000000E+00 0. -1.
         11    1    3    3    0    0  0.17820094876E+02 -0.36555147487E+02 -0.18490783972E+01  0.40709380742E+02  0.51100000000E-03 0.  1.
        -11    1    3    3    0    0  0.12706884984E+01 -0.45986086969E-02 -0.58645408676E+01  0.60006258220E+01  0.51100000000E-03 0. -1.
        -12    1    3    3    0    0  0.22580124941E+01  0.24551732210E+01  0.18593438621E+01  0.38188552690E+01  0.00000000000E+00 0.  1.
</event>
<event>
 7    1  0.2891523E-011  0.5052886E+02  0.7816164E-02  0.1300439E+00
        -11   -1    0    0    0    0  0.00000000000E+00  0.00000000000E+00  0.45593999997E+02  0.45594000000E+02  0.51100000000E-03 0.  1.
         11   -1    0    0    0    0 -0.00000000000E+00 -0.00000000000E+00 -0.45593999997E+02  0.45594000000E+02  0.51100000000E-03 0. -1.
    9900012    2    1    2    0    0  0.22548901876E+02 -0.13282799243E+02  0.31117191045E+02  0.50528864371E+02  0.30000013743E+02 0.  0.
         12    1    1    2    0    0 -0.22548901876E+02  0.13282799243E+02 -0.31117191045E+02  0.40659135629E+02  0.00000000000E+00 0. -1.
         11    1    3    3    0    0  0.59914702562E+01 -0.73932952847E+01 -0.20302229896E+01  0.97303821429E+01  0.51100000000E-03 0. -1.
        -11    1    3    3    0    0  0.14706571186E+02 -0.20181194644E+01  0.33348053178E+02  0.36502721724E+02  0.51100000000E-03 0.  1.
        -12    1    3    3    0    0  0.18508604342E+01 -0.38713844937E+01 -0.20063914416E+00  0.42957605044E+01  0.00000000000E+00 0.  1.
</event>
<event>
 7    1  0.2891523E-011  0.5052886E+02  0.7816164E-02  0.1300439E+00
        -11   -1    0    0    0    0  0.00000000000E+00  0.00000000000E+00  0.45593999997E+02  0.45594000000E+02  0.51100000000E-03 0. -1.
         11   -1    0    0    0    0 -0.00000000000E+00 -0.00000000000E+00 -0.45593999997E+02  0.45594000000E+02  0.51100000000E-03 0.  1.
    9900012    2    1    2    0    0 -0.38116888051E+02  0.13700913988E+02  0.35430600993E+01  0.50528862359E+02  0.30000007627E+02 0.  0.
         12    1    1    2    0    0  0.38116888051E+02 -0.13700913988E+02 -0.35430600993E+01  0.40659137641E+02  0.00000000000E+00 0. -1.
         11    1    3    3    0    0 -0.57355374711E+01  0.27792639264E+01  0.18604554149E+01  0.66394271339E+01  0.51100000000E-03 0. -1.
        -11    1    3    3    0    0 -0.24701902415E+02 -0.26217026976E+01  0.93408106616E+01  0.26538802762E+02  0.51100000000E-03 0.  1.
        -12    1    3    3    0    0 -0.76794481652E+01  0.13543352760E+02 -0.76582059773E+01  0.17350632463E+02  0.00000000000E+00 0.  1.
</event>
<event>
 7    1  0.2891523E-011  0.5052886E+02  0.7816164E-02  0.1300439E+00
        -11   -1    0    0    0    0  0.00000000000E+00  0.00000000000E+00  0.45593999997E+02  0.45594000000E+02  0.51100000000E-03 0.  1.
         11   -1    0    0    0    0 -0.00000000000E+00 -0.00000000000E+00 -0.45593999997E+02  0.45594000000E+02  0.51100000000E-03 0. -1.
    9900012    2    1    2    0    0  0.31553652277E+02 -0.13961056363E+00  0.25642012879E+02  0.50528864648E+02  0.30000014584E+02 0.  0.
         12    1    1    2    0    0 -0.31553652277E+02  0.13961056363E+00 -0.25642012879E+02  0.40659135352E+02  0.00000000000E+00 0. -1.
         11    1    3    3    0    0  0.21689885592E+02  0.71448679001E+01  0.50777888999E+01  0.23394106409E+02  0.51100000000E-03 0. -1.
        -11    1    3    3    0    0  0.12925990307E+02 -0.50726656100E+01  0.15390112921E+02  0.20728452373E+02  0.51100000000E-03 0.  1.
         12    1    3    3    0    0 -0.30622236220E+01 -0.22118128537E+01  0.51741110575E+01  0.64063058658E+01  0.00000000000E+00 0. -1.
</event>
<event>
 7    1  0.2891523E-011  0.5052886E+02  0.7816164E-02  0.1300439E+00
        -11   -1    0    0    0    0  0.00000000000E+00  0.00000000000E+00  0.45593999997E+02  0.45594000000E+02  0.51100000000E-03 0.  1.
         11   -1    0    0    0    0 -0.00000000000E+00 -0.00000000000E+00 -0.45593999997E+02  0.45594000000E+02  0.51100000000E-03 0. -1.
    9900012    2    1    2    0    0  0.40598413110E+02 -0.18853897682E+01  0.11746719500E+01  0.50528859627E+02  0.29999999323E+02 0.  0.
         12    1    1    2    0    0 -0.40598413110E+02  0.18853897682E+01 -0.11746719500E+01  0.40659140373E+02  0.00000000000E+00 0. -1.
         11    1    3    3    0    0  0.70698882183E+01 -0.12174707773E+02 -0.45673328490E+01  0.14800924241E+02  0.51100000000E-03 0. -1.
        -11    1    3    3    0    0  0.11014025743E+02  0.31099988766E+01  0.36098561625E+01  0.12000496567E+02  0.51100000000E-03 0.  1.
         12    1    3    3    0    0  0.22514499149E+02  0.71793191286E+01  0.21321486366E+01  0.23727438819E+02  0.00000000000E+00 0. -1.
</event>
<event>
 7    1  0.2891523E-011  0.5052891E+02  0.7816164E-02  0.1300439E+00
        -11   -1    0    0    0    0  0.00000000000E+00  0.00000000000E+00  0.45593999997E+02  0.45594000000E+02  0.51100000000E-03 0.  1.
         11   -1    0    0    0    0 -0.00000000000E+00 -0.00000000000E+00 -0.45593999997E+02  0.45594000000E+02  0.51100000000E-03 0. -1.
    9900012    2    1    2    0    0 -0.10119351647E+01 -0.37531601439E+02  0.15605020678E+02  0.50528907663E+02  0.30000145331E+02 0.  0.
         12    1    1    2    0    0  0.10119351647E+01  0.37531601439E+02 -0.15605020678E+02  0.40659092337E+02  0.00000000000E+00 0. -1.
         11    1    3    3    0    0  0.29049503620E+01  0.12217417912E+01  0.62764196899E+00  0.32133042670E+01  0.51100000000E-03 0. -1.
        -11    1    3    3    0    0  0.40508636441E+01 -0.36205196562E+02  0.13305917436E+02  0.38784960918E+02  0.51100000000E-03 0.  1.
        -12    1    3    3    0    0 -0.79677491708E+01 -0.25481466682E+01  0.16714612734E+01  0.85306424775E+01  0.00000000000E+00 0.  1.
</event>
<event>
 7    1  0.2891523E-011  0.5052886E+02  0.7816164E-02  0.1300439E+00
        -11   -1    0    0    0    0  0.00000000000E+00  0.00000000000E+00  0.45593999997E+02  0.45594000000E+02  0.51100000000E-03 0.  1.
         11   -1    0    0    0    0 -0.00000000000E+00 -0.00000000000E+00 -0.45593999997E+02  0.45594000000E+02  0.51100000000E-03 0. -1.
    9900012    2    1    2    0    0  0.31035672715E+02  0.21784600943E+02  0.14675957550E+02  0.50528861431E+02  0.30000004806E+02 0.  0.
         12    1    1    2    0    0 -0.31035672715E+02 -0.21784600943E+02 -0.14675957550E+02  0.40659138569E+02  0.00000000000E+00 0. -1.
         11    1    3    3    0    0  0.13564574679E+02  0.32237856876E+01 -0.61715036131E+01  0.15247227207E+02  0.51100000000E-03 0. -1.
        -11    1    3    3    0    0  0.12520626191E+02  0.19196107903E+02  0.14170797459E+02  0.26945651592E+02  0.51100000000E-03 0.  1.
         12    1    3    3    0    0  0.49504718453E+01 -0.63529264683E+00  0.66766637038E+01  0.83359826326E+01  0.00000000000E+00 0. -1.
</event>
<event>
 7    1  0.2891523E-011  0.5052886E+02  0.7816164E-02  0.1300439E+00
        -11   -1    0    0    0    0  0.00000000000E+00  0.00000000000E+00  0.45593999997E+02  0.45594000000E+02  0.51100000000E-03 0.  1.
         11   -1    0    0    0    0 -0.00000000000E+00 -0.00000000000E+00 -0.45593999997E+02  0.45594000000E+02  0.51100000000E-03 0. -1.
    9900012    2    1    2    0    0  0.40579829269E+02 -0.22926060894E+01 -0.10896593127E+01  0.50528856581E+02  0.29999990063E+02 0.  0.
         12    1    1    2    0    0 -0.40579829269E+02  0.22926060894E+01  0.10896593127E+01  0.40659143419E+02  0.00000000000E+00 0. -1.
         11    1    3    3    0    0 -0.19070914044E-01  0.46043944712E+01  0.15083943891E+01  0.48452106291E+01  0.51100000000E-03 0. -1.
        -11    1    3    3    0    0  0.31878754853E+02 -0.85294076408E+01 -0.96151790427E+01  0.34372335882E+02  0.51100000000E-03 0.  1.
        -12    1    3    3    0    0  0.87201453293E+01  0.16324070802E+01  0.70171253409E+01  0.11311310070E+02  0.00000000000E+00 0.  1.
</event>
<event>
 7    1  0.2891523E-011  0.5052888E+02  0.7816164E-02  0.1300439E+00
        -11   -1    0    0    0    0  0.00000000000E+00  0.00000000000E+00  0.45593999997E+02  0.45594000000E+02  0.51100000000E-03 0.  1.
         11   -1    0    0    0    0 -0.00000000000E+00 -0.00000000000E+00 -0.45593999997E+02  0.45594000000E+02  0.51100000000E-03 0. -1.
    9900012    2    1    2    0    0 -0.33591854439E+02 -0.10897432520E+02  0.20149382914E+02  0.50528876153E+02  0.30000049554E+02 0.  0.
         12    1    1    2    0    0  0.33591854439E+02  0.10897432520E+02 -0.20149382914E+02  0.40659123847E+02  0.00000000000E+00 0. -1.
         11    1    3    3    0    0 -0.29944608449E+00 -0.12997753508E+01  0.46508136577E+01  0.48383005135E+01  0.51100000000E-03 0. -1.
        -11    1    3    3    0    0 -0.21153802814E+02  0.68933127079E+01  0.55779426495E+01  0.22937187667E+02  0.51100000000E-03 0.  1.
        -12    1    3    3    0    0 -0.12138605541E+02 -0.16490969877E+02  0.99206266071E+01  0.22753387973E+02  0.00000000000E+00 0.  1.
</event>
<event>
 7    1  0.2891523E-011  0.5052886E+02  0.7816164E-02  0.1300439E+00
        -11   -1    0    0    0    0  0.00000000000E+00  0.00000000000E+00  0.45593999997E+02  0.45594000000E+02  0.51100000000E-03 0. -1.
         11   -1    0    0    0    0 -0.00000000000E+00 -0.00000000000E+00 -0.45593999997E+02  0.45594000000E+02  0.51100000000E-03 0.  1.
    9900012    2    1    2    0    0  0.37454886305E+02  0.13625800406E+02  0.80395683618E+01  0.50528860754E+02  0.30000002747E+02 0.  0.
         12    1    1    2    0    0 -0.37454886305E+02 -0.13625800406E+02 -0.80395683618E+01  0.40659139246E+02  0.00000000000E+00 0. -1.
         11    1    3    3    0    0  0.17786700158E+02 -0.78570216937E+01  0.24480414542E+01  0.19598275425E+02  0.51100000000E-03 0. -1.
        -11    1    3    3    0    0  0.14670379193E+02  0.11535105478E+02  0.64979624188E+01  0.19761128508E+02  0.51100000000E-03 0.  1.
         12    1    3    3    0    0  0.49978069536E+01  0.99477166220E+01 -0.90643551127E+00  0.11169456821E+02  0.00000000000E+00 0. -1.
</event>
<event>
 7    1  0.2891523E-011  0.5052879E+02  0.7816164E-02  0.1300439E+00
        -11   -1    0    0    0    0  0.00000000000E+00  0.00000000000E+00  0.45593999997E+02  0.45594000000E+02  0.51100000000E-03 0.  1.
         11   -1    0    0    0    0 -0.00000000000E+00 -0.00000000000E+00 -0.45593999997E+02  0.45594000000E+02  0.51100000000E-03 0. -1.
    9900012    2    1    2    0    0  0.20794838839E+02 -0.17321566138E+02  0.30343194040E+02  0.50528789476E+02  0.29999786092E+02 0.  0.
         12    1    1    2    0    0 -0.20794838839E+02  0.17321566138E+02 -0.30343194040E+02  0.40659210524E+02  0.00000000000E+00 0. -1.
         11    1    3    3    0    0 -0.70704316671E+00 -0.13312601755E+01  0.66812834145E+00  0.16488054574E+01  0.51100000000E-03 0. -1.
        -11    1    3    3    0    0  0.21191962444E+01 -0.14900331680E+02  0.24559206224E+02  0.28803914448E+02  0.51100000000E-03 0.  1.
        -12    1    3    3    0    0  0.19382685762E+02 -0.10899742824E+01  0.51158594750E+01  0.20076069571E+02  0.00000000000E+00 0.  1.
</event>
<event>
 7    1  0.2891523E-011  0.5052885E+02  0.7816164E-02  0.1300439E+00
        -11   -1    0    0    0    0  0.00000000000E+00  0.00000000000E+00  0.45593999997E+02  0.45594000000E+02  0.51100000000E-03 0.  1.
         11   -1    0    0    0    0 -0.00000000000E+00 -0.00000000000E+00 -0.45593999997E+02  0.45594000000E+02  0.51100000000E-03 0. -1.
    9900012    2    1    2    0    0  0.16342343988E+02  0.30340336889E+02 -0.21576806639E+02  0.50528845627E+02  0.29999956768E+02 0.  0.
         12    1    1    2    0    0 -0.16342343988E+02 -0.30340336889E+02  0.21576806639E+02  0.40659154373E+02  0.00000000000E+00 0. -1.
         11    1    3    3    0    0  0.63400776527E+01  0.55963571670E+01 -0.94898523886E+01  0.12711140657E+02  0.51100000000E-03 0. -1.
        -11    1    3    3    0    0  0.72602460739E+01  0.28324133066E+02 -0.53722923897E+01  0.29729265258E+02  0.51100000000E-03 0.  1.
        -12    1    3    3    0    0  0.27420202610E+01 -0.35801533436E+01 -0.67146618607E+01  0.80884397122E+01  0.00000000000E+00 0.  1.
</event>
<event>
 7    1  0.2891523E-011  0.5052885E+02  0.7816164E-02  0.1300439E+00
        -11   -1    0    0    0    0  0.00000000000E+00  0.00000000000E+00  0.45593999997E+02  0.45594000000E+02  0.51100000000E-03 0.  1.
         11   -1    0    0    0    0 -0.00000000000E+00 -0.00000000000E+00 -0.45593999997E+02  0.45594000000E+02  0.51100000000E-03 0. -1.
    9900012    2    1    2    0    0 -0.37303096791E+01  0.18649025302E+01  0.40444694473E+02  0.50528851180E+02  0.29999973646E+02 0.  0.
         12    1    1    2    0    0  0.37303096791E+01 -0.18649025302E+01 -0.40444694473E+02  0.40659148820E+02  0.00000000000E+00 0. -1.
         11    1    3    3    0    0  0.25635076373E-01  0.30282257398E-01  0.31657044302E+02  0.31657069169E+02  0.51100000000E-03 0.  1.
        -11    1    3    3    0    0  0.47603482855E+01  0.15388555163E+01 -0.17676998164E+01  0.53060112138E+01  0.51100000000E-03 0. -1.
         12    1    3    3    0    0 -0.85162930410E+01  0.29576475649E+00  0.10555349987E+02  0.13565770797E+02  0.00000000000E+00 0. -1.
</event>
<event>
 7    1  0.2891523E-011  0.5052883E+02  0.7816164E-02  0.1300439E+00
        -11   -1    0    0    0    0  0.00000000000E+00  0.00000000000E+00  0.45593999997E+02  0.45594000000E+02  0.51100000000E-03 0.  1.
         11   -1    0    0    0    0 -0.00000000000E+00 -0.00000000000E+00 -0.45593999997E+02  0.45594000000E+02  0.51100000000E-03 0. -1.
    9900012    2    1    2    0    0  0.33913754532E+02 -0.48397016676E+01  0.21899828766E+02  0.50528831800E+02  0.29999914741E+02 0.  0.
         12    1    1    2    0    0 -0.33913754532E+02  0.48397016676E+01 -0.21899828766E+02  0.40659168200E+02  0.00000000000E+00 0. -1.
         11    1    3    3    0    0 -0.84825260818E+00 -0.14194300237E+01  0.75605366595E+00  0.18182220674E+01  0.51100000000E-03 0. -1.
        -11    1    3    3    0    0  0.23430557578E+01  0.71261251483E+01 -0.16764692932E+01  0.76864894110E+01  0.51100000000E-03 0.  1.
        -12    1    3    3    0    0  0.32418951383E+02 -0.10546396792E+02  0.22820244393E+02  0.41024120322E+02  0.00000000000E+00 0.  1.
</event>
<event>
 7    1  0.2891523E-011  0.5052885E+02  0.7816164E-02  0.1300439E+00
        -11   -1    0    0    0    0  0.00000000000E+00  0.00000000000E+00  0.45593999997E+02  0.45594000000E+02  0.51100000000E-03 0.  1.
         11   -1    0    0    0    0 -0.00000000000E+00 -0.00000000000E+00 -0.45593999997E+02  0.45594000000E+02  0.51100000000E-03 0. -1.
    9900012    2    1    2    0    0 -0.18043245056E+02 -0.33369235720E+02  0.14632229438E+02  0.50528846996E+02  0.29999960928E+02 0.  0.
         12    1    1    2    0    0  0.18043245056E+02  0.33369235720E+02 -0.14632229438E+02  0.40659153004E+02  0.00000000000E+00 0. -1.
         11    1    3    3    0    0 -0.10148274520E+02 -0.20747003577E+02 -0.14347484916E+01  0.23140530172E+02  0.51100000000E-03 0. -1.
        -11    1    3    3    0    0 -0.90006105500E+01 -0.13047425639E+02  0.18692293441E+02  0.24508123968E+02  0.51100000000E-03 0.  1.
        -12    1    3    3    0    0  0.11056400141E+01  0.42519349601E+00 -0.26253155116E+01  0.28801928556E+01  0.00000000000E+00 0.  1.
</event>
<event>
 7    1  0.2891523E-011  0.5052886E+02  0.7816164E-02  0.1300439E+00
        -11   -1    0    0    0    0  0.00000000000E+00  0.00000000000E+00  0.45593999997E+02  0.45594000000E+02  0.51100000000E-03 0.  1.
         11   -1    0    0    0    0 -0.00000000000E+00 -0.00000000000E+00 -0.45593999997E+02  0.45594000000E+02  0.51100000000E-03 0. -1.
    9900012    2    1    2    0    0  0.71004764245E+01 -0.46208684754E+01  0.39766779681E+02  0.50528856415E+02  0.29999989558E+02 0.  0.
         12    1    1    2    0    0 -0.71004764245E+01  0.46208684754E+01 -0.39766779681E+02  0.40659143585E+02  0.00000000000E+00 0. -1.
         11    1    3    3    0    0  0.73275809124E+01  0.41923123143E+00  0.42958096190E+01  0.85043034634E+01  0.51100000000E-03 0. -1.
        -11    1    3    3    0    0 -0.94326378379E+01 -0.78464053924E+01  0.14810115449E+02  0.19232271162E+02  0.51100000000E-03 0.  1.
        -12    1    3    3    0    0  0.92055333499E+01  0.28063056857E+01  0.20660854612E+02  0.22792281789E+02  0.00000000000E+00 0.  1.
</event>
<event>
 7    1  0.2891523E-011  0.5052886E+02  0.7816164E-02  0.1300439E+00
        -11   -1    0    0    0    0  0.00000000000E+00  0.00000000000E+00  0.45593999997E+02  0.45594000000E+02  0.51100000000E-03 0.  1.
         11   -1    0    0    0    0 -0.00000000000E+00 -0.00000000000E+00 -0.45593999997E+02  0.45594000000E+02  0.51100000000E-03 0. -1.
    9900012    2    1    2    0    0 -0.29089839156E+02 -0.20645869750E+02  0.19511406632E+02  0.50528859962E+02  0.30000000340E+02 0.  0.
         12    1    1    2    0    0  0.29089839156E+02  0.20645869750E+02 -0.19511406632E+02  0.40659140038E+02  0.00000000000E+00 0. -1.
         11    1    3    3    0    0 -0.31310716927E+00  0.16572464812E+00 -0.56386168626E+01  0.56497346081E+01  0.51100000000E-03 0. -1.
        -11    1    3    3    0    0 -0.23677798019E+02 -0.17321844179E+02  0.25238507782E+02  0.38699698708E+02  0.51100000000E-03 0.  1.
         12    1    3    3    0    0 -0.50989339683E+01 -0.34897502188E+01 -0.88484287050E-01  0.61794266459E+01  0.00000000000E+00 0. -1.
</event>
<event>
 7    1  0.2891523E-011  0.5052883E+02  0.7816164E-02  0.1300439E+00
        -11   -1    0    0    0    0  0.00000000000E+00  0.00000000000E+00  0.45593999997E+02  0.45594000000E+02  0.51100000000E-03 0. -1.
         11   -1    0    0    0    0 -0.00000000000E+00 -0.00000000000E+00 -0.45593999997E+02  0.45594000000E+02  0.51100000000E-03 0.  1.
    9900012    2    1    2    0    0  0.18530257972E+02  0.28760446729E+02 -0.21968942040E+02  0.50528829191E+02  0.29999906809E+02 0.  0.
         12    1    1    2    0    0 -0.18530257972E+02 -0.28760446729E+02  0.21968942040E+02  0.40659170809E+02  0.00000000000E+00 0. -1.
         11    1    3    3    0    0  0.68385895120E+01 -0.36063918433E+00 -0.99804159173E+01  0.12103927845E+02  0.51100000000E-03 0. -1.
        -11    1    3    3    0    0  0.21010975770E+01  0.18511226859E+02 -0.14868297472E+02  0.23835821799E+02  0.51100000000E-03 0.  1.
         12    1    3    3    0    0  0.95905708827E+01  0.10609859054E+02  0.28797713499E+01  0.14589079547E+02  0.00000000000E+00 0. -1.
</event>
<event>
 7    1  0.2891523E-011  0.5052887E+02  0.7816164E-02  0.1300439E+00
        -11   -1    0    0    0    0  0.00000000000E+00  0.00000000000E+00  0.45593999997E+02  0.45594000000E+02  0.51100000000E-03 0.  1.
         11   -1    0    0    0    0 -0.00000000000E+00 -0.00000000000E+00 -0.45593999997E+02  0.45594000000E+02  0.51100000000E-03 0. -1.
    9900012    2    1    2    0    0 -0.42964228999E+01 -0.11325057342E+02  0.38812999461E+02  0.50528866946E+02  0.30000021570E+02 0.  0.
         12    1    1    2    0    0  0.42964228999E+01  0.11325057342E+02 -0.38812999461E+02  0.40659133054E+02  0.00000000000E+00 0. -1.
         11    1    3    3    0    0 -0.74235337294E+01  0.47169768188E+00 -0.40988490923E+00  0.74497891000E+01  0.51100000000E-03 0. -1.
        -11    1    3    3    0    0 -0.75055806782E+00  0.13365756097E+01  0.16339939685E+02  0.16411684890E+02  0.51100000000E-03 0.  1.
         12    1    3    3    0    0  0.38776688974E+01 -0.13133330633E+02  0.22882944686E+02  0.26667392956E+02  0.00000000000E+00 0. -1.
</event>
<event>
 7    1  0.2891523E-011  0.5052892E+02  0.7816164E-02  0.1300439E+00
        -11   -1    0    0    0    0  0.00000000000E+00  0.00000000000E+00  0.45593999997E+02  0.45594000000E+02  0.51100000000E-03 0. -1.
         11   -1    0    0    0    0 -0.00000000000E+00 -0.00000000000E+00 -0.45593999997E+02  0.45594000000E+02  0.51100000000E-03 0.  1.
    9900012    2    1    2    0    0  0.38279645151E+02  0.11477135593E+02 -0.74903131628E+01  0.50528921486E+02  0.30000187348E+02 0.  0.
         12    1    1    2    0    0 -0.38279645151E+02 -0.11477135593E+02  0.74903131628E+01  0.40659078514E+02  0.00000000000E+00 0. -1.
         11    1    3    3    0    0  0.31845643357E+02  0.15302667111E+02 -0.14906637818E+02  0.38347418073E+02  0.51100000000E-03 0. -1.
        -11    1    3    3    0    0  0.55080248996E+01 -0.34722864344E+01  0.22013821722E+01  0.68732230508E+01  0.51100000000E-03 0.  1.
         12    1    3    3    0    0  0.92597689446E+00 -0.35324508366E+00  0.52149424834E+01  0.53082803622E+01  0.00000000000E+00 0. -1.
</event>
<event>
 7    1  0.2891523E-011  0.5052887E+02  0.7816164E-02  0.1300439E+00
        -11   -1    0    0    0    0  0.00000000000E+00  0.00000000000E+00  0.45593999997E+02  0.45594000000E+02  0.51100000000E-03 0.  1.
         11   -1    0    0    0    0 -0.00000000000E+00 -0.00000000000E+00 -0.45593999997E+02  0.45594000000E+02  0.51100000000E-03 0. -1.
    9900012    2    1    2    0    0  0.38064064345E+02  0.10699372949E+02  0.94771082069E+01  0.50528866267E+02  0.30000019504E+02 0.  0.
         12    1    1    2    0    0 -0.38064064345E+02 -0.10699372949E+02 -0.94771082069E+01  0.40659133733E+02  0.00000000000E+00 0. -1.
         11    1    3    3    0    0  0.11690721094E+01 -0.34653429389E+01  0.88463969531E+01  0.95725686518E+01  0.51100000000E-03 0. -1.
        -11    1    3    3    0    0  0.20087882830E+02  0.20207798392E+01  0.10523416975E+01  0.20216676558E+02  0.51100000000E-03 0.  1.
         12    1    3    3    0    0  0.16807109406E+02  0.12143936048E+02 -0.42163044363E+00  0.20739621056E+02  0.00000000000E+00 0. -1.
</event>
<event>
 7    1  0.2891523E-011  0.5052886E+02  0.7816164E-02  0.1300439E+00
        -11   -1    0    0    0    0  0.00000000000E+00  0.00000000000E+00  0.45593999997E+02  0.45594000000E+02  0.51100000000E-03 0.  1.
         11   -1    0    0    0    0 -0.00000000000E+00 -0.00000000000E+00 -0.45593999997E+02  0.45594000000E+02  0.51100000000E-03 0. -1.
    9900012    2    1    2    0    0 -0.58059757702E+00  0.26472333315E+02  0.30855211230E+02  0.50528860994E+02  0.30000003476E+02 0.  0.
         12    1    1    2    0    0  0.58059757702E+00 -0.26472333315E+02 -0.30855211230E+02  0.40659139006E+02  0.00000000000E+00 0. -1.
         11    1    3    3    0    0 -0.12543280036E+02  0.98331845678E+01  0.15299815933E+02  0.22093206210E+02  0.51100000000E-03 0. -1.
        -11    1    3    3    0    0  0.47248765937E+01  0.15169839841E+02  0.13279978128E+02  0.20707639146E+02  0.51100000000E-03 0.  1.
         12    1    3    3    0    0  0.72378058653E+01  0.14693089064E+01  0.22754171683E+01  0.77280156377E+01  0.00000000000E+00 0. -1.
</event>
<event>
 7    1  0.2891523E-011  0.5052886E+02  0.7816164E-02  0.1300439E+00
        -11   -1    0    0    0    0  0.00000000000E+00  0.00000000000E+00  0.45593999997E+02  0.45594000000E+02  0.51100000000E-03 0. -1.
         11   -1    0    0    0    0 -0.00000000000E+00 -0.00000000000E+00 -0.45593999997E+02  0.45594000000E+02  0.51100000000E-03 0.  1.
    9900012    2    1    2    0    0  0.29029671696E+02  0.24433119580E+02 -0.14610480561E+02  0.50528864331E+02  0.30000013619E+02 0.  0.
         12    1    1    2    0    0 -0.29029671696E+02 -0.24433119580E+02  0.14610480561E+02  0.40659135669E+02  0.00000000000E+00 0. -1.
         11    1    3    3    0    0  0.10392442814E+02  0.11312980457E+02 -0.17972851180E+02  0.23643387537E+02  0.51100000000E-03 0. -1.
        -11    1    3    3    0    0  0.19676665577E+02  0.78165163536E+01  0.17450949788E+01  0.21244162796E+02  0.51100000000E-03 0.  1.
        -12    1    3    3    0    0 -0.10394366953E+01  0.53036227695E+01  0.16172756398E+01  0.56413139976E+01  0.00000000000E+00 0.  1.
</event>
<event>
 7    1  0.2891523E-011  0.5052887E+02  0.7816164E-02  0.1300439E+00
        -11   -1    0    0    0    0  0.00000000000E+00  0.00000000000E+00  0.45593999997E+02  0.45594000000E+02  0.51100000000E-03 0.  1.
         11   -1    0    0    0    0 -0.00000000000E+00 -0.00000000000E+00 -0.45593999997E+02  0.45594000000E+02  0.51100000000E-03 0. -1.
    9900012    2    1    2    0    0  0.16891932190E+01 -0.21778017202E+02  0.34293279850E+02  0.50528874950E+02  0.30000045897E+02 0.  0.
         12    1    1    2    0    0 -0.16891932190E+01  0.21778017202E+02 -0.34293279850E+02  0.40659125050E+02  0.00000000000E+00 0. -1.
         11    1    3    3    0    0 -0.93134891131E+01 -0.46334125870E+00  0.17113779192E+02  0.19489412589E+02  0.51100000000E-03 0. -1.
        -11    1    3    3    0    0 -0.67400645464E+00 -0.81523108081E+01  0.43604369325E+01  0.92697285137E+01  0.51100000000E-03 0.  1.
         12    1    3    3    0    0  0.11676688787E+02 -0.13162365135E+02  0.12819063726E+02  0.21769733847E+02  0.00000000000E+00 0. -1.
</event>
<event>
 7    1  0.2891523E-011  0.5052885E+02  0.7816164E-02  0.1300439E+00
        -11   -1    0    0    0    0  0.00000000000E+00  0.00000000000E+00  0.45593999997E+02  0.45594000000E+02  0.51100000000E-03 0.  1.
         11   -1    0    0    0    0 -0.00000000000E+00 -0.00000000000E+00 -0.45593999997E+02  0.45594000000E+02  0.51100000000E-03 0. -1.
    9900012    2    1    2    0    0  0.10909705854E+02 -0.19844138164E+02  0.33769139587E+02  0.50528852324E+02  0.29999977125E+02 0.  0.
         12    1    1    2    0    0 -0.10909705854E+02  0.19844138164E+02 -0.33769139587E+02  0.40659147676E+02  0.00000000000E+00 0. -1.
         11    1    3    3    0    0  0.72847981023E+00 -0.12664127230E+01 -0.20952944005E+01  0.25543576306E+01  0.51100000000E-03 0. -1.
        -11    1    3    3    0    0  0.12383474623E+02 -0.22807449712E+02  0.24671274199E+02  0.35807847980E+02  0.51100000000E-03 0.  1.
        -12    1    3    3    0    0 -0.22022485794E+01  0.42297242707E+01  0.11193159788E+02  0.12166646714E+02  0.00000000000E+00 0.  1.
</event>
<event>
 7    1  0.2891523E-011  0.5052885E+02  0.7816164E-02  0.1300439E+00
        -11   -1    0    0    0    0  0.00000000000E+00  0.00000000000E+00  0.45593999997E+02  0.45594000000E+02  0.51100000000E-03 0.  1.
         11   -1    0    0    0    0 -0.00000000000E+00 -0.00000000000E+00 -0.45593999997E+02  0.45594000000E+02  0.51100000000E-03 0. -1.
    9900012    2    1    2    0    0 -0.21822057598E+00  0.64958348813E+01  0.40136302415E+02  0.50528852658E+02  0.29999978138E+02 0.  0.
         12    1    1    2    0    0  0.21822057598E+00 -0.64958348813E+01 -0.40136302415E+02  0.40659147342E+02  0.00000000000E+00 0. -1.
         11    1    3    3    0    0  0.49845218385E+01  0.10090321119E+02  0.72927677857E+01  0.13410611488E+02  0.51100000000E-03 0. -1.
        -11    1    3    3    0    0 -0.86583672815E+01  0.35043324960E+01  0.19298675091E+02  0.21440301555E+02  0.51100000000E-03 0.  1.
         12    1    3    3    0    0  0.34556248670E+01 -0.70988187341E+01  0.13544859539E+02  0.15677939615E+02  0.00000000000E+00 0. -1.
</event>
<event>
 7    1  0.2891523E-011  0.5052885E+02  0.7816164E-02  0.1300439E+00
        -11   -1    0    0    0    0  0.00000000000E+00  0.00000000000E+00  0.45593999997E+02  0.45594000000E+02  0.51100000000E-03 0.  1.
         11   -1    0    0    0    0 -0.00000000000E+00 -0.00000000000E+00 -0.45593999997E+02  0.45594000000E+02  0.51100000000E-03 0. -1.
    9900012    2    1    2    0    0 -0.31689693778E+01 -0.15122487283E+02  0.37608962910E+02  0.50528854907E+02  0.29999984974E+02 0.  0.
         12    1    1    2    0    0  0.31689693778E+01  0.15122487283E+02 -0.37608962910E+02  0.40659145093E+02  0.00000000000E+00 0. -1.
         11    1    3    3    0    0 -0.82126618831E+00  0.38289799248E+01 -0.18192293627E+01  0.43180043020E+01  0.51100000000E-03 0. -1.
        -11    1    3    3    0    0 -0.20935497870E+01 -0.21458688159E+02  0.34692847300E+02  0.40846687776E+02  0.51100000000E-03 0.  1.
        -12    1    3    3    0    0 -0.25415340252E+00  0.25072209504E+01  0.47353449724E+01  0.53641628288E+01  0.00000000000E+00 0.  1.
</event>
<event>
 7    1  0.2891523E-011  0.5052886E+02  0.7816164E-02  0.1300439E+00
        -11   -1    0    0    0    0  0.00000000000E+00  0.00000000000E+00  0.45593999997E+02  0.45594000000E+02  0.51100000000E-03 0.  1.
         11   -1    0    0    0    0 -0.00000000000E+00 -0.00000000000E+00 -0.45593999997E+02  0.45594000000E+02  0.51100000000E-03 0. -1.
    9900012    2    1    2    0    0  0.28344753703E+02 -0.16769798113E+02  0.23843543864E+02  0.50528858651E+02  0.29999996357E+02 0.  0.
         12    1    1    2    0    0 -0.28344753703E+02  0.16769798113E+02 -0.23843543864E+02  0.40659141349E+02  0.00000000000E+00 0. -1.
         11    1    3    3    0    0  0.23926671090E+02 -0.81291030528E+01  0.46675529239E+01  0.25697353102E+02  0.51100000000E-03 0. -1.
        -11    1    3    3    0    0  0.81322064057E+01 -0.23906271800E+01  0.11075264433E+02  0.13946661316E+02  0.51100000000E-03 0.  1.
         12    1    3    3    0    0 -0.37141237927E+01 -0.62500678801E+01  0.81007265076E+01  0.10884844234E+02  0.00000000000E+00 0. -1.
</event>
<event>
 7    1  0.2891523E-011  0.5052886E+02  0.7816164E-02  0.1300439E+00
        -11   -1    0    0    0    0  0.00000000000E+00  0.00000000000E+00  0.45593999997E+02  0.45594000000E+02  0.51100000000E-03 0. -1.
         11   -1    0    0    0    0 -0.00000000000E+00 -0.00000000000E+00 -0.45593999997E+02  0.45594000000E+02  0.51100000000E-03 0.  1.
    9900012    2    1    2    0    0  0.29690410748E+02  0.27291980527E+02  0.51762149118E+01  0.50528857212E+02  0.29999991982E+02 0.  0.
         12    1    1    2    0    0 -0.29690410748E+02 -0.27291980527E+02 -0.51762149118E+01  0.40659142788E+02  0.00000000000E+00 0. -1.
         11    1    3    3    0    0  0.92541888289E+00  0.23057529075E+01  0.65253692596E+01  0.69823592584E+01  0.51100000000E-03 0. -1.
        -11    1    3    3    0    0  0.18315127788E+02  0.26336906756E+02 -0.48490661651E+01  0.32443643543E+02  0.51100000000E-03 0.  1.
        -12    1    3    3    0    0  0.10449864076E+02 -0.13506791368E+01  0.34999118174E+01  0.11102854411E+02  0.00000000000E+00 0.  1.
</event>
<event>
 7    1  0.2891523E-011  0.5052885E+02  0.7816164E-02  0.1300439E+00
        -11   -1    0    0    0    0  0.00000000000E+00  0.00000000000E+00  0.45593999997E+02  0.45594000000E+02  0.51100000000E-03 0. -1.
         11   -1    0    0    0    0 -0.00000000000E+00 -0.00000000000E+00 -0.45593999997E+02  0.45594000000E+02  0.51100000000E-03 0.  1.
    9900012    2    1    2    0    0  0.15459569320E+02 -0.37430341991E+02  0.36245629479E+01  0.50528852915E+02  0.29999978920E+02 0.  0.
         12    1    1    2    0    0 -0.15459569320E+02  0.37430341991E+02 -0.36245629479E+01  0.40659147085E+02  0.00000000000E+00 0. -1.
         11    1    3    3    0    0 -0.43179086212E+01 -0.25669684565E+02  0.55423257153E+01  0.26613801215E+02  0.51100000000E-03 0. -1.
        -11    1    3    3    0    0  0.39357842681E+01 -0.90595579589E+00 -0.24135074315E+01  0.47049093606E+01  0.51100000000E-03 0.  1.
         12    1    3    3    0    0  0.15841693673E+02 -0.10854701631E+02  0.49574466400E+00  0.19210142339E+02  0.00000000000E+00 0. -1.
</event>
<event>
 7    1  0.2891523E-011  0.5052885E+02  0.7816164E-02  0.1300439E+00
        -11   -1    0    0    0    0  0.00000000000E+00  0.00000000000E+00  0.45593999997E+02  0.45594000000E+02  0.51100000000E-03 0. -1.
         11   -1    0    0    0    0 -0.00000000000E+00 -0.00000000000E+00 -0.45593999997E+02  0.45594000000E+02  0.51100000000E-03 0.  1.
    9900012    2    1    2    0    0  0.26172043324E+02 -0.29906835153E+02 -0.85890454046E+01  0.50528851686E+02  0.29999975186E+02 0.  0.
         12    1    1    2    0    0 -0.26172043324E+02  0.29906835153E+02  0.85890454046E+01  0.40659148314E+02  0.00000000000E+00 0. -1.
         11    1    3    3    0    0  0.48144078821E+01  0.84150287413E+00 -0.61754976099E+00  0.49262580434E+01  0.51100000000E-03 0. -1.
        -11    1    3    3    0    0  0.14265881009E+02 -0.32308792042E+02 -0.69830093435E+00  0.35325076484E+02  0.51100000000E-03 0.  1.
        -12    1    3    3    0    0  0.70917544328E+01  0.15604540147E+01 -0.72731947093E+01  0.10277517159E+02  0.00000000000E+00 0.  1.
</event>
<event>
 7    1  0.2891523E-011  0.5052887E+02  0.7816164E-02  0.1300439E+00
        -11   -1    0    0    0    0  0.00000000000E+00  0.00000000000E+00  0.45593999997E+02  0.45594000000E+02  0.51100000000E-03 0.  1.
         11   -1    0    0    0    0 -0.00000000000E+00 -0.00000000000E+00 -0.45593999997E+02  0.45594000000E+02  0.51100000000E-03 0. -1.
    9900012    2    1    2    0    0 -0.18158691952E+02 -0.36037069662E+02 -0.49756034535E+01  0.50528866796E+02  0.30000021112E+02 0.  0.
         12    1    1    2    0    0  0.18158691952E+02  0.36037069662E+02  0.49756034535E+01  0.40659133204E+02  0.00000000000E+00 0. -1.
         11    1    3    3    0    0  0.64286301277E+01 -0.27934916952E+01  0.98843838694E+00  0.70786928084E+01  0.51100000000E-03 0. -1.
        -11    1    3    3    0    0 -0.23239167457E+02 -0.28141705941E+02 -0.86807505381E+01  0.37514929662E+02  0.51100000000E-03 0.  1.
        -12    1    3    3    0    0 -0.13481546225E+01 -0.51018720251E+01  0.27167086977E+01  0.59352443248E+01  0.00000000000E+00 0.  1.
</event>
<event>
 7    1  0.2891523E-011  0.5052886E+02  0.7816164E-02  0.1300439E+00
        -11   -1    0    0    0    0  0.00000000000E+00  0.00000000000E+00  0.45593999997E+02  0.45594000000E+02  0.51100000000E-03 0.  1.
         11   -1    0    0    0    0 -0.00000000000E+00 -0.00000000000E+00 -0.45593999997E+02  0.45594000000E+02  0.51100000000E-03 0. -1.
    9900012    2    1    2    0    0  0.19827636548E+02 -0.31441146843E+02  0.16476803171E+02  0.50528856765E+02  0.29999990623E+02 0.  0.
         12    1    1    2    0    0 -0.19827636548E+02  0.31441146843E+02 -0.16476803171E+02  0.40659143235E+02  0.00000000000E+00 0. -1.
         11    1    3    3    0    0  0.13026652136E+02 -0.31359667118E+02  0.19576250093E+02  0.39196325792E+02  0.51100000000E-03 0. -1.
        -11    1    3    3    0    0  0.54706760121E+01  0.23601293376E+01  0.13281140773E+01  0.61042930617E+01  0.51100000000E-03 0.  1.
         12    1    3    3    0    0  0.13303083991E+01 -0.24416090626E+01 -0.44275609995E+01  0.52282379111E+01  0.00000000000E+00 0. -1.
</event>
<event>
 7    1  0.2891523E-011  0.5052885E+02  0.7816164E-02  0.1300439E+00
        -11   -1    0    0    0    0  0.00000000000E+00  0.00000000000E+00  0.45593999997E+02  0.45594000000E+02  0.51100000000E-03 0. -1.
         11   -1    0    0    0    0 -0.00000000000E+00 -0.00000000000E+00 -0.45593999997E+02  0.45594000000E+02  0.51100000000E-03 0.  1.
    9900012    2    1    2    0    0  0.61746017915E+01  0.39404107185E+02 -0.78966293558E+01  0.50528854344E+02  0.29999983263E+02 0.  0.
         12    1    1    2    0    0 -0.61746017915E+01 -0.39404107185E+02  0.78966293558E+01  0.40659145656E+02  0.00000000000E+00 0. -1.
         11    1    3    3    0    0  0.75227145948E+01  0.11538245562E+00 -0.68137967500E+00  0.75543912070E+01  0.51100000000E-03 0. -1.
        -11    1    3    3    0    0  0.38605149406E+01  0.35384002793E+02 -0.43384731561E+01  0.35857406193E+02  0.51100000000E-03 0.  1.
        -12    1    3    3    0    0 -0.52086277439E+01  0.39047219361E+01 -0.28767765247E+01  0.71170569441E+01  0.00000000000E+00 0.  1.
</event>
<event>
 7    1  0.2891523E-011  0.5052885E+02  0.7816164E-02  0.1300439E+00
        -11   -1    0    0    0    0  0.00000000000E+00  0.00000000000E+00  0.45593999997E+02  0.45594000000E+02  0.51100000000E-03 0. -1.
         11   -1    0    0    0    0 -0.00000000000E+00 -0.00000000000E+00 -0.45593999997E+02  0.45594000000E+02  0.51100000000E-03 0.  1.
    9900012    2    1    2    0    0 -0.10560486332E+02 -0.19434431760E+02 -0.34116640661E+02  0.50528853681E+02  0.29999981248E+02 0.  0.
         12    1    1    2    0    0  0.10560486332E+02  0.19434431760E+02  0.34116640661E+02  0.40659146319E+02  0.00000000000E+00 0. -1.
         11    1    3    3    0    0 -0.15745521816E+02 -0.60622774055E+01 -0.12579691461E+02  0.21045695572E+02  0.51100000000E-03 0. -1.
        -11    1    3    3    0    0  0.74019561413E+00 -0.10548247870E+02 -0.21780351267E+02  0.24211508095E+02  0.51100000000E-03 0.  1.
         12    1    3    3    0    0  0.44448398695E+01 -0.28239064849E+01  0.24340206647E+00  0.52716500137E+01  0.00000000000E+00 0. -1.
</event>
<event>
 7    1  0.2891523E-011  0.5052886E+02  0.7816164E-02  0.1300439E+00
        -11   -1    0    0    0    0  0.00000000000E+00  0.00000000000E+00  0.45593999997E+02  0.45594000000E+02  0.51100000000E-03 0.  1.
         11   -1    0    0    0    0 -0.00000000000E+00 -0.00000000000E+00 -0.45593999997E+02  0.45594000000E+02  0.51100000000E-03 0. -1.
    9900012    2    1    2    0    0  0.36430035982E+02  0.72921948036E+01  0.16517936878E+02  0.50528857542E+02  0.29999992984E+02 0.  0.
         12    1    1    2    0    0 -0.36430035982E+02 -0.72921948036E+01 -0.16517936878E+02  0.40659142458E+02  0.00000000000E+00 0. -1.
         11    1    3    3    0    0  0.79517934792E-01 -0.44776410062E+01 -0.40152824355E+00  0.44963115188E+01  0.51100000000E-03 0. -1.
        -11    1    3    3    0    0  0.28676011179E+02  0.15388357676E+02  0.75814225353E+01  0.33415462544E+02  0.51100000000E-03 0.  1.
         12    1    3    3    0    0  0.76745068680E+01 -0.36185218665E+01  0.93380425863E+01  0.12617083479E+02  0.00000000000E+00 0. -1.
</event>
<event>
 7    1  0.2891523E-011  0.5052886E+02  0.7816164E-02  0.1300439E+00
        -11   -1    0    0    0    0  0.00000000000E+00  0.00000000000E+00  0.45593999997E+02  0.45594000000E+02  0.51100000000E-03 0. -1.
         11   -1    0    0    0    0 -0.00000000000E+00 -0.00000000000E+00 -0.45593999997E+02  0.45594000000E+02  0.51100000000E-03 0.  1.
    9900012    2    1    2    0    0  0.18207777679E+02 -0.36332170053E+02 -0.12710761047E+01  0.50528863471E+02  0.30000011007E+02 0.  0.
         12    1    1    2    0    0 -0.18207777679E+02  0.36332170053E+02  0.12710761047E+01  0.40659136529E+02  0.00000000000E+00 0. -1.
         11    1    3    3    0    0  0.39670663563E+00  0.21253884776E+01 -0.27345533140E+01  0.34860341971E+01  0.51100000000E-03 0. -1.
        -11    1    3    3    0    0  0.19511344517E+02 -0.36656695058E+02 -0.33176602659E+01  0.41658285218E+02  0.51100000000E-03 0.  1.
        -12    1    3    3    0    0 -0.17002734730E+01 -0.18008634732E+01  0.47811374753E+01  0.53845440559E+01  0.00000000000E+00 0.  1.
</event>
<event>
 7    1  0.2891523E-011  0.5052887E+02  0.7816164E-02  0.1300439E+00
        -11   -1    0    0    0    0  0.00000000000E+00  0.00000000000E+00  0.45593999997E+02  0.45594000000E+02  0.51100000000E-03 0. -1.
         11   -1    0    0    0    0 -0.00000000000E+00 -0.00000000000E+00 -0.45593999997E+02  0.45594000000E+02  0.51100000000E-03 0.  1.
    9900012    2    1    2    0    0  0.22451903452E+00 -0.30448035156E+02 -0.26944979722E+02  0.50528865899E+02  0.30000018386E+02 0.  0.
         12    1    1    2    0    0 -0.22451903452E+00  0.30448035156E+02  0.26944979722E+02  0.40659134101E+02  0.00000000000E+00 0. -1.
         11    1    3    3    0    0 -0.15792537461E+01  0.11894970907E+01  0.56977723353E-01  0.19779262993E+01  0.51100000000E-03 0. -1.
        -11    1    3    3    0    0  0.57978517354E+01 -0.28233552105E+02 -0.30716224115E+02  0.42121668692E+02  0.51100000000E-03 0.  1.
        -12    1    3    3    0    0 -0.39940789548E+01 -0.34039801423E+01  0.37142666705E+01  0.64292709078E+01  0.00000000000E+00 0.  1.
</event>
<event>
 7    1  0.2891523E-011  0.5052886E+02  0.7816164E-02  0.1300439E+00
        -11   -1    0    0    0    0  0.00000000000E+00  0.00000000000E+00  0.45593999997E+02  0.45594000000E+02  0.51100000000E-03 0.  1.
         11   -1    0    0    0    0 -0.00000000000E+00 -0.00000000000E+00 -0.45593999997E+02  0.45594000000E+02  0.51100000000E-03 0. -1.
    9900012    2    1    2    0    0  0.18056505659E+02 -0.33727260998E+02  0.13769524428E+02  0.50528864077E+02  0.30000012848E+02 0.  0.
         12    1    1    2    0    0 -0.18056505659E+02  0.33727260998E+02 -0.13769524428E+02  0.40659135923E+02  0.00000000000E+00 0. -1.
         11    1    3    3    0    0  0.28930623210E+01 -0.12892929574E+02 -0.14092744075E+01  0.13288472343E+02  0.51100000000E-03 0. -1.
        -11    1    3    3    0    0  0.30727178881E+01 -0.16801045330E+02  0.17309986303E+02  0.24317737261E+02  0.51100000000E-03 0.  1.
        -12    1    3    3    0    0  0.12090725450E+02 -0.40332860948E+01 -0.21311874682E+01  0.12922654474E+02  0.00000000000E+00 0.  1.
</event>
<event>
 7    1  0.2891523E-011  0.5052883E+02  0.7816164E-02  0.1300439E+00
        -11   -1    0    0    0    0  0.00000000000E+00  0.00000000000E+00  0.45593999997E+02  0.45594000000E+02  0.51100000000E-03 0.  1.
         11   -1    0    0    0    0 -0.00000000000E+00 -0.00000000000E+00 -0.45593999997E+02  0.45594000000E+02  0.51100000000E-03 0. -1.
    9900012    2    1    2    0    0 -0.33167117323E+02 -0.21939100399E+02  0.84726588270E+01  0.50528834422E+02  0.29999922711E+02 0.  0.
         12    1    1    2    0    0  0.33167117323E+02  0.21939100399E+02 -0.84726588270E+01  0.40659165578E+02  0.00000000000E+00 0. -1.
         11    1    3    3    0    0 -0.23656272722E+02 -0.17577177498E+02  0.86619582123E+01  0.30718169351E+02  0.51100000000E-03 0. -1.
        -11    1    3    3    0    0  0.99826341297E+00  0.43009158178E+00  0.64145166904E+01  0.65059613620E+01  0.51100000000E-03 0.  1.
         12    1    3    3    0    0 -0.10509108014E+02 -0.47920144832E+01 -0.66038160757E+01  0.13304703710E+02  0.00000000000E+00 0. -1.
</event>
<event>
 7    1  0.2891523E-011  0.5052887E+02  0.7816164E-02  0.1300439E+00
        -11   -1    0    0    0    0  0.00000000000E+00  0.00000000000E+00  0.45593999997E+02  0.45594000000E+02  0.51100000000E-03 0. -1.
         11   -1    0    0    0    0 -0.00000000000E+00 -0.00000000000E+00 -0.45593999997E+02  0.45594000000E+02  0.51100000000E-03 0.  1.
    9900012    2    1    2    0    0  0.12566901242E+00  0.28493456141E+02  0.29004688397E+02  0.50528870833E+02  0.30000033385E+02 0.  0.
         12    1    1    2    0    0 -0.12566901242E+00 -0.28493456141E+02 -0.29004688397E+02  0.40659129167E+02  0.00000000000E+00 0. -1.
         11    1    3    3    0    0 -0.91401643927E+01  0.94748828329E+01 -0.13596736679E+01  0.13234981019E+02  0.51100000000E-03 0.  1.
        -11    1    3    3    0    0  0.18418168277E+01  0.81655578995E+01  0.13862657858E+02  0.16193884901E+02  0.51100000000E-03 0. -1.
        -12    1    3    3    0    0  0.74240165774E+01  0.10853015409E+02  0.16501704207E+02  0.21100004913E+02  0.00000000000E+00 0.  1.
</event>
<event>
 7    1  0.2891523E-011  0.5052886E+02  0.7816164E-02  0.1300439E+00
        -11   -1    0    0    0    0  0.00000000000E+00  0.00000000000E+00  0.45593999997E+02  0.45594000000E+02  0.51100000000E-03 0. -1.
         11   -1    0    0    0    0 -0.00000000000E+00 -0.00000000000E+00 -0.45593999997E+02  0.45594000000E+02  0.51100000000E-03 0.  1.
    9900012    2    1    2    0    0  0.22594509394E+02 -0.25417682207E+02 -0.22284420115E+02  0.50528858305E+02  0.29999995304E+02 0.  0.
         12    1    1    2    0    0 -0.22594509394E+02  0.25417682207E+02  0.22284420115E+02  0.40659141695E+02  0.00000000000E+00 0. -1.
         11    1    3    3    0    0  0.20151138399E+02 -0.12773203227E+02 -0.25037771183E+01  0.23989414323E+02  0.51100000000E-03 0. -1.
        -11    1    3    3    0    0 -0.19046248711E+01 -0.43751452659E+01 -0.12158366016E+00  0.47732876348E+01  0.51100000000E-03 0.  1.
         12    1    3    3    0    0  0.43479958661E+01 -0.82693337137E+01 -0.19659059336E+02  0.21766156347E+02  0.00000000000E+00 0. -1.
</event>
<event>
 7    1  0.2891523E-011  0.5052886E+02  0.7816164E-02  0.1300439E+00
        -11   -1    0    0    0    0  0.00000000000E+00  0.00000000000E+00  0.45593999997E+02  0.45594000000E+02  0.51100000000E-03 0.  1.
         11   -1    0    0    0    0 -0.00000000000E+00 -0.00000000000E+00 -0.45593999997E+02  0.45594000000E+02  0.51100000000E-03 0. -1.
    9900012    2    1    2    0    0 -0.50197875912E+01 -0.18437463842E+02  0.35889092905E+02  0.50528864127E+02  0.30000013000E+02 0.  0.
         12    1    1    2    0    0  0.50197875912E+01  0.18437463842E+02 -0.35889092905E+02  0.40659135873E+02  0.00000000000E+00 0. -1.
         11    1    3    3    0    0 -0.27589969380E+01 -0.13555311606E+01  0.22691389486E+00  0.30823723020E+01  0.51100000000E-03 0. -1.
        -11    1    3    3    0    0 -0.50684937758E+01 -0.29565262705E+00  0.28554714525E+02  0.29002564740E+02  0.51100000000E-03 0.  1.
        -12    1    3    3    0    0  0.28077031226E+01 -0.16786280055E+02  0.71074644849E+01  0.18443927085E+02  0.00000000000E+00 0.  1.
</event>
<event>
 7    1  0.2891523E-011  0.5052885E+02  0.7816164E-02  0.1300439E+00
        -11   -1    0    0    0    0  0.00000000000E+00  0.00000000000E+00  0.45593999997E+02  0.45594000000E+02  0.51100000000E-03 0.  1.
         11   -1    0    0    0    0 -0.00000000000E+00 -0.00000000000E+00 -0.45593999997E+02  0.45594000000E+02  0.51100000000E-03 0. -1.
    9900012    2    1    2    0    0 -0.33826984908E+02  0.31740992220E+01  0.22334429934E+02  0.50528848824E+02  0.29999966486E+02 0.  0.
         12    1    1    2    0    0  0.33826984908E+02 -0.31740992220E+01 -0.22334429934E+02  0.40659151176E+02  0.00000000000E+00 0. -1.
         11    1    3    3    0    0 -0.15039758815E+01  0.23183725565E+01 -0.61789377415E+01  0.67687566537E+01  0.51100000000E-03 0. -1.
        -11    1    3    3    0    0 -0.42455914175E+01  0.19587024586E+01  0.67847502697E+01  0.82398057191E+01  0.51100000000E-03 0.  1.
         12    1    3    3    0    0 -0.28077417609E+02 -0.11029757931E+01  0.21728617406E+02  0.35520286451E+02  0.00000000000E+00 0. -1.
</event>
<event>
 7    1  0.2891523E-011  0.5052886E+02  0.7816164E-02  0.1300439E+00
        -11   -1    0    0    0    0  0.00000000000E+00  0.00000000000E+00  0.45593999997E+02  0.45594000000E+02  0.51100000000E-03 0.  1.
         11   -1    0    0    0    0 -0.00000000000E+00 -0.00000000000E+00 -0.45593999997E+02  0.45594000000E+02  0.51100000000E-03 0. -1.
    9900012    2    1    2    0    0  0.38857332540E+02 -0.10280090132E+02  0.61313364194E+01  0.50528857958E+02  0.29999994250E+02 0.  0.
         12    1    1    2    0    0 -0.38857332540E+02  0.10280090132E+02 -0.61313364194E+01  0.40659142042E+02  0.00000000000E+00 0. -1.
         11    1    3    3    0    0  0.13368970235E+02 -0.61567017399E+00  0.14764633571E+02  0.19927438864E+02  0.51100000000E-03 0. -1.
        -11    1    3    3    0    0  0.18857384976E+02 -0.10700805721E+02 -0.97921318051E+01  0.23790629600E+02  0.51100000000E-03 0.  1.
        -12    1    3    3    0    0  0.66309773291E+01  0.10363857624E+01  0.11588346531E+01  0.68107894947E+01  0.00000000000E+00 0.  1.
</event>
<event>
 7    1  0.2891523E-011  0.5052886E+02  0.7816164E-02  0.1300439E+00
        -11   -1    0    0    0    0  0.00000000000E+00  0.00000000000E+00  0.45593999997E+02  0.45594000000E+02  0.51100000000E-03 0. -1.
         11   -1    0    0    0    0 -0.00000000000E+00 -0.00000000000E+00 -0.45593999997E+02  0.45594000000E+02  0.51100000000E-03 0.  1.
    9900012    2    1    2    0    0  0.19937164592E+02 -0.18608279168E+02 -0.30156373655E+02  0.50528862557E+02  0.30000008229E+02 0.  0.
         12    1    1    2    0    0 -0.19937164592E+02  0.18608279168E+02  0.30156373655E+02  0.40659137443E+02  0.00000000000E+00 0. -1.
         11    1    3    3    0    0  0.18717817419E+01 -0.12398932098E+02 -0.28873970816E+01  0.12867561782E+02  0.51100000000E-03 0. -1.
        -11    1    3    3    0    0  0.15130072427E+02  0.33720877174E+01 -0.19887717432E+02  0.25215300358E+02  0.51100000000E-03 0.  1.
        -12    1    3    3    0    0  0.29353104229E+01 -0.95814347881E+01 -0.73812591409E+01  0.12446000417E+02  0.00000000000E+00 0.  1.
</event>
<event>
 7    1  0.2891523E-011  0.5052886E+02  0.7816164E-02  0.1300439E+00
        -11   -1    0    0    0    0  0.00000000000E+00  0.00000000000E+00  0.45593999997E+02  0.45594000000E+02  0.51100000000E-03 0.  1.
         11   -1    0    0    0    0 -0.00000000000E+00 -0.00000000000E+00 -0.45593999997E+02  0.45594000000E+02  0.51100000000E-03 0. -1.
    9900012    2    1    2    0    0  0.14947175518E+02  0.31015070822E+02  0.21628987205E+02  0.50528858818E+02  0.29999996864E+02 0.  0.
         12    1    1    2    0    0 -0.14947175518E+02 -0.31015070822E+02 -0.21628987205E+02  0.40659141182E+02  0.00000000000E+00 0. -1.
         11    1    3    3    0    0  0.77596457813E+00  0.32285227740E+01 -0.38080037113E+00  0.33422282257E+01  0.51100000000E-03 0. -1.
        -11    1    3    3    0    0  0.41291700555E+01  0.29037334304E+02  0.89493013803E+01  0.30664422778E+02  0.51100000000E-03 0.  1.
        -12    1    3    3    0    0  0.10042040885E+02 -0.12507862561E+01  0.13060486196E+02  0.16522207815E+02  0.00000000000E+00 0.  1.
</event>
<event>
 7    1  0.2891523E-011  0.5052886E+02  0.7816164E-02  0.1300439E+00
        -11   -1    0    0    0    0  0.00000000000E+00  0.00000000000E+00  0.45593999997E+02  0.45594000000E+02  0.51100000000E-03 0.  1.
         11   -1    0    0    0    0 -0.00000000000E+00 -0.00000000000E+00 -0.45593999997E+02  0.45594000000E+02  0.51100000000E-03 0. -1.
    9900012    2    1    2    0    0 -0.71132409065E+01  0.98341693654E+01  0.38805369188E+02  0.50528858825E+02  0.29999996883E+02 0.  0.
         12    1    1    2    0    0  0.71132409065E+01 -0.98341693654E+01 -0.38805369188E+02  0.40659141175E+02  0.00000000000E+00 0. -1.
         11    1    3    3    0    0  0.85787488807E+01  0.38777926737E+01  0.71446370262E+01  0.11818546733E+02  0.51100000000E-03 0. -1.
        -11    1    3    3    0    0 -0.11029364173E+02  0.10439719766E+02  0.26021090284E+02  0.30128587134E+02  0.51100000000E-03 0.  1.
        -12    1    3    3    0    0 -0.46626256143E+01 -0.44833430743E+01  0.56396418778E+01  0.85817249578E+01  0.00000000000E+00 0.  1.
</event>
<event>
 7    1  0.2891523E-011  0.5052886E+02  0.7816164E-02  0.1300439E+00
        -11   -1    0    0    0    0  0.00000000000E+00  0.00000000000E+00  0.45593999997E+02  0.45594000000E+02  0.51100000000E-03 0.  1.
         11   -1    0    0    0    0 -0.00000000000E+00 -0.00000000000E+00 -0.45593999997E+02  0.45594000000E+02  0.51100000000E-03 0. -1.
    9900012    2    1    2    0    0  0.23139116853E+01  0.40472267219E+02 -0.31316869565E+01  0.50528855096E+02  0.29999985550E+02 0.  0.
         12    1    1    2    0    0 -0.23139116853E+01 -0.40472267219E+02  0.31316869565E+01  0.40659144904E+02  0.00000000000E+00 0. -1.
         11    1    3    3    0    0  0.26641929079E+01  0.30823897828E+00  0.57419273911E+01  0.63374021132E+01  0.51100000000E-03 0. -1.
        -11    1    3    3    0    0 -0.70797910926E+01  0.24386563416E+02 -0.12593203371E+01  0.25424669224E+02  0.51100000000E-03 0.  1.
         12    1    3    3    0    0  0.67295098699E+01  0.15777464824E+02 -0.76142940105E+01  0.18766783759E+02  0.00000000000E+00 0. -1.
</event>
<event>
 7    1  0.2891523E-011  0.5052886E+02  0.7816164E-02  0.1300439E+00
        -11   -1    0    0    0    0  0.00000000000E+00  0.00000000000E+00  0.45593999997E+02  0.45594000000E+02  0.51100000000E-03 0.  1.
         11   -1    0    0    0    0 -0.00000000000E+00 -0.00000000000E+00 -0.45593999997E+02  0.45594000000E+02  0.51100000000E-03 0. -1.
    9900012    2    1    2    0    0 -0.18858472681E+02 -0.24302817193E+02  0.26587528944E+02  0.50528860674E+02  0.30000002504E+02 0.  0.
         12    1    1    2    0    0  0.18858472681E+02  0.24302817193E+02 -0.26587528944E+02  0.40659139326E+02  0.00000000000E+00 0. -1.
         11    1    3    3    0    0 -0.47206879455E+01  0.59876523911E+01  0.65991503297E+01  0.10083930839E+02  0.51100000000E-03 0. -1.
        -11    1    3    3    0    0 -0.68117277225E+01 -0.23959836914E+02  0.17517724560E+02  0.30452324928E+02  0.51100000000E-03 0.  1.
         12    1    3    3    0    0 -0.73260570128E+01 -0.63306326698E+01  0.24706540551E+01  0.99926049064E+01  0.00000000000E+00 0. -1.
</event>
<event>
 7    1  0.2891523E-011  0.5052884E+02  0.7816164E-02  0.1300439E+00
        -11   -1    0    0    0    0  0.00000000000E+00  0.00000000000E+00  0.45593999997E+02  0.45594000000E+02  0.51100000000E-03 0. -1.
         11   -1    0    0    0    0 -0.00000000000E+00 -0.00000000000E+00 -0.45593999997E+02  0.45594000000E+02  0.51100000000E-03 0.  1.
    9900012    2    1    2    0    0  0.20571630333E+01 -0.25875655638E+02 -0.31295143836E+02  0.50528837415E+02  0.29999931805E+02 0.  0.
         12    1    1    2    0    0 -0.20571630333E+01  0.25875655638E+02  0.31295143836E+02  0.40659162585E+02  0.00000000000E+00 0. -1.
         11    1    3    3    0    0 -0.55691209415E+01 -0.12593279721E+02 -0.15334788300E+02  0.20609743682E+02  0.51100000000E-03 0. -1.
        -11    1    3    3    0    0  0.11293967753E+02 -0.12289908375E+02 -0.18826185541E+02  0.25159904963E+02  0.51100000000E-03 0.  1.
         12    1    3    3    0    0 -0.36676837777E+01 -0.99246754237E+00  0.28658300057E+01  0.47591887688E+01  0.00000000000E+00 0. -1.
</event>
<event>
 7    1  0.2891523E-011  0.5052886E+02  0.7816164E-02  0.1300439E+00
        -11   -1    0    0    0    0  0.00000000000E+00  0.00000000000E+00  0.45593999997E+02  0.45594000000E+02  0.51100000000E-03 0. -1.
         11   -1    0    0    0    0 -0.00000000000E+00 -0.00000000000E+00 -0.45593999997E+02  0.45594000000E+02  0.51100000000E-03 0.  1.
    9900012    2    1    2    0    0  0.10833043616E+02 -0.39184688766E+02  0.60909199817E+00  0.50528860059E+02  0.30000000635E+02 0.  0.
         12    1    1    2    0    0 -0.10833043616E+02  0.39184688766E+02 -0.60909199817E+00  0.40659139941E+02  0.00000000000E+00 0. -1.
         11    1    3    3    0    0  0.13013935715E+01 -0.11299962225E+02  0.43436816445E+01  0.12175809706E+02  0.51100000000E-03 0. -1.
        -11    1    3    3    0    0 -0.61219950805E+01 -0.36645810726E+01 -0.61418607670E+01  0.94143736990E+01  0.51100000000E-03 0.  1.
        -12    1    3    3    0    0  0.15653645125E+02 -0.24220145469E+02  0.24072711207E+01  0.28938676654E+02  0.00000000000E+00 0.  1.
</event>
<event>
 7    1  0.2891523E-011  0.5052886E+02  0.7816164E-02  0.1300439E+00
        -11   -1    0    0    0    0  0.00000000000E+00  0.00000000000E+00  0.45593999997E+02  0.45594000000E+02  0.51100000000E-03 0. -1.
         11   -1    0    0    0    0 -0.00000000000E+00 -0.00000000000E+00 -0.45593999997E+02  0.45594000000E+02  0.51100000000E-03 0.  1.
    9900012    2    1    2    0    0  0.19947714647E+02 -0.19300692696E+02 -0.29710904900E+02  0.50528856770E+02  0.29999990638E+02 0.  0.
         12    1    1    2    0    0 -0.19947714647E+02  0.19300692696E+02  0.29710904900E+02  0.40659143230E+02  0.00000000000E+00 0. -1.
         11    1    3    3    0    0  0.18589552443E+02 -0.53562328020E+01 -0.78170700657E+01  0.20865456490E+02  0.51100000000E-03 0. -1.
        -11    1    3    3    0    0 -0.25068338439E+01  0.73922762950E+00 -0.10112999858E+02  0.10445259202E+02  0.51100000000E-03 0.  1.
        -12    1    3    3    0    0  0.38649960479E+01 -0.14683687523E+02 -0.11780834976E+02  0.19218141077E+02  0.00000000000E+00 0.  1.
</event>
<event>
 7    1  0.2891523E-011  0.5052885E+02  0.7816164E-02  0.1300439E+00
        -11   -1    0    0    0    0  0.00000000000E+00  0.00000000000E+00  0.45593999997E+02  0.45594000000E+02  0.51100000000E-03 0.  1.
         11   -1    0    0    0    0 -0.00000000000E+00 -0.00000000000E+00 -0.45593999997E+02  0.45594000000E+02  0.51100000000E-03 0. -1.
    9900012    2    1    2    0    0 -0.24964874475E+02  0.12150376231E+02  0.29703359653E+02  0.50528853737E+02  0.29999981420E+02 0.  0.
         12    1    1    2    0    0  0.24964874475E+02 -0.12150376231E+02 -0.29703359653E+02  0.40659146263E+02  0.00000000000E+00 0. -1.
         11    1    3    3    0    0 -0.70895977117E+00  0.64249253300E+00 -0.42836966101E+01  0.43892456665E+01  0.51100000000E-03 0. -1.
        -11    1    3    3    0    0 -0.62640807522E+01 -0.22994946570E+01  0.15516531739E+02  0.16890504457E+02  0.51100000000E-03 0.  1.
         12    1    3    3    0    0 -0.17991833952E+02  0.13807378355E+02  0.18470524524E+02  0.29249103613E+02  0.00000000000E+00 0. -1.
</event>
<event>
 7    1  0.2891523E-011  0.5052884E+02  0.7816164E-02  0.1300439E+00
        -11   -1    0    0    0    0  0.00000000000E+00  0.00000000000E+00  0.45593999997E+02  0.45594000000E+02  0.51100000000E-03 0.  1.
         11   -1    0    0    0    0 -0.00000000000E+00 -0.00000000000E+00 -0.45593999997E+02  0.45594000000E+02  0.51100000000E-03 0. -1.
    9900012    2    1    2    0    0  0.30639651443E+02 -0.18965200218E+02  0.18833495452E+02  0.50528836079E+02  0.29999927745E+02 0.  0.
         12    1    1    2    0    0 -0.30639651443E+02  0.18965200218E+02 -0.18833495452E+02  0.40659163921E+02  0.00000000000E+00 0. -1.
         11    1    3    3    0    0 -0.16411815434E+01  0.27784663859E+01 -0.26129531176E+00  0.32375342187E+01  0.51100000000E-03 0. -1.
        -11    1    3    3    0    0  0.26543676917E+02 -0.17213008980E+02  0.22895439402E+02  0.39051960362E+02  0.51100000000E-03 0.  1.
        -12    1    3    3    0    0  0.57371560691E+01 -0.45306576233E+01 -0.38006486379E+01  0.82393414985E+01  0.00000000000E+00 0.  1.
</event>
<event>
 7    1  0.2891523E-011  0.5052887E+02  0.7816164E-02  0.1300439E+00
        -11   -1    0    0    0    0  0.00000000000E+00  0.00000000000E+00  0.45593999997E+02  0.45594000000E+02  0.51100000000E-03 0. -1.
         11   -1    0    0    0    0 -0.00000000000E+00 -0.00000000000E+00 -0.45593999997E+02  0.45594000000E+02  0.51100000000E-03 0.  1.
    9900012    2    1    2    0    0 -0.45401735562E+01 -0.32360947284E+02 -0.24193407724E+02  0.50528867417E+02  0.30000023002E+02 0.  0.
         12    1    1    2    0    0  0.45401735562E+01  0.32360947284E+02  0.24193407724E+02  0.40659132583E+02  0.00000000000E+00 0. -1.
         11    1    3    3    0    0 -0.35691393255E+01  0.39260735688E+01 -0.19012034455E-02  0.53059224522E+01  0.51100000000E-03 0. -1.
        -11    1    3    3    0    0  0.49108034353E+01 -0.88116800895E+01 -0.57076130384E+01  0.11590450519E+02  0.51100000000E-03 0.  1.
         12    1    3    3    0    0 -0.58818376659E+01 -0.27475340763E+02 -0.18483893483E+02  0.33632494446E+02  0.00000000000E+00 0. -1.
</event>
<event>
 7    1  0.2891523E-011  0.5052886E+02  0.7816164E-02  0.1300439E+00
        -11   -1    0    0    0    0  0.00000000000E+00  0.00000000000E+00  0.45593999997E+02  0.45594000000E+02  0.51100000000E-03 0.  1.
         11   -1    0    0    0    0 -0.00000000000E+00 -0.00000000000E+00 -0.45593999997E+02  0.45594000000E+02  0.51100000000E-03 0. -1.
    9900012    2    1    2    0    0 -0.67183420450E+01  0.28964275595E+02  0.27732653218E+02  0.50528862833E+02  0.30000009068E+02 0.  0.
         12    1    1    2    0    0  0.67183420450E+01 -0.28964275595E+02 -0.27732653218E+02  0.40659137167E+02  0.00000000000E+00 0. -1.
         11    1    3    3    0    0 -0.48328893452E+01 -0.37770973308E+01  0.13697102995E+01  0.62848540345E+01  0.51100000000E-03 0. -1.
        -11    1    3    3    0    0 -0.77513911621E+01  0.21042855909E+02  0.17362318619E+02  0.28360817299E+02  0.51100000000E-03 0.  1.
         12    1    3    3    0    0  0.58659384623E+01  0.11698517017E+02  0.90006242996E+01  0.15883191500E+02  0.00000000000E+00 0. -1.
</event>
<event>
 7    1  0.2891523E-011  0.5052885E+02  0.7816164E-02  0.1300439E+00
        -11   -1    0    0    0    0  0.00000000000E+00  0.00000000000E+00  0.45593999997E+02  0.45594000000E+02  0.51100000000E-03 0. -1.
         11   -1    0    0    0    0 -0.00000000000E+00 -0.00000000000E+00 -0.45593999997E+02  0.45594000000E+02  0.51100000000E-03 0.  1.
    9900012    2    1    2    0    0 -0.35848528459E+02  0.13782156867E+01 -0.19135037024E+02  0.50528854497E+02  0.29999983728E+02 0.  0.
         12    1    1    2    0    0  0.35848528459E+02 -0.13782156867E+01  0.19135037024E+02  0.40659145503E+02  0.00000000000E+00 0. -1.
         11    1    3    3    0    0 -0.66438227976E+01 -0.83204211315E+01 -0.29220038526E+01  0.11041190875E+02  0.51100000000E-03 0. -1.
        -11    1    3    3    0    0 -0.31626712975E+02  0.76530343348E+01 -0.16126018926E+02  0.36316200170E+02  0.51100000000E-03 0.  1.
        -12    1    3    3    0    0  0.24220073132E+01  0.20456024834E+01 -0.87014245795E-01  0.31714634515E+01  0.00000000000E+00 0.  1.
</event>
<event>
 7    1  0.2891523E-011  0.5052890E+02  0.7816164E-02  0.1300439E+00
        -11   -1    0    0    0    0  0.00000000000E+00  0.00000000000E+00  0.45593999997E+02  0.45594000000E+02  0.51100000000E-03 0.  1.
         11   -1    0    0    0    0 -0.00000000000E+00 -0.00000000000E+00 -0.45593999997E+02  0.45594000000E+02  0.51100000000E-03 0. -1.
    9900012    2    1    2    0    0 -0.24707562373E+02 -0.17625909020E+02  0.27055982921E+02  0.50528898694E+02  0.30000118070E+02 0.  0.
         12    1    1    2    0    0  0.24707562373E+02  0.17625909020E+02 -0.27055982921E+02  0.40659101306E+02  0.00000000000E+00 0. -1.
         11    1    3    3    0    0 -0.24643832117E+01  0.14157667378E+01 -0.14655040960E+01  0.31976995773E+01  0.51100000000E-03 0. -1.
        -11    1    3    3    0    0 -0.83242581884E+01 -0.21986700839E+02  0.18759887370E+02  0.30077261553E+02  0.51100000000E-03 0.  1.
        -12    1    3    3    0    0 -0.13918920973E+02  0.29450250804E+01  0.97615996473E+01  0.17253937563E+02  0.00000000000E+00 0.  1.
</event>
<event>
 7    1  0.2891523E-011  0.5052887E+02  0.7816164E-02  0.1300439E+00
        -11   -1    0    0    0    0  0.00000000000E+00  0.00000000000E+00  0.45593999997E+02  0.45594000000E+02  0.51100000000E-03 0. -1.
         11   -1    0    0    0    0 -0.00000000000E+00 -0.00000000000E+00 -0.45593999997E+02  0.45594000000E+02  0.51100000000E-03 0.  1.
    9900012    2    1    2    0    0 -0.21914926158E+02 -0.10626040759E+02 -0.32557460315E+02  0.50528868764E+02  0.30000027096E+02 0.  0.
         12    1    1    2    0    0  0.21914926158E+02  0.10626040759E+02  0.32557460315E+02  0.40659131236E+02  0.00000000000E+00 0. -1.
         11    1    3    3    0    0 -0.50631543154E+01 -0.10256993713E+02 -0.87350275835E+01  0.14392434082E+02  0.51100000000E-03 0. -1.
        -11    1    3    3    0    0 -0.53131839891E+01  0.10162735583E+02 -0.11482773264E+02  0.16228530455E+02  0.51100000000E-03 0.  1.
        -12    1    3    3    0    0 -0.11538587853E+02 -0.10531782629E+02 -0.12339659467E+02  0.19907904228E+02  0.00000000000E+00 0.  1.
</event>
<event>
 7    1  0.2891523E-011  0.5052891E+02  0.7816164E-02  0.1300439E+00
        -11   -1    0    0    0    0  0.00000000000E+00  0.00000000000E+00  0.45593999997E+02  0.45594000000E+02  0.51100000000E-03 0.  1.
         11   -1    0    0    0    0 -0.00000000000E+00 -0.00000000000E+00 -0.45593999997E+02  0.45594000000E+02  0.51100000000E-03 0. -1.
    9900012    2    1    2    0    0 -0.29416725337E+02 -0.27220195584E+02 -0.68468364787E+01  0.50528905729E+02  0.30000139452E+02 0.  0.
         12    1    1    2    0    0  0.29416725337E+02  0.27220195584E+02  0.68468364787E+01  0.40659094271E+02  0.00000000000E+00 0. -1.
         11    1    3    3    0    0  0.49860462632E+00 -0.63504683282E+01  0.62463782194E+00  0.64005646024E+01  0.51100000000E-03 0. -1.
        -11    1    3    3    0    0 -0.30094461073E+02 -0.21787886464E+02 -0.56405299738E+00  0.37157862423E+02  0.51100000000E-03 0.  1.
        -12    1    3    3    0    0  0.17913110913E+00  0.91815920793E+00 -0.69074213032E+01  0.69704787028E+01  0.00000000000E+00 0.  1.
</event>
<event>
 7    1  0.2891523E-011  0.5052886E+02  0.7816164E-02  0.1300439E+00
        -11   -1    0    0    0    0  0.00000000000E+00  0.00000000000E+00  0.45593999997E+02  0.45594000000E+02  0.51100000000E-03 0. -1.
         11   -1    0    0    0    0 -0.00000000000E+00 -0.00000000000E+00 -0.45593999997E+02  0.45594000000E+02  0.51100000000E-03 0.  1.
    9900012    2    1    2    0    0 -0.34825899938E+02 -0.20972288746E+02 -0.69678155012E+00  0.50528859499E+02  0.29999998933E+02 0.  0.
         12    1    1    2    0    0  0.34825899938E+02  0.20972288746E+02  0.69678155012E+00  0.40659140501E+02  0.00000000000E+00 0. -1.
         11    1    3    3    0    0 -0.35417923054E+01  0.52468855254E+01  0.28773609348E+01  0.69536541948E+01  0.51100000000E-03 0. -1.
        -11    1    3    3    0    0 -0.26805175582E+02 -0.22282659302E+02  0.26471281046E+01  0.34957712039E+02  0.51100000000E-03 0.  1.
        -12    1    3    3    0    0 -0.44789320509E+01 -0.39365149701E+01 -0.62212705895E+01  0.86174932651E+01  0.00000000000E+00 0.  1.
</event>
<event>
 7    1  0.2891523E-011  0.5052887E+02  0.7816164E-02  0.1300439E+00
        -11   -1    0    0    0    0  0.00000000000E+00  0.00000000000E+00  0.45593999997E+02  0.45594000000E+02  0.51100000000E-03 0.  1.
         11   -1    0    0    0    0 -0.00000000000E+00 -0.00000000000E+00 -0.45593999997E+02  0.45594000000E+02  0.51100000000E-03 0. -1.
    9900012    2    1    2    0    0 -0.36106943655E+02 -0.14858670342E+02 -0.11343433261E+02  0.50528868891E+02  0.30000027481E+02 0.  0.
         12    1    1    2    0    0  0.36106943655E+02  0.14858670342E+02  0.11343433261E+02  0.40659131109E+02  0.00000000000E+00 0. -1.
         11    1    3    3    0    0 -0.57423018643E+01  0.49799840251E+01 -0.47533274543E+01  0.89648420923E+01  0.51100000000E-03 0. -1.
        -11    1    3    3    0    0 -0.10298684316E+02 -0.14677659967E+02  0.38867071330E+01  0.18346746124E+02  0.51100000000E-03 0.  1.
        -12    1    3    3    0    0 -0.20065957474E+02 -0.51609943999E+01 -0.10476812940E+02  0.23217280674E+02  0.00000000000E+00 0.  1.
</event>
<event>
 7    1  0.2891523E-011  0.5052886E+02  0.7816164E-02  0.1300439E+00
        -11   -1    0    0    0    0  0.00000000000E+00  0.00000000000E+00  0.45593999997E+02  0.45594000000E+02  0.51100000000E-03 0. -1.
         11   -1    0    0    0    0 -0.00000000000E+00 -0.00000000000E+00 -0.45593999997E+02  0.45594000000E+02  0.51100000000E-03 0.  1.
    9900012    2    1    2    0    0  0.17903526336E+02  0.34541954068E+02 -0.11810288099E+02  0.50528858948E+02  0.29999997259E+02 0.  0.
         12    1    1    2    0    0 -0.17903526336E+02 -0.34541954068E+02  0.11810288099E+02  0.40659141052E+02  0.00000000000E+00 0. -1.
         11    1    3    3    0    0  0.16664799193E+02  0.27534989605E+02  0.14043541142E+01  0.32215887314E+02  0.51100000000E-03 0. -1.
        -11    1    3    3    0    0  0.22368795280E+00  0.86521345551E+01 -0.52627032363E+01  0.10129438004E+02  0.51100000000E-03 0.  1.
         12    1    3    3    0    0  0.10150391907E+01 -0.16451700922E+01 -0.79519389773E+01  0.81835336310E+01  0.00000000000E+00 0. -1.
</event>
<event>
 7    1  0.2891523E-011  0.5052886E+02  0.7816164E-02  0.1300439E+00
        -11   -1    0    0    0    0  0.00000000000E+00  0.00000000000E+00  0.45593999997E+02  0.45594000000E+02  0.51100000000E-03 0.  1.
         11   -1    0    0    0    0 -0.00000000000E+00 -0.00000000000E+00 -0.45593999997E+02  0.45594000000E+02  0.51100000000E-03 0. -1.
    9900012    2    1    2    0    0  0.34053184210E+02  0.18742366964E+02 -0.11927684860E+02  0.50528863998E+02  0.30000012610E+02 0.  0.
         12    1    1    2    0    0 -0.34053184210E+02 -0.18742366964E+02  0.11927684860E+02  0.40659136002E+02  0.00000000000E+00 0. -1.
         11    1    3    3    0    0 -0.24338122712E+00 -0.26467238272E+01  0.98417617801E+00  0.28342520088E+01  0.51100000000E-03 0. -1.
        -11    1    3    3    0    0  0.35443754981E+02  0.13786571397E+02 -0.90590612403E+01  0.39094704358E+02  0.51100000000E-03 0.  1.
        -12    1    3    3    0    0 -0.11471895434E+01  0.76025193948E+01 -0.38527997980E+01  0.85999076321E+01  0.00000000000E+00 0.  1.
</event>
<event>
 7    1  0.2891523E-011  0.5052886E+02  0.7816164E-02  0.1300439E+00
        -11   -1    0    0    0    0  0.00000000000E+00  0.00000000000E+00  0.45593999997E+02  0.45594000000E+02  0.51100000000E-03 0.  1.
         11   -1    0    0    0    0 -0.00000000000E+00 -0.00000000000E+00 -0.45593999997E+02  0.45594000000E+02  0.51100000000E-03 0. -1.
    9900012    2    1    2    0    0  0.19686989291E+02 -0.27616589859E+02  0.22425709541E+02  0.50528855503E+02  0.29999986788E+02 0.  0.
         12    1    1    2    0    0 -0.19686989291E+02  0.27616589859E+02 -0.22425709541E+02  0.40659144497E+02  0.00000000000E+00 0. -1.
         11    1    3    3    0    0 -0.52554183871E+00 -0.59732449761E+01 -0.39817691092E+01  0.71979396544E+01  0.51100000000E-03 0. -1.
        -11    1    3    3    0    0  0.19513320628E+02 -0.14091269860E+02  0.26428763382E+02  0.35746511751E+02  0.51100000000E-03 0.  1.
        -12    1    3    3    0    0  0.69921050103E+00 -0.75520750232E+01 -0.21284731509E-01  0.75844040979E+01  0.00000000000E+00 0.  1.
</event>
<event>
 7    1  0.2891523E-011  0.5052886E+02  0.7816164E-02  0.1300439E+00
        -11   -1    0    0    0    0  0.00000000000E+00  0.00000000000E+00  0.45593999997E+02  0.45594000000E+02  0.51100000000E-03 0.  1.
         11   -1    0    0    0    0 -0.00000000000E+00 -0.00000000000E+00 -0.45593999997E+02  0.45594000000E+02  0.51100000000E-03 0. -1.
    9900012    2    1    2    0    0 -0.16133812904E+02  0.35694189766E+02  0.10899092133E+02  0.50528864357E+02  0.30000013701E+02 0.  0.
         12    1    1    2    0    0  0.16133812904E+02 -0.35694189766E+02 -0.10899092133E+02  0.40659135643E+02  0.00000000000E+00 0. -1.
         11    1    3    3    0    0 -0.27336959593E+01 -0.62378061710E+00  0.96884364268E+01  0.10086029770E+02  0.51100000000E-03 0. -1.
        -11    1    3    3    0    0 -0.10901901569E+02  0.23462996281E+02  0.58942868118E+01  0.26535000840E+02  0.51100000000E-03 0.  1.
         12    1    3    3    0    0 -0.24982153763E+01  0.12854974102E+02 -0.46836311051E+01  0.13907833748E+02  0.00000000000E+00 0. -1.
</event>
<event>
 7    1  0.2891523E-011  0.5052886E+02  0.7816164E-02  0.1300439E+00
        -11   -1    0    0    0    0  0.00000000000E+00  0.00000000000E+00  0.45593999997E+02  0.45594000000E+02  0.51100000000E-03 0.  1.
         11   -1    0    0    0    0 -0.00000000000E+00 -0.00000000000E+00 -0.45593999997E+02  0.45594000000E+02  0.51100000000E-03 0. -1.
    9900012    2    1    2    0    0  0.36723120211E+02  0.10188140668E+01 -0.17422401227E+02  0.50528860749E+02  0.30000002731E+02 0.  0.
         12    1    1    2    0    0 -0.36723120211E+02 -0.10188140668E+01  0.17422401227E+02  0.40659139251E+02  0.00000000000E+00 0. -1.
         11    1    3    3    0    0  0.24484453309E+02 -0.82842347001E+01 -0.13104109916E+02  0.28979901576E+02  0.51100000000E-03 0. -1.
        -11    1    3    3    0    0  0.29775937461E+01  0.10676529680E+02 -0.50046840181E+01  0.12161464258E+02  0.51100000000E-03 0.  1.
         12    1    3    3    0    0  0.92610731559E+01 -0.13734809128E+01  0.68639270730E+00  0.93874949142E+01  0.00000000000E+00 0. -1.
</event>
<event>
 7    1  0.2891523E-011  0.5052879E+02  0.7816164E-02  0.1300439E+00
        -11   -1    0    0    0    0  0.00000000000E+00  0.00000000000E+00  0.45593999997E+02  0.45594000000E+02  0.51100000000E-03 0. -1.
         11   -1    0    0    0    0 -0.00000000000E+00 -0.00000000000E+00 -0.45593999997E+02  0.45594000000E+02  0.51100000000E-03 0.  1.
    9900012    2    1    2    0    0  0.15110038324E+02  0.33789823039E+02 -0.16825749008E+02  0.50528791586E+02  0.29999792505E+02 0.  0.
         12    1    1    2    0    0 -0.15110038324E+02 -0.33789823039E+02  0.16825749008E+02  0.40659208414E+02  0.00000000000E+00 0. -1.
         11    1    3    3    0    0  0.85927487455E+01 -0.15958487628E+01 -0.81817130646E+00  0.87778966059E+01  0.51100000000E-03 0. -1.
        -11    1    3    3    0    0  0.33328018480E+01  0.35063518462E+02 -0.13643387329E+02  0.37771681365E+02  0.51100000000E-03 0.  1.
         12    1    3    3    0    0  0.31844877308E+01  0.32215333985E+00 -0.23641903720E+01  0.39792136154E+01  0.00000000000E+00 0. -1.
</event>
<event>
 7    1  0.2891523E-011  0.5052885E+02  0.7816164E-02  0.1300439E+00
        -11   -1    0    0    0    0  0.00000000000E+00  0.00000000000E+00  0.45593999997E+02  0.45594000000E+02  0.51100000000E-03 0.  1.
         11   -1    0    0    0    0 -0.00000000000E+00 -0.00000000000E+00 -0.45593999997E+02  0.45594000000E+02  0.51100000000E-03 0. -1.
    9900012    2    1    2    0    0  0.10443861771E+02 -0.28956205974E+02  0.26563708301E+02  0.50528847134E+02  0.29999961347E+02 0.  0.
         12    1    1    2    0    0 -0.10443861771E+02  0.28956205974E+02 -0.26563708301E+02  0.40659152866E+02  0.00000000000E+00 0. -1.
         11    1    3    3    0    0 -0.84637927037E+01 -0.14627363569E+02  0.18124523241E+02  0.24780917959E+02  0.51100000000E-03 0. -1.
        -11    1    3    3    0    0  0.66576015400E+01 -0.41503678590E+01  0.27423843521E+00  0.78501222035E+01  0.51100000000E-03 0.  1.
         12    1    3    3    0    0  0.12250052935E+02 -0.10178474546E+02  0.81649466246E+01  0.17897806971E+02  0.00000000000E+00 0. -1.
</event>
<event>
 7    1  0.2891523E-011  0.5052883E+02  0.7816164E-02  0.1300439E+00
        -11   -1    0    0    0    0  0.00000000000E+00  0.00000000000E+00  0.45593999997E+02  0.45594000000E+02  0.51100000000E-03 0.  1.
         11   -1    0    0    0    0 -0.00000000000E+00 -0.00000000000E+00 -0.45593999997E+02  0.45594000000E+02  0.51100000000E-03 0. -1.
    9900012    2    1    2    0    0  0.24197533693E+02 -0.30934040643E+02  0.10522944212E+02  0.50528832987E+02  0.29999918347E+02 0.  0.
         12    1    1    2    0    0 -0.24197533693E+02  0.30934040643E+02 -0.10522944212E+02  0.40659167013E+02  0.00000000000E+00 0. -1.
         11    1    3    3    0    0  0.20230107992E+02 -0.27728944340E+02  0.10352664585E+02  0.35851489340E+02  0.51100000000E-03 0.  1.
        -11    1    3    3    0    0  0.32701675925E+01  0.51815452542E+01 -0.90385998969E+00  0.61934942033E+01  0.51100000000E-03 0. -1.
         12    1    3    3    0    0  0.69725810790E+00 -0.83866415570E+01  0.10741396157E+01  0.84838494440E+01  0.00000000000E+00 0. -1.
</event>
<event>
 7    1  0.2891523E-011  0.5052885E+02  0.7816164E-02  0.1300439E+00
        -11   -1    0    0    0    0  0.00000000000E+00  0.00000000000E+00  0.45593999997E+02  0.45594000000E+02  0.51100000000E-03 0.  1.
         11   -1    0    0    0    0 -0.00000000000E+00 -0.00000000000E+00 -0.45593999997E+02  0.45594000000E+02  0.51100000000E-03 0. -1.
    9900012    2    1    2    0    0 -0.28466443589E+02 -0.29030725859E+02  0.21281656530E+00  0.50528846720E+02  0.29999960091E+02 0.  0.
         12    1    1    2    0    0  0.28466443589E+02  0.29030725859E+02 -0.21281656530E+00  0.40659153280E+02  0.00000000000E+00 0. -1.
         11    1    3    3    0    0 -0.63271410065E+01 -0.23228864301E+01  0.77181293937E+01  0.10246854946E+02  0.51100000000E-03 0. -1.
        -11    1    3    3    0    0  0.21482501737E+01 -0.45006765750E+01 -0.53318670655E+01  0.73006763459E+01  0.51100000000E-03 0.  1.
        -12    1    3    3    0    0 -0.24287552757E+02 -0.22207162854E+02 -0.21734457629E+01  0.32981315429E+02  0.00000000000E+00 0.  1.
</event>
<event>
 7    1  0.2891523E-011  0.5052886E+02  0.7816164E-02  0.1300439E+00
        -11   -1    0    0    0    0  0.00000000000E+00  0.00000000000E+00  0.45593999997E+02  0.45594000000E+02  0.51100000000E-03 0. -1.
         11   -1    0    0    0    0 -0.00000000000E+00 -0.00000000000E+00 -0.45593999997E+02  0.45594000000E+02  0.51100000000E-03 0.  1.
    9900012    2    1    2    0    0  0.33298631077E+02  0.22580695444E+02 -0.58719189141E+01  0.50528855026E+02  0.29999985336E+02 0.  0.
         12    1    1    2    0    0 -0.33298631077E+02 -0.22580695444E+02  0.58719189141E+01  0.40659144974E+02  0.00000000000E+00 0. -1.
         11    1    3    3    0    0  0.50652322890E-01  0.48350354312E+01 -0.72583057821E+01  0.87214182543E+01  0.51100000000E-03 0. -1.
        -11    1    3    3    0    0  0.23349478082E+02  0.19327050783E+02  0.57902100561E+01  0.30858703009E+02  0.51100000000E-03 0.  1.
         12    1    3    3    0    0  0.98985006721E+01 -0.15813907700E+01 -0.44038231880E+01  0.10948733762E+02  0.00000000000E+00 0. -1.
</event>
<event>
 7    1  0.2891523E-011  0.5052886E+02  0.7816164E-02  0.1300439E+00
        -11   -1    0    0    0    0  0.00000000000E+00  0.00000000000E+00  0.45593999997E+02  0.45594000000E+02  0.51100000000E-03 0.  1.
         11   -1    0    0    0    0 -0.00000000000E+00 -0.00000000000E+00 -0.45593999997E+02  0.45594000000E+02  0.51100000000E-03 0. -1.
    9900012    2    1    2    0    0 -0.21674564163E+02 -0.26516757571E+02  0.21914398339E+02  0.50528855662E+02  0.29999987270E+02 0.  0.
         12    1    1    2    0    0  0.21674564163E+02  0.26516757571E+02 -0.21914398339E+02  0.40659144338E+02  0.00000000000E+00 0. -1.
         11    1    3    3    0    0  0.81314563838E+00 -0.88928186237E+01  0.13601503797E+02  0.16270966004E+02  0.51100000000E-03 0. -1.
        -11    1    3    3    0    0 -0.21903570163E+02 -0.10054928057E+02  0.16508206927E+01  0.24157673177E+02  0.51100000000E-03 0.  1.
        -12    1    3    3    0    0 -0.58413963764E+00 -0.75690108911E+01  0.66620738493E+01  0.10100216481E+02  0.00000000000E+00 0.  1.
</event>
<event>
 7    1  0.2891523E-011  0.5052885E+02  0.7816164E-02  0.1300439E+00
        -11   -1    0    0    0    0  0.00000000000E+00  0.00000000000E+00  0.45593999997E+02  0.45594000000E+02  0.51100000000E-03 0.  1.
         11   -1    0    0    0    0 -0.00000000000E+00 -0.00000000000E+00 -0.45593999997E+02  0.45594000000E+02  0.51100000000E-03 0. -1.
    9900012    2    1    2    0    0  0.31341505204E+02 -0.31617146161E+01  0.25707581776E+02  0.50528854060E+02  0.29999982401E+02 0.  0.
         12    1    1    2    0    0 -0.31341505204E+02  0.31617146161E+01 -0.25707581776E+02  0.40659145940E+02  0.00000000000E+00 0. -1.
         11    1    3    3    0    0  0.18662623838E+02 -0.59540109972E-01  0.55105873999E+01  0.19459281777E+02  0.51100000000E-03 0. -1.
        -11    1    3    3    0    0 -0.13015275912E+01  0.61469500367E+00  0.15919375347E+02  0.15984315303E+02  0.51100000000E-03 0.  1.
        -12    1    3    3    0    0  0.13980408958E+02 -0.37168695098E+01  0.42776190290E+01  0.15085256980E+02  0.00000000000E+00 0.  1.
</event>
<event>
 7    1  0.2891523E-011  0.5052887E+02  0.7816164E-02  0.1300439E+00
        -11   -1    0    0    0    0  0.00000000000E+00  0.00000000000E+00  0.45593999997E+02  0.45594000000E+02  0.51100000000E-03 0.  1.
         11   -1    0    0    0    0 -0.00000000000E+00 -0.00000000000E+00 -0.45593999997E+02  0.45594000000E+02  0.51100000000E-03 0. -1.
    9900012    2    1    2    0    0  0.10132474327E+02 -0.74549647606E+01  0.38664217336E+02  0.50528865260E+02  0.30000016445E+02 0.  0.
         12    1    1    2    0    0 -0.10132474327E+02  0.74549647606E+01 -0.38664217336E+02  0.40659134740E+02  0.00000000000E+00 0. -1.
         11    1    3    3    0    0  0.37852559439E+01 -0.53621780072E+01  0.81030036762E+01  0.10427836994E+02  0.51100000000E-03 0. -1.
        -11    1    3    3    0    0  0.11784438971E+02  0.45336451068E+01  0.57937470335E+01  0.13892244051E+02  0.51100000000E-03 0.  1.
        -12    1    3    3    0    0 -0.54372205884E+01 -0.66264318602E+01  0.24767466627E+02  0.26208784215E+02  0.00000000000E+00 0.  1.
</event>
<event>
 7    1  0.2891523E-011  0.5052886E+02  0.7816164E-02  0.1300439E+00
        -11   -1    0    0    0    0  0.00000000000E+00  0.00000000000E+00  0.45593999997E+02  0.45594000000E+02  0.51100000000E-03 0.  1.
         11   -1    0    0    0    0 -0.00000000000E+00 -0.00000000000E+00 -0.45593999997E+02  0.45594000000E+02  0.51100000000E-03 0. -1.
    9900012    2    1    2    0    0  0.26627282341E+02 -0.21917827271E+02  0.21535143628E+02  0.50528859229E+02  0.29999998113E+02 0.  0.
         12    1    1    2    0    0 -0.26627282341E+02  0.21917827271E+02 -0.21535143628E+02  0.40659140771E+02  0.00000000000E+00 0. -1.
         11    1    3    3    0    0 -0.26472984483E+01 -0.85158717177E+00  0.92234071248E+01  0.96335159229E+01  0.51100000000E-03 0. -1.
        -11    1    3    3    0    0  0.91923828529E+01 -0.12534679590E+02 -0.57492697125E+00  0.15554698204E+02  0.51100000000E-03 0.  1.
         12    1    3    3    0    0  0.20082197937E+02 -0.85315605087E+01  0.12886663474E+02  0.25340645102E+02  0.00000000000E+00 0. -1.
</event>
<event>
 7    1  0.2891523E-011  0.5052886E+02  0.7816164E-02  0.1300439E+00
        -11   -1    0    0    0    0  0.00000000000E+00  0.00000000000E+00  0.45593999997E+02  0.45594000000E+02  0.51100000000E-03 0.  1.
         11   -1    0    0    0    0 -0.00000000000E+00 -0.00000000000E+00 -0.45593999997E+02  0.45594000000E+02  0.51100000000E-03 0. -1.
    9900012    2    1    2    0    0 -0.63179330563E+01 -0.28143564724E+02 -0.28656394527E+02  0.50528862518E+02  0.30000008110E+02 0.  0.
         12    1    1    2    0    0  0.63179330563E+01  0.28143564724E+02  0.28656394527E+02  0.40659137482E+02  0.00000000000E+00 0. -1.
         11    1    3    3    0    0 -0.13874858443E+02 -0.10550276432E+02 -0.31703074553E+01  0.17716401419E+02  0.51100000000E-03 0. -1.
        -11    1    3    3    0    0  0.12169155890E+01 -0.97433487903E+01 -0.81816583258E+01  0.12780972671E+02  0.51100000000E-03 0.  1.
         12    1    3    3    0    0  0.63400097982E+01 -0.78499395022E+01 -0.17304428746E+02  0.20031488428E+02  0.00000000000E+00 0. -1.
</event>
<event>
 7    1  0.2891523E-011  0.5052886E+02  0.7816164E-02  0.1300439E+00
        -11   -1    0    0    0    0  0.00000000000E+00  0.00000000000E+00  0.45593999997E+02  0.45594000000E+02  0.51100000000E-03 0. -1.
         11   -1    0    0    0    0 -0.00000000000E+00 -0.00000000000E+00 -0.45593999997E+02  0.45594000000E+02  0.51100000000E-03 0.  1.
    9900012    2    1    2    0    0  0.31577332208E+01 -0.39365746200E+02 -0.96712060376E+01  0.50528862291E+02  0.30000007421E+02 0.  0.
         12    1    1    2    0    0 -0.31577332208E+01  0.39365746200E+02  0.96712060376E+01  0.40659137709E+02  0.00000000000E+00 0. -1.
         11    1    3    3    0    0  0.29336785901E+01 -0.67188744747E+01 -0.48420816033E+01  0.87860969031E+01  0.51100000000E-03 0. -1.
        -11    1    3    3    0    0  0.62052778931E+01 -0.10971150884E+02  0.88699861917E+01  0.15412601363E+02  0.51100000000E-03 0.  1.
        -12    1    3    3    0    0 -0.59812232623E+01 -0.21675720841E+02 -0.13699110626E+02  0.26330164026E+02  0.00000000000E+00 0.  1.
</event>
<event>
 7    1  0.2891523E-011  0.5052886E+02  0.7816164E-02  0.1300439E+00
        -11   -1    0    0    0    0  0.00000000000E+00  0.00000000000E+00  0.45593999997E+02  0.45594000000E+02  0.51100000000E-03 0.  1.
         11   -1    0    0    0    0 -0.00000000000E+00 -0.00000000000E+00 -0.45593999997E+02  0.45594000000E+02  0.51100000000E-03 0. -1.
    9900012    2    1    2    0    0 -0.32288684092E+02 -0.21171646411E+02  0.12742352156E+02  0.50528864856E+02  0.30000015218E+02 0.  0.
         12    1    1    2    0    0  0.32288684092E+02  0.21171646411E+02 -0.12742352156E+02  0.40659135144E+02  0.00000000000E+00 0. -1.
         11    1    3    3    0    0 -0.39900748879E+01  0.36946970759E+01  0.38627766204E+01  0.66702719265E+01  0.51100000000E-03 0. -1.
        -11    1    3    3    0    0 -0.16831095441E+02 -0.25231918598E+02  0.10859048997E+02  0.32215748249E+02  0.51100000000E-03 0.  1.
        -12    1    3    3    0    0 -0.11467513763E+02  0.36557511142E+00 -0.19794734610E+01  0.11642844681E+02  0.00000000000E+00 0.  1.
</event>
<event>
 7    1  0.2891523E-011  0.5052871E+02  0.7816164E-02  0.1300439E+00
        -11   -1    0    0    0    0  0.00000000000E+00  0.00000000000E+00  0.45593999997E+02  0.45594000000E+02  0.51100000000E-03 0. -1.
         11   -1    0    0    0    0 -0.00000000000E+00 -0.00000000000E+00 -0.45593999997E+02  0.45594000000E+02  0.51100000000E-03 0.  1.
    9900012    2    1    2    0    0 -0.35654150199E+02  0.19458926320E+02 -0.18191480255E+01  0.50528713983E+02  0.29999556618E+02 0.  0.
         12    1    1    2    0    0  0.35654150199E+02 -0.19458926320E+02  0.18191480255E+01  0.40659286017E+02  0.00000000000E+00 0. -1.
         11    1    3    3    0    0 -0.23672089840E+01 -0.17174039176E+01  0.22350405365E+01  0.36808370041E+01  0.51100000000E-03 0. -1.
        -11    1    3    3    0    0 -0.27848536126E+02  0.14695180503E+02 -0.13418266038E+02  0.34227754207E+02  0.51100000000E-03 0.  1.
        -12    1    3    3    0    0 -0.54384050890E+01  0.64811497347E+01  0.93640774756E+01  0.12620122771E+02  0.00000000000E+00 0.  1.
</event>
<event>
 7    1  0.2891523E-011  0.5052886E+02  0.7816164E-02  0.1300439E+00
        -11   -1    0    0    0    0  0.00000000000E+00  0.00000000000E+00  0.45593999997E+02  0.45594000000E+02  0.51100000000E-03 0.  1.
         11   -1    0    0    0    0 -0.00000000000E+00 -0.00000000000E+00 -0.45593999997E+02  0.45594000000E+02  0.51100000000E-03 0. -1.
    9900012    2    1    2    0    0  0.25334083889E+02 -0.24917879894E+02  0.19759785102E+02  0.50528860164E+02  0.30000000956E+02 0.  0.
         12    1    1    2    0    0 -0.25334083889E+02  0.24917879894E+02 -0.19759785102E+02  0.40659139836E+02  0.00000000000E+00 0. -1.
         11    1    3    3    0    0  0.21627182850E+01  0.35992606313E+01  0.63417931298E+00  0.42466705940E+01  0.51100000000E-03 0. -1.
        -11    1    3    3    0    0  0.24044409275E+02 -0.19039636503E+02  0.81092166340E+01  0.31723820234E+02  0.51100000000E-03 0.  1.
        -12    1    3    3    0    0 -0.87304367074E+00 -0.94775040214E+01  0.11016389155E+02  0.14558369336E+02  0.00000000000E+00 0.  1.
</event>
<event>
 7    1  0.2891523E-011  0.5052886E+02  0.7816164E-02  0.1300439E+00
        -11   -1    0    0    0    0  0.00000000000E+00  0.00000000000E+00  0.45593999997E+02  0.45594000000E+02  0.51100000000E-03 0.  1.
         11   -1    0    0    0    0 -0.00000000000E+00 -0.00000000000E+00 -0.45593999997E+02  0.45594000000E+02  0.51100000000E-03 0. -1.
    9900012    2    1    2    0    0 -0.26857272019E+02 -0.30335633227E+02 -0.34061593791E+01  0.50528860495E+02  0.30000001959E+02 0.  0.
         12    1    1    2    0    0  0.26857272019E+02  0.30335633227E+02  0.34061593791E+01  0.40659139505E+02  0.00000000000E+00 0. -1.
         11    1    3    3    0    0 -0.63032549114E+01 -0.11743594264E+02 -0.48959038066E+01  0.14199045850E+02  0.51100000000E-03 0. -1.
        -11    1    3    3    0    0 -0.61078258338E+01 -0.59350151190E+01  0.11783286503E+02  0.14538768240E+02  0.51100000000E-03 0.  1.
        -12    1    3    3    0    0 -0.14446191274E+02 -0.12657023844E+02 -0.10293542075E+02  0.21791046404E+02  0.00000000000E+00 0.  1.
</event>
<event>
 7    1  0.2891523E-011  0.5052887E+02  0.7816164E-02  0.1300439E+00
        -11   -1    0    0    0    0  0.00000000000E+00  0.00000000000E+00  0.45593999997E+02  0.45594000000E+02  0.51100000000E-03 0. -1.
         11   -1    0    0    0    0 -0.00000000000E+00 -0.00000000000E+00 -0.45593999997E+02  0.45594000000E+02  0.51100000000E-03 0.  1.
    9900012    2    1    2    0    0  0.35171348092E+02  0.19874707087E+02  0.45975259784E+01  0.50528868756E+02  0.30000027070E+02 0.  0.
         12    1    1    2    0    0 -0.35171348092E+02 -0.19874707087E+02 -0.45975259784E+01  0.40659131244E+02  0.00000000000E+00 0. -1.
         11    1    3    3    0    0  0.38991352815E+00  0.20613223764E+01  0.24473951718E+01  0.32234803996E+01  0.51100000000E-03 0. -1.
        -11    1    3    3    0    0  0.34672168915E+02  0.11907170272E+02 -0.60945169040E+01  0.37162926926E+02  0.51100000000E-03 0.  1.
        -12    1    3    3    0    0  0.10926564853E+00  0.59062144389E+01  0.82446477106E+01  0.10142461430E+02  0.00000000000E+00 0.  1.
</event>
<event>
 7    1  0.2891523E-011  0.5052886E+02  0.7816164E-02  0.1300439E+00
        -11   -1    0    0    0    0  0.00000000000E+00  0.00000000000E+00  0.45593999997E+02  0.45594000000E+02  0.51100000000E-03 0. -1.
         11   -1    0    0    0    0 -0.00000000000E+00 -0.00000000000E+00 -0.45593999997E+02  0.45594000000E+02  0.51100000000E-03 0.  1.
    9900012    2    1    2    0    0 -0.26172343432E+02  0.30930898755E+02 -0.33843558795E+01  0.50528856831E+02  0.29999990824E+02 0.  0.
         12    1    1    2    0    0  0.26172343432E+02 -0.30930898755E+02  0.33843558795E+01  0.40659143169E+02  0.00000000000E+00 0. -1.
         11    1    3    3    0    0 -0.19010712284E+02  0.22772238553E+02  0.75097604873E+01  0.30600302827E+02  0.51100000000E-03 0. -1.
        -11    1    3    3    0    0 -0.50318364401E+01  0.11459737788E+02 -0.67565966382E+01  0.14223099751E+02  0.51100000000E-03 0.  1.
         12    1    3    3    0    0 -0.21297947083E+01 -0.33010775867E+01 -0.41375197286E+01  0.57054542534E+01  0.00000000000E+00 0. -1.
</event>
<event>
 7    1  0.2917801E-011  0.5052886E+02  0.7816164E-02  0.1300439E+00
        -11   -1    0    0    0    0  0.00000000000E+00  0.00000000000E+00  0.45593999997E+02  0.45594000000E+02  0.51100000000E-03 0.  1.
         11   -1    0    0    0    0 -0.00000000000E+00 -0.00000000000E+00 -0.45593999997E+02  0.45594000000E+02  0.51100000000E-03 0. -1.
    9900012    2    1    2    0    0 -0.19407884893E+02  0.31934502707E+02  0.16021463566E+02  0.50528858913E+02  0.29999997151E+02 0.  0.
         12    1    1    2    0    0  0.19407884893E+02 -0.31934502707E+02 -0.16021463566E+02  0.40659141087E+02  0.00000000000E+00 0. -1.
         11    1    3    3    0    0  0.54891195931E+01  0.85620286031E+01  0.41859160257E+01  0.10998211716E+02  0.51100000000E-03 0. -1.
        -11    1    3    3    0    0 -0.20117362896E+02  0.23523218593E+02  0.52538024385E+01  0.31395103809E+02  0.51100000000E-03 0.  1.
        -12    1    3    3    0    0 -0.47796415904E+01 -0.15074448925E+00  0.65817451016E+01  0.81355433879E+01  0.00000000000E+00 0.  1.
</event>
<event>
 7    1  0.2891523E-011  0.5052886E+02  0.7816164E-02  0.1300439E+00
        -11   -1    0    0    0    0  0.00000000000E+00  0.00000000000E+00  0.45593999997E+02  0.45594000000E+02  0.51100000000E-03 0.  1.
         11   -1    0    0    0    0 -0.00000000000E+00 -0.00000000000E+00 -0.45593999997E+02  0.45594000000E+02  0.51100000000E-03 0. -1.
    9900012    2    1    2    0    0  0.54606104762E+01 -0.40136097281E+02  0.35271484529E+01  0.50528863905E+02  0.30000012326E+02 0.  0.
         12    1    1    2    0    0 -0.54606104762E+01  0.40136097281E+02 -0.35271484529E+01  0.40659136095E+02  0.00000000000E+00 0. -1.
         11    1    3    3    0    0 -0.99753262883E+01 -0.18550088700E+02  0.33046605570E+01  0.21319796129E+02  0.51100000000E-03 0. -1.
        -11    1    3    3    0    0  0.11688837199E+02 -0.22306653711E+02 -0.99641960228E+00  0.25203344364E+02  0.51100000000E-03 0.  1.
        -12    1    3    3    0    0  0.37470995659E+01  0.72064513025E+00  0.12189074982E+01  0.40057234115E+01  0.00000000000E+00 0.  1.
</event>
<event>
 7    1  0.2891523E-011  0.5052885E+02  0.7816164E-02  0.1300439E+00
        -11   -1    0    0    0    0  0.00000000000E+00  0.00000000000E+00  0.45593999997E+02  0.45594000000E+02  0.51100000000E-03 0. -1.
         11   -1    0    0    0    0 -0.00000000000E+00 -0.00000000000E+00 -0.45593999997E+02  0.45594000000E+02  0.51100000000E-03 0.  1.
    9900012    2    1    2    0    0  0.29299436811E+02  0.21548838197E+02 -0.18175724866E+02  0.50528850974E+02  0.29999973021E+02 0.  0.
         12    1    1    2    0    0 -0.29299436811E+02 -0.21548838197E+02  0.18175724866E+02  0.40659149026E+02  0.00000000000E+00 0. -1.
         11    1    3    3    0    0  0.18784457831E+01  0.10247619510E+02  0.33210884353E+01  0.10934893362E+02  0.51100000000E-03 0. -1.
        -11    1    3    3    0    0  0.25624536148E+02  0.80206222117E+01 -0.23199190282E+02  0.35484498919E+02  0.51100000000E-03 0.  1.
        -12    1    3    3    0    0  0.17964548796E+01  0.32805964758E+01  0.17023769811E+01  0.41094586939E+01  0.00000000000E+00 0.  1.
</event>
<event>
 7    1  0.3046812E-011  0.5052885E+02  0.7816164E-02  0.1300439E+00
        -11   -1    0    0    0    0  0.00000000000E+00  0.00000000000E+00  0.45593999997E+02  0.45594000000E+02  0.51100000000E-03 0.  1.
         11   -1    0    0    0    0 -0.00000000000E+00 -0.00000000000E+00 -0.45593999997E+02  0.45594000000E+02  0.51100000000E-03 0. -1.
    9900012    2    1    2    0    0 -0.89766907654E+01 -0.38324814908E+02  0.10187952471E+02  0.50528846167E+02  0.29999958410E+02 0.  0.
         12    1    1    2    0    0  0.89766907654E+01  0.38324814908E+02 -0.10187952471E+02  0.40659153833E+02  0.00000000000E+00 0. -1.
         11    1    3    3    0    0  0.22404312178E+01 -0.22041950685E+00 -0.38471214571E+01  0.44574051384E+01  0.51100000000E-03 0. -1.
        -11    1    3    3    0    0 -0.93915823099E+01 -0.34239299961E+02  0.47121547098E+01  0.35815302349E+02  0.51100000000E-03 0.  1.
        -12    1    3    3    0    0 -0.18255396733E+01 -0.38650954404E+01  0.93229192183E+01  0.10256138679E+02  0.00000000000E+00 0.  1.
</event>
<event>
 7    1  0.2891523E-011  0.5052887E+02  0.7816164E-02  0.1300439E+00
        -11   -1    0    0    0    0  0.00000000000E+00  0.00000000000E+00  0.45593999997E+02  0.45594000000E+02  0.51100000000E-03 0.  1.
         11   -1    0    0    0    0 -0.00000000000E+00 -0.00000000000E+00 -0.45593999997E+02  0.45594000000E+02  0.51100000000E-03 0. -1.
    9900012    2    1    2    0    0  0.26843486728E+02  0.18665926102E+01  0.30481268020E+02  0.50528872516E+02  0.30000038499E+02 0.  0.
         12    1    1    2    0    0 -0.26843486728E+02 -0.18665926102E+01 -0.30481268020E+02  0.40659127484E+02  0.00000000000E+00 0. -1.
         11    1    3    3    0    0  0.11162951212E+02  0.44936878345E+01  0.15609416852E+01  0.12134300529E+02  0.51100000000E-03 0. -1.
        -11    1    3    3    0    0  0.16587416210E+02 -0.70245790173E+01  0.28717981148E+02  0.33899993043E+02  0.51100000000E-03 0.  1.
         12    1    3    3    0    0 -0.90688069399E+00  0.43974837929E+01  0.20234518667E+00  0.44945789432E+01  0.00000000000E+00 0. -1.
</event>
<event>
 7    1  0.2891523E-011  0.5052887E+02  0.7816164E-02  0.1300439E+00
        -11   -1    0    0    0    0  0.00000000000E+00  0.00000000000E+00  0.45593999997E+02  0.45594000000E+02  0.51100000000E-03 0.  1.
         11   -1    0    0    0    0 -0.00000000000E+00 -0.00000000000E+00 -0.45593999997E+02  0.45594000000E+02  0.51100000000E-03 0. -1.
    9900012    2    1    2    0    0 -0.38104430434E+02  0.14103382099E+02  0.15204709578E+01  0.50528870185E+02  0.30000031415E+02 0.  0.
         12    1    1    2    0    0  0.38104430434E+02 -0.14103382099E+02 -0.15204709578E+01  0.40659129815E+02  0.00000000000E+00 0. -1.
         11    1    3    3    0    0 -0.72577347573E+01  0.11425942893E+02 -0.27846817940E+01  0.13819599769E+02  0.51100000000E-03 0. -1.
        -11    1    3    3    0    0 -0.31497721415E+02 -0.35817141718E+00  0.73659633118E+01  0.32349531015E+02  0.51100000000E-03 0.  1.
        -12    1    3    3    0    0  0.65102573819E+00  0.30356106232E+01 -0.30608105600E+01  0.43597394018E+01  0.00000000000E+00 0.  1.
</event>
<event>
 7    1  0.2891523E-011  0.5052886E+02  0.7816164E-02  0.1300439E+00
        -11   -1    0    0    0    0  0.00000000000E+00  0.00000000000E+00  0.45593999997E+02  0.45594000000E+02  0.51100000000E-03 0.  1.
         11   -1    0    0    0    0 -0.00000000000E+00 -0.00000000000E+00 -0.45593999997E+02  0.45594000000E+02  0.51100000000E-03 0. -1.
    9900012    2    1    2    0    0  0.31939971284E+02 -0.24939406577E+02  0.33211081227E+01  0.50528861726E+02  0.30000005702E+02 0.  0.
         12    1    1    2    0    0 -0.31939971284E+02  0.24939406577E+02 -0.33211081227E+01  0.40659138274E+02  0.00000000000E+00 0. -1.
         11    1    3    3    0    0  0.23445557239E+01 -0.17426659700E+02  0.91455495844E+00  0.17607436522E+02  0.51100000000E-03 0. -1.
        -11    1    3    3    0    0  0.23729432797E+02 -0.94772091157E+01 -0.15152257013E+01  0.25596862750E+02  0.51100000000E-03 0.  1.
         12    1    3    3    0    0  0.58659827635E+01  0.19644622385E+01  0.39217788656E+01  0.73245624537E+01  0.00000000000E+00 0. -1.
</event>
<event>
 7    1  0.2891523E-011  0.5052886E+02  0.7816164E-02  0.1300439E+00
        -11   -1    0    0    0    0  0.00000000000E+00  0.00000000000E+00  0.45593999997E+02  0.45594000000E+02  0.51100000000E-03 0.  1.
         11   -1    0    0    0    0 -0.00000000000E+00 -0.00000000000E+00 -0.45593999997E+02  0.45594000000E+02  0.51100000000E-03 0. -1.
    9900012    2    1    2    0    0  0.28375478142E+01 -0.34009632088E+02  0.22101105227E+02  0.50528860749E+02  0.30000002733E+02 0.  0.
         12    1    1    2    0    0 -0.28375478142E+01  0.34009632088E+02 -0.22101105227E+02  0.40659139251E+02  0.00000000000E+00 0. -1.
         11    1    3    3    0    0 -0.14992374377E+01  0.31514562465E+01 -0.17610339865E+01  0.39090446827E+01  0.51100000000E-03 0. -1.
        -11    1    3    3    0    0  0.23092228532E+00 -0.17997377215E+02  0.19509035767E+02  0.26543575278E+02  0.51100000000E-03 0.  1.
        -12    1    3    3    0    0  0.41058629666E+01 -0.19163711120E+02  0.43531034463E+01  0.20076240789E+02  0.00000000000E+00 0.  1.
</event>
<event>
 7    1  0.2891523E-011  0.5052885E+02  0.7816164E-02  0.1300439E+00
        -11   -1    0    0    0    0  0.00000000000E+00  0.00000000000E+00  0.45593999997E+02  0.45594000000E+02  0.51100000000E-03 0. -1.
         11   -1    0    0    0    0 -0.00000000000E+00 -0.00000000000E+00 -0.45593999997E+02  0.45594000000E+02  0.51100000000E-03 0.  1.
    9900012    2    1    2    0    0 -0.36785241294E+02 -0.37274366222E+01 -0.16915041095E+02  0.50528851262E+02  0.29999973895E+02 0.  0.
         12    1    1    2    0    0  0.36785241294E+02  0.37274366222E+01  0.16915041095E+02  0.40659148738E+02  0.00000000000E+00 0. -1.
         11    1    3    3    0    0 -0.92903628152E+01  0.87434308350E+01 -0.34124854305E+01  0.13206191013E+02  0.51100000000E-03 0. -1.
        -11    1    3    3    0    0 -0.13115668159E+02 -0.14274194227E+02 -0.34599752792E+01  0.19691236662E+02  0.51100000000E-03 0.  1.
        -12    1    3    3    0    0 -0.14379210320E+02  0.18033267701E+01 -0.10042580386E+02  0.17631423586E+02  0.00000000000E+00 0.  1.
</event>
<event>
 7    1  0.2891523E-011  0.5052886E+02  0.7816164E-02  0.1300439E+00
        -11   -1    0    0    0    0  0.00000000000E+00  0.00000000000E+00  0.45593999997E+02  0.45594000000E+02  0.51100000000E-03 0. -1.
         11   -1    0    0    0    0 -0.00000000000E+00 -0.00000000000E+00 -0.45593999997E+02  0.45594000000E+02  0.51100000000E-03 0.  1.
    9900012    2    1    2    0    0 -0.28898260749E+02 -0.15479273988E+02 -0.24050955911E+02  0.50528857390E+02  0.29999992524E+02 0.  0.
         12    1    1    2    0    0  0.28898260749E+02  0.15479273988E+02  0.24050955911E+02  0.40659142610E+02  0.00000000000E+00 0. -1.
         11    1    3    3    0    0  0.35172482551E+01 -0.56404407942E+01  0.77473626720E+00  0.66922211698E+01  0.51100000000E-03 0. -1.
        -11    1    3    3    0    0 -0.20426533520E+02 -0.12322569765E+02 -0.17248786714E+02  0.29438234333E+02  0.51100000000E-03 0.  1.
        -12    1    3    3    0    0 -0.11988975484E+02  0.24837365710E+01 -0.75769054647E+01  0.14398401888E+02  0.00000000000E+00 0.  1.
</event>
<event>
 7    1  0.2891523E-011  0.5052887E+02  0.7816164E-02  0.1300439E+00
        -11   -1    0    0    0    0  0.00000000000E+00  0.00000000000E+00  0.45593999997E+02  0.45594000000E+02  0.51100000000E-03 0.  1.
         11   -1    0    0    0    0 -0.00000000000E+00 -0.00000000000E+00 -0.45593999997E+02  0.45594000000E+02  0.51100000000E-03 0. -1.
    9900012    2    1    2    0    0 -0.51082328296E+01 -0.89207917004E+01  0.39338157613E+02  0.50528865582E+02  0.30000017423E+02 0.  0.
         12    1    1    2    0    0  0.51082328296E+01  0.89207917004E+01 -0.39338157613E+02  0.40659134418E+02  0.00000000000E+00 0. -1.
         11    1    3    3    0    0 -0.68912026009E+01 -0.12813304568E+02  0.96371838719E+01  0.17451210860E+02  0.51100000000E-03 0. -1.
        -11    1    3    3    0    0 -0.18296558323E+01  0.46796871870E+01  0.28849091524E+02  0.29283394521E+02  0.51100000000E-03 0.  1.
        -12    1    3    3    0    0  0.36126256036E+01 -0.78717431900E+00  0.85188221759E+00  0.37942602010E+01  0.00000000000E+00 0.  1.
</event>
<event>
 7    1  0.2891523E-011  0.5052886E+02  0.7816164E-02  0.1300439E+00
        -11   -1    0    0    0    0  0.00000000000E+00  0.00000000000E+00  0.45593999997E+02  0.45594000000E+02  0.51100000000E-03 0. -1.
         11   -1    0    0    0    0 -0.00000000000E+00 -0.00000000000E+00 -0.45593999997E+02  0.45594000000E+02  0.51100000000E-03 0.  1.
    9900012    2    1    2    0    0 -0.15677608494E+02 -0.14809118855E+02 -0.34468367164E+02  0.50528859031E+02  0.29999997511E+02 0.  0.
         12    1    1    2    0    0  0.15677608494E+02  0.14809118855E+02  0.34468367164E+02  0.40659140969E+02  0.00000000000E+00 0. -1.
         11    1    3    3    0    0  0.31133875694E+01 -0.55828835802E+00 -0.33099102190E+01  0.45782500988E+01  0.51100000000E-03 0. -1.
        -11    1    3    3    0    0 -0.16234676757E+02 -0.13718699916E+02 -0.35211511005E+02  0.41129283538E+02  0.51100000000E-03 0.  1.
        -12    1    3    3    0    0 -0.25563193062E+01 -0.53213058103E+00  0.40530540599E+01  0.48213253948E+01  0.00000000000E+00 0.  1.
</event>
<event>
 7    1  0.2891523E-011  0.5052886E+02  0.7816164E-02  0.1300439E+00
        -11   -1    0    0    0    0  0.00000000000E+00  0.00000000000E+00  0.45593999997E+02  0.45594000000E+02  0.51100000000E-03 0.  1.
         11   -1    0    0    0    0 -0.00000000000E+00 -0.00000000000E+00 -0.45593999997E+02  0.45594000000E+02  0.51100000000E-03 0. -1.
    9900012    2    1    2    0    0  0.15139844107E+02  0.18783374829E+02  0.32728207769E+02  0.50528860396E+02  0.30000001660E+02 0.  0.
         12    1    1    2    0    0 -0.15139844107E+02 -0.18783374829E+02 -0.32728207769E+02  0.40659139604E+02  0.00000000000E+00 0. -1.
         11    1    3    3    0    0  0.12103813724E+01 -0.62054221107E+01  0.10252963085E+01  0.64049605323E+01  0.51100000000E-03 0. -1.
        -11    1    3    3    0    0  0.11878600309E+02  0.99825503910E+01  0.15108345472E+02  0.21656744002E+02  0.51100000000E-03 0.  1.
         12    1    3    3    0    0  0.20508624258E+01  0.15006246549E+02  0.16594565989E+02  0.22467155862E+02  0.00000000000E+00 0. -1.
</event>
<event>
 7    1  0.2891523E-011  0.5052887E+02  0.7816164E-02  0.1300439E+00
        -11   -1    0    0    0    0  0.00000000000E+00  0.00000000000E+00  0.45593999997E+02  0.45594000000E+02  0.51100000000E-03 0.  1.
         11   -1    0    0    0    0 -0.00000000000E+00 -0.00000000000E+00 -0.45593999997E+02  0.45594000000E+02  0.51100000000E-03 0. -1.
    9900012    2    1    2    0    0  0.13296476314E+02  0.31708061399E+02  0.21701774673E+02  0.50528874776E+02  0.30000045369E+02 0.  0.
         12    1    1    2    0    0 -0.13296476314E+02 -0.31708061399E+02 -0.21701774673E+02  0.40659125224E+02  0.00000000000E+00 0. -1.
         11    1    3    3    0    0  0.11259295275E+02  0.42511803759E+01  0.98596037358E+01  0.15558150622E+02  0.51100000000E-03 0. -1.
        -11    1    3    3    0    0 -0.74845622640E+01  0.67714980147E+01  0.44358046074E+01  0.11024890948E+02  0.51100000000E-03 0.  1.
        -12    1    3    3    0    0  0.95217433028E+01  0.20685383008E+02  0.74063663294E+01  0.23945833206E+02  0.00000000000E+00 0.  1.
</event>
<event>
 7    1  0.2891523E-011  0.5052887E+02  0.7816164E-02  0.1300439E+00
        -11   -1    0    0    0    0  0.00000000000E+00  0.00000000000E+00  0.45593999997E+02  0.45594000000E+02  0.51100000000E-03 0.  1.
         11   -1    0    0    0    0 -0.00000000000E+00 -0.00000000000E+00 -0.45593999997E+02  0.45594000000E+02  0.51100000000E-03 0. -1.
    9900012    2    1    2    0    0 -0.18771892132E+02 -0.34413702983E+02 -0.10792501156E+02  0.50528868573E+02  0.30000026513E+02 0.  0.
         12    1    1    2    0    0  0.18771892132E+02  0.34413702983E+02  0.10792501156E+02  0.40659131427E+02  0.00000000000E+00 0. -1.
         11    1    3    3    0    0  0.63968753933E+01 -0.13118834485E+02 -0.12548467189E+01  0.14649179963E+02  0.51100000000E-03 0. -1.
        -11    1    3    3    0    0 -0.10609006695E+02 -0.10922518143E+02  0.76658764955E+00  0.15245985784E+02  0.51100000000E-03 0.  1.
         12    1    3    3    0    0 -0.14559760830E+02 -0.10372350356E+02 -0.10304242087E+02  0.20633702826E+02  0.00000000000E+00 0. -1.
</event>
<event>
 7    1  0.2891523E-011  0.5052885E+02  0.7816164E-02  0.1300439E+00
        -11   -1    0    0    0    0  0.00000000000E+00  0.00000000000E+00  0.45593999997E+02  0.45594000000E+02  0.51100000000E-03 0.  1.
         11   -1    0    0    0    0 -0.00000000000E+00 -0.00000000000E+00 -0.45593999997E+02  0.45594000000E+02  0.51100000000E-03 0. -1.
    9900012    2    1    2    0    0  0.21002884698E+02 -0.31656343701E+02  0.14488669851E+02  0.50528845850E+02  0.29999957445E+02 0.  0.
         12    1    1    2    0    0 -0.21002884698E+02  0.31656343701E+02 -0.14488669851E+02  0.40659154150E+02  0.00000000000E+00 0. -1.
         11    1    3    3    0    0 -0.10053236439E+01 -0.14349296851E+02  0.17913375558E+01  0.14495581611E+02  0.51100000000E-03 0. -1.
        -11    1    3    3    0    0  0.14793497419E+02 -0.22339489713E+01  0.12216929172E+02  0.19315575388E+02  0.51100000000E-03 0.  1.
        -12    1    3    3    0    0  0.72147109228E+01 -0.15073097879E+02  0.48040312333E+00  0.16717688851E+02  0.00000000000E+00 0.  1.
</event>
<event>
 7    1  0.2891523E-011  0.5052886E+02  0.7816164E-02  0.1300439E+00
        -11   -1    0    0    0    0  0.00000000000E+00  0.00000000000E+00  0.45593999997E+02  0.45594000000E+02  0.51100000000E-03 0.  1.
         11   -1    0    0    0    0 -0.00000000000E+00 -0.00000000000E+00 -0.45593999997E+02  0.45594000000E+02  0.51100000000E-03 0. -1.
    9900012    2    1    2    0    0 -0.33045329295E+02 -0.14687939051E+02  0.18585915173E+02  0.50528860995E+02  0.30000003481E+02 0.  0.
         12    1    1    2    0    0  0.33045329295E+02  0.14687939051E+02 -0.18585915173E+02  0.40659139005E+02  0.00000000000E+00 0. -1.
         11    1    3    3    0    0 -0.11035752997E+02  0.54405869655E+01 -0.14587109035E+01  0.12390144006E+02  0.51100000000E-03 0. -1.
        -11    1    3    3    0    0 -0.40799901209E+01 -0.11875340676E+02  0.96118812099E+01  0.15813231681E+02  0.51100000000E-03 0.  1.
         12    1    3    3    0    0 -0.17929586177E+02 -0.82531853409E+01  0.10432744867E+02  0.22325485307E+02  0.00000000000E+00 0. -1.
</event>
<event>
 7    1  0.2891523E-011  0.5052880E+02  0.7816164E-02  0.1300439E+00
        -11   -1    0    0    0    0  0.00000000000E+00  0.00000000000E+00  0.45593999997E+02  0.45594000000E+02  0.51100000000E-03 0.  1.
         11   -1    0    0    0    0 -0.00000000000E+00 -0.00000000000E+00 -0.45593999997E+02  0.45594000000E+02  0.51100000000E-03 0. -1.
    9900012    2    1    2    0    0  0.22024282531E+02 -0.30731731914E+02 -0.14955330531E+02  0.50528803270E+02  0.29999828019E+02 0.  0.
         12    1    1    2    0    0 -0.22024282531E+02  0.30731731914E+02  0.14955330531E+02  0.40659196730E+02  0.00000000000E+00 0. -1.
         11    1    3    3    0    0  0.25723728922E+02 -0.30217592199E+02 -0.12716126108E+02  0.41671488711E+02  0.51100000000E-03 0. -1.
        -11    1    3    3    0    0 -0.30257063662E+01  0.22176223334E+01 -0.40428701265E+01  0.55152105082E+01  0.51100000000E-03 0.  1.
         12    1    3    3    0    0 -0.67374002514E+00 -0.27317620490E+01  0.18036657038E+01  0.33421040506E+01  0.00000000000E+00 0. -1.
</event>
<event>
 7    1  0.2891523E-011  0.5052881E+02  0.7816164E-02  0.1300439E+00
        -11   -1    0    0    0    0  0.00000000000E+00  0.00000000000E+00  0.45593999997E+02  0.45594000000E+02  0.51100000000E-03 0. -1.
         11   -1    0    0    0    0 -0.00000000000E+00 -0.00000000000E+00 -0.45593999997E+02  0.45594000000E+02  0.51100000000E-03 0.  1.
    9900012    2    1    2    0    0 -0.11567398503E+01 -0.24659444224E+02 -0.32307019231E+02  0.50528810041E+02  0.29999848601E+02 0.  0.
         12    1    1    2    0    0  0.11567398503E+01  0.24659444224E+02  0.32307019231E+02  0.40659189959E+02  0.00000000000E+00 0. -1.
         11    1    3    3    0    0 -0.12041860145E+02 -0.88700008416E+01 -0.12306179171E+02  0.19368153157E+02  0.51100000000E-03 0. -1.
        -11    1    3    3    0    0  0.63032694366E+01 -0.17659028865E+02 -0.17354036347E+02  0.25548680668E+02  0.51100000000E-03 0.  1.
         12    1    3    3    0    0  0.45818508577E+01  0.18695854830E+01 -0.26468037120E+01  0.56119762161E+01  0.00000000000E+00 0. -1.
</event>
<event>
 7    1  0.2891523E-011  0.5052887E+02  0.7816164E-02  0.1300439E+00
        -11   -1    0    0    0    0  0.00000000000E+00  0.00000000000E+00  0.45593999997E+02  0.45594000000E+02  0.51100000000E-03 0.  1.
         11   -1    0    0    0    0 -0.00000000000E+00 -0.00000000000E+00 -0.45593999997E+02  0.45594000000E+02  0.51100000000E-03 0. -1.
    9900012    2    1    2    0    0  0.30162215481E+01 -0.32669341809E+02  0.24016277417E+02  0.50528867353E+02  0.30000022807E+02 0.  0.
         12    1    1    2    0    0 -0.30162215481E+01  0.32669341809E+02 -0.24016277417E+02  0.40659132647E+02  0.00000000000E+00 0. -1.
         11    1    3    3    0    0  0.66462463220E+01 -0.33023229962E+02  0.97730813523E+01  0.35074483983E+02  0.51100000000E-03 0. -1.
        -11    1    3    3    0    0 -0.39437255623E+01 -0.14041423547E+01  0.10611007780E+02  0.11406930938E+02  0.51100000000E-03 0.  1.
         12    1    3    3    0    0  0.31370078836E+00  0.17580305085E+01  0.36321882841E+01  0.40474524315E+01  0.00000000000E+00 0. -1.
</event>
<event>
 7    1  0.2891523E-011  0.5052885E+02  0.7816164E-02  0.1300439E+00
        -11   -1    0    0    0    0  0.00000000000E+00  0.00000000000E+00  0.45593999997E+02  0.45594000000E+02  0.51100000000E-03 0.  1.
         11   -1    0    0    0    0 -0.00000000000E+00 -0.00000000000E+00 -0.45593999997E+02  0.45594000000E+02  0.51100000000E-03 0. -1.
    9900012    2    1    2    0    0  0.14569179958E+02 -0.29479901761E+02  0.23913187094E+02  0.50528854295E+02  0.29999983114E+02 0.  0.
         12    1    1    2    0    0 -0.14569179958E+02  0.29479901761E+02 -0.23913187094E+02  0.40659145705E+02  0.00000000000E+00 0. -1.
         11    1    3    3    0    0  0.61804404051E+01 -0.23458904284E+01  0.17957857732E+02  0.19135979204E+02  0.51100000000E-03 0. -1.
        -11    1    3    3    0    0  0.11204086263E+02 -0.22318771148E+02  0.32183815693E+01  0.25179695684E+02  0.51100000000E-03 0.  1.
        -12    1    3    3    0    0 -0.28153467095E+01 -0.48152401843E+01  0.27369477932E+01  0.62131794075E+01  0.00000000000E+00 0.  1.
</event>
<event>
 7    1  0.2891523E-011  0.5052886E+02  0.7816164E-02  0.1300439E+00
        -11   -1    0    0    0    0  0.00000000000E+00  0.00000000000E+00  0.45593999997E+02  0.45594000000E+02  0.51100000000E-03 0.  1.
         11   -1    0    0    0    0 -0.00000000000E+00 -0.00000000000E+00 -0.45593999997E+02  0.45594000000E+02  0.51100000000E-03 0. -1.
    9900012    2    1    2    0    0 -0.13476585206E+02  0.28994176906E+02  0.25117428720E+02  0.50528857500E+02  0.29999992858E+02 0.  0.
         12    1    1    2    0    0  0.13476585206E+02 -0.28994176906E+02 -0.25117428720E+02  0.40659142500E+02  0.00000000000E+00 0. -1.
         11    1    3    3    0    0 -0.15703932326E+02  0.15632766039E+02  0.14263921419E+02  0.26352539139E+02  0.51100000000E-03 0.  1.
        -11    1    3    3    0    0  0.52875617160E+01 -0.18827851666E+01  0.82169698149E+00  0.56725986174E+01  0.51100000000E-03 0. -1.
        -12    1    3    3    0    0 -0.30602145957E+01  0.15244196034E+02  0.10031810320E+02  0.18503719744E+02  0.00000000000E+00 0.  1.
</event>
<event>
 7    1  0.2891523E-011  0.5052886E+02  0.7816164E-02  0.1300439E+00
        -11   -1    0    0    0    0  0.00000000000E+00  0.00000000000E+00  0.45593999997E+02  0.45594000000E+02  0.51100000000E-03 0. -1.
         11   -1    0    0    0    0 -0.00000000000E+00 -0.00000000000E+00 -0.45593999997E+02  0.45594000000E+02  0.51100000000E-03 0.  1.
    9900012    2    1    2    0    0 -0.38846720320E+02  0.85504260727E+01  0.84254632648E+01  0.50528857155E+02  0.29999991809E+02 0.  0.
         12    1    1    2    0    0  0.38846720320E+02 -0.85504260727E+01 -0.84254632648E+01  0.40659142845E+02  0.00000000000E+00 0. -1.
         11    1    3    3    0    0 -0.10272876646E+02  0.15510650246E+02 -0.22105757377E+01  0.18734964932E+02  0.51100000000E-03 0. -1.
        -11    1    3    3    0    0 -0.90168108216E+01 -0.23167383207E+01  0.62706831353E+01  0.11224598928E+02  0.51100000000E-03 0.  1.
         12    1    3    3    0    0 -0.19557032852E+02 -0.46434858526E+01  0.43653558672E+01  0.20569293296E+02  0.00000000000E+00 0. -1.
</event>
<event>
 7    1  0.2891523E-011  0.5052885E+02  0.7816164E-02  0.1300439E+00
        -11   -1    0    0    0    0  0.00000000000E+00  0.00000000000E+00  0.45593999997E+02  0.45594000000E+02  0.51100000000E-03 0. -1.
         11   -1    0    0    0    0 -0.00000000000E+00 -0.00000000000E+00 -0.45593999997E+02  0.45594000000E+02  0.51100000000E-03 0.  1.
    9900012    2    1    2    0    0 -0.36556430258E+02  0.17797591058E+02 -0.19834696356E+00  0.50528853647E+02  0.29999981145E+02 0.  0.
         12    1    1    2    0    0  0.36556430258E+02 -0.17797591058E+02  0.19834696356E+00  0.40659146353E+02  0.00000000000E+00 0. -1.
         11    1    3    3    0    0 -0.40087722703E+01 -0.64315304214E+01  0.15833470060E+01  0.77422107101E+01  0.51100000000E-03 0. -1.
        -11    1    3    3    0    0 -0.28316823331E+02  0.19668204548E+02  0.34617065797E+01  0.34650601242E+02  0.51100000000E-03 0.  1.
         12    1    3    3    0    0 -0.42308346561E+01  0.45609169313E+01 -0.52434005493E+01  0.81360416949E+01  0.00000000000E+00 0. -1.
</event>
<event>
 7    1  0.2891523E-011  0.5052886E+02  0.7816164E-02  0.1300439E+00
        -11   -1    0    0    0    0  0.00000000000E+00  0.00000000000E+00  0.45593999997E+02  0.45594000000E+02  0.51100000000E-03 0. -1.
         11   -1    0    0    0    0 -0.00000000000E+00 -0.00000000000E+00 -0.45593999997E+02  0.45594000000E+02  0.51100000000E-03 0.  1.
    9900012    2    1    2    0    0 -0.19004756391E+02 -0.27954797658E+02 -0.22594554462E+02  0.50528863648E+02  0.30000011544E+02 0.  0.
         12    1    1    2    0    0  0.19004756391E+02  0.27954797658E+02  0.22594554462E+02  0.40659136352E+02  0.00000000000E+00 0. -1.
         11    1    3    3    0    0 -0.11641228568E+02 -0.10732429208E+02  0.14975523429E+01  0.15904273091E+02  0.51100000000E-03 0. -1.
        -11    1    3    3    0    0 -0.11113913599E+02 -0.17876333829E+02 -0.20778669311E+02  0.29577617978E+02  0.51100000000E-03 0.  1.
         12    1    3    3    0    0  0.37503857761E+01  0.65396537913E+00 -0.33134374938E+01  0.50469725788E+01  0.00000000000E+00 0. -1.
</event>
<event>
 7    1  0.2891523E-011  0.5052884E+02  0.7816164E-02  0.1300439E+00
        -11   -1    0    0    0    0  0.00000000000E+00  0.00000000000E+00  0.45593999997E+02  0.45594000000E+02  0.51100000000E-03 0. -1.
         11   -1    0    0    0    0 -0.00000000000E+00 -0.00000000000E+00 -0.45593999997E+02  0.45594000000E+02  0.51100000000E-03 0.  1.
    9900012    2    1    2    0    0 -0.48484998645E+01 -0.30406642154E+02  0.26553628142E+02  0.50528843522E+02  0.29999950368E+02 0.  0.
         12    1    1    2    0    0  0.48484998645E+01  0.30406642154E+02 -0.26553628142E+02  0.40659156478E+02  0.00000000000E+00 0. -1.
         11    1    3    3    0    0  0.66328391044E+01 -0.25782089866E+01  0.79922688378E+01  0.10701311957E+02  0.51100000000E-03 0. -1.
        -11    1    3    3    0    0 -0.16352604099E+02 -0.19997330245E+02  0.11844075480E+02  0.28418004891E+02  0.51100000000E-03 0.  1.
        -12    1    3    3    0    0  0.48712651296E+01 -0.78311029225E+01  0.67172838241E+01  0.11409526674E+02  0.00000000000E+00 0.  1.
</event>
<event>
 7    1  0.2891523E-011  0.5052886E+02  0.7816164E-02  0.1300439E+00
        -11   -1    0    0    0    0  0.00000000000E+00  0.00000000000E+00  0.45593999997E+02  0.45594000000E+02  0.51100000000E-03 0.  1.
         11   -1    0    0    0    0 -0.00000000000E+00 -0.00000000000E+00 -0.45593999997E+02  0.45594000000E+02  0.51100000000E-03 0. -1.
    9900012    2    1    2    0    0  0.21361994259E+02 -0.74475134129E+01  0.33784101378E+02  0.50528858830E+02  0.29999996900E+02 0.  0.
         12    1    1    2    0    0 -0.21361994259E+02  0.74475134129E+01 -0.33784101378E+02  0.40659141170E+02  0.00000000000E+00 0. -1.
         11    1    3    3    0    0 -0.42377556153E+01  0.50052158634E+01  0.82681870287E+01  0.10553372707E+02  0.51100000000E-03 0. -1.
        -11    1    3    3    0    0  0.19865709562E+02 -0.10741886730E+02  0.25403271193E+02  0.33990597736E+02  0.51100000000E-03 0.  1.
         12    1    3    3    0    0  0.57340403120E+01 -0.17108425467E+01  0.11264315630E+00  0.59848883866E+01  0.00000000000E+00 0. -1.
</event>
<event>
 7    1  0.2891523E-011  0.5052886E+02  0.7816164E-02  0.1300439E+00
        -11   -1    0    0    0    0  0.00000000000E+00  0.00000000000E+00  0.45593999997E+02  0.45594000000E+02  0.51100000000E-03 0.  1.
         11   -1    0    0    0    0 -0.00000000000E+00 -0.00000000000E+00 -0.45593999997E+02  0.45594000000E+02  0.51100000000E-03 0. -1.
    9900012    2    1    2    0    0 -0.10576033972E+02 -0.30391031390E+02  0.24853531493E+02  0.50528864357E+02  0.30000013701E+02 0.  0.
         12    1    1    2    0    0  0.10576033972E+02  0.30391031390E+02 -0.24853531493E+02  0.40659135643E+02  0.00000000000E+00 0. -1.
         11    1    3    3    0    0 -0.26790144669E+01  0.22459595359E+01  0.44203798398E+01  0.56357085571E+01  0.51100000000E-03 0. -1.
        -11    1    3    3    0    0 -0.27367766559E+01 -0.33229320586E+02  0.21387748424E+02  0.39612037009E+02  0.51100000000E-03 0.  1.
        -12    1    3    3    0    0 -0.51602428493E+01  0.59232965991E+00 -0.95459677167E+00  0.52811187912E+01  0.00000000000E+00 0.  1.
</event>
<event>
 7    1  0.2891523E-011  0.5052885E+02  0.7816164E-02  0.1300439E+00
        -11   -1    0    0    0    0  0.00000000000E+00  0.00000000000E+00  0.45593999997E+02  0.45594000000E+02  0.51100000000E-03 0. -1.
         11   -1    0    0    0    0 -0.00000000000E+00 -0.00000000000E+00 -0.45593999997E+02  0.45594000000E+02  0.51100000000E-03 0.  1.
    9900012    2    1    2    0    0  0.15413402341E+02  0.28678463774E+02  0.24354441754E+02  0.50528854789E+02  0.29999984615E+02 0.  0.
         12    1    1    2    0    0 -0.15413402341E+02 -0.28678463774E+02 -0.24354441754E+02  0.40659145211E+02  0.00000000000E+00 0. -1.
         11    1    3    3    0    0 -0.64242306309E+01  0.13727582954E+02  0.60011750980E+01  0.16301269146E+02  0.51100000000E-03 0.  1.
        -11    1    3    3    0    0  0.15517469648E+02  0.16154651931E+02  0.13342229910E+02  0.26072586034E+02  0.51100000000E-03 0. -1.
         12    1    3    3    0    0  0.63201633244E+01 -0.12037711113E+01  0.50110367464E+01  0.81549996082E+01  0.00000000000E+00 0. -1.
</event>
<event>
 7    1  0.2891523E-011  0.5052885E+02  0.7816164E-02  0.1300439E+00
        -11   -1    0    0    0    0  0.00000000000E+00  0.00000000000E+00  0.45593999997E+02  0.45594000000E+02  0.51100000000E-03 0.  1.
         11   -1    0    0    0    0 -0.00000000000E+00 -0.00000000000E+00 -0.45593999997E+02  0.45594000000E+02  0.51100000000E-03 0. -1.
    9900012    2    1    2    0    0 -0.16367282349E+02 -0.32104908905E+02  0.18829580274E+02  0.50528853420E+02  0.29999980456E+02 0.  0.
         12    1    1    2    0    0  0.16367282349E+02  0.32104908905E+02 -0.18829580274E+02  0.40659146580E+02  0.00000000000E+00 0. -1.
         11    1    3    3    0    0  0.25414571668E+00  0.21389701968E+00  0.13197019470E+01  0.13608657062E+01  0.51100000000E-03 0. -1.
        -11    1    3    3    0    0 -0.14547148111E+02 -0.10619597206E+01  0.46995303929E+01  0.15324257332E+02  0.51100000000E-03 0.  1.
        -12    1    3    3    0    0 -0.20742799547E+01 -0.31256846204E+02  0.12810347935E+02  0.33843730382E+02  0.00000000000E+00 0.  1.
</event>
<event>
 7    1  0.2891523E-011  0.5052886E+02  0.7816164E-02  0.1300439E+00
        -11   -1    0    0    0    0  0.00000000000E+00  0.00000000000E+00  0.45593999997E+02  0.45594000000E+02  0.51100000000E-03 0.  1.
         11   -1    0    0    0    0 -0.00000000000E+00 -0.00000000000E+00 -0.45593999997E+02  0.45594000000E+02  0.51100000000E-03 0. -1.
    9900012    2    1    2    0    0 -0.23032228858E+02 -0.28409870284E+01  0.33385791143E+02  0.50528858055E+02  0.29999994544E+02 0.  0.
         12    1    1    2    0    0  0.23032228858E+02  0.28409870284E+01 -0.33385791143E+02  0.40659141945E+02  0.00000000000E+00 0. -1.
         11    1    3    3    0    0 -0.10894550344E+02  0.56030186083E+01  0.89292696152E+01  0.15159713086E+02  0.51100000000E-03 0. -1.
        -11    1    3    3    0    0 -0.70090885619E+01 -0.81706108924E+01  0.27407507969E+02  0.29445843478E+02  0.51100000000E-03 0.  1.
         12    1    3    3    0    0 -0.51285899518E+01 -0.27339474436E+00 -0.29509864405E+01  0.59233014909E+01  0.00000000000E+00 0. -1.
</event>
<event>
 7    1  0.2891523E-011  0.5052886E+02  0.7816164E-02  0.1300439E+00
        -11   -1    0    0    0    0  0.00000000000E+00  0.00000000000E+00  0.45593999997E+02  0.45594000000E+02  0.51100000000E-03 0.  1.
         11   -1    0    0    0    0 -0.00000000000E+00 -0.00000000000E+00 -0.45593999997E+02  0.45594000000E+02  0.51100000000E-03 0. -1.
    9900012    2    1    2    0    0  0.26920373648E+02 -0.16630760217E+02  0.25531887536E+02  0.50528856085E+02  0.29999988557E+02 0.  0.
         12    1    1    2    0    0 -0.26920373648E+02  0.16630760217E+02 -0.25531887536E+02  0.40659143915E+02  0.00000000000E+00 0. -1.
         11    1    3    3    0    0  0.10082361800E+02 -0.77184424608E+01 -0.53332479387E+01  0.13772142438E+02  0.51100000000E-03 0. -1.
        -11    1    3    3    0    0  0.88583491864E+01 -0.14039209468E+01  0.14969136253E+02  0.17450397840E+02  0.51100000000E-03 0.  1.
         12    1    3    3    0    0  0.79796626620E+01 -0.75083968092E+01  0.15895999221E+02  0.19306315808E+02  0.00000000000E+00 0. -1.
</event>
<event>
 7    1  0.2891523E-011  0.5052886E+02  0.7816164E-02  0.1300439E+00
        -11   -1    0    0    0    0  0.00000000000E+00  0.00000000000E+00  0.45593999997E+02  0.45594000000E+02  0.51100000000E-03 0.  1.
         11   -1    0    0    0    0 -0.00000000000E+00 -0.00000000000E+00 -0.45593999997E+02  0.45594000000E+02  0.51100000000E-03 0. -1.
    9900012    2    1    2    0    0 -0.14899742327E+02 -0.32763362500E+02  0.18913632142E+02  0.50528859275E+02  0.29999998251E+02 0.  0.
         12    1    1    2    0    0  0.14899742327E+02  0.32763362500E+02 -0.18913632142E+02  0.40659140725E+02  0.00000000000E+00 0. -1.
         11    1    3    3    0    0  0.26197922144E+01  0.14271155296E+01 -0.15332387957E+01  0.33542199462E+01  0.51100000000E-03 0. -1.
        -11    1    3    3    0    0 -0.20810816859E+02 -0.28432897689E+02  0.20028021482E+02  0.40529512878E+02  0.51100000000E-03 0.  1.
        -12    1    3    3    0    0  0.32912823184E+01 -0.57575803407E+01  0.41884945606E+00  0.66451264507E+01  0.00000000000E+00 0.  1.
</event>
<event>
 7    1  0.2891523E-011  0.5052886E+02  0.7816164E-02  0.1300439E+00
        -11   -1    0    0    0    0  0.00000000000E+00  0.00000000000E+00  0.45593999997E+02  0.45594000000E+02  0.51100000000E-03 0.  1.
         11   -1    0    0    0    0 -0.00000000000E+00 -0.00000000000E+00 -0.45593999997E+02  0.45594000000E+02  0.51100000000E-03 0. -1.
    9900012    2    1    2    0    0  0.23996081148E+01 -0.84079526087E+01  0.39707851536E+02  0.50528864990E+02  0.30000015624E+02 0.  0.
         12    1    1    2    0    0 -0.23996081148E+01  0.84079526087E+01 -0.39707851536E+02  0.40659135010E+02  0.00000000000E+00 0. -1.
         11    1    3    3    0    0  0.12267249670E+02  0.51766777888E+01  0.14421019862E+02  0.19627766595E+02  0.51100000000E-03 0. -1.
        -11    1    3    3    0    0 -0.53843978737E+01 -0.50047736100E+01  0.67091236981E+01  0.99524791086E+01  0.51100000000E-03 0.  1.
         12    1    3    3    0    0 -0.44832436810E+01 -0.85798567874E+01  0.18577707976E+02  0.20948619287E+02  0.00000000000E+00 0. -1.
</event>
<event>
 7    1  0.2891523E-011  0.5052885E+02  0.7816164E-02  0.1300439E+00
        -11   -1    0    0    0    0  0.00000000000E+00  0.00000000000E+00  0.45593999997E+02  0.45594000000E+02  0.51100000000E-03 0.  1.
         11   -1    0    0    0    0 -0.00000000000E+00 -0.00000000000E+00 -0.45593999997E+02  0.45594000000E+02  0.51100000000E-03 0. -1.
    9900012    2    1    2    0    0  0.13875432057E+02 -0.15869242715E+02  0.34767888440E+02  0.50528849176E+02  0.29999967556E+02 0.  0.
         12    1    1    2    0    0 -0.13875432057E+02  0.15869242715E+02 -0.34767888440E+02  0.40659150824E+02  0.00000000000E+00 0. -1.
         11    1    3    3    0    0  0.53736247335E+01 -0.15362311116E+01  0.32253459064E+02  0.32734102564E+02  0.51100000000E-03 0.  1.
        -11    1    3    3    0    0  0.91907330521E+01 -0.11746743808E+02  0.24689151471E+01  0.15117906813E+02  0.51100000000E-03 0. -1.
        -12    1    3    3    0    0 -0.68892572822E+00 -0.25862677953E+01  0.45514228964E-01  0.26768397997E+01  0.00000000000E+00 0.  1.
</event>
<event>
 7    1  0.2891523E-011  0.5052886E+02  0.7816164E-02  0.1300439E+00
        -11   -1    0    0    0    0  0.00000000000E+00  0.00000000000E+00  0.45593999997E+02  0.45594000000E+02  0.51100000000E-03 0.  1.
         11   -1    0    0    0    0 -0.00000000000E+00 -0.00000000000E+00 -0.45593999997E+02  0.45594000000E+02  0.51100000000E-03 0. -1.
    9900012    2    1    2    0    0 -0.25377113844E+01  0.26227538355E+02  0.30965171628E+02  0.50528860792E+02  0.30000002863E+02 0.  0.
         12    1    1    2    0    0  0.25377113844E+01 -0.26227538355E+02 -0.30965171628E+02  0.40659139208E+02  0.00000000000E+00 0. -1.
         11    1    3    3    0    0  0.32795135594E+01  0.22599103213E+01 -0.96195871509E+00  0.40972879661E+01  0.51100000000E-03 0. -1.
        -11    1    3    3    0    0 -0.12797365934E+02  0.21779933844E+02  0.19115394587E+02  0.31678642704E+02  0.51100000000E-03 0.  1.
        -12    1    3    3    0    0  0.69801409896E+01  0.21876941897E+01  0.12811735756E+02  0.14752930122E+02  0.00000000000E+00 0.  1.
</event>
<event>
 7    1  0.2891523E-011  0.5052886E+02  0.7816164E-02  0.1300439E+00
        -11   -1    0    0    0    0  0.00000000000E+00  0.00000000000E+00  0.45593999997E+02  0.45594000000E+02  0.51100000000E-03 0. -1.
         11   -1    0    0    0    0 -0.00000000000E+00 -0.00000000000E+00 -0.45593999997E+02  0.45594000000E+02  0.51100000000E-03 0.  1.
    9900012    2    1    2    0    0  0.21638508035E+02  0.22693596697E+02 -0.25883221512E+02  0.50528861828E+02  0.30000006013E+02 0.  0.
         12    1    1    2    0    0 -0.21638508035E+02 -0.22693596697E+02  0.25883221512E+02  0.40659138172E+02  0.00000000000E+00 0. -1.
         11    1    3    3    0    0  0.15576409247E+02  0.70226504780E+01 -0.12490937925E+01  0.17131911169E+02  0.51100000000E-03 0.  1.
        -11    1    3    3    0    0 -0.88421328885E+00  0.11115705585E+02 -0.22030477229E+02  0.24691753097E+02  0.51100000000E-03 0. -1.
         12    1    3    3    0    0  0.69463120775E+01  0.45552406343E+01 -0.26036504900E+01  0.87051975617E+01  0.00000000000E+00 0. -1.
</event>
<event>
 7    1  0.2891523E-011  0.5052887E+02  0.7816164E-02  0.1300439E+00
        -11   -1    0    0    0    0  0.00000000000E+00  0.00000000000E+00  0.45593999997E+02  0.45594000000E+02  0.51100000000E-03 0.  1.
         11   -1    0    0    0    0 -0.00000000000E+00 -0.00000000000E+00 -0.45593999997E+02  0.45594000000E+02  0.51100000000E-03 0. -1.
    9900012    2    1    2    0    0 -0.40146643995E+01  0.37124354185E+02  0.16088193826E+02  0.50528865916E+02  0.30000018439E+02 0.  0.
         12    1    1    2    0    0  0.40146643995E+01 -0.37124354185E+02 -0.16088193826E+02  0.40659134084E+02  0.00000000000E+00 0. -1.
         11    1    3    3    0    0 -0.14494708737E+02  0.27265530294E+02  0.10687232931E+02  0.32676025945E+02  0.51100000000E-03 0. -1.
        -11    1    3    3    0    0  0.20088687178E+01  0.81201703118E+01  0.24734763390E+01  0.87230043493E+01  0.51100000000E-03 0.  1.
         12    1    3    3    0    0  0.84711756200E+01  0.17386535785E+01  0.29274845558E+01  0.91298356215E+01  0.00000000000E+00 0. -1.
</event>
<event>
 7    1  0.2891523E-011  0.5052882E+02  0.7816164E-02  0.1300439E+00
        -11   -1    0    0    0    0  0.00000000000E+00  0.00000000000E+00  0.45593999997E+02  0.45594000000E+02  0.51100000000E-03 0.  1.
         11   -1    0    0    0    0 -0.00000000000E+00 -0.00000000000E+00 -0.45593999997E+02  0.45594000000E+02  0.51100000000E-03 0. -1.
    9900012    2    1    2    0    0 -0.20779623601E+01  0.37618070517E+02  0.15288284990E+02  0.50528821271E+02  0.29999882734E+02 0.  0.
         12    1    1    2    0    0  0.20779623601E+01 -0.37618070517E+02 -0.15288284990E+02  0.40659178729E+02  0.00000000000E+00 0. -1.
         11    1    3    3    0    0  0.21734989849E+01  0.11244616620E+01 -0.14751503199E+01  0.28573730233E+01  0.51100000000E-03 0. -1.
        -11    1    3    3    0    0 -0.11987845864E+02  0.33122688166E+02  0.93657278967E+01  0.36449112186E+02  0.51100000000E-03 0.  1.
        -12    1    3    3    0    0  0.77363845188E+01  0.33709206887E+01  0.73977074134E+01  0.11222336062E+02  0.00000000000E+00 0.  1.
</event>
<event>
 7    1  0.2891523E-011  0.5052887E+02  0.7816164E-02  0.1300439E+00
        -11   -1    0    0    0    0  0.00000000000E+00  0.00000000000E+00  0.45593999997E+02  0.45594000000E+02  0.51100000000E-03 0. -1.
         11   -1    0    0    0    0 -0.00000000000E+00 -0.00000000000E+00 -0.45593999997E+02  0.45594000000E+02  0.51100000000E-03 0.  1.
    9900012    2    1    2    0    0 -0.27816034549E+02 -0.12098538918E+02 -0.27075044462E+02  0.50528874892E+02  0.30000045721E+02 0.  0.
         12    1    1    2    0    0  0.27816034549E+02  0.12098538918E+02  0.27075044462E+02  0.40659125108E+02  0.00000000000E+00 0. -1.
         11    1    3    3    0    0 -0.11479109348E+02 -0.19571499146E+02 -0.11608963064E+02  0.25486889844E+02  0.51100000000E-03 0. -1.
        -11    1    3    3    0    0 -0.16349251622E+02  0.70052634462E+01 -0.11797479834E+02  0.21343670613E+02  0.51100000000E-03 0.  1.
        -12    1    3    3    0    0  0.12326421676E-01  0.46769678112E+00 -0.36686015644E+01  0.36983144347E+01  0.00000000000E+00 0.  1.
</event>
<event>
 7    1  0.2891523E-011  0.5052888E+02  0.7816164E-02  0.1300439E+00
        -11   -1    0    0    0    0  0.00000000000E+00  0.00000000000E+00  0.45593999997E+02  0.45594000000E+02  0.51100000000E-03 0. -1.
         11   -1    0    0    0    0 -0.00000000000E+00 -0.00000000000E+00 -0.45593999997E+02  0.45594000000E+02  0.51100000000E-03 0.  1.
    9900012    2    1    2    0    0 -0.25973598615E+02 -0.40234103505E+01 -0.31021746902E+02  0.50528875111E+02  0.30000046388E+02 0.  0.
         12    1    1    2    0    0  0.25973598615E+02  0.40234103505E+01  0.31021746902E+02  0.40659124889E+02  0.00000000000E+00 0. -1.
         11    1    3    3    0    0  0.73127478406E+00 -0.78377025448E+01 -0.30333162729E+01  0.84359558951E+01  0.51100000000E-03 0. -1.
        -11    1    3    3    0    0 -0.10057750710E+02  0.47822470314E+01 -0.21474507452E+02  0.24190549944E+02  0.51100000000E-03 0.  1.
         12    1    3    3    0    0 -0.16647122690E+02 -0.96795483704E+00 -0.65139231773E+01  0.17902369272E+02  0.00000000000E+00 0. -1.
</event>
<event>
 7    1  0.2891523E-011  0.5052886E+02  0.7816164E-02  0.1300439E+00
        -11   -1    0    0    0    0  0.00000000000E+00  0.00000000000E+00  0.45593999997E+02  0.45594000000E+02  0.51100000000E-03 0. -1.
         11   -1    0    0    0    0 -0.00000000000E+00 -0.00000000000E+00 -0.45593999997E+02  0.45594000000E+02  0.51100000000E-03 0.  1.
    9900012    2    1    2    0    0  0.18838701767E+02 -0.98297337314E+01 -0.34664753192E+02  0.50528862486E+02  0.30000008013E+02 0.  0.
         12    1    1    2    0    0 -0.18838701767E+02  0.98297337314E+01  0.34664753192E+02  0.40659137514E+02  0.00000000000E+00 0. -1.
         11    1    3    3    0    0 -0.16494834546E+01 -0.13700443435E+02 -0.11333013125E+02  0.17856655138E+02  0.51100000000E-03 0. -1.
        -11    1    3    3    0    0  0.15361877380E+02  0.63702277675E+01 -0.14014097477E+02  0.21747689689E+02  0.51100000000E-03 0.  1.
        -12    1    3    3    0    0  0.51263078413E+01 -0.24995180638E+01 -0.93176425903E+01  0.10924517659E+02  0.00000000000E+00 0.  1.
</event>
<event>
 7    1  0.2891523E-011  0.5052886E+02  0.7816164E-02  0.1300439E+00
        -11   -1    0    0    0    0  0.00000000000E+00  0.00000000000E+00  0.45593999997E+02  0.45594000000E+02  0.51100000000E-03 0.  1.
         11   -1    0    0    0    0 -0.00000000000E+00 -0.00000000000E+00 -0.45593999997E+02  0.45594000000E+02  0.51100000000E-03 0. -1.
    9900012    2    1    2    0    0 -0.15726202603E+02  0.23158206123E+02  0.29488122845E+02  0.50528863904E+02  0.30000012322E+02 0.  0.
         12    1    1    2    0    0  0.15726202603E+02 -0.23158206123E+02 -0.29488122845E+02  0.40659136096E+02  0.00000000000E+00 0. -1.
         11    1    3    3    0    0 -0.12386981130E+02  0.39845874018E+01  0.22332957310E+02  0.25847151115E+02  0.51100000000E-03 0. -1.
        -11    1    3    3    0    0  0.69446683024E+00  0.17517280395E+02  0.15775310841E+01  0.17601874934E+02  0.51100000000E-03 0.  1.
        -12    1    3    3    0    0 -0.40336883030E+01  0.16563383262E+01  0.55776344517E+01  0.70798378550E+01  0.00000000000E+00 0.  1.
</event>
<event>
 7    1  0.2891523E-011  0.5052886E+02  0.7816164E-02  0.1300439E+00
        -11   -1    0    0    0    0  0.00000000000E+00  0.00000000000E+00  0.45593999997E+02  0.45594000000E+02  0.51100000000E-03 0.  1.
         11   -1    0    0    0    0 -0.00000000000E+00 -0.00000000000E+00 -0.45593999997E+02  0.45594000000E+02  0.51100000000E-03 0. -1.
    9900012    2    1    2    0    0  0.24302527618E+02 -0.31355088425E+02  0.89113153454E+01  0.50528856380E+02  0.29999989452E+02 0.  0.
         12    1    1    2    0    0 -0.24302527618E+02  0.31355088425E+02 -0.89113153454E+01  0.40659143620E+02  0.00000000000E+00 0. -1.
         11    1    3    3    0    0  0.13325396670E+02  0.25726366977E+01  0.18865559578E+01  0.13701961525E+02  0.51100000000E-03 0. -1.
        -11    1    3    3    0    0  0.83790305821E+01 -0.19738211836E+02  0.19362250927E+01  0.21530307194E+02  0.51100000000E-03 0.  1.
         12    1    3    3    0    0  0.25981003667E+01 -0.14189513286E+02  0.50885342948E+01  0.15296587661E+02  0.00000000000E+00 0. -1.
</event>
<event>
 7    1  0.2891523E-011  0.5052886E+02  0.7816164E-02  0.1300439E+00
        -11   -1    0    0    0    0  0.00000000000E+00  0.00000000000E+00  0.45593999997E+02  0.45594000000E+02  0.51100000000E-03 0.  1.
         11   -1    0    0    0    0 -0.00000000000E+00 -0.00000000000E+00 -0.45593999997E+02  0.45594000000E+02  0.51100000000E-03 0. -1.
    9900012    2    1    2    0    0  0.38958521167E+02 -0.11606563497E+02 -0.82873974501E+00  0.50528862069E+02  0.30000006744E+02 0.  0.
         12    1    1    2    0    0 -0.38958521167E+02  0.11606563497E+02  0.82873974501E+00  0.40659137931E+02  0.00000000000E+00 0. -1.
         11    1    3    3    0    0  0.21259593616E+02 -0.12443075698E+01 -0.13334791225E+02  0.25126386117E+02  0.51100000000E-03 0. -1.
        -11    1    3    3    0    0  0.15704651910E+02 -0.64468071128E+01  0.70123172653E+01  0.18367634776E+02  0.51100000000E-03 0.  1.
         12    1    3    3    0    0  0.19942756416E+01 -0.39154488142E+01  0.54937342146E+01  0.70348411760E+01  0.00000000000E+00 0. -1.
</event>
<event>
 7    1  0.2891523E-011  0.5052886E+02  0.7816164E-02  0.1300439E+00
        -11   -1    0    0    0    0  0.00000000000E+00  0.00000000000E+00  0.45593999997E+02  0.45594000000E+02  0.51100000000E-03 0.  1.
         11   -1    0    0    0    0 -0.00000000000E+00 -0.00000000000E+00 -0.45593999997E+02  0.45594000000E+02  0.51100000000E-03 0. -1.
    9900012    2    1    2    0    0  0.13894252450E+02 -0.37064868596E+02  0.92903651679E+01  0.50528860558E+02  0.30000002153E+02 0.  0.
         12    1    1    2    0    0 -0.13894252450E+02  0.37064868596E+02 -0.92903651679E+01  0.40659139442E+02  0.00000000000E+00 0. -1.
         11    1    3    3    0    0 -0.97397690346E+00  0.17909279158E+01  0.10481827239E+01  0.22923222051E+01  0.51100000000E-03 0. -1.
        -11    1    3    3    0    0  0.80545893143E+01 -0.23944805071E+02 -0.66117588028E+01  0.26114085349E+02  0.51100000000E-03 0.  1.
        -12    1    3    3    0    0  0.68136400392E+01 -0.14910991441E+02  0.14853941247E+02  0.22122453004E+02  0.00000000000E+00 0.  1.
</event>
<event>
 7    1  0.2891523E-011  0.5052886E+02  0.7816164E-02  0.1300439E+00
        -11   -1    0    0    0    0  0.00000000000E+00  0.00000000000E+00  0.45593999997E+02  0.45594000000E+02  0.51100000000E-03 0.  1.
         11   -1    0    0    0    0 -0.00000000000E+00 -0.00000000000E+00 -0.45593999997E+02  0.45594000000E+02  0.51100000000E-03 0. -1.
    9900012    2    1    2    0    0  0.16828117578E+02 -0.29384601403E+02  0.22506112642E+02  0.50528862687E+02  0.30000008622E+02 0.  0.
         12    1    1    2    0    0 -0.16828117578E+02  0.29384601403E+02 -0.22506112642E+02  0.40659137313E+02  0.00000000000E+00 0. -1.
         11    1    3    3    0    0  0.11084424691E+02  0.25783094182E+01  0.39940951860E+01  0.12060884993E+02  0.51100000000E-03 0. -1.
        -11    1    3    3    0    0  0.17858275286E+01 -0.68780261593E+01  0.87237809447E+01  0.11251701118E+02  0.51100000000E-03 0.  1.
         12    1    3    3    0    0  0.39578653585E+01 -0.25084884662E+02  0.97882365109E+01  0.27216276576E+02  0.00000000000E+00 0. -1.
</event>
<event>
 7    1  0.2891523E-011  0.5052887E+02  0.7816164E-02  0.1300439E+00
        -11   -1    0    0    0    0  0.00000000000E+00  0.00000000000E+00  0.45593999997E+02  0.45594000000E+02  0.51100000000E-03 0. -1.
         11   -1    0    0    0    0 -0.00000000000E+00 -0.00000000000E+00 -0.45593999997E+02  0.45594000000E+02  0.51100000000E-03 0.  1.
    9900012    2    1    2    0    0 -0.30344518423E+02  0.25239966248E+02 -0.97631651966E+01  0.50528867088E+02  0.30000022001E+02 0.  0.
         12    1    1    2    0    0  0.30344518423E+02 -0.25239966248E+02  0.97631651966E+01  0.40659132912E+02  0.00000000000E+00 0. -1.
         11    1    3    3    0    0 -0.12427789295E+02 -0.49932988368E+01 -0.25997671510E+01  0.13643378231E+02  0.51100000000E-03 0. -1.
        -11    1    3    3    0    0 -0.12323099606E+02  0.12353941987E+02 -0.34507082626E+01  0.17787244145E+02  0.51100000000E-03 0.  1.
         12    1    3    3    0    0 -0.55936295220E+01  0.17879323098E+02 -0.37126897831E+01  0.19098244712E+02  0.00000000000E+00 0. -1.
</event>
<event>
 7    1  0.2891523E-011  0.5052888E+02  0.7816164E-02  0.1300439E+00
        -11   -1    0    0    0    0  0.00000000000E+00  0.00000000000E+00  0.45593999997E+02  0.45594000000E+02  0.51100000000E-03 0.  1.
         11   -1    0    0    0    0 -0.00000000000E+00 -0.00000000000E+00 -0.45593999997E+02  0.45594000000E+02  0.51100000000E-03 0. -1.
    9900012    2    1    2    0    0  0.31238155615E+01  0.87892121835E+01  0.39574680387E+02  0.50528882914E+02  0.30000070106E+02 0.  0.
         12    1    1    2    0    0 -0.31238155615E+01 -0.87892121835E+01 -0.39574680387E+02  0.40659117086E+02  0.00000000000E+00 0. -1.
         11    1    3    3    0    0  0.40447969711E+00  0.17013558970E+01 -0.38501316337E+00  0.17906566144E+01  0.51100000000E-03 0. -1.
        -11    1    3    3    0    0  0.84029983341E+01 -0.37659717282E+00  0.38297215954E+02  0.39210061929E+02  0.51100000000E-03 0.  1.
        -12    1    3    3    0    0 -0.56836624696E+01  0.74644534593E+01  0.16624775964E+01  0.95281643706E+01  0.00000000000E+00 0.  1.
</event>
<event>
 7    1  0.2891523E-011  0.5052888E+02  0.7816164E-02  0.1300439E+00
        -11   -1    0    0    0    0  0.00000000000E+00  0.00000000000E+00  0.45593999997E+02  0.45594000000E+02  0.51100000000E-03 0.  1.
         11   -1    0    0    0    0 -0.00000000000E+00 -0.00000000000E+00 -0.45593999997E+02  0.45594000000E+02  0.51100000000E-03 0. -1.
    9900012    2    1    2    0    0 -0.29105939606E+02 -0.24435717956E+02  0.14453520570E+02  0.50528876925E+02  0.30000051902E+02 0.  0.
         12    1    1    2    0    0  0.29105939606E+02  0.24435717956E+02 -0.14453520570E+02  0.40659123075E+02  0.00000000000E+00 0. -1.
         11    1    3    3    0    0 -0.34449381354E+01 -0.81602025394E+00  0.15652040763E+00  0.35437249768E+01  0.51100000000E-03 0. -1.
        -11    1    3    3    0    0 -0.25584607723E+02 -0.26195827731E+02  0.19274536388E+02  0.41379962495E+02  0.51100000000E-03 0.  1.
        -12    1    3    3    0    0 -0.76393747230E-01  0.25761300292E+01 -0.49775362260E+01  0.56051894538E+01  0.00000000000E+00 0.  1.
</event>
<event>
 7    1  0.2891523E-011  0.5052886E+02  0.7816164E-02  0.1300439E+00
        -11   -1    0    0    0    0  0.00000000000E+00  0.00000000000E+00  0.45593999997E+02  0.45594000000E+02  0.51100000000E-03 0. -1.
         11   -1    0    0    0    0 -0.00000000000E+00 -0.00000000000E+00 -0.45593999997E+02  0.45594000000E+02  0.51100000000E-03 0.  1.
    9900012    2    1    2    0    0  0.19119823945E+02  0.24033131219E+02 -0.26645947601E+02  0.50528860961E+02  0.30000003376E+02 0.  0.
         12    1    1    2    0    0 -0.19119823945E+02 -0.24033131219E+02  0.26645947601E+02  0.40659139039E+02  0.00000000000E+00 0. -1.
         11    1    3    3    0    0 -0.18596328214E+01  0.79613061713E+01 -0.36199472410E+00  0.81836220969E+01  0.51100000000E-03 0. -1.
        -11    1    3    3    0    0  0.79762078452E+01 -0.42671929752E+01 -0.77199606714E+01  0.11892292483E+02  0.51100000000E-03 0.  1.
        -12    1    3    3    0    0  0.13003248922E+02  0.20339018023E+02 -0.18563992205E+02  0.30452946380E+02  0.00000000000E+00 0.  1.
</event>
<event>
 7    1  0.2891523E-011  0.5052887E+02  0.7816164E-02  0.1300439E+00
        -11   -1    0    0    0    0  0.00000000000E+00  0.00000000000E+00  0.45593999997E+02  0.45594000000E+02  0.51100000000E-03 0.  1.
         11   -1    0    0    0    0 -0.00000000000E+00 -0.00000000000E+00 -0.45593999997E+02  0.45594000000E+02  0.51100000000E-03 0. -1.
    9900012    2    1    2    0    0 -0.16347346394E+02 -0.29495755713E+02  0.22714085416E+02  0.50528867994E+02  0.30000024753E+02 0.  0.
         12    1    1    2    0    0  0.16347346394E+02  0.29495755713E+02 -0.22714085416E+02  0.40659132006E+02  0.00000000000E+00 0. -1.
         11    1    3    3    0    0 -0.47835068476E-01 -0.57607703448E+01 -0.64028621010E+01  0.86130950596E+01  0.51100000000E-03 0. -1.
        -11    1    3    3    0    0 -0.17325489077E+02 -0.23034735856E+02  0.27196025809E+02  0.39628215299E+02  0.51100000000E-03 0.  1.
        -12    1    3    3    0    0  0.10259777510E+01 -0.70024951200E+00  0.19209217079E+01  0.22875576348E+01  0.00000000000E+00 0.  1.
</event>
<event>
 7    1  0.2891523E-011  0.5052885E+02  0.7816164E-02  0.1300439E+00
        -11   -1    0    0    0    0  0.00000000000E+00  0.00000000000E+00  0.45593999997E+02  0.45594000000E+02  0.51100000000E-03 0.  1.
         11   -1    0    0    0    0 -0.00000000000E+00 -0.00000000000E+00 -0.45593999997E+02  0.45594000000E+02  0.51100000000E-03 0. -1.
    9900012    2    1    2    0    0 -0.39631721410E+02  0.90248750748E+01  0.10222103923E+01  0.50528848188E+02  0.29999964552E+02 0.  0.
         12    1    1    2    0    0  0.39631721410E+02 -0.90248750748E+01 -0.10222103923E+01  0.40659151812E+02  0.00000000000E+00 0. -1.
         11    1    3    3    0    0 -0.42616822734E+01  0.12740214242E+02  0.48023983768E+01  0.14266675336E+02  0.51100000000E-03 0. -1.
        -11    1    3    3    0    0 -0.28578065161E+02 -0.16729039469E+01 -0.10004314714E+01  0.28644463329E+02  0.51100000000E-03 0.  1.
         12    1    3    3    0    0 -0.67919739747E+01 -0.20424352200E+01 -0.27797565132E+01  0.76177095228E+01  0.00000000000E+00 0. -1.
</event>
<event>
 7    1  0.2891523E-011  0.5052888E+02  0.7816164E-02  0.1300439E+00
        -11   -1    0    0    0    0  0.00000000000E+00  0.00000000000E+00  0.45593999997E+02  0.45594000000E+02  0.51100000000E-03 0. -1.
         11   -1    0    0    0    0 -0.00000000000E+00 -0.00000000000E+00 -0.45593999997E+02  0.45594000000E+02  0.51100000000E-03 0.  1.
    9900012    2    1    2    0    0 -0.37735627281E+02 -0.12352741771E+02 -0.87519422137E+01  0.50528876939E+02  0.30000051943E+02 0.  0.
         12    1    1    2    0    0  0.37735627281E+02  0.12352741771E+02  0.87519422137E+01  0.40659123061E+02  0.00000000000E+00 0. -1.
         11    1    3    3    0    0 -0.54117288505E+01  0.81664610890E+01  0.10822062838E+01  0.98564226051E+01  0.51100000000E-03 0. -1.
        -11    1    3    3    0    0 -0.22639012132E+02 -0.99375826371E+01 -0.89730868900E+01  0.26302028583E+02  0.51100000000E-03 0.  1.
         12    1    3    3    0    0 -0.96848862992E+01 -0.10581620223E+02 -0.86106160747E+00  0.14370425751E+02  0.00000000000E+00 0. -1.
</event>
<event>
 7    1  0.2891523E-011  0.5052887E+02  0.7816164E-02  0.1300439E+00
        -11   -1    0    0    0    0  0.00000000000E+00  0.00000000000E+00  0.45593999997E+02  0.45594000000E+02  0.51100000000E-03 0.  1.
         11   -1    0    0    0    0 -0.00000000000E+00 -0.00000000000E+00 -0.45593999997E+02  0.45594000000E+02  0.51100000000E-03 0. -1.
    9900012    2    1    2    0    0 -0.27388814116E+02 -0.26418254571E+02 -0.14321094641E+02  0.50528867385E+02  0.30000022903E+02 0.  0.
         12    1    1    2    0    0  0.27388814116E+02  0.26418254571E+02  0.14321094641E+02  0.40659132615E+02  0.00000000000E+00 0. -1.
         11    1    3    3    0    0 -0.12624655661E+02 -0.21504189088E+02 -0.11888872261E+02  0.27625302945E+02  0.51100000000E-03 0. -1.
        -11    1    3    3    0    0  0.23652749054E+01  0.24474574140E-01  0.34042266649E+01  0.41453448385E+01  0.51100000000E-03 0.  1.
         12    1    3    3    0    0 -0.17129433361E+02 -0.49385400571E+01 -0.58364490443E+01  0.18758219602E+02  0.00000000000E+00 0. -1.
</event>
<event>
 7    1  0.2891523E-011  0.5052886E+02  0.7816164E-02  0.1300439E+00
        -11   -1    0    0    0    0  0.00000000000E+00  0.00000000000E+00  0.45593999997E+02  0.45594000000E+02  0.51100000000E-03 0.  1.
         11   -1    0    0    0    0 -0.00000000000E+00 -0.00000000000E+00 -0.45593999997E+02  0.45594000000E+02  0.51100000000E-03 0. -1.
    9900012    2    1    2    0    0 -0.95578092721E+01 -0.95317977155E+01  0.38353085309E+02  0.50528855414E+02  0.29999986516E+02 0.  0.
         12    1    1    2    0    0  0.95578092721E+01  0.95317977155E+01 -0.38353085309E+02  0.40659144586E+02  0.00000000000E+00 0. -1.
         11    1    3    3    0    0 -0.45117114316E+00 -0.11629573271E+02  0.26520530246E+01  0.11936662657E+02  0.51100000000E-03 0. -1.
        -11    1    3    3    0    0 -0.77322686835E+01  0.88089583374E+00  0.35910978417E+02  0.36744555074E+02  0.51100000000E-03 0.  1.
        -12    1    3    3    0    0 -0.13743694455E+01  0.12168797220E+01 -0.20994613227E+00  0.18476376834E+01  0.00000000000E+00 0.  1.
</event>
<event>
 7    1  0.2891523E-011  0.5052886E+02  0.7816164E-02  0.1300439E+00
        -11   -1    0    0    0    0  0.00000000000E+00  0.00000000000E+00  0.45593999997E+02  0.45594000000E+02  0.51100000000E-03 0.  1.
         11   -1    0    0    0    0 -0.00000000000E+00 -0.00000000000E+00 -0.45593999997E+02  0.45594000000E+02  0.51100000000E-03 0. -1.
    9900012    2    1    2    0    0 -0.16999292228E+02  0.25269587323E+02  0.26937660041E+02  0.50528861934E+02  0.30000006335E+02 0.  0.
         12    1    1    2    0    0  0.16999292228E+02 -0.25269587323E+02 -0.26937660041E+02  0.40659138066E+02  0.00000000000E+00 0. -1.
         11    1    3    3    0    0 -0.16519382160E+02  0.26158041141E+02  0.17779659878E+02  0.35682620544E+02  0.51100000000E-03 0. -1.
        -11    1    3    3    0    0  0.40769476694E+01 -0.11365880738E+01  0.93659917924E+01  0.10277895566E+02  0.51100000000E-03 0.  1.
        -12    1    3    3    0    0 -0.45568577382E+01  0.24813425645E+00 -0.20799162876E+00  0.45683458246E+01  0.00000000000E+00 0.  1.
</event>
<event>
 7    1  0.2891523E-011  0.5052886E+02  0.7816164E-02  0.1300439E+00
        -11   -1    0    0    0    0  0.00000000000E+00  0.00000000000E+00  0.45593999997E+02  0.45594000000E+02  0.51100000000E-03 0.  1.
         11   -1    0    0    0    0 -0.00000000000E+00 -0.00000000000E+00 -0.45593999997E+02  0.45594000000E+02  0.51100000000E-03 0. -1.
    9900012    2    1    2    0    0 -0.38065796804E+02  0.11792222553E+02  0.80687325829E+01  0.50528857798E+02  0.29999993763E+02 0.  0.
         12    1    1    2    0    0  0.38065796804E+02 -0.11792222553E+02 -0.80687325829E+01  0.40659142202E+02  0.00000000000E+00 0. -1.
         11    1    3    3    0    0 -0.18576528198E+02 -0.16555543100E+01 -0.71974917901E+01  0.19990801592E+02  0.51100000000E-03 0. -1.
        -11    1    3    3    0    0 -0.21030524194E+02  0.13309091981E+02  0.14589620338E+02  0.28849123022E+02  0.51100000000E-03 0.  1.
         12    1    3    3    0    0  0.15412555875E+01  0.13868488211E+00  0.67660403467E+00  0.16889331847E+01  0.00000000000E+00 0. -1.
</event>
<event>
 7    1  0.2891523E-011  0.5052886E+02  0.7816164E-02  0.1300439E+00
        -11   -1    0    0    0    0  0.00000000000E+00  0.00000000000E+00  0.45593999997E+02  0.45594000000E+02  0.51100000000E-03 0. -1.
         11   -1    0    0    0    0 -0.00000000000E+00 -0.00000000000E+00 -0.45593999997E+02  0.45594000000E+02  0.51100000000E-03 0.  1.
    9900012    2    1    2    0    0  0.64109704856E+01  0.33960077295E+02 -0.21419109779E+02  0.50528860115E+02  0.30000000806E+02 0.  0.
         12    1    1    2    0    0 -0.64109704856E+01 -0.33960077295E+02  0.21419109779E+02  0.40659139885E+02  0.00000000000E+00 0. -1.
         11    1    3    3    0    0 -0.26255574204E+01 -0.14193600046E+01  0.77173709074E+00  0.30828092690E+01  0.51100000000E-03 0. -1.
        -11    1    3    3    0    0  0.37235887163E+01  0.34825453394E+02 -0.23198509604E+02  0.42010095991E+02  0.51100000000E-03 0.  1.
        -12    1    3    3    0    0  0.53129391897E+01  0.55398390507E+00  0.10076627344E+01  0.54359548551E+01  0.00000000000E+00 0.  1.
</event>
<event>
 7    1  0.2891523E-011  0.5052886E+02  0.7816164E-02  0.1300439E+00
        -11   -1    0    0    0    0  0.00000000000E+00  0.00000000000E+00  0.45593999997E+02  0.45594000000E+02  0.51100000000E-03 0.  1.
         11   -1    0    0    0    0 -0.00000000000E+00 -0.00000000000E+00 -0.45593999997E+02  0.45594000000E+02  0.51100000000E-03 0. -1.
    9900012    2    1    2    0    0  0.24033722078E+02  0.75758039245E+01  0.31908505419E+02  0.50528864248E+02  0.30000013368E+02 0.  0.
         12    1    1    2    0    0 -0.24033722078E+02 -0.75758039245E+01 -0.31908505419E+02  0.40659135752E+02  0.00000000000E+00 0. -1.
         11    1    3    3    0    0 -0.39567467574E+01  0.29817312608E+01 -0.23698460042E+01  0.54920612304E+01  0.51100000000E-03 0. -1.
        -11    1    3    3    0    0  0.12181010412E+02  0.70273074823E+00  0.19754864166E+02  0.23219076288E+02  0.51100000000E-03 0.  1.
         12    1    3    3    0    0  0.15809458424E+02  0.38913419155E+01  0.14523487257E+02  0.21817726730E+02  0.00000000000E+00 0. -1.
</event>
<event>
 7    1  0.2891523E-011  0.5052886E+02  0.7816164E-02  0.1300439E+00
        -11   -1    0    0    0    0  0.00000000000E+00  0.00000000000E+00  0.45593999997E+02  0.45594000000E+02  0.51100000000E-03 0.  1.
         11   -1    0    0    0    0 -0.00000000000E+00 -0.00000000000E+00 -0.45593999997E+02  0.45594000000E+02  0.51100000000E-03 0. -1.
    9900012    2    1    2    0    0 -0.56486848107E+01  0.20761319837E+02  0.34499647978E+02  0.50528858936E+02  0.29999997222E+02 0.  0.
         12    1    1    2    0    0  0.56486848107E+01 -0.20761319837E+02 -0.34499647978E+02  0.40659141064E+02  0.00000000000E+00 0. -1.
         11    1    3    3    0    0  0.13634200354E+01  0.22099510015E+02  0.10255784880E+02  0.24401401207E+02  0.51100000000E-03 0. -1.
        -11    1    3    3    0    0 -0.47823424156E+01 -0.24987673751E+00  0.58185348556E+01  0.75358201605E+01  0.51100000000E-03 0.  1.
         12    1    3    3    0    0 -0.22297624305E+01 -0.10883134405E+01  0.18425328242E+02  0.18591637569E+02  0.00000000000E+00 0. -1.
</event>
<event>
 7    1  0.2891523E-011  0.5052886E+02  0.7816164E-02  0.1300439E+00
        -11   -1    0    0    0    0  0.00000000000E+00  0.00000000000E+00  0.45593999997E+02  0.45594000000E+02  0.51100000000E-03 0.  1.
         11   -1    0    0    0    0 -0.00000000000E+00 -0.00000000000E+00 -0.45593999997E+02  0.45594000000E+02  0.51100000000E-03 0. -1.
    9900012    2    1    2    0    0 -0.36729329828E+02 -0.55549894668E+01  0.16530703592E+02  0.50528859099E+02  0.29999997717E+02 0.  0.
         12    1    1    2    0    0  0.36729329828E+02  0.55549894668E+01 -0.16530703592E+02  0.40659140901E+02  0.00000000000E+00 0. -1.
         11    1    3    3    0    0 -0.24715833179E+02 -0.50556310270E-01 -0.46904993125E+01  0.25157021877E+02  0.51100000000E-03 0. -1.
        -11    1    3    3    0    0 -0.72020689817E+01 -0.13914432262E+01  0.90169812068E+01  0.11623762825E+02  0.51100000000E-03 0.  1.
         12    1    3    3    0    0 -0.48114276669E+01 -0.41129899304E+01  0.12204221698E+02  0.13748074397E+02  0.00000000000E+00 0. -1.
</event>
<event>
 7    1  0.2891523E-011  0.5052885E+02  0.7816164E-02  0.1300439E+00
        -11   -1    0    0    0    0  0.00000000000E+00  0.00000000000E+00  0.45593999997E+02  0.45594000000E+02  0.51100000000E-03 0.  1.
         11   -1    0    0    0    0 -0.00000000000E+00 -0.00000000000E+00 -0.45593999997E+02  0.45594000000E+02  0.51100000000E-03 0. -1.
    9900012    2    1    2    0    0 -0.19514362602E+02  0.29384957568E+02 -0.20220785247E+02  0.50528852997E+02  0.29999979169E+02 0.  0.
         12    1    1    2    0    0  0.19514362602E+02 -0.29384957568E+02  0.20220785247E+02  0.40659147003E+02  0.00000000000E+00 0. -1.
         11    1    3    3    0    0 -0.15360762911E+02  0.16601426412E+02 -0.26454751195E+02  0.34805376842E+02  0.51100000000E-03 0. -1.
        -11    1    3    3    0    0 -0.43090740701E+00  0.49060629207E+00 -0.83695432398E+00  0.10615406393E+01  0.51100000000E-03 0.  1.
         12    1    3    3    0    0 -0.37226922837E+01  0.12292924864E+02  0.70709202717E+01  0.14661935515E+02  0.00000000000E+00 0. -1.
</event>
<event>
 7    1  0.2891523E-011  0.5052886E+02  0.7816164E-02  0.1300439E+00
        -11   -1    0    0    0    0  0.00000000000E+00  0.00000000000E+00  0.45593999997E+02  0.45594000000E+02  0.51100000000E-03 0. -1.
         11   -1    0    0    0    0 -0.00000000000E+00 -0.00000000000E+00 -0.45593999997E+02  0.45594000000E+02  0.51100000000E-03 0.  1.
    9900012    2    1    2    0    0 -0.31882122616E+02 -0.17497460696E+02  0.18180613598E+02  0.50528861002E+02  0.30000003502E+02 0.  0.
         12    1    1    2    0    0  0.31882122616E+02  0.17497460696E+02 -0.18180613598E+02  0.40659138998E+02  0.00000000000E+00 0. -1.
         11    1    3    3    0    0 -0.23125264206E+02 -0.12233886945E+02  0.15286778455E+01  0.26206539081E+02  0.51100000000E-03 0. -1.
        -11    1    3    3    0    0 -0.30334691566E+01  0.47231410544E+01  0.26819627187E+01  0.62211671597E+01  0.51100000000E-03 0.  1.
         12    1    3    3    0    0 -0.57233892529E+01 -0.99867148050E+01  0.13969973033E+02  0.18101154761E+02  0.00000000000E+00 0. -1.
</event>
<event>
 7    1  0.2891523E-011  0.5052885E+02  0.7816164E-02  0.1300439E+00
        -11   -1    0    0    0    0  0.00000000000E+00  0.00000000000E+00  0.45593999997E+02  0.45594000000E+02  0.51100000000E-03 0.  1.
         11   -1    0    0    0    0 -0.00000000000E+00 -0.00000000000E+00 -0.45593999997E+02  0.45594000000E+02  0.51100000000E-03 0. -1.
    9900012    2    1    2    0    0 -0.17866726519E+02 -0.33107175641E+02  0.15422749974E+02  0.50528853278E+02  0.29999980022E+02 0.  0.
         12    1    1    2    0    0  0.17866726519E+02  0.33107175641E+02 -0.15422749974E+02  0.40659146722E+02  0.00000000000E+00 0. -1.
         11    1    3    3    0    0 -0.23643534938E+02 -0.20177196732E+02  0.35955994038E+01  0.31290003958E+02  0.51100000000E-03 0. -1.
        -11    1    3    3    0    0  0.33117841555E+01 -0.11831911081E+02  0.10776349827E+02  0.16342941901E+02  0.51100000000E-03 0.  1.
         12    1    3    3    0    0  0.24650242640E+01 -0.10980678284E+01  0.10508007431E+01  0.28959074190E+01  0.00000000000E+00 0. -1.
</event>
<event>
 7    1  0.2891523E-011  0.5052882E+02  0.7816164E-02  0.1300439E+00
        -11   -1    0    0    0    0  0.00000000000E+00  0.00000000000E+00  0.45593999997E+02  0.45594000000E+02  0.51100000000E-03 0. -1.
         11   -1    0    0    0    0 -0.00000000000E+00 -0.00000000000E+00 -0.45593999997E+02  0.45594000000E+02  0.51100000000E-03 0.  1.
    9900012    2    1    2    0    0 -0.38505531438E+02  0.91900885509E+01  0.92755011218E+01  0.50528823914E+02  0.29999890770E+02 0.  0.
         12    1    1    2    0    0  0.38505531438E+02 -0.91900885509E+01 -0.92755011218E+01  0.40659176086E+02  0.00000000000E+00 0. -1.
         11    1    3    3    0    0 -0.36527416464E+01  0.12784542256E+02  0.48206679780E+01  0.14143050670E+02  0.51100000000E-03 0. -1.
        -11    1    3    3    0    0 -0.30714275057E+02 -0.28371826646E+00  0.28461427253E+01  0.30847167082E+02  0.51100000000E-03 0.  1.
         12    1    3    3    0    0 -0.41385147348E+01 -0.33107354388E+01  0.16086904185E+01  0.55386061620E+01  0.00000000000E+00 0. -1.
</event>
<event>
 7    1  0.2891523E-011  0.5052886E+02  0.7816164E-02  0.1300439E+00
        -11   -1    0    0    0    0  0.00000000000E+00  0.00000000000E+00  0.45593999997E+02  0.45594000000E+02  0.51100000000E-03 0. -1.
         11   -1    0    0    0    0 -0.00000000000E+00 -0.00000000000E+00 -0.45593999997E+02  0.45594000000E+02  0.51100000000E-03 0.  1.
    9900012    2    1    2    0    0 -0.42590792679E+01  0.39508978544E+02 -0.86061765729E+01  0.50528863056E+02  0.30000009746E+02 0.  0.
         12    1    1    2    0    0  0.42590792679E+01 -0.39508978544E+02  0.86061765729E+01  0.40659136944E+02  0.00000000000E+00 0. -1.
         11    1    3    3    0    0 -0.90169857276E+01  0.15058179168E+02  0.92043234292E+01  0.19818535806E+02  0.51100000000E-03 0. -1.
        -11    1    3    3    0    0  0.21726017627E+01  0.94963573462E+01 -0.83187907217E+01  0.12810280270E+02  0.51100000000E-03 0.  1.
         12    1    3    3    0    0  0.25853046970E+01  0.14954442030E+02 -0.94917092805E+01  0.17900046980E+02  0.00000000000E+00 0. -1.
</event>
<event>
 7    1  0.2891523E-011  0.5052886E+02  0.7816164E-02  0.1300439E+00
        -11   -1    0    0    0    0  0.00000000000E+00  0.00000000000E+00  0.45593999997E+02  0.45594000000E+02  0.51100000000E-03 0. -1.
         11   -1    0    0    0    0 -0.00000000000E+00 -0.00000000000E+00 -0.45593999997E+02  0.45594000000E+02  0.51100000000E-03 0.  1.
    9900012    2    1    2    0    0  0.12750932310E+02  0.37396821977E+02 -0.95946218920E+01  0.50528864028E+02  0.30000012699E+02 0.  0.
         12    1    1    2    0    0 -0.12750932310E+02 -0.37396821977E+02  0.95946218920E+01  0.40659135972E+02  0.00000000000E+00 0. -1.
         11    1    3    3    0    0  0.64148665604E+01  0.23082589551E+02  0.89688413748E+01  0.25581176072E+02  0.51100000000E-03 0. -1.
        -11    1    3    3    0    0  0.39247644432E+01  0.26639871943E+01 -0.59360286524E+01  0.75984893321E+01  0.51100000000E-03 0.  1.
         12    1    3    3    0    0  0.24113013063E+01  0.11650245231E+02 -0.12627434614E+02  0.17349198624E+02  0.00000000000E+00 0. -1.
</event>
<event>
 7    1  0.2891523E-011  0.5052886E+02  0.7816164E-02  0.1300439E+00
        -11   -1    0    0    0    0  0.00000000000E+00  0.00000000000E+00  0.45593999997E+02  0.45594000000E+02  0.51100000000E-03 0.  1.
         11   -1    0    0    0    0 -0.00000000000E+00 -0.00000000000E+00 -0.45593999997E+02  0.45594000000E+02  0.51100000000E-03 0. -1.
    9900012    2    1    2    0    0 -0.23398640300E+01  0.94765425200E+01  0.39470057641E+02  0.50528864839E+02  0.30000015166E+02 0.  0.
         12    1    1    2    0    0  0.23398640300E+01 -0.94765425200E+01 -0.39470057641E+02  0.40659135161E+02  0.00000000000E+00 0. -1.
         11    1    3    3    0    0  0.58830386592E+00  0.75313684898E+01 -0.26303026519E+00  0.75588886716E+01  0.51100000000E-03 0. -1.
        -11    1    3    3    0    0  0.14027531808E+01 -0.54308507495E+01  0.27354439295E+02  0.27923595860E+02  0.51100000000E-03 0.  1.
        -12    1    3    3    0    0 -0.43309210767E+01  0.73760247796E+01  0.12378648612E+02  0.15046380308E+02  0.00000000000E+00 0.  1.
</event>
<event>
 7    1  0.2891523E-011  0.5052888E+02  0.7816164E-02  0.1300439E+00
        -11   -1    0    0    0    0  0.00000000000E+00  0.00000000000E+00  0.45593999997E+02  0.45594000000E+02  0.51100000000E-03 0.  1.
         11   -1    0    0    0    0 -0.00000000000E+00 -0.00000000000E+00 -0.45593999997E+02  0.45594000000E+02  0.51100000000E-03 0. -1.
    9900012    2    1    2    0    0 -0.26708453665E+02 -0.21843512490E+02  0.21510077143E+02  0.50528881051E+02  0.30000064442E+02 0.  0.
         12    1    1    2    0    0  0.26708453665E+02  0.21843512490E+02 -0.21510077143E+02  0.40659118949E+02  0.00000000000E+00 0. -1.
         11    1    3    3    0    0  0.21299633020E+01 -0.28986361621E+01  0.21334086400E+01  0.41821367690E+01  0.51100000000E-03 0. -1.
        -11    1    3    3    0    0 -0.29528583088E+02 -0.74167112291E+01  0.12548462874E+02  0.32930362060E+02  0.51100000000E-03 0.  1.
        -12    1    3    3    0    0  0.69016612134E+00 -0.11528165098E+02  0.68282056289E+01  0.13416382222E+02  0.00000000000E+00 0.  1.
</event>
<event>
 7    1  0.2891523E-011  0.5052887E+02  0.7816164E-02  0.1300439E+00
        -11   -1    0    0    0    0  0.00000000000E+00  0.00000000000E+00  0.45593999997E+02  0.45594000000E+02  0.51100000000E-03 0. -1.
         11   -1    0    0    0    0 -0.00000000000E+00 -0.00000000000E+00 -0.45593999997E+02  0.45594000000E+02  0.51100000000E-03 0.  1.
    9900012    2    1    2    0    0  0.16234419872E+02  0.15917996684E+02 -0.33707954615E+02  0.50528865585E+02  0.30000017433E+02 0.  0.
         12    1    1    2    0    0 -0.16234419872E+02 -0.15917996684E+02  0.33707954615E+02  0.40659134415E+02  0.00000000000E+00 0. -1.
         11    1    3    3    0    0  0.18880614952E+02  0.74415785609E+01 -0.12155043982E+02  0.23655861999E+02  0.51100000000E-03 0. -1.
        -11    1    3    3    0    0  0.32542693493E+00 -0.18264431320E+01 -0.13068428252E+02  0.13199455082E+02  0.51100000000E-03 0.  1.
         12    1    3    3    0    0 -0.29716220150E+01  0.10302861255E+02 -0.84844823808E+01  0.13673548505E+02  0.00000000000E+00 0. -1.
</event>
<event>
 7    1  0.2891523E-011  0.5052886E+02  0.7816164E-02  0.1300439E+00
        -11   -1    0    0    0    0  0.00000000000E+00  0.00000000000E+00  0.45593999997E+02  0.45594000000E+02  0.51100000000E-03 0. -1.
         11   -1    0    0    0    0 -0.00000000000E+00 -0.00000000000E+00 -0.45593999997E+02  0.45594000000E+02  0.51100000000E-03 0.  1.
    9900012    2    1    2    0    0 -0.31230058879E+02 -0.12544299942E+02 -0.22814239901E+02  0.50528861041E+02  0.30000003621E+02 0.  0.
         12    1    1    2    0    0  0.31230058879E+02  0.12544299942E+02  0.22814239901E+02  0.40659138959E+02  0.00000000000E+00 0. -1.
         11    1    3    3    0    0 -0.55990945287E+01 -0.91601890874E+00  0.24466009345E+01  0.61785764199E+01  0.51100000000E-03 0. -1.
        -11    1    3    3    0    0 -0.15148668606E+02 -0.18405484230E+02 -0.18348980625E+02  0.30082039501E+02  0.51100000000E-03 0.  1.
        -12    1    3    3    0    0 -0.10482295744E+02  0.67772031974E+01 -0.69118602102E+01  0.14268245120E+02  0.00000000000E+00 0.  1.
</event>
<event>
 7    1  0.2891523E-011  0.5052886E+02  0.7816164E-02  0.1300439E+00
        -11   -1    0    0    0    0  0.00000000000E+00  0.00000000000E+00  0.45593999997E+02  0.45594000000E+02  0.51100000000E-03 0.  1.
         11   -1    0    0    0    0 -0.00000000000E+00 -0.00000000000E+00 -0.45593999997E+02  0.45594000000E+02  0.51100000000E-03 0. -1.
    9900012    2    1    2    0    0  0.14315792386E+02 -0.22249156694E+02  0.30873917797E+02  0.50528859756E+02  0.29999999715E+02 0.  0.
         12    1    1    2    0    0 -0.14315792386E+02  0.22249156694E+02 -0.30873917797E+02  0.40659140244E+02  0.00000000000E+00 0. -1.
         11    1    3    3    0    0  0.80023450140E+01 -0.87248228243E+01  0.20319781179E+02  0.23517090944E+02  0.51100000000E-03 0. -1.
        -11    1    3    3    0    0  0.71686481996E+00 -0.15440506175E+02  0.64423796058E+00  0.15470558133E+02  0.51100000000E-03 0.  1.
        -12    1    3    3    0    0  0.55965825517E+01  0.19161723053E+01  0.99098986571E+01  0.11541210680E+02  0.00000000000E+00 0.  1.
</event>
<event>
 7    1  0.2891523E-011  0.5052885E+02  0.7816164E-02  0.1300439E+00
        -11   -1    0    0    0    0  0.00000000000E+00  0.00000000000E+00  0.45593999997E+02  0.45594000000E+02  0.51100000000E-03 0.  1.
         11   -1    0    0    0    0 -0.00000000000E+00 -0.00000000000E+00 -0.45593999997E+02  0.45594000000E+02  0.51100000000E-03 0. -1.
    9900012    2    1    2    0    0 -0.16286613801E+02  0.18091395427E+02  0.32567067161E+02  0.50528852923E+02  0.29999978943E+02 0.  0.
         12    1    1    2    0    0  0.16286613801E+02 -0.18091395427E+02 -0.32567067161E+02  0.40659147077E+02  0.00000000000E+00 0. -1.
         11    1    3    3    0    0 -0.76207883925E+01  0.17692007459E+02  0.47215846991E+01  0.19833731519E+02  0.51100000000E-03 0. -1.
        -11    1    3    3    0    0 -0.54320723653E+01  0.48373039408E+01  0.18139743877E+02  0.19543726047E+02  0.51100000000E-03 0.  1.
         12    1    3    3    0    0 -0.32337530433E+01 -0.44379159725E+01  0.97057385844E+01  0.11151395356E+02  0.00000000000E+00 0. -1.
</event>
<event>
 7    1  0.2891523E-011  0.5052882E+02  0.7816164E-02  0.1300439E+00
        -11   -1    0    0    0    0  0.00000000000E+00  0.00000000000E+00  0.45593999997E+02  0.45594000000E+02  0.51100000000E-03 0. -1.
         11   -1    0    0    0    0 -0.00000000000E+00 -0.00000000000E+00 -0.45593999997E+02  0.45594000000E+02  0.51100000000E-03 0.  1.
    9900012    2    1    2    0    0  0.23974622691E+02  0.19716477244E+02 -0.26261131149E+02  0.50528818782E+02  0.29999875170E+02 0.  0.
         12    1    1    2    0    0 -0.23974622691E+02 -0.19716477244E+02  0.26261131149E+02  0.40659181218E+02  0.00000000000E+00 0. -1.
         11    1    3    3    0    0 -0.50100439488E+01  0.98705793808E+00 -0.29993352094E+01  0.59220634665E+01  0.51100000000E-03 0. -1.
        -11    1    3    3    0    0  0.14624707931E+02  0.18365061207E+02 -0.12075319786E+02  0.26400206503E+02  0.51100000000E-03 0.  1.
        -12    1    3    3    0    0  0.14359958708E+02  0.36435809883E+00 -0.11186476155E+02  0.18206548813E+02  0.00000000000E+00 0.  1.
</event>
<event>
 7    1  0.2891523E-011  0.5052886E+02  0.7816164E-02  0.1300439E+00
        -11   -1    0    0    0    0  0.00000000000E+00  0.00000000000E+00  0.45593999997E+02  0.45594000000E+02  0.51100000000E-03 0. -1.
         11   -1    0    0    0    0 -0.00000000000E+00 -0.00000000000E+00 -0.45593999997E+02  0.45594000000E+02  0.51100000000E-03 0.  1.
    9900012    2    1    2    0    0 -0.15454999680E+02  0.17232620978E+02 -0.33426718290E+02  0.50528859127E+02  0.29999997803E+02 0.  0.
         12    1    1    2    0    0  0.15454999680E+02 -0.17232620978E+02  0.33426718290E+02  0.40659140873E+02  0.00000000000E+00 0. -1.
         11    1    3    3    0    0 -0.25659706452E+01 -0.10837284087E+01  0.18414080125E+01  0.33390801646E+01  0.51100000000E-03 0. -1.
        -11    1    3    3    0    0 -0.15647152314E+02  0.19967690514E+02 -0.22130409799E+02  0.33664477987E+02  0.51100000000E-03 0.  1.
        -12    1    3    3    0    0  0.27581232795E+01 -0.16513411274E+01 -0.13137716503E+02  0.13525300975E+02  0.00000000000E+00 0.  1.
</event>
<event>
 7    1  0.2891523E-011  0.5052887E+02  0.7816164E-02  0.1300439E+00
        -11   -1    0    0    0    0  0.00000000000E+00  0.00000000000E+00  0.45593999997E+02  0.45594000000E+02  0.51100000000E-03 0. -1.
         11   -1    0    0    0    0 -0.00000000000E+00 -0.00000000000E+00 -0.45593999997E+02  0.45594000000E+02  0.51100000000E-03 0.  1.
    9900012    2    1    2    0    0  0.62371857807E+01  0.31389540894E+02 -0.25079063402E+02  0.50528865907E+02  0.30000018412E+02 0.  0.
         12    1    1    2    0    0 -0.62371857807E+01 -0.31389540894E+02  0.25079063402E+02  0.40659134093E+02  0.00000000000E+00 0. -1.
         11    1    3    3    0    0 -0.67713620501E+01 -0.12979898526E+01 -0.84000200955E+01  0.10867219494E+02  0.51100000000E-03 0. -1.
        -11    1    3    3    0    0  0.56197206409E+01  0.19894417174E+02 -0.63173519562E+01  0.21616614693E+02  0.51100000000E-03 0.  1.
         12    1    3    3    0    0  0.73888271899E+01  0.12793113573E+02 -0.10361691351E+02  0.18045031720E+02  0.00000000000E+00 0. -1.
</event>
<event>
 7    1  0.2891523E-011  0.5052886E+02  0.7816164E-02  0.1300439E+00
        -11   -1    0    0    0    0  0.00000000000E+00  0.00000000000E+00  0.45593999997E+02  0.45594000000E+02  0.51100000000E-03 0. -1.
         11   -1    0    0    0    0 -0.00000000000E+00 -0.00000000000E+00 -0.45593999997E+02  0.45594000000E+02  0.51100000000E-03 0.  1.
    9900012    2    1    2    0    0  0.24860891848E+02 -0.31102913947E+02 -0.82286174356E+01  0.50528863950E+02  0.30000012461E+02 0.  0.
         12    1    1    2    0    0 -0.24860891848E+02  0.31102913947E+02  0.82286174356E+01  0.40659136050E+02  0.00000000000E+00 0. -1.
         11    1    3    3    0    0  0.80481396067E+01 -0.50546962108E+01 -0.25207746615E+01  0.98324366292E+01  0.51100000000E-03 0. -1.
        -11    1    3    3    0    0 -0.82739940568E+00 -0.21309430005E+02 -0.68406083390E+01  0.22395765663E+02  0.51100000000E-03 0.  1.
        -12    1    3    3    0    0  0.17640151647E+02 -0.47387877312E+01  0.11327655649E+01  0.18300661657E+02  0.00000000000E+00 0.  1.
</event>
<event>
 7    1  0.2891523E-011  0.5052886E+02  0.7816164E-02  0.1300439E+00
        -11   -1    0    0    0    0  0.00000000000E+00  0.00000000000E+00  0.45593999997E+02  0.45594000000E+02  0.51100000000E-03 0.  1.
         11   -1    0    0    0    0 -0.00000000000E+00 -0.00000000000E+00 -0.45593999997E+02  0.45594000000E+02  0.51100000000E-03 0. -1.
    9900012    2    1    2    0    0  0.28974347289E+02 -0.13804150449E+02  0.24961938400E+02  0.50528859095E+02  0.29999997704E+02 0.  0.
         12    1    1    2    0    0 -0.28974347289E+02  0.13804150449E+02 -0.24961938400E+02  0.40659140905E+02  0.00000000000E+00 0. -1.
         11    1    3    3    0    0 -0.56069903840E+00 -0.43061856409E+01  0.41003975334E+01  0.59725102243E+01  0.51100000000E-03 0. -1.
        -11    1    3    3    0    0  0.21856651780E+02 -0.14578304521E+01  0.11618350313E+01  0.21936005962E+02  0.51100000000E-03 0.  1.
        -12    1    3    3    0    0  0.76783945480E+01 -0.80401343562E+01  0.19699705836E+02  0.22620342909E+02  0.00000000000E+00 0.  1.
</event>
<event>
 7    1  0.2891523E-011  0.5052887E+02  0.7816164E-02  0.1300439E+00
        -11   -1    0    0    0    0  0.00000000000E+00  0.00000000000E+00  0.45593999997E+02  0.45594000000E+02  0.51100000000E-03 0.  1.
         11   -1    0    0    0    0 -0.00000000000E+00 -0.00000000000E+00 -0.45593999997E+02  0.45594000000E+02  0.51100000000E-03 0. -1.
    9900012    2    1    2    0    0  0.11371303988E+02 -0.30136115392E+01  0.38920130615E+02  0.50528868480E+02  0.30000026231E+02 0.  0.
         12    1    1    2    0    0 -0.11371303988E+02  0.30136115392E+01 -0.38920130615E+02  0.40659131520E+02  0.00000000000E+00 0. -1.
         11    1    3    3    0    0 -0.49184114545E+01  0.10631484426E+01  0.28779213919E+01  0.57968515287E+01  0.51100000000E-03 0. -1.
        -11    1    3    3    0    0  0.15830871239E+02  0.26935453034E+01  0.12848116015E+02  0.20565645039E+02  0.51100000000E-03 0.  1.
        -12    1    3    3    0    0  0.45884420409E+00 -0.67703052852E+01  0.23194093208E+02  0.24166371912E+02  0.00000000000E+00 0.  1.
</event>
<event>
 7    1  0.2891523E-011  0.5052886E+02  0.7816164E-02  0.1300439E+00
        -11   -1    0    0    0    0  0.00000000000E+00  0.00000000000E+00  0.45593999997E+02  0.45594000000E+02  0.51100000000E-03 0. -1.
         11   -1    0    0    0    0 -0.00000000000E+00 -0.00000000000E+00 -0.45593999997E+02  0.45594000000E+02  0.51100000000E-03 0.  1.
    9900012    2    1    2    0    0  0.10785323038E+02 -0.38266129078E+02  0.85173852632E+01  0.50528859830E+02  0.29999999939E+02 0.  0.
         12    1    1    2    0    0 -0.10785323038E+02  0.38266129078E+02 -0.85173852632E+01  0.40659140170E+02  0.00000000000E+00 0. -1.
         11    1    3    3    0    0  0.20789716774E+01 -0.98003658342E+01  0.93994900406E+01  0.13737529145E+02  0.51100000000E-03 0. -1.
        -11    1    3    3    0    0  0.14510275047E+01  0.35002634908E+01 -0.13109210350E+01  0.40094687361E+01  0.51100000000E-03 0.  1.
        -12    1    3    3    0    0  0.72553238560E+01 -0.31966026735E+02  0.42881625758E+00  0.32781861949E+02  0.00000000000E+00 0.  1.
</event>
<event>
 7    1  0.2891523E-011  0.5052884E+02  0.7816164E-02  0.1300439E+00
        -11   -1    0    0    0    0  0.00000000000E+00  0.00000000000E+00  0.45593999997E+02  0.45594000000E+02  0.51100000000E-03 0.  1.
         11   -1    0    0    0    0 -0.00000000000E+00 -0.00000000000E+00 -0.45593999997E+02  0.45594000000E+02  0.51100000000E-03 0. -1.
    9900012    2    1    2    0    0 -0.27023754510E+02 -0.11359694151E+01  0.30357762927E+02  0.50528837388E+02  0.29999931726E+02 0.  0.
         12    1    1    2    0    0  0.27023754510E+02  0.11359694151E+01 -0.30357762927E+02  0.40659162612E+02  0.00000000000E+00 0. -1.
         11    1    3    3    0    0 -0.27878602981E+01 -0.94578061779E+01  0.95208148040E+01  0.13706501287E+02  0.51100000000E-03 0. -1.
        -11    1    3    3    0    0 -0.25166378520E+02  0.10930362286E+02  0.17766738914E+02  0.32687557868E+02  0.51100000000E-03 0.  1.
        -12    1    3    3    0    0  0.93048430757E+00 -0.26085255227E+01  0.30702092091E+01  0.41347782331E+01  0.00000000000E+00 0.  1.
</event>
<event>
 7    1  0.2891523E-011  0.5052885E+02  0.7816164E-02  0.1300439E+00
        -11   -1    0    0    0    0  0.00000000000E+00  0.00000000000E+00  0.45593999997E+02  0.45594000000E+02  0.51100000000E-03 0. -1.
         11   -1    0    0    0    0 -0.00000000000E+00 -0.00000000000E+00 -0.45593999997E+02  0.45594000000E+02  0.51100000000E-03 0.  1.
    9900012    2    1    2    0    0  0.12802975417E+02  0.18954973058E+02 -0.33614869463E+02  0.50528848113E+02  0.29999964323E+02 0.  0.
         12    1    1    2    0    0 -0.12802975417E+02 -0.18954973058E+02  0.33614869463E+02  0.40659151887E+02  0.00000000000E+00 0. -1.
         11    1    3    3    0    0 -0.65850217251E+01  0.69193494004E+01 -0.20036513005E+02  0.22196886288E+02  0.51100000000E-03 0. -1.
        -11    1    3    3    0    0 -0.77524710574E+00 -0.30810232079E+00 -0.16560957827E+01  0.18543431768E+01  0.51100000000E-03 0.  1.
         12    1    3    3    0    0  0.20163244248E+02  0.12343725978E+02 -0.11922260676E+02  0.26477618648E+02  0.00000000000E+00 0. -1.
</event>
<event>
 7    1  0.2891523E-011  0.5052888E+02  0.7816164E-02  0.1300439E+00
        -11   -1    0    0    0    0  0.00000000000E+00  0.00000000000E+00  0.45593999997E+02  0.45594000000E+02  0.51100000000E-03 0.  1.
         11   -1    0    0    0    0 -0.00000000000E+00 -0.00000000000E+00 -0.45593999997E+02  0.45594000000E+02  0.51100000000E-03 0. -1.
    9900012    2    1    2    0    0  0.37705540291E+02  0.15020724155E+02 -0.24154097138E+01  0.50528878922E+02  0.30000057971E+02 0.  0.
         12    1    1    2    0    0 -0.37705540291E+02 -0.15020724155E+02  0.24154097138E+01  0.40659121078E+02  0.00000000000E+00 0. -1.
         11    1    3    3    0    0  0.15624295355E+02  0.13237426513E+02  0.84930864946E+01  0.22169361391E+02  0.51100000000E-03 0. -1.
        -11    1    3    3    0    0  0.17423275577E+02  0.73074536188E+01 -0.87252330951E+01  0.20811033204E+02  0.51100000000E-03 0.  1.
         12    1    3    3    0    0  0.46579693593E+01 -0.55241559766E+01 -0.21832631133E+01  0.75484843265E+01  0.00000000000E+00 0. -1.
</event>
<event>
 7    1  0.2891523E-011  0.5052887E+02  0.7816164E-02  0.1300439E+00
        -11   -1    0    0    0    0  0.00000000000E+00  0.00000000000E+00  0.45593999997E+02  0.45594000000E+02  0.51100000000E-03 0.  1.
         11   -1    0    0    0    0 -0.00000000000E+00 -0.00000000000E+00 -0.45593999997E+02  0.45594000000E+02  0.51100000000E-03 0. -1.
    9900012    2    1    2    0    0  0.22680474405E+02  0.28865109338E+02 -0.17480459345E+02  0.50528869227E+02  0.30000028502E+02 0.  0.
         12    1    1    2    0    0 -0.22680474405E+02 -0.28865109338E+02  0.17480459345E+02  0.40659130773E+02  0.00000000000E+00 0. -1.
         11    1    3    3    0    0  0.60001661209E+01  0.27661007613E+02 -0.13447605970E+02  0.31336423571E+02  0.51100000000E-03 0. -1.
        -11    1    3    3    0    0  0.17197535977E+02  0.15444331073E+01 -0.50602022019E+01  0.17992947616E+02  0.51100000000E-03 0.  1.
        -12    1    3    3    0    0 -0.51722769262E+00 -0.34033138288E+00  0.10273488267E+01  0.11994980399E+01  0.00000000000E+00 0.  1.
</event>
<event>
 7    1  0.2891523E-011  0.5052886E+02  0.7816164E-02  0.1300439E+00
        -11   -1    0    0    0    0  0.00000000000E+00  0.00000000000E+00  0.45593999997E+02  0.45594000000E+02  0.51100000000E-03 0. -1.
         11   -1    0    0    0    0 -0.00000000000E+00 -0.00000000000E+00 -0.45593999997E+02  0.45594000000E+02  0.51100000000E-03 0.  1.
    9900012    2    1    2    0    0 -0.12524113595E+02 -0.38682175074E+02  0.38730609516E-01  0.50528860931E+02  0.30000003285E+02 0.  0.
         12    1    1    2    0    0  0.12524113595E+02  0.38682175074E+02 -0.38730609516E-01  0.40659139069E+02  0.00000000000E+00 0. -1.
         11    1    3    3    0    0 -0.19257355893E+01  0.21199768105E+01 -0.19942765111E+01  0.34899711032E+01  0.51100000000E-03 0. -1.
        -11    1    3    3    0    0 -0.10109293792E+02 -0.40710117370E+02 -0.29321179464E+01  0.42048885754E+02  0.51100000000E-03 0.  1.
         12    1    3    3    0    0 -0.48908421417E+00 -0.92034514129E-01  0.49651250671E+01  0.49900040733E+01  0.00000000000E+00 0. -1.
</event>
<event>
 7    1  0.2891523E-011  0.5052885E+02  0.7816164E-02  0.1300439E+00
        -11   -1    0    0    0    0  0.00000000000E+00  0.00000000000E+00  0.45593999997E+02  0.45594000000E+02  0.51100000000E-03 0.  1.
         11   -1    0    0    0    0 -0.00000000000E+00 -0.00000000000E+00 -0.45593999997E+02  0.45594000000E+02  0.51100000000E-03 0. -1.
    9900012    2    1    2    0    0  0.61410621917E+01 -0.22133637633E+02  0.33549301484E+02  0.50528853553E+02  0.29999980860E+02 0.  0.
         12    1    1    2    0    0 -0.61410621917E+01  0.22133637633E+02 -0.33549301484E+02  0.40659146447E+02  0.00000000000E+00 0. -1.
         11    1    3    3    0    0  0.46684144038E+01 -0.21951897108E+02  0.77921300988E+01  0.23757044669E+02  0.51100000000E-03 0. -1.
        -11    1    3    3    0    0  0.24272779778E+01  0.22630274951E+01  0.61363130214E+01  0.69761959250E+01  0.51100000000E-03 0.  1.
         12    1    3    3    0    0 -0.95463018998E+00 -0.24447680205E+01  0.19620858364E+02  0.19795612959E+02  0.00000000000E+00 0. -1.
</event>
<event>
 7    1  0.2891523E-011  0.5052885E+02  0.7816164E-02  0.1300439E+00
        -11   -1    0    0    0    0  0.00000000000E+00  0.00000000000E+00  0.45593999997E+02  0.45594000000E+02  0.51100000000E-03 0.  1.
         11   -1    0    0    0    0 -0.00000000000E+00 -0.00000000000E+00 -0.45593999997E+02  0.45594000000E+02  0.51100000000E-03 0. -1.
    9900012    2    1    2    0    0 -0.21165837873E+02  0.13371257521E+01  0.34689850563E+02  0.50528851826E+02  0.29999975611E+02 0.  0.
         12    1    1    2    0    0  0.21165837873E+02 -0.13371257521E+01 -0.34689850563E+02  0.40659148174E+02  0.00000000000E+00 0. -1.
         11    1    3    3    0    0 -0.44742951484E+01 -0.11831463329E+02  0.71054824735E+01  0.14508298419E+02  0.51100000000E-03 0. -1.
        -11    1    3    3    0    0 -0.70292789353E+01  0.46392389041E+01  0.18272993399E+02  0.20120526533E+02  0.51100000000E-03 0.  1.
         12    1    3    3    0    0 -0.96622637896E+01  0.85293501768E+01  0.93113746905E+01  0.15900026874E+02  0.00000000000E+00 0. -1.
</event>
<event>
 7    1  0.2891523E-011  0.5052887E+02  0.7816164E-02  0.1300439E+00
        -11   -1    0    0    0    0  0.00000000000E+00  0.00000000000E+00  0.45593999997E+02  0.45594000000E+02  0.51100000000E-03 0.  1.
         11   -1    0    0    0    0 -0.00000000000E+00 -0.00000000000E+00 -0.45593999997E+02  0.45594000000E+02  0.51100000000E-03 0. -1.
    9900012    2    1    2    0    0 -0.48914784014E+01 -0.34544047386E+02  0.20879351411E+02  0.50528867125E+02  0.30000022115E+02 0.  0.
         12    1    1    2    0    0  0.48914784014E+01  0.34544047386E+02 -0.20879351411E+02  0.40659132875E+02  0.00000000000E+00 0. -1.
         11    1    3    3    0    0 -0.21906661193E+01 -0.11903521329E+02  0.30796207370E+01  0.12489071312E+02  0.51100000000E-03 0. -1.
        -11    1    3    3    0    0 -0.19991626214E+01  0.42758079270E+01  0.81863214151E+01  0.94496054515E+01  0.51100000000E-03 0.  1.
        -12    1    3    3    0    0 -0.70164966074E+00 -0.26916333984E+02  0.96134092588E+01  0.28590190362E+02  0.00000000000E+00 0.  1.
</event>
<event>
 7    1  0.2891523E-011  0.5052886E+02  0.7816164E-02  0.1300439E+00
        -11   -1    0    0    0    0  0.00000000000E+00  0.00000000000E+00  0.45593999997E+02  0.45594000000E+02  0.51100000000E-03 0. -1.
         11   -1    0    0    0    0 -0.00000000000E+00 -0.00000000000E+00 -0.45593999997E+02  0.45594000000E+02  0.51100000000E-03 0.  1.
    9900012    2    1    2    0    0  0.23675811650E+01  0.36351000607E+02 -0.18060042573E+02  0.50528858058E+02  0.29999994553E+02 0.  0.
         12    1    1    2    0    0 -0.23675811650E+01 -0.36351000607E+02  0.18060042573E+02  0.40659141942E+02  0.00000000000E+00 0. -1.
         11    1    3    3    0    0  0.63904212424E+01  0.30009453159E+01  0.16145441189E+01  0.72422309697E+01  0.51100000000E-03 0. -1.
        -11    1    3    3    0    0 -0.18553976878E+01  0.35473935619E+02 -0.18130221226E+02  0.39881669108E+02  0.51100000000E-03 0.  1.
        -12    1    3    3    0    0 -0.21674423897E+01 -0.21238803273E+01 -0.15443654658E+01  0.34049579805E+01  0.00000000000E+00 0.  1.
</event>
<event>
 7    1  0.2891523E-011  0.5052875E+02  0.7816164E-02  0.1300439E+00
        -11   -1    0    0    0    0  0.00000000000E+00  0.00000000000E+00  0.45593999997E+02  0.45594000000E+02  0.51100000000E-03 0.  1.
         11   -1    0    0    0    0 -0.00000000000E+00 -0.00000000000E+00 -0.45593999997E+02  0.45594000000E+02  0.51100000000E-03 0. -1.
    9900012    2    1    2    0    0 -0.38226698009E+02  0.35065297448E+01 -0.13401420894E+02  0.50528754145E+02  0.29999678697E+02 0.  0.
         12    1    1    2    0    0  0.38226698009E+02 -0.35065297448E+01  0.13401420894E+02  0.40659245855E+02  0.00000000000E+00 0. -1.
         11    1    3    3    0    0 -0.27174082189E+01 -0.15880205251E+01 -0.60236872498E+01  0.67963905833E+01  0.51100000000E-03 0. -1.
        -11    1    3    3    0    0 -0.21373268064E+02  0.14529856035E+02 -0.20699054528E+01  0.25927163612E+02  0.51100000000E-03 0.  1.
        -12    1    3    3    0    0 -0.14136021726E+02 -0.94353057653E+01 -0.53078281912E+01  0.17805199949E+02  0.00000000000E+00 0.  1.
</event>
<event>
 7    1  0.2891523E-011  0.5052888E+02  0.7816164E-02  0.1300439E+00
        -11   -1    0    0    0    0  0.00000000000E+00  0.00000000000E+00  0.45593999997E+02  0.45594000000E+02  0.51100000000E-03 0.  1.
         11   -1    0    0    0    0 -0.00000000000E+00 -0.00000000000E+00 -0.45593999997E+02  0.45594000000E+02  0.51100000000E-03 0. -1.
    9900012    2    1    2    0    0 -0.24330247560E+02  0.22481609043E+02  0.23574999121E+02  0.50528877100E+02  0.30000052432E+02 0.  0.
         12    1    1    2    0    0  0.24330247560E+02 -0.22481609043E+02 -0.23574999121E+02  0.40659122900E+02  0.00000000000E+00 0. -1.
         11    1    3    3    0    0 -0.33828746740E-01 -0.22840679091E+01  0.11281818544E+02  0.11510757599E+02  0.51100000000E-03 0. -1.
        -11    1    3    3    0    0 -0.16743940945E+02  0.16912419595E+02  0.14545813845E+02  0.27892117087E+02  0.51100000000E-03 0.  1.
         12    1    3    3    0    0 -0.75524778675E+01  0.78532573570E+01 -0.22526332675E+01  0.11126002413E+02  0.00000000000E+00 0. -1.
</event>
<event>
 7    1  0.2891523E-011  0.5052887E+02  0.7816164E-02  0.1300439E+00
        -11   -1    0    0    0    0  0.00000000000E+00  0.00000000000E+00  0.45593999997E+02  0.45594000000E+02  0.51100000000E-03 0. -1.
         11   -1    0    0    0    0 -0.00000000000E+00 -0.00000000000E+00 -0.45593999997E+02  0.45594000000E+02  0.51100000000E-03 0.  1.
    9900012    2    1    2    0    0  0.37112164460E+02  0.41591292449E+01 -0.16079618039E+02  0.50528865439E+02  0.30000016988E+02 0.  0.
         12    1    1    2    0    0 -0.37112164460E+02 -0.41591292449E+01  0.16079618039E+02  0.40659134561E+02  0.00000000000E+00 0. -1.
         11    1    3    3    0    0  0.23249431290E+02 -0.66343488367E+01 -0.49847351492E+00  0.24182620121E+02  0.51100000000E-03 0. -1.
        -11    1    3    3    0    0  0.14581635618E+02  0.53724691772E+01 -0.13169267443E+02  0.20369514663E+02  0.51100000000E-03 0.  1.
        -12    1    3    3    0    0 -0.71890244802E+00  0.54210089044E+01 -0.24118770812E+01  0.59767306553E+01  0.00000000000E+00 0.  1.
</event>
<event>
 7    1  0.2891523E-011  0.5052886E+02  0.7816164E-02  0.1300439E+00
        -11   -1    0    0    0    0  0.00000000000E+00  0.00000000000E+00  0.45593999997E+02  0.45594000000E+02  0.51100000000E-03 0. -1.
         11   -1    0    0    0    0 -0.00000000000E+00 -0.00000000000E+00 -0.45593999997E+02  0.45594000000E+02  0.51100000000E-03 0.  1.
    9900012    2    1    2    0    0  0.75819048022E+01 -0.31182385469E+02 -0.24966760337E+02  0.50528861228E+02  0.30000004188E+02 0.  0.
         12    1    1    2    0    0 -0.75819048022E+01  0.31182385469E+02  0.24966760337E+02  0.40659138772E+02  0.00000000000E+00 0. -1.
         11    1    3    3    0    0  0.15324061969E+02 -0.14478592666E+02 -0.13457026916E+02  0.25010959488E+02  0.51100000000E-03 0. -1.
        -11    1    3    3    0    0 -0.56169922543E+01 -0.18530206805E+02 -0.11840663773E+02  0.22696265883E+02  0.51100000000E-03 0.  1.
        -12    1    3    3    0    0 -0.21251649125E+01  0.18264140016E+01  0.33093035137E+00  0.28216358567E+01  0.00000000000E+00 0.  1.
</event>
<event>
 7    1  0.2891523E-011  0.5052886E+02  0.7816164E-02  0.1300439E+00
        -11   -1    0    0    0    0  0.00000000000E+00  0.00000000000E+00  0.45593999997E+02  0.45594000000E+02  0.51100000000E-03 0.  1.
         11   -1    0    0    0    0 -0.00000000000E+00 -0.00000000000E+00 -0.45593999997E+02  0.45594000000E+02  0.51100000000E-03 0. -1.
    9900012    2    1    2    0    0 -0.72019514416E+01  0.23164969664E+02  0.32629462516E+02  0.50528858984E+02  0.29999997368E+02 0.  0.
         12    1    1    2    0    0  0.72019514416E+01 -0.23164969664E+02 -0.32629462516E+02  0.40659141016E+02  0.00000000000E+00 0. -1.
         11    1    3    3    0    0  0.22810572400E+01 -0.34149914112E+00  0.25279904457E+01  0.34220724350E+01  0.51100000000E-03 0. -1.
        -11    1    3    3    0    0 -0.17863131959E+02  0.10964156713E+02  0.19860137241E+02  0.28874370423E+02  0.51100000000E-03 0.  1.
        -12    1    3    3    0    0  0.83801232771E+01  0.12542312091E+02  0.10241334829E+02  0.18232416127E+02  0.00000000000E+00 0.  1.
</event>
<event>
 7    1  0.2891523E-011  0.5052886E+02  0.7816164E-02  0.1300439E+00
        -11   -1    0    0    0    0  0.00000000000E+00  0.00000000000E+00  0.45593999997E+02  0.45594000000E+02  0.51100000000E-03 0. -1.
         11   -1    0    0    0    0 -0.00000000000E+00 -0.00000000000E+00 -0.45593999997E+02  0.45594000000E+02  0.51100000000E-03 0.  1.
    9900012    2    1    2    0    0 -0.29998110849E+01  0.26113920423E+02 -0.31019830002E+02  0.50528861301E+02  0.30000004410E+02 0.  0.
         12    1    1    2    0    0  0.29998110849E+01 -0.26113920423E+02  0.31019830002E+02  0.40659138699E+02  0.00000000000E+00 0. -1.
         11    1    3    3    0    0  0.44731545195E+01 -0.37594042723E+01 -0.65255021629E-01  0.58434998345E+01  0.51100000000E-03 0. -1.
        -11    1    3    3    0    0 -0.20248928560E+01  0.20205141422E+02 -0.24595791263E+02  0.31895154476E+02  0.51100000000E-03 0.  1.
        -12    1    3    3    0    0 -0.54480727483E+01  0.96681832734E+01 -0.63587837173E+01  0.12790206990E+02  0.00000000000E+00 0.  1.
</event>
<event>
 7    1  0.2891523E-011  0.5052886E+02  0.7816164E-02  0.1300439E+00
        -11   -1    0    0    0    0  0.00000000000E+00  0.00000000000E+00  0.45593999997E+02  0.45594000000E+02  0.51100000000E-03 0.  1.
         11   -1    0    0    0    0 -0.00000000000E+00 -0.00000000000E+00 -0.45593999997E+02  0.45594000000E+02  0.51100000000E-03 0. -1.
    9900012    2    1    2    0    0  0.18455832309E+02  0.13709613438E+02  0.33534973856E+02  0.50528859350E+02  0.29999998481E+02 0.  0.
         12    1    1    2    0    0 -0.18455832309E+02 -0.13709613438E+02 -0.33534973856E+02  0.40659140650E+02  0.00000000000E+00 0. -1.
         11    1    3    3    0    0 -0.62416886499E+01  0.26558963593E+01  0.10661837011E+01  0.68665282800E+01  0.51100000000E-03 0. -1.
        -11    1    3    3    0    0  0.13834706472E+02  0.42222240034E+01  0.24808639197E+02  0.28717500897E+02  0.51100000000E-03 0.  1.
        -12    1    3    3    0    0  0.10862814487E+02  0.68314930752E+01  0.76601509585E+01  0.14944830174E+02  0.00000000000E+00 0.  1.
</event>
<event>
 7    1  0.2891523E-011  0.5052886E+02  0.7816164E-02  0.1300439E+00
        -11   -1    0    0    0    0  0.00000000000E+00  0.00000000000E+00  0.45593999997E+02  0.45594000000E+02  0.51100000000E-03 0. -1.
         11   -1    0    0    0    0 -0.00000000000E+00 -0.00000000000E+00 -0.45593999997E+02  0.45594000000E+02  0.51100000000E-03 0.  1.
    9900012    2    1    2    0    0  0.14797507712E+02  0.20654822306E+02 -0.31742362900E+02  0.50528861772E+02  0.30000005843E+02 0.  0.
         12    1    1    2    0    0 -0.14797507712E+02 -0.20654822306E+02  0.31742362900E+02  0.40659138228E+02  0.00000000000E+00 0. -1.
         11    1    3    3    0    0  0.15828497156E+02  0.23859995596E+02 -0.14915028016E+02  0.32284652283E+02  0.51100000000E-03 0. -1.
        -11    1    3    3    0    0 -0.30049693715E+01 -0.17097749539E+00 -0.46402703403E+01  0.55309296976E+01  0.51100000000E-03 0.  1.
         12    1    3    3    0    0  0.19739799279E+01 -0.30341957948E+01 -0.12187064543E+02  0.12713279791E+02  0.00000000000E+00 0. -1.
</event>
<event>
 7    1  0.2891523E-011  0.5052886E+02  0.7816164E-02  0.1300439E+00
        -11   -1    0    0    0    0  0.00000000000E+00  0.00000000000E+00  0.45593999997E+02  0.45594000000E+02  0.51100000000E-03 0.  1.
         11   -1    0    0    0    0 -0.00000000000E+00 -0.00000000000E+00 -0.45593999997E+02  0.45594000000E+02  0.51100000000E-03 0. -1.
    9900012    2    1    2    0    0  0.20563563510E+00  0.16910978244E+02  0.36974891245E+02  0.50528855226E+02  0.29999985945E+02 0.  0.
         12    1    1    2    0    0 -0.20563563510E+00 -0.16910978244E+02 -0.36974891245E+02  0.40659144774E+02  0.00000000000E+00 0. -1.
         11    1    3    3    0    0 -0.44296038471E+01  0.10257450229E+00  0.20595992897E+02  0.21067198092E+02  0.51100000000E-03 0. -1.
        -11    1    3    3    0    0 -0.28041506903E+01  0.13722702304E+02  0.37781655041E+01  0.14506907129E+02  0.51100000000E-03 0.  1.
        -12    1    3    3    0    0  0.74393901725E+01  0.30857014375E+01  0.12600732844E+02  0.14954750005E+02  0.00000000000E+00 0.  1.
</event>
<event>
 7    1  0.2891523E-011  0.5052885E+02  0.7816164E-02  0.1300439E+00
        -11   -1    0    0    0    0  0.00000000000E+00  0.00000000000E+00  0.45593999997E+02  0.45594000000E+02  0.51100000000E-03 0. -1.
         11   -1    0    0    0    0 -0.00000000000E+00 -0.00000000000E+00 -0.45593999997E+02  0.45594000000E+02  0.51100000000E-03 0.  1.
    9900012    2    1    2    0    0 -0.18055322678E+02 -0.29173821001E+02  0.21818792013E+02  0.50528853505E+02  0.29999980715E+02 0.  0.
         12    1    1    2    0    0  0.18055322678E+02  0.29173821001E+02 -0.21818792013E+02  0.40659146495E+02  0.00000000000E+00 0. -1.
         11    1    3    3    0    0 -0.69627210380E+01 -0.10212066465E+02  0.83152180143E+01  0.14896598156E+02  0.51100000000E-03 0. -1.
        -11    1    3    3    0    0  0.44339967687E+01 -0.16592286457E+02  0.57120252827E+01  0.18099489780E+02  0.51100000000E-03 0.  1.
        -12    1    3    3    0    0 -0.15526598409E+02 -0.23694680788E+01  0.77915487156E+01  0.17532765569E+02  0.00000000000E+00 0.  1.
</event>
<event>
 7    1  0.2891523E-011  0.5052886E+02  0.7816164E-02  0.1300439E+00
        -11   -1    0    0    0    0  0.00000000000E+00  0.00000000000E+00  0.45593999997E+02  0.45594000000E+02  0.51100000000E-03 0.  1.
         11   -1    0    0    0    0 -0.00000000000E+00 -0.00000000000E+00 -0.45593999997E+02  0.45594000000E+02  0.51100000000E-03 0. -1.
    9900012    2    1    2    0    0  0.23359491650E+02  0.14644116136E+02  0.29883943385E+02  0.50528855152E+02  0.29999985719E+02 0.  0.
         12    1    1    2    0    0 -0.23359491650E+02 -0.14644116136E+02 -0.29883943385E+02  0.40659144848E+02  0.00000000000E+00 0. -1.
         11    1    3    3    0    0  0.22164056993E+02  0.51916105278E+01  0.16138611645E+02  0.27904355007E+02  0.51100000000E-03 0. -1.
        -11    1    3    3    0    0 -0.76650345525E+00 -0.20149470957E+01  0.10253538749E+02  0.10477719050E+02  0.51100000000E-03 0.  1.
        -12    1    3    3    0    0  0.19619381117E+01  0.11467452704E+02  0.34917929915E+01  0.12146781095E+02  0.00000000000E+00 0.  1.
</event>
<event>
 7    1  0.2891523E-011  0.5052886E+02  0.7816164E-02  0.1300439E+00
        -11   -1    0    0    0    0  0.00000000000E+00  0.00000000000E+00  0.45593999997E+02  0.45594000000E+02  0.51100000000E-03 0.  1.
         11   -1    0    0    0    0 -0.00000000000E+00 -0.00000000000E+00 -0.45593999997E+02  0.45594000000E+02  0.51100000000E-03 0. -1.
    9900012    2    1    2    0    0  0.39984066786E+02  0.14415010927E+01  0.72361854549E+01  0.50528857091E+02  0.29999991615E+02 0.  0.
         12    1    1    2    0    0 -0.39984066786E+02 -0.14415010927E+01 -0.72361854549E+01  0.40659142909E+02  0.00000000000E+00 0. -1.
         11    1    3    3    0    0  0.87844121829E+01 -0.73846291031E+01 -0.66608723470E+01  0.13268981313E+02  0.51100000000E-03 0. -1.
        -11    1    3    3    0    0  0.28478380580E+02  0.39744590236E+01  0.13247669090E+02  0.31659362305E+02  0.51100000000E-03 0.  1.
        -12    1    3    3    0    0  0.27212740227E+01  0.48516711722E+01  0.64938871199E+00  0.56005134737E+01  0.00000000000E+00 0.  1.
</event>
<event>
 7    1  0.2891523E-011  0.5052886E+02  0.7816164E-02  0.1300439E+00
        -11   -1    0    0    0    0  0.00000000000E+00  0.00000000000E+00  0.45593999997E+02  0.45594000000E+02  0.51100000000E-03 0.  1.
         11   -1    0    0    0    0 -0.00000000000E+00 -0.00000000000E+00 -0.45593999997E+02  0.45594000000E+02  0.51100000000E-03 0. -1.
    9900012    2    1    2    0    0 -0.11131939564E+02  0.33549938766E+02 -0.20090969691E+02  0.50528861632E+02  0.30000005418E+02 0.  0.
         12    1    1    2    0    0  0.11131939564E+02 -0.33549938766E+02  0.20090969691E+02  0.40659138368E+02  0.00000000000E+00 0. -1.
         11    1    3    3    0    0 -0.71943937332E+01  0.61073300647E+00 -0.41195009591E+01  0.83127964252E+01  0.51100000000E-03 0. -1.
        -11    1    3    3    0    0 -0.15854594060E+01  0.35194014787E+02 -0.16522064405E+02  0.38911578879E+02  0.51100000000E-03 0.  1.
        -12    1    3    3    0    0 -0.23520864246E+01 -0.22548090277E+01  0.55059567275E+00  0.33044863284E+01  0.00000000000E+00 0.  1.
</event>
<event>
 7    1  0.2891523E-011  0.5052886E+02  0.7816164E-02  0.1300439E+00
        -11   -1    0    0    0    0  0.00000000000E+00  0.00000000000E+00  0.45593999997E+02  0.45594000000E+02  0.51100000000E-03 0.  1.
         11   -1    0    0    0    0 -0.00000000000E+00 -0.00000000000E+00 -0.45593999997E+02  0.45594000000E+02  0.51100000000E-03 0. -1.
    9900012    2    1    2    0    0  0.16985910909E+02 -0.35002550722E+02  0.11809581260E+02  0.50528856674E+02  0.29999990346E+02 0.  0.
         12    1    1    2    0    0 -0.16985910909E+02  0.35002550722E+02 -0.11809581260E+02  0.40659143326E+02  0.00000000000E+00 0. -1.
         11    1    3    3    0    0  0.86125299535E+01 -0.34914515887E+01  0.13521264754E+02  0.16407026154E+02  0.51100000000E-03 0. -1.
        -11    1    3    3    0    0  0.43615962285E+01 -0.20618946074E+02  0.35592545856E+01  0.21373646211E+02  0.51100000000E-03 0.  1.
         12    1    3    3    0    0  0.40117847272E+01 -0.10892153059E+02 -0.52709380792E+01  0.12748184310E+02  0.00000000000E+00 0. -1.
</event>
<event>
 7    1  0.2891523E-011  0.5052886E+02  0.7816164E-02  0.1300439E+00
        -11   -1    0    0    0    0  0.00000000000E+00  0.00000000000E+00  0.45593999997E+02  0.45594000000E+02  0.51100000000E-03 0.  1.
         11   -1    0    0    0    0 -0.00000000000E+00 -0.00000000000E+00 -0.45593999997E+02  0.45594000000E+02  0.51100000000E-03 0. -1.
    9900012    2    1    2    0    0  0.13919161691E+02 -0.33798086824E+02  0.17807644264E+02  0.50528856755E+02  0.29999990593E+02 0.  0.
         12    1    1    2    0    0 -0.13919161691E+02  0.33798086824E+02 -0.17807644264E+02  0.40659143245E+02  0.00000000000E+00 0. -1.
         11    1    3    3    0    0 -0.37998412176E+01 -0.63122356308E+01  0.14130283887E+02  0.15935747078E+02  0.51100000000E-03 0. -1.
        -11    1    3    3    0    0  0.66911299039E+00 -0.43805778756E+01  0.38610684437E+01  0.58775015530E+01  0.51100000000E-03 0.  1.
         12    1    3    3    0    0  0.17049889918E+02 -0.23105273318E+02 -0.18370806622E+00  0.28715608124E+02  0.00000000000E+00 0. -1.
</event>
<event>
 7    1  0.2891523E-011  0.5052886E+02  0.7816164E-02  0.1300439E+00
        -11   -1    0    0    0    0  0.00000000000E+00  0.00000000000E+00  0.45593999997E+02  0.45594000000E+02  0.51100000000E-03 0. -1.
         11   -1    0    0    0    0 -0.00000000000E+00 -0.00000000000E+00 -0.45593999997E+02  0.45594000000E+02  0.51100000000E-03 0.  1.
    9900012    2    1    2    0    0  0.69878733416E+01 -0.17378647443E+01 -0.40016431229E+02  0.50528864298E+02  0.30000013520E+02 0.  0.
         12    1    1    2    0    0 -0.69878733416E+01  0.17378647443E+01  0.40016431229E+02  0.40659135702E+02  0.00000000000E+00 0. -1.
         11    1    3    3    0    0 -0.64713956709E+01  0.52290011806E+01 -0.81537859868E+01  0.11649276435E+02  0.51100000000E-03 0. -1.
        -11    1    3    3    0    0  0.10509557132E+02 -0.11959855487E+02 -0.26843634783E+02  0.31210089123E+02  0.51100000000E-03 0.  1.
        -12    1    3    3    0    0  0.29497118800E+01  0.49929895621E+01 -0.50190104591E+01  0.76694987405E+01  0.00000000000E+00 0.  1.
</event>
<event>
 7    1  0.2891523E-011  0.5052880E+02  0.7816164E-02  0.1300439E+00
        -11   -1    0    0    0    0  0.00000000000E+00  0.00000000000E+00  0.45593999997E+02  0.45594000000E+02  0.51100000000E-03 0. -1.
         11   -1    0    0    0    0 -0.00000000000E+00 -0.00000000000E+00 -0.45593999997E+02  0.45594000000E+02  0.51100000000E-03 0.  1.
    9900012    2    1    2    0    0 -0.24441874592E+02 -0.14049071730E+02 -0.29298269034E+02  0.50528804012E+02  0.29999830273E+02 0.  0.
         12    1    1    2    0    0  0.24441874592E+02  0.14049071730E+02  0.29298269034E+02  0.40659195988E+02  0.00000000000E+00 0. -1.
         11    1    3    3    0    0 -0.70818705139E+01 -0.10817766207E+02  0.11254938527E+00  0.12930182648E+02  0.51100000000E-03 0. -1.
        -11    1    3    3    0    0 -0.11280010256E+02  0.50218258455E+01 -0.11048945448E+02  0.16569144878E+02  0.51100000000E-03 0.  1.
         12    1    3    3    0    0 -0.60799938211E+01 -0.82531313684E+01 -0.18361872972E+02  0.21029476486E+02  0.00000000000E+00 0. -1.
</event>
<event>
 7    1  0.2891523E-011  0.5052884E+02  0.7816164E-02  0.1300439E+00
        -11   -1    0    0    0    0  0.00000000000E+00  0.00000000000E+00  0.45593999997E+02  0.45594000000E+02  0.51100000000E-03 0.  1.
         11   -1    0    0    0    0 -0.00000000000E+00 -0.00000000000E+00 -0.45593999997E+02  0.45594000000E+02  0.51100000000E-03 0. -1.
    9900012    2    1    2    0    0  0.27491515333E+02 -0.89115969741E+01  0.28600123156E+02  0.50528843338E+02  0.29999949810E+02 0.  0.
         12    1    1    2    0    0 -0.27491515333E+02  0.89115969741E+01 -0.28600123156E+02  0.40659156662E+02  0.00000000000E+00 0. -1.
         11    1    3    3    0    0  0.92501958946E+01 -0.47433383090E+01 -0.94467668617E+00  0.10438285142E+02  0.51100000000E-03 0. -1.
        -11    1    3    3    0    0  0.10025773599E+02  0.76979677144E+01  0.14674477775E+02  0.19367889442E+02  0.51100000000E-03 0.  1.
        -12    1    3    3    0    0  0.82155458400E+01 -0.11866226380E+02  0.14870322067E+02  0.20722668754E+02  0.00000000000E+00 0.  1.
</event>
<event>
 7    1  0.2891523E-011  0.5052888E+02  0.7816164E-02  0.1300439E+00
        -11   -1    0    0    0    0  0.00000000000E+00  0.00000000000E+00  0.45593999997E+02  0.45594000000E+02  0.51100000000E-03 0.  1.
         11   -1    0    0    0    0 -0.00000000000E+00 -0.00000000000E+00 -0.45593999997E+02  0.45594000000E+02  0.51100000000E-03 0. -1.
    9900012    2    1    2    0    0  0.33171396935E+02  0.15745615220E+02  0.17461320567E+02  0.50528884304E+02  0.30000074329E+02 0.  0.
         12    1    1    2    0    0 -0.33171396935E+02 -0.15745615220E+02 -0.17461320567E+02  0.40659115696E+02  0.00000000000E+00 0. -1.
         11    1    3    3    0    0  0.27232965635E+02  0.30122026377E+01 -0.88084899824E+00  0.27413202608E+02  0.51100000000E-03 0. -1.
        -11    1    3    3    0    0  0.24247655483E+01  0.44833660831E+01  0.68966159399E+01  0.85757431796E+01  0.51100000000E-03 0.  1.
         12    1    3    3    0    0  0.35136657516E+01  0.82500464995E+01  0.11445553626E+02  0.14539938516E+02  0.00000000000E+00 0. -1.
</event>
<event>
 7    1  0.2891523E-011  0.5052886E+02  0.7816164E-02  0.1300439E+00
        -11   -1    0    0    0    0  0.00000000000E+00  0.00000000000E+00  0.45593999997E+02  0.45594000000E+02  0.51100000000E-03 0.  1.
         11   -1    0    0    0    0 -0.00000000000E+00 -0.00000000000E+00 -0.45593999997E+02  0.45594000000E+02  0.51100000000E-03 0. -1.
    9900012    2    1    2    0    0 -0.23497827389E+02  0.13815340822E+02  0.30168754835E+02  0.50528864466E+02  0.30000014032E+02 0.  0.
         12    1    1    2    0    0  0.23497827389E+02 -0.13815340822E+02 -0.30168754835E+02  0.40659135534E+02  0.00000000000E+00 0. -1.
         11    1    3    3    0    0 -0.20157808579E-01  0.64564734186E+01  0.34025284122E+01  0.72981953385E+01  0.51100000000E-03 0. -1.
        -11    1    3    3    0    0 -0.16822095351E+02 -0.66052943502E+01  0.11072650679E+02  0.21194725730E+02  0.51100000000E-03 0.  1.
        -12    1    3    3    0    0 -0.66555742294E+01  0.13964161753E+02  0.15693575744E+02  0.22035943398E+02  0.00000000000E+00 0.  1.
</event>
<event>
 7    1  0.2891523E-011  0.5052883E+02  0.7816164E-02  0.1300439E+00
        -11   -1    0    0    0    0  0.00000000000E+00  0.00000000000E+00  0.45593999997E+02  0.45594000000E+02  0.51100000000E-03 0.  1.
         11   -1    0    0    0    0 -0.00000000000E+00 -0.00000000000E+00 -0.45593999997E+02  0.45594000000E+02  0.51100000000E-03 0. -1.
    9900012    2    1    2    0    0  0.32425015854E+02 -0.16312473028E+02  0.18321842861E+02  0.50528826924E+02  0.29999899918E+02 0.  0.
         12    1    1    2    0    0 -0.32425015854E+02  0.16312473028E+02 -0.18321842861E+02  0.40659173076E+02  0.00000000000E+00 0. -1.
         11    1    3    3    0    0  0.26809316413E+01  0.71908757145E+01  0.28424898564E+01  0.81838766396E+01  0.51100000000E-03 0. -1.
        -11    1    3    3    0    0  0.25552352688E+02 -0.14253589159E+02  0.11524659293E+02  0.31446864770E+02  0.51100000000E-03 0.  1.
         12    1    3    3    0    0  0.41917315248E+01 -0.92497595837E+01  0.39546937109E+01  0.10898085514E+02  0.00000000000E+00 0. -1.
</event>
<event>
 7    1  0.2891523E-011  0.5052886E+02  0.7816164E-02  0.1300439E+00
        -11   -1    0    0    0    0  0.00000000000E+00  0.00000000000E+00  0.45593999997E+02  0.45594000000E+02  0.51100000000E-03 0.  1.
         11   -1    0    0    0    0 -0.00000000000E+00 -0.00000000000E+00 -0.45593999997E+02  0.45594000000E+02  0.51100000000E-03 0. -1.
    9900012    2    1    2    0    0  0.13230479233E+01  0.93786202040E+01  0.39540571413E+02  0.50528858834E+02  0.29999996911E+02 0.  0.
         12    1    1    2    0    0 -0.13230479233E+01 -0.93786202040E+01 -0.39540571413E+02  0.40659141166E+02  0.00000000000E+00 0. -1.
         11    1    3    3    0    0  0.91355264367E-01 -0.91789338557E+01  0.52413684731E+01  0.10570388651E+02  0.51100000000E-03 0. -1.
        -11    1    3    3    0    0  0.77944144449E+00  0.64292102502E+01  0.20896952639E+02  0.21877497647E+02  0.51100000000E-03 0.  1.
         12    1    3    3    0    0  0.45225121441E+00  0.12128343809E+02  0.13402250300E+02  0.18080972535E+02  0.00000000000E+00 0. -1.
</event>
<event>
 7    1  0.2891523E-011  0.5052887E+02  0.7816164E-02  0.1300439E+00
        -11   -1    0    0    0    0  0.00000000000E+00  0.00000000000E+00  0.45593999997E+02  0.45594000000E+02  0.51100000000E-03 0. -1.
         11   -1    0    0    0    0 -0.00000000000E+00 -0.00000000000E+00 -0.45593999997E+02  0.45594000000E+02  0.51100000000E-03 0.  1.
    9900012    2    1    2    0    0  0.10162963270E+02 -0.38904967545E+01 -0.39175797428E+02  0.50528869518E+02  0.30000029387E+02 0.  0.
         12    1    1    2    0    0 -0.10162963270E+02  0.38904967545E+01  0.39175797428E+02  0.40659130482E+02  0.00000000000E+00 0. -1.
         11    1    3    3    0    0  0.45346086615E+01  0.10208350692E+02 -0.14401692128E+02  0.18225856247E+02  0.51100000000E-03 0. -1.
        -11    1    3    3    0    0 -0.78859962203E+00 -0.11560575973E+02 -0.22001061670E+02  0.24865951039E+02  0.51100000000E-03 0.  1.
         12    1    3    3    0    0  0.64169542301E+01 -0.25382714735E+01 -0.27730436302E+01  0.74370622318E+01  0.00000000000E+00 0. -1.
</event>
<event>
 7    1  0.2891523E-011  0.5052885E+02  0.7816164E-02  0.1300439E+00
        -11   -1    0    0    0    0  0.00000000000E+00  0.00000000000E+00  0.45593999997E+02  0.45594000000E+02  0.51100000000E-03 0. -1.
         11   -1    0    0    0    0 -0.00000000000E+00 -0.00000000000E+00 -0.45593999997E+02  0.45594000000E+02  0.51100000000E-03 0.  1.
    9900012    2    1    2    0    0 -0.36826592156E+01 -0.19310284374E+02 -0.35590975938E+02  0.50528848143E+02  0.29999964416E+02 0.  0.
         12    1    1    2    0    0  0.36826592156E+01  0.19310284374E+02  0.35590975938E+02  0.40659151857E+02  0.00000000000E+00 0. -1.
         11    1    3    3    0    0  0.11062263113E+02 -0.47352845561E+01 -0.13356117720E+02  0.17977276374E+02  0.51100000000E-03 0.  1.
        -11    1    3    3    0    0 -0.62123756994E+01 -0.75732305586E+01 -0.18439370910E+02  0.20879603271E+02  0.51100000000E-03 0. -1.
         12    1    3    3    0    0 -0.85325466290E+01 -0.70017692590E+01 -0.37954873079E+01  0.11671968499E+02  0.00000000000E+00 0. -1.
</event>
<event>
 7    1  0.2891523E-011  0.5052886E+02  0.7816164E-02  0.1300439E+00
        -11   -1    0    0    0    0  0.00000000000E+00  0.00000000000E+00  0.45593999997E+02  0.45594000000E+02  0.51100000000E-03 0.  1.
         11   -1    0    0    0    0 -0.00000000000E+00 -0.00000000000E+00 -0.45593999997E+02  0.45594000000E+02  0.51100000000E-03 0. -1.
    9900012    2    1    2    0    0  0.11665869359E+02  0.15079145226E+02  0.35912293402E+02  0.50528856551E+02  0.29999989972E+02 0.  0.
         12    1    1    2    0    0 -0.11665869359E+02 -0.15079145226E+02 -0.35912293402E+02  0.40659143449E+02  0.00000000000E+00 0. -1.
         11    1    3    3    0    0  0.12650407665E+02  0.66486229169E+01  0.14460401573E+01  0.14364123126E+02  0.51100000000E-03 0. -1.
        -11    1    3    3    0    0 -0.32983247025E+01  0.22900820366E+01  0.87979637763E+01  0.96709662623E+01  0.51100000000E-03 0.  1.
         12    1    3    3    0    0  0.23137863960E+01  0.61404402728E+01  0.25668289468E+02  0.26493767162E+02  0.00000000000E+00 0. -1.
</event>
<event>
 7    1  0.2891523E-011  0.5052884E+02  0.7816164E-02  0.1300439E+00
        -11   -1    0    0    0    0  0.00000000000E+00  0.00000000000E+00  0.45593999997E+02  0.45594000000E+02  0.51100000000E-03 0. -1.
         11   -1    0    0    0    0 -0.00000000000E+00 -0.00000000000E+00 -0.45593999997E+02  0.45594000000E+02  0.51100000000E-03 0.  1.
    9900012    2    1    2    0    0 -0.19387463061E+02  0.25979180902E+02 -0.24543339292E+02  0.50528842755E+02  0.29999948038E+02 0.  0.
         12    1    1    2    0    0  0.19387463061E+02 -0.25979180902E+02  0.24543339292E+02  0.40659157245E+02  0.00000000000E+00 0. -1.
         11    1    3    3    0    0 -0.34367800816E+01  0.19638710804E+02 -0.87470043789E+01  0.21771552660E+02  0.51100000000E-03 0. -1.
        -11    1    3    3    0    0 -0.10229695233E+02 -0.45584031266E+01 -0.45642830830E+01  0.12093733251E+02  0.51100000000E-03 0.  1.
         12    1    3    3    0    0 -0.57209877455E+01  0.10898873225E+02 -0.11232051830E+02  0.16663556843E+02  0.00000000000E+00 0. -1.
</event>
<event>
 7    1  0.2891523E-011  0.5052885E+02  0.7816164E-02  0.1300439E+00
        -11   -1    0    0    0    0  0.00000000000E+00  0.00000000000E+00  0.45593999997E+02  0.45594000000E+02  0.51100000000E-03 0. -1.
         11   -1    0    0    0    0 -0.00000000000E+00 -0.00000000000E+00 -0.45593999997E+02  0.45594000000E+02  0.51100000000E-03 0.  1.
    9900012    2    1    2    0    0 -0.39777492136E+02 -0.32963360680E+01  0.77493106121E+01  0.50528849406E+02  0.29999968254E+02 0.  0.
         12    1    1    2    0    0  0.39777492136E+02  0.32963360680E+01 -0.77493106121E+01  0.40659150594E+02  0.00000000000E+00 0. -1.
         11    1    3    3    0    0  0.51190049788E+00 -0.17591569332E+01 -0.53621328411E+01  0.56664931044E+01  0.51100000000E-03 0. -1.
        -11    1    3    3    0    0 -0.35756416694E+02 -0.60558187902E+01  0.12786225808E+02  0.38453632425E+02  0.51100000000E-03 0.  1.
         12    1    3    3    0    0 -0.45329759395E+01  0.45186396554E+01  0.32521764559E+00  0.64087238761E+01  0.00000000000E+00 0. -1.
</event>
<event>
 7    1  0.2891523E-011  0.5052884E+02  0.7816164E-02  0.1300439E+00
        -11   -1    0    0    0    0  0.00000000000E+00  0.00000000000E+00  0.45593999997E+02  0.45594000000E+02  0.51100000000E-03 0.  1.
         11   -1    0    0    0    0 -0.00000000000E+00 -0.00000000000E+00 -0.45593999997E+02  0.45594000000E+02  0.51100000000E-03 0. -1.
    9900012    2    1    2    0    0 -0.93211072475E+01 -0.30576671140E+02  0.25126711964E+02  0.50528837288E+02  0.29999931422E+02 0.  0.
         12    1    1    2    0    0  0.93211072475E+01  0.30576671140E+02 -0.25126711964E+02  0.40659162712E+02  0.00000000000E+00 0. -1.
         11    1    3    3    0    0  0.25954458517E+01  0.42620793186E+01  0.18970529700E+01  0.53385831004E+01  0.51100000000E-03 0. -1.
        -11    1    3    3    0    0 -0.12676592892E+02 -0.28163731021E+02  0.22927929989E+02  0.38465331485E+02  0.51100000000E-03 0.  1.
         12    1    3    3    0    0  0.76003979310E+00 -0.66750194371E+01  0.30172900459E+00  0.67249227032E+01  0.00000000000E+00 0. -1.
</event>
<event>
 7    1  0.2891523E-011  0.5052885E+02  0.7816164E-02  0.1300439E+00
        -11   -1    0    0    0    0  0.00000000000E+00  0.00000000000E+00  0.45593999997E+02  0.45594000000E+02  0.51100000000E-03 0.  1.
         11   -1    0    0    0    0 -0.00000000000E+00 -0.00000000000E+00 -0.45593999997E+02  0.45594000000E+02  0.51100000000E-03 0. -1.
    9900012    2    1    2    0    0 -0.38773051510E+02  0.10148174736E+02 -0.68433533272E+01  0.50528850247E+02  0.29999970812E+02 0.  0.
         12    1    1    2    0    0  0.38773051510E+02 -0.10148174736E+02  0.68433533272E+01  0.40659149753E+02  0.00000000000E+00 0. -1.
         11    1    3    3    0    0 -0.46449902531E+01  0.35171574036E+01 -0.13806289902E+02  0.14985325214E+02  0.51100000000E-03 0.  1.
        -11    1    3    3    0    0 -0.32506517828E+02  0.58245939059E+01  0.68626986362E+01  0.33729752865E+02  0.51100000000E-03 0. -1.
        -12    1    3    3    0    0 -0.16215434282E+01  0.80642342678E+00  0.10023793896E+00  0.18137721679E+01  0.00000000000E+00 0.  1.
</event>
<event>
 7    1  0.2891523E-011  0.5052887E+02  0.7816164E-02  0.1300439E+00
        -11   -1    0    0    0    0  0.00000000000E+00  0.00000000000E+00  0.45593999997E+02  0.45594000000E+02  0.51100000000E-03 0.  1.
         11   -1    0    0    0    0 -0.00000000000E+00 -0.00000000000E+00 -0.45593999997E+02  0.45594000000E+02  0.51100000000E-03 0. -1.
    9900012    2    1    2    0    0 -0.43357044761E+01 -0.17695754750E+02  0.36348685464E+02  0.50528868130E+02  0.30000025167E+02 0.  0.
         12    1    1    2    0    0  0.43357044761E+01  0.17695754750E+02 -0.36348685464E+02  0.40659131870E+02  0.00000000000E+00 0. -1.
         11    1    3    3    0    0  0.96933755681E+00  0.66673446272E+00  0.57811473249E+01  0.58996453110E+01  0.51100000000E-03 0. -1.
        -11    1    3    3    0    0  0.73053529436E+00 -0.21657093288E+02  0.11870288868E+02  0.24707633023E+02  0.51100000000E-03 0.  1.
        -12    1    3    3    0    0 -0.60355773273E+01  0.32946040752E+01  0.18697249271E+02  0.19921589796E+02  0.00000000000E+00 0.  1.
</event>
<event>
 7    1  0.2891523E-011  0.5052886E+02  0.7816164E-02  0.1300439E+00
        -11   -1    0    0    0    0  0.00000000000E+00  0.00000000000E+00  0.45593999997E+02  0.45594000000E+02  0.51100000000E-03 0.  1.
         11   -1    0    0    0    0 -0.00000000000E+00 -0.00000000000E+00 -0.45593999997E+02  0.45594000000E+02  0.51100000000E-03 0. -1.
    9900012    2    1    2    0    0  0.24381537163E+02  0.32360590215E+02  0.33909586936E+01  0.50528858907E+02  0.29999997135E+02 0.  0.
         12    1    1    2    0    0 -0.24381537163E+02 -0.32360590215E+02 -0.33909586936E+01  0.40659141093E+02  0.00000000000E+00 0. -1.
         11    1    3    3    0    0  0.86060334666E+01  0.12508842714E+02 -0.73347191436E+01  0.16862178485E+02  0.51100000000E-03 0. -1.
        -11    1    3    3    0    0  0.10537146590E+02  0.35175554017E+01  0.12139199152E+02  0.16454932713E+02  0.51100000000E-03 0.  1.
         12    1    3    3    0    0  0.52383571064E+01  0.16334192100E+02 -0.14135213149E+01  0.17211747710E+02  0.00000000000E+00 0. -1.
</event>
<event>
 7    1  0.2891523E-011  0.5052885E+02  0.7816164E-02  0.1300439E+00
        -11   -1    0    0    0    0  0.00000000000E+00  0.00000000000E+00  0.45593999997E+02  0.45594000000E+02  0.51100000000E-03 0. -1.
         11   -1    0    0    0    0 -0.00000000000E+00 -0.00000000000E+00 -0.45593999997E+02  0.45594000000E+02  0.51100000000E-03 0.  1.
    9900012    2    1    2    0    0  0.21035148439E+02  0.18936811555E+02 -0.29190508305E+02  0.50528854942E+02  0.29999985083E+02 0.  0.
         12    1    1    2    0    0 -0.21035148439E+02 -0.18936811555E+02  0.29190508305E+02  0.40659145058E+02  0.00000000000E+00 0. -1.
         11    1    3    3    0    0  0.88316549483E+01  0.19862894836E+02 -0.24134778891E+02  0.32481075610E+02  0.51100000000E-03 0. -1.
        -11    1    3    3    0    0 -0.35739729651E+00 -0.25155578484E+01 -0.47455323566E+01  0.53829213003E+01  0.51100000000E-03 0.  1.
         12    1    3    3    0    0  0.12560890787E+02  0.15894745669E+01 -0.31019705791E+00  0.12664858032E+02  0.00000000000E+00 0. -1.
</event>
<event>
 7    1  0.2891523E-011  0.5052886E+02  0.7816164E-02  0.1300439E+00
        -11   -1    0    0    0    0  0.00000000000E+00  0.00000000000E+00  0.45593999997E+02  0.45594000000E+02  0.51100000000E-03 0. -1.
         11   -1    0    0    0    0 -0.00000000000E+00 -0.00000000000E+00 -0.45593999997E+02  0.45594000000E+02  0.51100000000E-03 0.  1.
    9900012    2    1    2    0    0 -0.32803058034E+02  0.32303332399E+01 -0.23805258246E+02  0.50528856017E+02  0.29999988349E+02 0.  0.
         12    1    1    2    0    0  0.32803058034E+02 -0.32303332399E+01  0.23805258246E+02  0.40659143983E+02  0.00000000000E+00 0. -1.
         11    1    3    3    0    0 -0.17845649425E+02  0.29295601263E+01 -0.22855285390E+02  0.29144701001E+02  0.51100000000E-03 0. -1.
        -11    1    3    3    0    0 -0.17548218710E+02 -0.22756986510E+01 -0.10791464067E+01  0.17728038286E+02  0.51100000000E-03 0.  1.
         12    1    3    3    0    0  0.25908101008E+01  0.25764717646E+01  0.12917355027E+00  0.36561167293E+01  0.00000000000E+00 0. -1.
</event>
<event>
 7    1  0.2891523E-011  0.5052886E+02  0.7816164E-02  0.1300439E+00
        -11   -1    0    0    0    0  0.00000000000E+00  0.00000000000E+00  0.45593999997E+02  0.45594000000E+02  0.51100000000E-03 0.  1.
         11   -1    0    0    0    0 -0.00000000000E+00 -0.00000000000E+00 -0.45593999997E+02  0.45594000000E+02  0.51100000000E-03 0. -1.
    9900012    2    1    2    0    0 -0.14272889666E+02  0.34530835912E+02  0.16033457216E+02  0.50528858857E+02  0.29999996981E+02 0.  0.
         12    1    1    2    0    0  0.14272889666E+02 -0.34530835912E+02 -0.16033457216E+02  0.40659141143E+02  0.00000000000E+00 0. -1.
         11    1    3    3    0    0 -0.11494221987E+02  0.82203644537E+01 -0.23219916985E+01  0.14320725420E+02  0.51100000000E-03 0. -1.
        -11    1    3    3    0    0 -0.33801372422E+00  0.99931884351E+01  0.16911460675E+02  0.19646260987E+02  0.51100000000E-03 0.  1.
        -12    1    3    3    0    0 -0.24406539546E+01  0.16317283023E+02  0.14439882401E+01  0.16561872449E+02  0.00000000000E+00 0.  1.
</event>
<event>
 7    1  0.2891523E-011  0.5052886E+02  0.7816164E-02  0.1300439E+00
        -11   -1    0    0    0    0  0.00000000000E+00  0.00000000000E+00  0.45593999997E+02  0.45594000000E+02  0.51100000000E-03 0.  1.
         11   -1    0    0    0    0 -0.00000000000E+00 -0.00000000000E+00 -0.45593999997E+02  0.45594000000E+02  0.51100000000E-03 0. -1.
    9900012    2    1    2    0    0 -0.31643437690E+02  0.11482891986E+02  0.22803544789E+02  0.50528860657E+02  0.30000002453E+02 0.  0.
         12    1    1    2    0    0  0.31643437690E+02 -0.11482891986E+02 -0.22803544789E+02  0.40659139343E+02  0.00000000000E+00 0. -1.
         11    1    3    3    0    0 -0.67901253890E+01  0.59829749612E+01  0.17243206533E+02  0.19473827667E+02  0.51100000000E-03 0. -1.
        -11    1    3    3    0    0 -0.21140312771E+02  0.11058342501E+02  0.46836288315E+01  0.24313291472E+02  0.51100000000E-03 0.  1.
        -12    1    3    3    0    0 -0.37129995298E+01 -0.55584254761E+01  0.87670942442E+00  0.67417415181E+01  0.00000000000E+00 0.  1.
</event>
<event>
 7    1  0.2891523E-011  0.5052888E+02  0.7816164E-02  0.1300439E+00
        -11   -1    0    0    0    0  0.00000000000E+00  0.00000000000E+00  0.45593999997E+02  0.45594000000E+02  0.51100000000E-03 0.  1.
         11   -1    0    0    0    0 -0.00000000000E+00 -0.00000000000E+00 -0.45593999997E+02  0.45594000000E+02  0.51100000000E-03 0. -1.
    9900012    2    1    2    0    0 -0.45467651918E+01  0.20836138149E+02  0.34617142121E+02  0.50528877343E+02  0.30000053171E+02 0.  0.
         12    1    1    2    0    0  0.45467651918E+01 -0.20836138149E+02 -0.34617142121E+02  0.40659122657E+02  0.00000000000E+00 0. -1.
         11    1    3    3    0    0 -0.30719179805E+01  0.83900483653E+01 -0.40736031008E+01  0.98195638465E+01  0.51100000000E-03 0. -1.
        -11    1    3    3    0    0 -0.14675810960E+01  0.49361588614E+01  0.15597782767E+02  0.16425902900E+02  0.51100000000E-03 0.  1.
         12    1    3    3    0    0 -0.72661152285E-02  0.75099309218E+01  0.23092962454E+02  0.24283410596E+02  0.00000000000E+00 0. -1.
</event>
<event>
 7    1  0.2891523E-011  0.5052886E+02  0.7816164E-02  0.1300439E+00
        -11   -1    0    0    0    0  0.00000000000E+00  0.00000000000E+00  0.45593999997E+02  0.45594000000E+02  0.51100000000E-03 0.  1.
         11   -1    0    0    0    0 -0.00000000000E+00 -0.00000000000E+00 -0.45593999997E+02  0.45594000000E+02  0.51100000000E-03 0. -1.
    9900012    2    1    2    0    0 -0.60415347662E+01 -0.40197752449E+02 -0.89777585717E+00  0.50528862703E+02  0.30000008672E+02 0.  0.
         12    1    1    2    0    0  0.60415347662E+01  0.40197752449E+02  0.89777585717E+00  0.40659137297E+02  0.00000000000E+00 0. -1.
         11    1    3    3    0    0  0.63657143502E+01  0.26337180868E+00  0.10585180729E+01  0.64584939939E+01  0.51100000000E-03 0. -1.
        -11    1    3    3    0    0 -0.47688389208E+01 -0.21278849631E+02  0.48326011505E+01  0.22335740427E+02  0.51100000000E-03 0.  1.
         12    1    3    3    0    0 -0.76384101956E+01 -0.19182274626E+02 -0.67888950806E+01  0.21734628282E+02  0.00000000000E+00 0. -1.
</event>
<event>
 7    1  0.2891523E-011  0.5052886E+02  0.7816164E-02  0.1300439E+00
        -11   -1    0    0    0    0  0.00000000000E+00  0.00000000000E+00  0.45593999997E+02  0.45594000000E+02  0.51100000000E-03 0. -1.
         11   -1    0    0    0    0 -0.00000000000E+00 -0.00000000000E+00 -0.45593999997E+02  0.45594000000E+02  0.51100000000E-03 0.  1.
    9900012    2    1    2    0    0 -0.34973837147E+02 -0.32106315684E+01 -0.20486286262E+02  0.50528863700E+02  0.30000011703E+02 0.  0.
         12    1    1    2    0    0  0.34973837147E+02  0.32106315684E+01  0.20486286262E+02  0.40659136300E+02  0.00000000000E+00 0. -1.
         11    1    3    3    0    0 -0.29170022232E+02  0.13905259790E+01 -0.51458396892E+01  0.29653050869E+02  0.51100000000E-03 0.  1.
        -11    1    3    3    0    0 -0.63621633110E+01 -0.74952908974E+01 -0.14963553314E+02  0.17904313326E+02  0.51100000000E-03 0. -1.
         12    1    3    3    0    0  0.55834839614E+00  0.28941333500E+01 -0.37689325887E+00  0.29714995049E+01  0.00000000000E+00 0. -1.
</event>
<event>
 7    1  0.2891523E-011  0.5052888E+02  0.7816164E-02  0.1300439E+00
        -11   -1    0    0    0    0  0.00000000000E+00  0.00000000000E+00  0.45593999997E+02  0.45594000000E+02  0.51100000000E-03 0. -1.
         11   -1    0    0    0    0 -0.00000000000E+00 -0.00000000000E+00 -0.45593999997E+02  0.45594000000E+02  0.51100000000E-03 0.  1.
    9900012    2    1    2    0    0 -0.20595957421E+02  0.30994861199E+02 -0.16379537556E+02  0.50528878841E+02  0.30000057726E+02 0.  0.
         12    1    1    2    0    0  0.20595957421E+02 -0.30994861199E+02  0.16379537556E+02  0.40659121159E+02  0.00000000000E+00 0. -1.
         11    1    3    3    0    0  0.54197198830E+01  0.14648837077E+02 -0.66841168948E+01  0.16989385222E+02  0.51100000000E-03 0. -1.
        -11    1    3    3    0    0 -0.14082011487E+02  0.37225577483E+01 -0.61455935283E+01  0.15809136719E+02  0.51100000000E-03 0.  1.
        -12    1    3    3    0    0 -0.11933665817E+02  0.12623466374E+02 -0.35498271327E+01  0.17730356900E+02  0.00000000000E+00 0.  1.
</event>
<event>
 7    1  0.2891523E-011  0.5052886E+02  0.7816164E-02  0.1300439E+00
        -11   -1    0    0    0    0  0.00000000000E+00  0.00000000000E+00  0.45593999997E+02  0.45594000000E+02  0.51100000000E-03 0.  1.
         11   -1    0    0    0    0 -0.00000000000E+00 -0.00000000000E+00 -0.45593999997E+02  0.45594000000E+02  0.51100000000E-03 0. -1.
    9900012    2    1    2    0    0 -0.20450168137E+02  0.19099321399E+02  0.29498682057E+02  0.50528859603E+02  0.29999999250E+02 0.  0.
         12    1    1    2    0    0  0.20450168137E+02 -0.19099321399E+02 -0.29498682057E+02  0.40659140397E+02  0.00000000000E+00 0. -1.
         11    1    3    3    0    0 -0.82315151953E+01  0.29140041682E+01  0.31764275555E+01  0.92918757514E+01  0.51100000000E-03 0. -1.
        -11    1    3    3    0    0 -0.11544564640E+02  0.18122677211E+02  0.30073740519E+02  0.36961307757E+02  0.51100000000E-03 0.  1.
        -12    1    3    3    0    0 -0.67408830149E+00 -0.19373599801E+01 -0.37514860177E+01  0.42756760952E+01  0.00000000000E+00 0.  1.
</event>
<event>
 7    1  0.2891523E-011  0.5052888E+02  0.7816164E-02  0.1300439E+00
        -11   -1    0    0    0    0  0.00000000000E+00  0.00000000000E+00  0.45593999997E+02  0.45594000000E+02  0.51100000000E-03 0.  1.
         11   -1    0    0    0    0 -0.00000000000E+00 -0.00000000000E+00 -0.45593999997E+02  0.45594000000E+02  0.51100000000E-03 0. -1.
    9900012    2    1    2    0    0  0.34782867417E+02  0.19203960345E+02  0.86327281068E+01  0.50528881056E+02  0.30000064459E+02 0.  0.
         12    1    1    2    0    0 -0.34782867417E+02 -0.19203960345E+02 -0.86327281068E+01  0.40659118944E+02  0.00000000000E+00 0. -1.
         11    1    3    3    0    0  0.34758051374E+02  0.10726333803E+02  0.40656133402E+01  0.36601988802E+02  0.51100000000E-03 0.  1.
        -11    1    3    3    0    0  0.28276484445E+00  0.10717600030E+02  0.46130725412E+01  0.11671647051E+02  0.51100000000E-03 0. -1.
        -12    1    3    3    0    0 -0.25794880137E+00 -0.22399734874E+01 -0.45957774634E-01  0.22552452030E+01  0.00000000000E+00 0.  1.
</event>
<event>
 7    1  0.2891523E-011  0.5052886E+02  0.7816164E-02  0.1300439E+00
        -11   -1    0    0    0    0  0.00000000000E+00  0.00000000000E+00  0.45593999997E+02  0.45594000000E+02  0.51100000000E-03 0. -1.
         11   -1    0    0    0    0 -0.00000000000E+00 -0.00000000000E+00 -0.45593999997E+02  0.45594000000E+02  0.51100000000E-03 0.  1.
    9900012    2    1    2    0    0 -0.34108123973E+02  0.16235041560E+02  0.15040781237E+02  0.50528858400E+02  0.29999995594E+02 0.  0.
         12    1    1    2    0    0  0.34108123973E+02 -0.16235041560E+02 -0.15040781237E+02  0.40659141600E+02  0.00000000000E+00 0. -1.
         11    1    3    3    0    0 -0.25055984994E+02  0.15185622301E+02  0.38666319302E+01  0.29552603125E+02  0.51100000000E-03 0.  1.
        -11    1    3    3    0    0 -0.10239884233E+02  0.19787673213E+01  0.14186426994E+02  0.17607539871E+02  0.51100000000E-03 0. -1.
         12    1    3    3    0    0  0.11877452544E+01 -0.92934806277E+00 -0.30122776868E+01  0.33687154041E+01  0.00000000000E+00 0. -1.
</event>
<event>
 7    1  0.2891523E-011  0.5052886E+02  0.7816164E-02  0.1300439E+00
        -11   -1    0    0    0    0  0.00000000000E+00  0.00000000000E+00  0.45593999997E+02  0.45594000000E+02  0.51100000000E-03 0. -1.
         11   -1    0    0    0    0 -0.00000000000E+00 -0.00000000000E+00 -0.45593999997E+02  0.45594000000E+02  0.51100000000E-03 0.  1.
    9900012    2    1    2    0    0 -0.83531007274E+01 -0.25929295993E+02 -0.30183815757E+02  0.50528863067E+02  0.30000009780E+02 0.  0.
         12    1    1    2    0    0  0.83531007274E+01  0.25929295993E+02  0.30183815757E+02  0.40659136933E+02  0.00000000000E+00 0. -1.
         11    1    3    3    0    0  0.26409134397E+01  0.44665678890E+01 -0.12689904467E+02  0.13709789501E+02  0.51100000000E-03 0. -1.
        -11    1    3    3    0    0 -0.51904489290E+01 -0.12207946739E+02 -0.80833901484E+01  0.15534346469E+02  0.51100000000E-03 0.  1.
         12    1    3    3    0    0 -0.58035652381E+01 -0.18187917143E+02 -0.94105211407E+01  0.21284727097E+02  0.00000000000E+00 0. -1.
</event>
<event>
 7    1  0.2891523E-011  0.5052885E+02  0.7816164E-02  0.1300439E+00
        -11   -1    0    0    0    0  0.00000000000E+00  0.00000000000E+00  0.45593999997E+02  0.45594000000E+02  0.51100000000E-03 0.  1.
         11   -1    0    0    0    0 -0.00000000000E+00 -0.00000000000E+00 -0.45593999997E+02  0.45594000000E+02  0.51100000000E-03 0. -1.
    9900012    2    1    2    0    0  0.33109885608E+02 -0.16051589945E+02  0.17298790811E+02  0.50528853080E+02  0.29999979423E+02 0.  0.
         12    1    1    2    0    0 -0.33109885608E+02  0.16051589945E+02 -0.17298790811E+02  0.40659146920E+02  0.00000000000E+00 0. -1.
         11    1    3    3    0    0 -0.16730016669E+01  0.81656198575E+00 -0.46295246067E+01  0.49898102568E+01  0.51100000000E-03 0. -1.
        -11    1    3    3    0    0  0.41454342731E+01 -0.20928368480E+01  0.69834479268E+01  0.83864853540E+01  0.51100000000E-03 0.  1.
         12    1    3    3    0    0  0.30637453001E+02 -0.14775315083E+02  0.14944867491E+02  0.37152557470E+02  0.00000000000E+00 0. -1.
</event>
<event>
 7    1  0.2891523E-011  0.5052886E+02  0.7816164E-02  0.1300439E+00
        -11   -1    0    0    0    0  0.00000000000E+00  0.00000000000E+00  0.45593999997E+02  0.45594000000E+02  0.51100000000E-03 0.  1.
         11   -1    0    0    0    0 -0.00000000000E+00 -0.00000000000E+00 -0.45593999997E+02  0.45594000000E+02  0.51100000000E-03 0. -1.
    9900012    2    1    2    0    0 -0.55051272556E+01 -0.23041108723E+02  0.33044916494E+02  0.50528860519E+02  0.30000002032E+02 0.  0.
         12    1    1    2    0    0  0.55051272556E+01  0.23041108723E+02 -0.33044916494E+02  0.40659139481E+02  0.00000000000E+00 0. -1.
         11    1    3    3    0    0 -0.35207980221E+01  0.23809133036E+00  0.67808909837E+01  0.76441604502E+01  0.51100000000E-03 0. -1.
        -11    1    3    3    0    0 -0.18394758434E+01 -0.27348159173E+02  0.15756742434E+02  0.31616141667E+02  0.51100000000E-03 0.  1.
        -12    1    3    3    0    0 -0.14485339007E+00  0.40689591187E+01  0.10507283076E+02  0.11268558402E+02  0.00000000000E+00 0.  1.
</event>
<event>
 7    1  0.2891523E-011  0.5052886E+02  0.7816164E-02  0.1300439E+00
        -11   -1    0    0    0    0  0.00000000000E+00  0.00000000000E+00  0.45593999997E+02  0.45594000000E+02  0.51100000000E-03 0.  1.
         11   -1    0    0    0    0 -0.00000000000E+00 -0.00000000000E+00 -0.45593999997E+02  0.45594000000E+02  0.51100000000E-03 0. -1.
    9900012    2    1    2    0    0  0.14802682445E+00  0.25554054600E+02  0.31624891631E+02  0.50528863399E+02  0.30000010787E+02 0.  0.
         12    1    1    2    0    0 -0.14802682445E+00 -0.25554054600E+02 -0.31624891631E+02  0.40659136601E+02  0.00000000000E+00 0. -1.
         11    1    3    3    0    0 -0.36126700243E+01 -0.35755386522E+01  0.16867819280E+02  0.17617014187E+02  0.51100000000E-03 0. -1.
        -11    1    3    3    0    0  0.35340423486E+01  0.23350641936E+02  0.12306968542E+02  0.26630873232E+02  0.51100000000E-03 0.  1.
         12    1    3    3    0    0  0.22665450012E+00  0.57789513164E+01  0.24501038093E+01  0.62809759796E+01  0.00000000000E+00 0. -1.
</event>
<event>
 7    1  0.3324988E-011  0.5052887E+02  0.7816164E-02  0.1300439E+00
        -11   -1    0    0    0    0  0.00000000000E+00  0.00000000000E+00  0.45593999997E+02  0.45594000000E+02  0.51100000000E-03 0. -1.
         11   -1    0    0    0    0 -0.00000000000E+00 -0.00000000000E+00 -0.45593999997E+02  0.45594000000E+02  0.51100000000E-03 0.  1.
    9900012    2    1    2    0    0  0.15175718813E+02 -0.33854411567E+02 -0.16635552877E+02  0.50528865189E+02  0.30000016228E+02 0.  0.
         12    1    1    2    0    0 -0.15175718813E+02  0.33854411567E+02  0.16635552877E+02  0.40659134811E+02  0.00000000000E+00 0. -1.
         11    1    3    3    0    0  0.69952419979E+01  0.39794485736E-02 -0.23831590083E+00  0.69993014777E+01  0.51100000000E-03 0. -1.
        -11    1    3    3    0    0  0.11491846118E+02 -0.31689328174E+02 -0.86053063674E+01  0.34789759201E+02  0.51100000000E-03 0.  1.
        -12    1    3    3    0    0 -0.33113693027E+01 -0.21690628417E+01 -0.77919306084E+01  0.87398045102E+01  0.00000000000E+00 0.  1.
</event>
<event>
 7    1  0.2891523E-011  0.5052887E+02  0.7816164E-02  0.1300439E+00
        -11   -1    0    0    0    0  0.00000000000E+00  0.00000000000E+00  0.45593999997E+02  0.45594000000E+02  0.51100000000E-03 0.  1.
         11   -1    0    0    0    0 -0.00000000000E+00 -0.00000000000E+00 -0.45593999997E+02  0.45594000000E+02  0.51100000000E-03 0. -1.
    9900012    2    1    2    0    0 -0.15835131624E+01  0.21780579430E+02  0.34296696827E+02  0.50528873503E+02  0.30000041500E+02 0.  0.
         12    1    1    2    0    0  0.15835131624E+01 -0.21780579430E+02 -0.34296696827E+02  0.40659126497E+02  0.00000000000E+00 0. -1.
         11    1    3    3    0    0  0.49225143425E+01  0.15496015898E+02  0.11424221614E+02  0.19871348618E+02  0.51100000000E-03 0. -1.
        -11    1    3    3    0    0 -0.80143325774E+01  0.18595750580E+01  0.99624260990E+00  0.82873424967E+01  0.51100000000E-03 0.  1.
        -12    1    3    3    0    0  0.15083050725E+01  0.44249884742E+01  0.21876232603E+02  0.22370182389E+02  0.00000000000E+00 0.  1.
</event>
<event>
 7    1  0.2891523E-011  0.5052886E+02  0.7816164E-02  0.1300439E+00
        -11   -1    0    0    0    0  0.00000000000E+00  0.00000000000E+00  0.45593999997E+02  0.45594000000E+02  0.51100000000E-03 0.  1.
         11   -1    0    0    0    0 -0.00000000000E+00 -0.00000000000E+00 -0.45593999997E+02  0.45594000000E+02  0.51100000000E-03 0. -1.
    9900012    2    1    2    0    0 -0.19045306912E+02  0.35826826826E+02  0.26231323503E+01  0.50528855160E+02  0.29999985744E+02 0.  0.
         12    1    1    2    0    0  0.19045306912E+02 -0.35826826826E+02 -0.26231323503E+01  0.40659144840E+02  0.00000000000E+00 0. -1.
         11    1    3    3    0    0  0.49275037160E+01  0.92594705630E+01 -0.15301347311E+01  0.10599971723E+02  0.51100000000E-03 0. -1.
        -11    1    3    3    0    0 -0.19088358185E+02  0.12670863514E+02 -0.37448721020E+01  0.23215087071E+02  0.51100000000E-03 0.  1.
        -12    1    3    3    0    0 -0.48844524434E+01  0.13896492749E+02  0.78981391834E+01  0.16713796366E+02  0.00000000000E+00 0.  1.
</event>
<event>
 7    1  0.2891523E-011  0.5052885E+02  0.7816164E-02  0.1300439E+00
        -11   -1    0    0    0    0  0.00000000000E+00  0.00000000000E+00  0.45593999997E+02  0.45594000000E+02  0.51100000000E-03 0.  1.
         11   -1    0    0    0    0 -0.00000000000E+00 -0.00000000000E+00 -0.45593999997E+02  0.45594000000E+02  0.51100000000E-03 0. -1.
    9900012    2    1    2    0    0 -0.29890043693E+02 -0.17629993491E+02  0.21188088680E+02  0.50528849930E+02  0.29999969849E+02 0.  0.
         12    1    1    2    0    0  0.29890043693E+02  0.17629993491E+02 -0.21188088680E+02  0.40659150070E+02  0.00000000000E+00 0. -1.
         11    1    3    3    0    0  0.58944987295E+00 -0.12068493301E+02  0.33941635184E+01  0.12550550902E+02  0.51100000000E-03 0. -1.
        -11    1    3    3    0    0 -0.14474743572E+02 -0.24736576699E+01  0.12247561512E+01  0.14735576393E+02  0.51100000000E-03 0.  1.
         12    1    3    3    0    0 -0.16004749994E+02 -0.30878425206E+01  0.16569169010E+02  0.23242722635E+02  0.00000000000E+00 0. -1.
</event>
<event>
 7    1  0.2891523E-011  0.5052892E+02  0.7816164E-02  0.1300439E+00
        -11   -1    0    0    0    0  0.00000000000E+00  0.00000000000E+00  0.45593999997E+02  0.45594000000E+02  0.51100000000E-03 0.  1.
         11   -1    0    0    0    0 -0.00000000000E+00 -0.00000000000E+00 -0.45593999997E+02  0.45594000000E+02  0.51100000000E-03 0. -1.
    9900012    2    1    2    0    0 -0.40098510839E+02  0.13936735257E+01 -0.65823737420E+01  0.50528923012E+02  0.30000191987E+02 0.  0.
         12    1    1    2    0    0  0.40098510839E+02 -0.13936735257E+01  0.65823737420E+01  0.40659076988E+02  0.00000000000E+00 0. -1.
         11    1    3    3    0    0 -0.40931810078E+02 -0.51416269693E+01 -0.33232065070E+01  0.41387112799E+02  0.51100000000E-03 0. -1.
        -11    1    3    3    0    0 -0.23959512065E+00  0.67154720061E+01 -0.12185952195E+01  0.68293443797E+01  0.51100000000E-03 0.  1.
         12    1    3    3    0    0  0.10728943587E+01 -0.18017151115E+00 -0.20405720154E+01  0.23124658329E+01  0.00000000000E+00 0. -1.
</event>
<event>
 7    1  0.2891523E-011  0.5052886E+02  0.7816164E-02  0.1300439E+00
        -11   -1    0    0    0    0  0.00000000000E+00  0.00000000000E+00  0.45593999997E+02  0.45594000000E+02  0.51100000000E-03 0.  1.
         11   -1    0    0    0    0 -0.00000000000E+00 -0.00000000000E+00 -0.45593999997E+02  0.45594000000E+02  0.51100000000E-03 0. -1.
    9900012    2    1    2    0    0 -0.18860136981E+02 -0.36006137023E+02  0.10092688615E+01  0.50528864571E+02  0.30000014349E+02 0.  0.
         12    1    1    2    0    0  0.18860136981E+02  0.36006137023E+02 -0.10092688615E+01  0.40659135429E+02  0.00000000000E+00 0. -1.
         11    1    3    3    0    0 -0.13226853759E+02 -0.13517465832E+01  0.55775411384E+01  0.14418246932E+02  0.51100000000E-03 0. -1.
        -11    1    3    3    0    0 -0.23366297310E+01 -0.96854999643E+01 -0.44815676449E+01  0.10924888872E+02  0.51100000000E-03 0.  1.
         12    1    3    3    0    0 -0.32966534916E+01 -0.24968890475E+02 -0.86704632013E-01  0.25185728766E+02  0.00000000000E+00 0. -1.
</event>
<event>
 7    1  0.2891523E-011  0.5052886E+02  0.7816164E-02  0.1300439E+00
        -11   -1    0    0    0    0  0.00000000000E+00  0.00000000000E+00  0.45593999997E+02  0.45594000000E+02  0.51100000000E-03 0.  1.
         11   -1    0    0    0    0 -0.00000000000E+00 -0.00000000000E+00 -0.45593999997E+02  0.45594000000E+02  0.51100000000E-03 0. -1.
    9900012    2    1    2    0    0  0.34653303758E+02 -0.15681562410E+02  0.14366713107E+02  0.50528864416E+02  0.30000013878E+02 0.  0.
         12    1    1    2    0    0 -0.34653303758E+02  0.15681562410E+02 -0.14366713107E+02  0.40659135584E+02  0.00000000000E+00 0. -1.
         11    1    3    3    0    0  0.21259760434E+02 -0.12757004156E+02 -0.25369940269E+01  0.24922979511E+02  0.51100000000E-03 0. -1.
        -11    1    3    3    0    0  0.75640166666E+01 -0.67764335693E+01  0.15418671521E+02  0.18462660474E+02  0.51100000000E-03 0.  1.
        -12    1    3    3    0    0  0.58295266572E+01  0.38518753152E+01  0.14850356130E+01  0.71432244304E+01  0.00000000000E+00 0.  1.
</event>
<event>
 7    1  0.3880123E-011  0.5052886E+02  0.7816164E-02  0.1300439E+00
        -11   -1    0    0    0    0  0.00000000000E+00  0.00000000000E+00  0.45593999997E+02  0.45594000000E+02  0.51100000000E-03 0. -1.
         11   -1    0    0    0    0 -0.00000000000E+00 -0.00000000000E+00 -0.45593999997E+02  0.45594000000E+02  0.51100000000E-03 0.  1.
    9900012    2    1    2    0    0 -0.26050393197E+01  0.81855111323E+01 -0.39741373521E+02  0.50528860909E+02  0.30000003218E+02 0.  0.
         12    1    1    2    0    0  0.26050393197E+01 -0.81855111323E+01  0.39741373521E+02  0.40659139091E+02  0.00000000000E+00 0. -1.
         11    1    3    3    0    0 -0.16231503051E+01  0.44326231831E+01  0.24643812060E+01  0.53250295948E+01  0.51100000000E-03 0. -1.
        -11    1    3    3    0    0  0.50076407466E+01 -0.38464112494E+01 -0.20221494947E+02  0.21184433046E+02  0.51100000000E-03 0.  1.
        -12    1    3    3    0    0 -0.59895297611E+01  0.75992991986E+01 -0.21984259780E+02  0.24019398268E+02  0.00000000000E+00 0.  1.
</event>
<event>
 7    1  0.2891523E-011  0.5052887E+02  0.7816164E-02  0.1300439E+00
        -11   -1    0    0    0    0  0.00000000000E+00  0.00000000000E+00  0.45593999997E+02  0.45594000000E+02  0.51100000000E-03 0. -1.
         11   -1    0    0    0    0 -0.00000000000E+00 -0.00000000000E+00 -0.45593999997E+02  0.45594000000E+02  0.51100000000E-03 0.  1.
    9900012    2    1    2    0    0  0.38527539347E+02 -0.74864282713E+01 -0.10618251598E+02  0.50528866175E+02  0.30000019226E+02 0.  0.
         12    1    1    2    0    0 -0.38527539347E+02  0.74864282713E+01  0.10618251598E+02  0.40659133825E+02  0.00000000000E+00 0. -1.
         11    1    3    3    0    0  0.19588128662E+02 -0.20815044171E+01  0.15970444781E+01  0.19763046234E+02  0.51100000000E-03 0. -1.
        -11    1    3    3    0    0  0.15777753077E+02  0.43358140569E+00 -0.16523764309E+02  0.22850826510E+02  0.51100000000E-03 0.  1.
        -12    1    3    3    0    0  0.31616576078E+01 -0.58385052600E+01  0.43084682331E+01  0.79149934311E+01  0.00000000000E+00 0.  1.
</event>
<event>
 7    1  0.2891523E-011  0.5052886E+02  0.7816164E-02  0.1300439E+00
        -11   -1    0    0    0    0  0.00000000000E+00  0.00000000000E+00  0.45593999997E+02  0.45594000000E+02  0.51100000000E-03 0.  1.
         11   -1    0    0    0    0 -0.00000000000E+00 -0.00000000000E+00 -0.45593999997E+02  0.45594000000E+02  0.51100000000E-03 0. -1.
    9900012    2    1    2    0    0 -0.37458465224E+02 -0.81921954730E+01 -0.13524683963E+02  0.50528858840E+02  0.29999996929E+02 0.  0.
         12    1    1    2    0    0  0.37458465224E+02  0.81921954730E+01  0.13524683963E+02  0.40659141160E+02  0.00000000000E+00 0. -1.
         11    1    3    3    0    0 -0.75937514013E+01  0.95735000434E+01 -0.54820379179E+01  0.13392897499E+02  0.51100000000E-03 0. -1.
        -11    1    3    3    0    0 -0.14148469550E+02 -0.10990451362E+02 -0.88910496598E+01  0.20000499395E+02  0.51100000000E-03 0.  1.
         12    1    3    3    0    0 -0.15716244273E+02 -0.67752441543E+01  0.84840361489E+00  0.17135461946E+02  0.00000000000E+00 0. -1.
</event>
<event>
 7    1  0.2891523E-011  0.5052885E+02  0.7816164E-02  0.1300439E+00
        -11   -1    0    0    0    0  0.00000000000E+00  0.00000000000E+00  0.45593999997E+02  0.45594000000E+02  0.51100000000E-03 0.  1.
         11   -1    0    0    0    0 -0.00000000000E+00 -0.00000000000E+00 -0.45593999997E+02  0.45594000000E+02  0.51100000000E-03 0. -1.
    9900012    2    1    2    0    0 -0.34001293240E+02  0.20506111267E+02 -0.87508594755E+01  0.50528854868E+02  0.29999984857E+02 0.  0.
         12    1    1    2    0    0  0.34001293240E+02 -0.20506111267E+02  0.87508594755E+01  0.40659145132E+02  0.00000000000E+00 0. -1.
         11    1    3    3    0    0 -0.81035000576E+01  0.82807702843E+01  0.56457814190E+01  0.12888472283E+02  0.51100000000E-03 0.  1.
        -11    1    3    3    0    0  0.62796801616E-01  0.34367066138E+01 -0.90971281818E+01  0.97248463847E+01  0.51100000000E-03 0. -1.
        -12    1    3    3    0    0 -0.25960589984E+02  0.87886343685E+01 -0.52995127127E+01  0.27915536201E+02  0.00000000000E+00 0.  1.
</event>
<event>
 7    1  0.2891523E-011  0.5052886E+02  0.7816164E-02  0.1300439E+00
        -11   -1    0    0    0    0  0.00000000000E+00  0.00000000000E+00  0.45593999997E+02  0.45594000000E+02  0.51100000000E-03 0. -1.
         11   -1    0    0    0    0 -0.00000000000E+00 -0.00000000000E+00 -0.45593999997E+02  0.45594000000E+02  0.51100000000E-03 0.  1.
    9900012    2    1    2    0    0 -0.12016311309E+02  0.17541830631E+02  0.34656282825E+02  0.50528862053E+02  0.30000006697E+02 0.  0.
         12    1    1    2    0    0  0.12016311309E+02 -0.17541830631E+02 -0.34656282825E+02  0.40659137947E+02  0.00000000000E+00 0. -1.
         11    1    3    3    0    0 -0.12252434826E+02  0.31548440074E+00  0.75298874995E+01  0.14384745239E+02  0.51100000000E-03 0. -1.
        -11    1    3    3    0    0  0.34391178829E+01  0.19449379870E+02  0.24372464261E+02  0.31370733551E+02  0.51100000000E-03 0.  1.
        -12    1    3    3    0    0 -0.32029943666E+01 -0.22230336395E+01  0.27539310645E+01  0.47733832638E+01  0.00000000000E+00 0.  1.
</event>
<event>
 7    1  0.2891523E-011  0.5052890E+02  0.7816164E-02  0.1300439E+00
        -11   -1    0    0    0    0  0.00000000000E+00  0.00000000000E+00  0.45593999997E+02  0.45594000000E+02  0.51100000000E-03 0.  1.
         11   -1    0    0    0    0 -0.00000000000E+00 -0.00000000000E+00 -0.45593999997E+02  0.45594000000E+02  0.51100000000E-03 0. -1.
    9900012    2    1    2    0    0 -0.18687108919E+02 -0.21508237333E+02  0.29006036889E+02  0.50528899064E+02  0.30000119195E+02 0.  0.
         12    1    1    2    0    0  0.18687108919E+02  0.21508237333E+02 -0.29006036889E+02  0.40659100936E+02  0.00000000000E+00 0. -1.
         11    1    3    3    0    0 -0.10562346890E+02 -0.68488078543E+01  0.91685526458E+01  0.15573429254E+02  0.51100000000E-03 0. -1.
        -11    1    3    3    0    0  0.80374966839E-01 -0.19277382071E+02  0.12022022293E+02  0.22718999536E+02  0.51100000000E-03 0.  1.
        -12    1    3    3    0    0 -0.82051369958E+01  0.46179525926E+01  0.78154619503E+01  0.12236470274E+02  0.00000000000E+00 0.  1.
</event>
<event>
 7    1  0.2891523E-011  0.5052888E+02  0.7816164E-02  0.1300439E+00
        -11   -1    0    0    0    0  0.00000000000E+00  0.00000000000E+00  0.45593999997E+02  0.45594000000E+02  0.51100000000E-03 0.  1.
         11   -1    0    0    0    0 -0.00000000000E+00 -0.00000000000E+00 -0.45593999997E+02  0.45594000000E+02  0.51100000000E-03 0. -1.
    9900012    2    1    2    0    0 -0.29454084529E+02 -0.26718575917E+02  0.84698763906E+01  0.50528878016E+02  0.30000055216E+02 0.  0.
         12    1    1    2    0    0  0.29454084529E+02  0.26718575917E+02 -0.84698763906E+01  0.40659121984E+02  0.00000000000E+00 0. -1.
         11    1    3    3    0    0 -0.23999939385E+02 -0.14596725609E+02 -0.38026193519E+01  0.28346453098E+02  0.51100000000E-03 0. -1.
        -11    1    3    3    0    0 -0.94413223484E+01 -0.95919062101E+01  0.10736718009E+02  0.17216862266E+02  0.51100000000E-03 0.  1.
         12    1    3    3    0    0  0.39871772051E+01 -0.25299440978E+01  0.15357777337E+01  0.49655626519E+01  0.00000000000E+00 0. -1.
</event>
<event>
 7    1  0.2891523E-011  0.5052886E+02  0.7816164E-02  0.1300439E+00
        -11   -1    0    0    0    0  0.00000000000E+00  0.00000000000E+00  0.45593999997E+02  0.45594000000E+02  0.51100000000E-03 0.  1.
         11   -1    0    0    0    0 -0.00000000000E+00 -0.00000000000E+00 -0.45593999997E+02  0.45594000000E+02  0.51100000000E-03 0. -1.
    9900012    2    1    2    0    0 -0.63629010418E+00 -0.21857183404E+02  0.34278627565E+02  0.50528860324E+02  0.30000001440E+02 0.  0.
         12    1    1    2    0    0  0.63629010418E+00  0.21857183404E+02 -0.34278627565E+02  0.40659139676E+02  0.00000000000E+00 0. -1.
         11    1    3    3    0    0  0.14769088778E+01 -0.18071936102E+02  0.35247440324E+02  0.39637837781E+02  0.51100000000E-03 0.  1.
        -11    1    3    3    0    0 -0.19348042707E+01  0.31151089123E+01 -0.15130259745E+01  0.39669407561E+01  0.51100000000E-03 0. -1.
         12    1    3    3    0    0 -0.17839471133E+00 -0.69003562146E+01  0.54421321572E+00  0.69240817865E+01  0.00000000000E+00 0. -1.
</event>
<event>
 7    1  0.2891523E-011  0.5052886E+02  0.7816164E-02  0.1300439E+00
        -11   -1    0    0    0    0  0.00000000000E+00  0.00000000000E+00  0.45593999997E+02  0.45594000000E+02  0.51100000000E-03 0.  1.
         11   -1    0    0    0    0 -0.00000000000E+00 -0.00000000000E+00 -0.45593999997E+02  0.45594000000E+02  0.51100000000E-03 0. -1.
    9900012    2    1    2    0    0  0.42723930308E+01 -0.37371563936E+00  0.40432325152E+02  0.50528856837E+02  0.29999990841E+02 0.  0.
         12    1    1    2    0    0 -0.42723930308E+01  0.37371563936E+00 -0.40432325152E+02  0.40659143163E+02  0.00000000000E+00 0. -1.
         11    1    3    3    0    0  0.12619951537E+02 -0.88339136153E+01  0.25396016124E+02  0.29702842318E+02  0.51100000000E-03 0. -1.
        -11    1    3    3    0    0 -0.56168666679E+01  0.82997384515E+01  0.15060922872E+02  0.18090501584E+02  0.51100000000E-03 0.  1.
         12    1    3    3    0    0 -0.27306918380E+01  0.16045952439E+00 -0.24613844926E-01  0.27355129345E+01  0.00000000000E+00 0. -1.
</event>
<event>
 7    1  0.2891523E-011  0.5052887E+02  0.7816164E-02  0.1300439E+00
        -11   -1    0    0    0    0  0.00000000000E+00  0.00000000000E+00  0.45593999997E+02  0.45594000000E+02  0.51100000000E-03 0. -1.
         11   -1    0    0    0    0 -0.00000000000E+00 -0.00000000000E+00 -0.45593999997E+02  0.45594000000E+02  0.51100000000E-03 0.  1.
    9900012    2    1    2    0    0 -0.16314627094E+02 -0.29141984524E+02 -0.23189269804E+02  0.50528873678E+02  0.30000042032E+02 0.  0.
         12    1    1    2    0    0  0.16314627094E+02  0.29141984524E+02  0.23189269804E+02  0.40659126322E+02  0.00000000000E+00 0. -1.
         11    1    3    3    0    0  0.45220505324E+01 -0.95981192882E+01 -0.13503370509E+02  0.17173055938E+02  0.51100000000E-03 0. -1.
        -11    1    3    3    0    0 -0.84549668405E+01 -0.10945866296E+02  0.23963077065E+01  0.14037120222E+02  0.51100000000E-03 0.  1.
         12    1    3    3    0    0 -0.12381710786E+02 -0.85979989399E+01 -0.12082207002E+02  0.19318697518E+02  0.00000000000E+00 0. -1.
</event>
<event>
 7    1  0.2891523E-011  0.5052886E+02  0.7816164E-02  0.1300439E+00
        -11   -1    0    0    0    0  0.00000000000E+00  0.00000000000E+00  0.45593999997E+02  0.45594000000E+02  0.51100000000E-03 0. -1.
         11   -1    0    0    0    0 -0.00000000000E+00 -0.00000000000E+00 -0.45593999997E+02  0.45594000000E+02  0.51100000000E-03 0.  1.
    9900012    2    1    2    0    0 -0.19529025474E+02 -0.32994572210E+02  0.13532963449E+02  0.50528859195E+02  0.29999998008E+02 0.  0.
         12    1    1    2    0    0  0.19529025474E+02  0.32994572210E+02 -0.13532963449E+02  0.40659140805E+02  0.00000000000E+00 0. -1.
         11    1    3    3    0    0  0.47611533241E+01 -0.40948549497E+01 -0.16556998733E+00  0.62820244918E+01  0.51100000000E-03 0. -1.
        -11    1    3    3    0    0 -0.12081427273E+02 -0.22145327469E+02  0.79011673086E+00  0.25238872764E+02  0.51100000000E-03 0.  1.
        -12    1    3    3    0    0 -0.12208751525E+02 -0.67543897920E+01  0.12908416705E+02  0.19007961939E+02  0.00000000000E+00 0.  1.
</event>
<event>
 7    1  0.2891523E-011  0.5052886E+02  0.7816164E-02  0.1300439E+00
        -11   -1    0    0    0    0  0.00000000000E+00  0.00000000000E+00  0.45593999997E+02  0.45594000000E+02  0.51100000000E-03 0.  1.
         11   -1    0    0    0    0 -0.00000000000E+00 -0.00000000000E+00 -0.45593999997E+02  0.45594000000E+02  0.51100000000E-03 0. -1.
    9900012    2    1    2    0    0 -0.22863165721E+02 -0.33234535079E+02 -0.50898757346E+01  0.50528861990E+02  0.30000006506E+02 0.  0.
         12    1    1    2    0    0  0.22863165721E+02  0.33234535079E+02  0.50898757346E+01  0.40659138010E+02  0.00000000000E+00 0. -1.
         11    1    3    3    0    0  0.30943681548E+01 -0.91850350784E+01 -0.67957325634E+01  0.11837312406E+02  0.51100000000E-03 0. -1.
        -11    1    3    3    0    0 -0.24621519497E+02 -0.14199403755E+02 -0.82353810709E+00  0.28434494978E+02  0.51100000000E-03 0.  1.
        -12    1    3    3    0    0 -0.13360143784E+01 -0.98500962453E+01  0.25293949359E+01  0.10257054607E+02  0.00000000000E+00 0.  1.
</event>
<event>
 7    1  0.2891523E-011  0.5052885E+02  0.7816164E-02  0.1300439E+00
        -11   -1    0    0    0    0  0.00000000000E+00  0.00000000000E+00  0.45593999997E+02  0.45594000000E+02  0.51100000000E-03 0.  1.
         11   -1    0    0    0    0 -0.00000000000E+00 -0.00000000000E+00 -0.45593999997E+02  0.45594000000E+02  0.51100000000E-03 0. -1.
    9900012    2    1    2    0    0 -0.37474883233E+02  0.23422771392E+01  0.15598508515E+02  0.50528848466E+02  0.29999965398E+02 0.  0.
         12    1    1    2    0    0  0.37474883233E+02 -0.23422771392E+01 -0.15598508515E+02  0.40659151534E+02  0.00000000000E+00 0. -1.
         11    1    3    3    0    0 -0.99993426409E+01  0.99021966154E+01 -0.11978793758E+01  0.14123571302E+02  0.51100000000E-03 0. -1.
        -11    1    3    3    0    0 -0.96040408817E+01 -0.10442830378E+02  0.78020282023E+01  0.16191415994E+02  0.51100000000E-03 0.  1.
        -12    1    3    3    0    0 -0.17871499711E+02  0.28829109023E+01  0.89943596888E+01  0.20213861170E+02  0.00000000000E+00 0.  1.
</event>
<event>
 7    1  0.2891523E-011  0.5052887E+02  0.7816164E-02  0.1300439E+00
        -11   -1    0    0    0    0  0.00000000000E+00  0.00000000000E+00  0.45593999997E+02  0.45594000000E+02  0.51100000000E-03 0.  1.
         11   -1    0    0    0    0 -0.00000000000E+00 -0.00000000000E+00 -0.45593999997E+02  0.45594000000E+02  0.51100000000E-03 0. -1.
    9900012    2    1    2    0    0 -0.16518976323E+02 -0.29389379868E+02  0.22727800962E+02  0.50528866164E+02  0.30000019191E+02 0.  0.
         12    1    1    2    0    0  0.16518976323E+02  0.29389379868E+02 -0.22727800962E+02  0.40659133836E+02  0.00000000000E+00 0. -1.
         11    1    3    3    0    0 -0.26961330972E+01 -0.18502598495E+02  0.16636703407E+02  0.25027888150E+02  0.51100000000E-03 0. -1.
        -11    1    3    3    0    0 -0.17631015047E+02 -0.61402289038E+01  0.48688390930E+01  0.19294058592E+02  0.51100000000E-03 0.  1.
         12    1    3    3    0    0  0.38081718211E+01 -0.47465524689E+01  0.12222584617E+01  0.62069194216E+01  0.00000000000E+00 0. -1.
</event>
<event>
 7    1  0.2891523E-011  0.5052880E+02  0.7816164E-02  0.1300439E+00
        -11   -1    0    0    0    0  0.00000000000E+00  0.00000000000E+00  0.45593999997E+02  0.45594000000E+02  0.51100000000E-03 0.  1.
         11   -1    0    0    0    0 -0.00000000000E+00 -0.00000000000E+00 -0.45593999997E+02  0.45594000000E+02  0.51100000000E-03 0. -1.
    9900012    2    1    2    0    0  0.19152515746E+02 -0.19681150109E+02  0.29983394930E+02  0.50528800542E+02  0.29999819727E+02 0.  0.
         12    1    1    2    0    0 -0.19152515746E+02  0.19681150109E+02 -0.29983394930E+02  0.40659199458E+02  0.00000000000E+00 0. -1.
         11    1    3    3    0    0  0.69670858446E+01 -0.14392441162E+01  0.29071071248E+01  0.76852443610E+01  0.51100000000E-03 0. -1.
        -11    1    3    3    0    0  0.11615299687E+02 -0.20401194475E+02  0.30663284447E+02  0.38618142578E+02  0.51100000000E-03 0.  1.
        -12    1    3    3    0    0  0.57013021404E+00  0.21592884818E+01 -0.35869966419E+01  0.42254136031E+01  0.00000000000E+00 0.  1.
</event>
<event>
 7    1  0.2891523E-011  0.5052886E+02  0.7816164E-02  0.1300439E+00
        -11   -1    0    0    0    0  0.00000000000E+00  0.00000000000E+00  0.45593999997E+02  0.45594000000E+02  0.51100000000E-03 0. -1.
         11   -1    0    0    0    0 -0.00000000000E+00 -0.00000000000E+00 -0.45593999997E+02  0.45594000000E+02  0.51100000000E-03 0.  1.
    9900012    2    1    2    0    0 -0.23701024873E+02 -0.22114687186E+02  0.24543180870E+02  0.50528859618E+02  0.29999999296E+02 0.  0.
         12    1    1    2    0    0  0.23701024873E+02  0.22114687186E+02 -0.24543180870E+02  0.40659140382E+02  0.00000000000E+00 0. -1.
         11    1    3    3    0    0  0.14139182271E+01 -0.44830556814E+01  0.97676116317E+00  0.48011473239E+01  0.51100000000E-03 0. -1.
        -11    1    3    3    0    0 -0.20586841108E+02 -0.36076013921E+01  0.22859241886E+02  0.30973823698E+02  0.51100000000E-03 0.  1.
        -12    1    3    3    0    0 -0.45281019929E+01 -0.14024030112E+02  0.70717782011E+00  0.14753888597E+02  0.00000000000E+00 0.  1.
</event>
<event>
 7    1  0.2891523E-011  0.5052886E+02  0.7816164E-02  0.1300439E+00
        -11   -1    0    0    0    0  0.00000000000E+00  0.00000000000E+00  0.45593999997E+02  0.45594000000E+02  0.51100000000E-03 0.  1.
         11   -1    0    0    0    0 -0.00000000000E+00 -0.00000000000E+00 -0.45593999997E+02  0.45594000000E+02  0.51100000000E-03 0. -1.
    9900012    2    1    2    0    0  0.13124352365E+02 -0.37033795299E+02 -0.10460183842E+02  0.50528855084E+02  0.29999985514E+02 0.  0.
         12    1    1    2    0    0 -0.13124352365E+02  0.37033795299E+02  0.10460183842E+02  0.40659144916E+02  0.00000000000E+00 0. -1.
         11    1    3    3    0    0 -0.43945691560E+00 -0.17451081173E+02 -0.11644749516E+02  0.20984126097E+02  0.51100000000E-03 0.  1.
        -11    1    3    3    0    0 -0.12435850887E+01 -0.38482668769E+01  0.61638050888E+01  0.73721201335E+01  0.51100000000E-03 0. -1.
        -12    1    3    3    0    0  0.14807394369E+02 -0.15734447250E+02 -0.49792394143E+01  0.22172608854E+02  0.00000000000E+00 0.  1.
</event>
<event>
 7    1  0.2891523E-011  0.5052886E+02  0.7816164E-02  0.1300439E+00
        -11   -1    0    0    0    0  0.00000000000E+00  0.00000000000E+00  0.45593999997E+02  0.45594000000E+02  0.51100000000E-03 0. -1.
         11   -1    0    0    0    0 -0.00000000000E+00 -0.00000000000E+00 -0.45593999997E+02  0.45594000000E+02  0.51100000000E-03 0.  1.
    9900012    2    1    2    0    0 -0.12995247386E+02  0.12104933880E+02 -0.36575402403E+02  0.50528856627E+02  0.29999990204E+02 0.  0.
         12    1    1    2    0    0  0.12995247386E+02 -0.12104933880E+02  0.36575402403E+02  0.40659143373E+02  0.00000000000E+00 0. -1.
         11    1    3    3    0    0  0.61421855868E+01 -0.53893083114E+01 -0.12114468716E+02  0.14612715025E+02  0.51100000000E-03 0. -1.
        -11    1    3    3    0    0 -0.10137666347E+02  0.64355300779E+01 -0.12081913796E+02  0.17034111881E+02  0.51100000000E-03 0.  1.
         12    1    3    3    0    0 -0.89997666259E+01  0.11058712113E+02 -0.12379019892E+02  0.18882029722E+02  0.00000000000E+00 0. -1.
</event>
<event>
 7    1  0.2891523E-011  0.5052886E+02  0.7816164E-02  0.1300439E+00
        -11   -1    0    0    0    0  0.00000000000E+00  0.00000000000E+00  0.45593999997E+02  0.45594000000E+02  0.51100000000E-03 0. -1.
         11   -1    0    0    0    0 -0.00000000000E+00 -0.00000000000E+00 -0.45593999997E+02  0.45594000000E+02  0.51100000000E-03 0.  1.
    9900012    2    1    2    0    0 -0.21459673580E+02 -0.33983537380E+02  0.61454986717E+01  0.50528861335E+02  0.30000004514E+02 0.  0.
         12    1    1    2    0    0  0.21459673580E+02  0.33983537380E+02 -0.61454986717E+01  0.40659138665E+02  0.00000000000E+00 0. -1.
         11    1    3    3    0    0  0.12212532646E+01 -0.20263335566E+01  0.47079473832E+01  0.52689900401E+01  0.51100000000E-03 0. -1.
        -11    1    3    3    0    0 -0.74366251836E+01 -0.23791010091E+02 -0.71775448321E+01  0.25939018975E+02  0.51100000000E-03 0.  1.
        -12    1    3    3    0    0 -0.15244301661E+02 -0.81661937325E+01  0.86150961207E+01  0.19320852320E+02  0.00000000000E+00 0.  1.
</event>
<event>
 7    1  0.2891523E-011  0.5052886E+02  0.7816164E-02  0.1300439E+00
        -11   -1    0    0    0    0  0.00000000000E+00  0.00000000000E+00  0.45593999997E+02  0.45594000000E+02  0.51100000000E-03 0. -1.
         11   -1    0    0    0    0 -0.00000000000E+00 -0.00000000000E+00 -0.45593999997E+02  0.45594000000E+02  0.51100000000E-03 0.  1.
    9900012    2    1    2    0    0 -0.29056793402E+02  0.22999785518E+02 -0.16729569818E+02  0.50528857326E+02  0.29999992327E+02 0.  0.
         12    1    1    2    0    0  0.29056793402E+02 -0.22999785518E+02  0.16729569818E+02  0.40659142674E+02  0.00000000000E+00 0. -1.
         11    1    3    3    0    0  0.14797686062E+01  0.12637198183E+02 -0.63620427987E+00  0.12739436769E+02  0.51100000000E-03 0. -1.
        -11    1    3    3    0    0 -0.22089040588E+02  0.71894696841E+01 -0.16904288889E+02  0.28729238965E+02  0.51100000000E-03 0.  1.
         12    1    3    3    0    0 -0.84475214208E+01  0.31731176505E+01  0.81092335102E+00  0.90601815909E+01  0.00000000000E+00 0. -1.
</event>
<event>
 7    1  0.2891523E-011  0.5052889E+02  0.7816164E-02  0.1300439E+00
        -11   -1    0    0    0    0  0.00000000000E+00  0.00000000000E+00  0.45593999997E+02  0.45594000000E+02  0.51100000000E-03 0.  1.
         11   -1    0    0    0    0 -0.00000000000E+00 -0.00000000000E+00 -0.45593999997E+02  0.45594000000E+02  0.51100000000E-03 0. -1.
    9900012    2    1    2    0    0  0.14111432704E+02  0.84729361032E+01  0.37178484901E+02  0.50528893779E+02  0.30000103131E+02 0.  0.
         12    1    1    2    0    0 -0.14111432704E+02 -0.84729361032E+01 -0.37178484901E+02  0.40659106221E+02  0.00000000000E+00 0. -1.
         11    1    3    3    0    0  0.11645190285E+02  0.16833204002E+02  0.17980266546E+02  0.27244397572E+02  0.51100000000E-03 0. -1.
        -11    1    3    3    0    0 -0.32197068944E+01 -0.58279972433E+01  0.12348526766E+02  0.14029190208E+02  0.51100000000E-03 0.  1.
         12    1    3    3    0    0  0.56859493136E+01 -0.25322706550E+01  0.68496915890E+01  0.92553059988E+01  0.00000000000E+00 0. -1.
</event>
<event>
 7    1  0.2891523E-011  0.5052886E+02  0.7816164E-02  0.1300439E+00
        -11   -1    0    0    0    0  0.00000000000E+00  0.00000000000E+00  0.45593999997E+02  0.45594000000E+02  0.51100000000E-03 0.  1.
         11   -1    0    0    0    0 -0.00000000000E+00 -0.00000000000E+00 -0.45593999997E+02  0.45594000000E+02  0.51100000000E-03 0. -1.
    9900012    2    1    2    0    0  0.88080013370E+01 -0.82404522123E+01  0.38828856585E+02  0.50528855347E+02  0.29999986313E+02 0.  0.
         12    1    1    2    0    0 -0.88080013370E+01  0.82404522123E+01 -0.38828856585E+02  0.40659144653E+02  0.00000000000E+00 0. -1.
         11    1    3    3    0    0 -0.47638636717E+01 -0.95240759143E+01  0.71024906230E+01  0.12800304388E+02  0.51100000000E-03 0. -1.
        -11    1    3    3    0    0  0.10576121639E+02  0.68576947815E+01  0.27105292645E+02  0.29892795391E+02  0.51100000000E-03 0.  1.
        -12    1    3    3    0    0  0.29957433695E+01 -0.55740710795E+01  0.46210733170E+01  0.78357555689E+01  0.00000000000E+00 0.  1.
</event>
<event>
 7    1  0.2891523E-011  0.5052883E+02  0.7816164E-02  0.1300439E+00
        -11   -1    0    0    0    0  0.00000000000E+00  0.00000000000E+00  0.45593999997E+02  0.45594000000E+02  0.51100000000E-03 0. -1.
         11   -1    0    0    0    0 -0.00000000000E+00 -0.00000000000E+00 -0.45593999997E+02  0.45594000000E+02  0.51100000000E-03 0.  1.
    9900012    2    1    2    0    0  0.39348266467E+02  0.24830363555E+01 -0.99356343473E+01  0.50528826701E+02  0.29999899241E+02 0.  0.
         12    1    1    2    0    0 -0.39348266467E+02 -0.24830363555E+01  0.99356343473E+01  0.40659173299E+02  0.00000000000E+00 0. -1.
         11    1    3    3    0    0  0.12267346898E+01  0.52032334796E+01  0.32878679927E+01  0.62760332090E+01  0.51100000000E-03 0. -1.
        -11    1    3    3    0    0  0.26821250626E+02 -0.10024101405E+02 -0.10674400820E+02  0.30558221926E+02  0.51100000000E-03 0.  1.
        -12    1    3    3    0    0  0.11300281151E+02  0.73039042810E+01 -0.25491015195E+01  0.13694571566E+02  0.00000000000E+00 0.  1.
</event>
<event>
 7    1  0.2891523E-011  0.5052886E+02  0.7816164E-02  0.1300439E+00
        -11   -1    0    0    0    0  0.00000000000E+00  0.00000000000E+00  0.45593999997E+02  0.45594000000E+02  0.51100000000E-03 0. -1.
         11   -1    0    0    0    0 -0.00000000000E+00 -0.00000000000E+00 -0.45593999997E+02  0.45594000000E+02  0.51100000000E-03 0.  1.
    9900012    2    1    2    0    0 -0.28497210159E+02  0.26103609018E+02  0.12636298425E+02  0.50528862915E+02  0.30000009316E+02 0.  0.
         12    1    1    2    0    0  0.28497210159E+02 -0.26103609018E+02 -0.12636298425E+02  0.40659137085E+02  0.00000000000E+00 0. -1.
         11    1    3    3    0    0 -0.11882435915E+02  0.89571106062E+01 -0.32604544384E+01  0.15233275324E+02  0.51100000000E-03 0.  1.
        -11    1    3    3    0    0 -0.17731995196E+02  0.67340457311E+01  0.16012399652E+02  0.24822730881E+02  0.51100000000E-03 0. -1.
        -12    1    3    3    0    0  0.11172209517E+01  0.10412452681E+02 -0.11564678808E+00  0.10472856710E+02  0.00000000000E+00 0.  1.
</event>
<event>
 7    1  0.2891523E-011  0.5052885E+02  0.7816164E-02  0.1300439E+00
        -11   -1    0    0    0    0  0.00000000000E+00  0.00000000000E+00  0.45593999997E+02  0.45594000000E+02  0.51100000000E-03 0.  1.
         11   -1    0    0    0    0 -0.00000000000E+00 -0.00000000000E+00 -0.45593999997E+02  0.45594000000E+02  0.51100000000E-03 0. -1.
    9900012    2    1    2    0    0 -0.30289064907E+02  0.17409721705E+02  0.20800009749E+02  0.50528852587E+02  0.29999977924E+02 0.  0.
         12    1    1    2    0    0  0.30289064907E+02 -0.17409721705E+02 -0.20800009749E+02  0.40659147413E+02  0.00000000000E+00 0. -1.
         11    1    3    3    0    0 -0.27080372266E+02  0.12807783766E+02  0.39500327681E+01  0.30215701980E+02  0.51100000000E-03 0. -1.
        -11    1    3    3    0    0 -0.30946244356E+01  0.73039682035E+01  0.15199247661E+02  0.17144730434E+02  0.51100000000E-03 0.  1.
        -12    1    3    3    0    0 -0.11406820555E+00 -0.27020302642E+01  0.16507293197E+01  0.31684201728E+01  0.00000000000E+00 0.  1.
</event>
<event>
 7    1  0.2891523E-011  0.5052887E+02  0.7816164E-02  0.1300439E+00
        -11   -1    0    0    0    0  0.00000000000E+00  0.00000000000E+00  0.45593999997E+02  0.45594000000E+02  0.51100000000E-03 0.  1.
         11   -1    0    0    0    0 -0.00000000000E+00 -0.00000000000E+00 -0.45593999997E+02  0.45594000000E+02  0.51100000000E-03 0. -1.
    9900012    2    1    2    0    0  0.19647519105E+00 -0.12803642812E+02  0.38590064153E+02  0.50528869130E+02  0.30000028208E+02 0.  0.
         12    1    1    2    0    0 -0.19647519105E+00  0.12803642812E+02 -0.38590064153E+02  0.40659130870E+02  0.00000000000E+00 0. -1.
         11    1    3    3    0    0  0.33893988803E+00  0.27714725314E+01 -0.14506052272E+01  0.31464576950E+01  0.51100000000E-03 0. -1.
        -11    1    3    3    0    0 -0.64591088152E+01 -0.70092378151E+01  0.33637097464E+02  0.34961462034E+02  0.51100000000E-03 0.  1.
        -12    1    3    3    0    0  0.63166441182E+01 -0.85658775287E+01  0.64035719159E+01  0.12420949401E+02  0.00000000000E+00 0.  1.
</event>
<event>
 7    1  0.2891523E-011  0.5052886E+02  0.7816164E-02  0.1300439E+00
        -11   -1    0    0    0    0  0.00000000000E+00  0.00000000000E+00  0.45593999997E+02  0.45594000000E+02  0.51100000000E-03 0.  1.
         11   -1    0    0    0    0 -0.00000000000E+00 -0.00000000000E+00 -0.45593999997E+02  0.45594000000E+02  0.51100000000E-03 0. -1.
    9900012    2    1    2    0    0 -0.13809250894E+02  0.28130489613E+02  0.25906479612E+02  0.50528861519E+02  0.30000005074E+02 0.  0.
         12    1    1    2    0    0  0.13809250894E+02 -0.28130489613E+02 -0.25906479612E+02  0.40659138481E+02  0.00000000000E+00 0. -1.
         11    1    3    3    0    0 -0.19578795126E+02  0.20968622137E+02  0.16088815567E+02  0.32891675535E+02  0.51100000000E-03 0.  1.
        -11    1    3    3    0    0  0.38462033594E+01 -0.15111720318E+01  0.73251672518E+01  0.84104100209E+01  0.51100000000E-03 0. -1.
        -12    1    3    3    0    0  0.19233408724E+01  0.86730395078E+01  0.24924967929E+01  0.92267759634E+01  0.00000000000E+00 0.  1.
</event>
<event>
 7    1  0.2891523E-011  0.5052886E+02  0.7816164E-02  0.1300439E+00
        -11   -1    0    0    0    0  0.00000000000E+00  0.00000000000E+00  0.45593999997E+02  0.45594000000E+02  0.51100000000E-03 0.  1.
         11   -1    0    0    0    0 -0.00000000000E+00 -0.00000000000E+00 -0.45593999997E+02  0.45594000000E+02  0.51100000000E-03 0. -1.
    9900012    2    1    2    0    0 -0.34001670443E+00 -0.25654567914E+02  0.31541926293E+02  0.50528861046E+02  0.30000003635E+02 0.  0.
         12    1    1    2    0    0  0.34001670443E+00  0.25654567914E+02 -0.31541926293E+02  0.40659138954E+02  0.00000000000E+00 0. -1.
         11    1    3    3    0    0 -0.51546538449E+01 -0.16856552055E+02  0.45064297593E+01  0.18194002113E+02  0.51100000000E-03 0. -1.
        -11    1    3    3    0    0  0.99042951596E+01 -0.40426157269E+01  0.17797948511E+02  0.20765470763E+02  0.51100000000E-03 0.  1.
        -12    1    3    3    0    0 -0.50896580191E+01 -0.47554001319E+01  0.92375480227E+01  0.11569388170E+02  0.00000000000E+00 0.  1.
</event>
<event>
 7    1  0.2891523E-011  0.5052886E+02  0.7816164E-02  0.1300439E+00
        -11   -1    0    0    0    0  0.00000000000E+00  0.00000000000E+00  0.45593999997E+02  0.45594000000E+02  0.51100000000E-03 0.  1.
         11   -1    0    0    0    0 -0.00000000000E+00 -0.00000000000E+00 -0.45593999997E+02  0.45594000000E+02  0.51100000000E-03 0. -1.
    9900012    2    1    2    0    0  0.27205698744E+02 -0.28670976088E+02  0.95389179322E+01  0.50528857495E+02  0.29999992841E+02 0.  0.
         12    1    1    2    0    0 -0.27205698744E+02  0.28670976088E+02 -0.95389179322E+01  0.40659142505E+02  0.00000000000E+00 0. -1.
         11    1    3    3    0    0 -0.20146958108E+01  0.25934831006E+00 -0.22181959556E+01  0.30077656682E+01  0.51100000000E-03 0. -1.
        -11    1    3    3    0    0  0.22789401367E+02 -0.19704463452E+02 -0.14659433909E+01  0.30162421735E+02  0.51100000000E-03 0.  1.
        -12    1    3    3    0    0  0.64309931872E+01 -0.92258609457E+01  0.13223057279E+02  0.17358670092E+02  0.00000000000E+00 0.  1.
</event>
<event>
 7    1  0.2891523E-011  0.5052886E+02  0.7816164E-02  0.1300439E+00
        -11   -1    0    0    0    0  0.00000000000E+00  0.00000000000E+00  0.45593999997E+02  0.45594000000E+02  0.51100000000E-03 0.  1.
         11   -1    0    0    0    0 -0.00000000000E+00 -0.00000000000E+00 -0.45593999997E+02  0.45594000000E+02  0.51100000000E-03 0. -1.
    9900012    2    1    2    0    0 -0.28578238908E+01 -0.22848919811E+02  0.33510081848E+02  0.50528857370E+02  0.29999992463E+02 0.  0.
         12    1    1    2    0    0  0.28578238908E+01  0.22848919811E+02 -0.33510081848E+02  0.40659142630E+02  0.00000000000E+00 0. -1.
         11    1    3    3    0    0  0.62101859023E+01 -0.59849778857E+01  0.85817537697E+01  0.12166875822E+02  0.51100000000E-03 0. -1.
        -11    1    3    3    0    0 -0.71343491787E+01 -0.19014215866E+02  0.90696663378E+01  0.22241811773E+02  0.51100000000E-03 0.  1.
        -12    1    3    3    0    0 -0.19336606144E+01  0.21502739411E+01  0.15858661741E+02  0.16120169776E+02  0.00000000000E+00 0.  1.
</event>
<event>
 7    1  0.2891523E-011  0.5052874E+02  0.7816164E-02  0.1300439E+00
        -11   -1    0    0    0    0  0.00000000000E+00  0.00000000000E+00  0.45593999997E+02  0.45594000000E+02  0.51100000000E-03 0.  1.
         11   -1    0    0    0    0 -0.00000000000E+00 -0.00000000000E+00 -0.45593999997E+02  0.45594000000E+02  0.51100000000E-03 0. -1.
    9900012    2    1    2    0    0  0.11629961897E+02 -0.35021107342E+00  0.38958910749E+02  0.50528740436E+02  0.29999637028E+02 0.  0.
         12    1    1    2    0    0 -0.11629961897E+02  0.35021107342E+00 -0.38958910749E+02  0.40659259564E+02  0.00000000000E+00 0. -1.
         11    1    3    3    0    0 -0.48501636491E+01  0.57816755970E+01  0.43816976800E+01  0.87264617659E+01  0.51100000000E-03 0. -1.
        -11    1    3    3    0    0  0.15255153716E+02  0.16399159288E+01  0.25777951019E+02  0.29998529933E+02  0.51100000000E-03 0.  1.
         12    1    3    3    0    0  0.12249718300E+01 -0.77718025992E+01  0.87992620504E+01  0.11803748737E+02  0.00000000000E+00 0. -1.
</event>
<event>
 7    1  0.2891523E-011  0.5052889E+02  0.7816164E-02  0.1300439E+00
        -11   -1    0    0    0    0  0.00000000000E+00  0.00000000000E+00  0.45593999997E+02  0.45594000000E+02  0.51100000000E-03 0.  1.
         11   -1    0    0    0    0 -0.00000000000E+00 -0.00000000000E+00 -0.45593999997E+02  0.45594000000E+02  0.51100000000E-03 0. -1.
    9900012    2    1    2    0    0  0.22737395657E+02 -0.24189961467E+02  0.23473817880E+02  0.50528886349E+02  0.30000080545E+02 0.  0.
         12    1    1    2    0    0 -0.22737395657E+02  0.24189961467E+02 -0.23473817880E+02  0.40659113651E+02  0.00000000000E+00 0. -1.
         11    1    3    3    0    0  0.13867042415E+02 -0.29233799842E+00  0.14318337271E+02  0.19934771363E+02  0.51100000000E-03 0. -1.
        -11    1    3    3    0    0  0.74480281920E+01 -0.17367977142E+02  0.12950204834E+02  0.22909115204E+02  0.51100000000E-03 0.  1.
         12    1    3    3    0    0  0.14223250499E+01 -0.65296463269E+01 -0.37947242241E+01  0.76849997813E+01  0.00000000000E+00 0. -1.
</event>
<event>
 7    1  0.2891523E-011  0.5052887E+02  0.7816164E-02  0.1300439E+00
        -11   -1    0    0    0    0  0.00000000000E+00  0.00000000000E+00  0.45593999997E+02  0.45594000000E+02  0.51100000000E-03 0.  1.
         11   -1    0    0    0    0 -0.00000000000E+00 -0.00000000000E+00 -0.45593999997E+02  0.45594000000E+02  0.51100000000E-03 0. -1.
    9900012    2    1    2    0    0  0.25756637109E+02  0.17759197092E+02  0.25968669250E+02  0.50528865489E+02  0.30000017142E+02 0.  0.
         12    1    1    2    0    0 -0.25756637109E+02 -0.17759197092E+02 -0.25968669250E+02  0.40659134511E+02  0.00000000000E+00 0. -1.
         11    1    3    3    0    0  0.32606110520E+01 -0.66134092833E+01  0.32930726295E+01  0.80754624874E+01  0.51100000000E-03 0. -1.
        -11    1    3    3    0    0  0.22866876720E+02  0.18604044507E+02  0.15716769992E+02  0.33406906205E+02  0.51100000000E-03 0.  1.
         12    1    3    3    0    0 -0.37085066360E+00  0.57685618678E+01  0.69588266290E+01  0.90464967966E+01  0.00000000000E+00 0. -1.
</event>
<event>
 7    1  0.2891523E-011  0.5052886E+02  0.7816164E-02  0.1300439E+00
        -11   -1    0    0    0    0  0.00000000000E+00  0.00000000000E+00  0.45593999997E+02  0.45594000000E+02  0.51100000000E-03 0. -1.
         11   -1    0    0    0    0 -0.00000000000E+00 -0.00000000000E+00 -0.45593999997E+02  0.45594000000E+02  0.51100000000E-03 0.  1.
    9900012    2    1    2    0    0 -0.17568089462E+01 -0.22021098157E+02 -0.34134300209E+02  0.50528860898E+02  0.30000003187E+02 0.  0.
         12    1    1    2    0    0  0.17568089462E+01  0.22021098157E+02  0.34134300209E+02  0.40659139102E+02  0.00000000000E+00 0. -1.
         11    1    3    3    0    0 -0.91225067015E+01 -0.45759534898E+01 -0.28680966124E+02  0.30442688727E+02  0.51100000000E-03 0. -1.
        -11    1    3    3    0    0  0.66828687030E+01 -0.17282470674E+02 -0.56231270349E+01  0.19363989377E+02  0.51100000000E-03 0.  1.
         12    1    3    3    0    0  0.68282905235E+00 -0.16267399349E+00  0.16979294931E+00  0.72218279440E+00  0.00000000000E+00 0. -1.
</event>
<event>
 7    1  0.2891523E-011  0.5052882E+02  0.7816164E-02  0.1300439E+00
        -11   -1    0    0    0    0  0.00000000000E+00  0.00000000000E+00  0.45593999997E+02  0.45594000000E+02  0.51100000000E-03 0.  1.
         11   -1    0    0    0    0 -0.00000000000E+00 -0.00000000000E+00 -0.45593999997E+02  0.45594000000E+02  0.51100000000E-03 0. -1.
    9900012    2    1    2    0    0  0.13330131338E+02 -0.53283353560E+01  0.38040574600E+02  0.50528820532E+02  0.29999880488E+02 0.  0.
         12    1    1    2    0    0 -0.13330131338E+02  0.53283353560E+01 -0.38040574600E+02  0.40659179468E+02  0.00000000000E+00 0. -1.
         11    1    3    3    0    0  0.45740543079E+01 -0.35089627458E+01  0.35230789107E+01  0.67562473041E+01  0.51100000000E-03 0. -1.
        -11    1    3    3    0    0 -0.81644017061E+01  0.61572919692E+00  0.48051155795E+01  0.94934563599E+01  0.51100000000E-03 0.  1.
        -12    1    3    3    0    0  0.16920478736E+02 -0.24351018071E+01  0.29712380109E+02  0.34279116868E+02  0.00000000000E+00 0.  1.
</event>
<event>
 7    1  0.2891523E-011  0.5052887E+02  0.7816164E-02  0.1300439E+00
        -11   -1    0    0    0    0  0.00000000000E+00  0.00000000000E+00  0.45593999997E+02  0.45594000000E+02  0.51100000000E-03 0. -1.
         11   -1    0    0    0    0 -0.00000000000E+00 -0.00000000000E+00 -0.45593999997E+02  0.45594000000E+02  0.51100000000E-03 0.  1.
    9900012    2    1    2    0    0  0.14814646559E+02 -0.30229008227E+02 -0.22801275179E+02  0.50528870141E+02  0.30000031282E+02 0.  0.
         12    1    1    2    0    0 -0.14814646559E+02  0.30229008227E+02  0.22801275179E+02  0.40659129859E+02  0.00000000000E+00 0. -1.
         11    1    3    3    0    0  0.24272371926E-01  0.57979427695E+01 -0.34500756348E+01  0.67468327127E+01  0.51100000000E-03 0. -1.
        -11    1    3    3    0    0  0.46370017672E+01 -0.68063229569E+01 -0.53925287974E+01  0.98441446898E+01  0.51100000000E-03 0.  1.
         12    1    3    3    0    0  0.10153372420E+02 -0.29220628040E+02 -0.13958670747E+02  0.33937892739E+02  0.00000000000E+00 0. -1.
</event>
<event>
 7    1  0.2891523E-011  0.5052886E+02  0.7816164E-02  0.1300439E+00
        -11   -1    0    0    0    0  0.00000000000E+00  0.00000000000E+00  0.45593999997E+02  0.45594000000E+02  0.51100000000E-03 0.  1.
         11   -1    0    0    0    0 -0.00000000000E+00 -0.00000000000E+00 -0.45593999997E+02  0.45594000000E+02  0.51100000000E-03 0. -1.
    9900012    2    1    2    0    0  0.33147438977E+02  0.70669016857E+01  0.22460448243E+02  0.50528861477E+02  0.30000004946E+02 0.  0.
         12    1    1    2    0    0 -0.33147438977E+02 -0.70669016857E+01 -0.22460448243E+02  0.40659138523E+02  0.00000000000E+00 0. -1.
         11    1    3    3    0    0 -0.23866140869E+01  0.19077759191E+01  0.33065833580E+01  0.45021138948E+01  0.51100000000E-03 0. -1.
        -11    1    3    3    0    0  0.32536323650E+02 -0.60665009425E+00  0.21627490277E+02  0.39073376062E+02  0.51100000000E-03 0.  1.
        -12    1    3    3    0    0  0.29977294139E+01  0.57657758608E+01 -0.24736253920E+01  0.69533715201E+01  0.00000000000E+00 0.  1.
</event>
<event>
 7    1  0.2891523E-011  0.5052886E+02  0.7816164E-02  0.1300439E+00
        -11   -1    0    0    0    0  0.00000000000E+00  0.00000000000E+00  0.45593999997E+02  0.45594000000E+02  0.51100000000E-03 0. -1.
         11   -1    0    0    0    0 -0.00000000000E+00 -0.00000000000E+00 -0.45593999997E+02  0.45594000000E+02  0.51100000000E-03 0.  1.
    9900012    2    1    2    0    0  0.36462127891E+02 -0.13688922248E+02 -0.11674412677E+02  0.50528864815E+02  0.30000015092E+02 0.  0.
         12    1    1    2    0    0 -0.36462127891E+02  0.13688922248E+02  0.11674412677E+02  0.40659135185E+02  0.00000000000E+00 0. -1.
         11    1    3    3    0    0 -0.34208484091E+00 -0.91797746194E+01 -0.29269758551E+01  0.96411862350E+01  0.51100000000E-03 0. -1.
        -11    1    3    3    0    0  0.22256904901E+02  0.35945471895E+01 -0.88904767674E+01  0.24234916189E+02  0.51100000000E-03 0.  1.
        -12    1    3    3    0    0  0.14547307831E+02 -0.81036948182E+01  0.14303994583E+00  0.16652762391E+02  0.00000000000E+00 0.  1.
</event>
<event>
 7    1  0.2891523E-011  0.5052886E+02  0.7816164E-02  0.1300439E+00
        -11   -1    0    0    0    0  0.00000000000E+00  0.00000000000E+00  0.45593999997E+02  0.45594000000E+02  0.51100000000E-03 0.  1.
         11   -1    0    0    0    0 -0.00000000000E+00 -0.00000000000E+00 -0.45593999997E+02  0.45594000000E+02  0.51100000000E-03 0. -1.
    9900012    2    1    2    0    0 -0.30327290105E+02 -0.10098979572E+02  0.25128308275E+02  0.50528858466E+02  0.29999995793E+02 0.  0.
         12    1    1    2    0    0  0.30327290105E+02  0.10098979572E+02 -0.25128308275E+02  0.40659141534E+02  0.00000000000E+00 0. -1.
         11    1    3    3    0    0 -0.27884120260E+02 -0.78922683035E+01  0.16810869387E+02  0.33502498287E+02  0.51100000000E-03 0. -1.
        -11    1    3    3    0    0  0.55592347139E+01  0.10902887701E+01  0.11314045146E+01  0.57770145095E+01  0.51100000000E-03 0.  1.
        -12    1    3    3    0    0 -0.80024045584E+01 -0.32970000385E+01  0.71860343734E+01  0.11249345669E+02  0.00000000000E+00 0.  1.
</event>
<event>
 7    1  0.2891523E-011  0.5052886E+02  0.7816164E-02  0.1300439E+00
        -11   -1    0    0    0    0  0.00000000000E+00  0.00000000000E+00  0.45593999997E+02  0.45594000000E+02  0.51100000000E-03 0. -1.
         11   -1    0    0    0    0 -0.00000000000E+00 -0.00000000000E+00 -0.45593999997E+02  0.45594000000E+02  0.51100000000E-03 0.  1.
    9900012    2    1    2    0    0 -0.40229244115E+02 -0.57195908894E+01 -0.14352038413E+01  0.50528860658E+02  0.30000002455E+02 0.  0.
         12    1    1    2    0    0  0.40229244115E+02  0.57195908894E+01  0.14352038413E+01  0.40659139342E+02  0.00000000000E+00 0. -1.
         11    1    3    3    0    0 -0.16003702268E+02  0.17216180988E+01 -0.13766067402E+02  0.21179874106E+02  0.51100000000E-03 0.  1.
        -11    1    3    3    0    0 -0.53928877297E+01 -0.13491067611E+01  0.68279314546E+01  0.88047700327E+01  0.51100000000E-03 0. -1.
        -12    1    3    3    0    0 -0.18832654117E+02 -0.60921022270E+01  0.55029321057E+01  0.20544216519E+02  0.00000000000E+00 0.  1.
</event>
<event>
 7    1  0.2891523E-011  0.5052885E+02  0.7816164E-02  0.1300439E+00
        -11   -1    0    0    0    0  0.00000000000E+00  0.00000000000E+00  0.45593999997E+02  0.45594000000E+02  0.51100000000E-03 0.  1.
         11   -1    0    0    0    0 -0.00000000000E+00 -0.00000000000E+00 -0.45593999997E+02  0.45594000000E+02  0.51100000000E-03 0. -1.
    9900012    2    1    2    0    0 -0.17659997842E+02  0.35641773066E+02  0.84234767872E+01  0.50528850079E+02  0.29999970302E+02 0.  0.
         12    1    1    2    0    0  0.17659997842E+02 -0.35641773066E+02 -0.84234767872E+01  0.40659149921E+02  0.00000000000E+00 0. -1.
         11    1    3    3    0    0 -0.13557907837E+02  0.24075362506E+02 -0.54600349836E+01  0.28164728421E+02  0.51100000000E-03 0. -1.
        -11    1    3    3    0    0 -0.48559324333E+01  0.68637038905E+01  0.15245710117E+02  0.17410404594E+02  0.51100000000E-03 0.  1.
        -12    1    3    3    0    0  0.75384242815E+00  0.47027066694E+01 -0.13621983462E+01  0.49537170649E+01  0.00000000000E+00 0.  1.
</event>
<event>
 7    1  0.2891523E-011  0.5052885E+02  0.7816164E-02  0.1300439E+00
        -11   -1    0    0    0    0  0.00000000000E+00  0.00000000000E+00  0.45593999997E+02  0.45594000000E+02  0.51100000000E-03 0. -1.
         11   -1    0    0    0    0 -0.00000000000E+00 -0.00000000000E+00 -0.45593999997E+02  0.45594000000E+02  0.51100000000E-03 0.  1.
    9900012    2    1    2    0    0 -0.26996852712E+01 -0.70469385058E+01 -0.39952704413E+02  0.50528853024E+02  0.29999979253E+02 0.  0.
         12    1    1    2    0    0  0.26996852712E+01  0.70469385058E+01  0.39952704413E+02  0.40659146976E+02  0.00000000000E+00 0. -1.
         11    1    3    3    0    0  0.88947927645E+01 -0.40020547448E+01 -0.38591298558E+01  0.10489359561E+02  0.51100000000E-03 0. -1.
        -11    1    3    3    0    0 -0.95976013365E+01  0.28752668640E+01 -0.28477682122E+02  0.30188731180E+02  0.51100000000E-03 0.  1.
         12    1    3    3    0    0 -0.19968766992E+01 -0.59201506250E+01 -0.76158924352E+01  0.98507622832E+01  0.00000000000E+00 0. -1.
</event>
<event>
 7    1  0.2891523E-011  0.5052886E+02  0.7816164E-02  0.1300439E+00
        -11   -1    0    0    0    0  0.00000000000E+00  0.00000000000E+00  0.45593999997E+02  0.45594000000E+02  0.51100000000E-03 0. -1.
         11   -1    0    0    0    0 -0.00000000000E+00 -0.00000000000E+00 -0.45593999997E+02  0.45594000000E+02  0.51100000000E-03 0.  1.
    9900012    2    1    2    0    0  0.37381760624E+02 -0.10577133810E+02 -0.11995561883E+02  0.50528864595E+02  0.30000014422E+02 0.  0.
         12    1    1    2    0    0 -0.37381760624E+02  0.10577133810E+02  0.11995561883E+02  0.40659135405E+02  0.00000000000E+00 0. -1.
         11    1    3    3    0    0  0.13693446875E+02  0.24334282261E+01 -0.46057611631E+01  0.14650771188E+02  0.51100000000E-03 0. -1.
        -11    1    3    3    0    0  0.14166499659E+01 -0.21316202406E+01  0.68358600546E+01  0.72992934537E+01  0.51100000000E-03 0.  1.
        -12    1    3    3    0    0  0.22271663783E+02 -0.10878941796E+02 -0.14225660774E+02  0.28578799953E+02  0.00000000000E+00 0.  1.
</event>
<event>
 7    1  0.2891523E-011  0.5052891E+02  0.7816164E-02  0.1300439E+00
        -11   -1    0    0    0    0  0.00000000000E+00  0.00000000000E+00  0.45593999997E+02  0.45594000000E+02  0.51100000000E-03 0. -1.
         11   -1    0    0    0    0 -0.00000000000E+00 -0.00000000000E+00 -0.45593999997E+02  0.45594000000E+02  0.51100000000E-03 0.  1.
    9900012    2    1    2    0    0  0.33500345777E+01  0.28596405896E+02 -0.28708613119E+02  0.50528909638E+02  0.30000151335E+02 0.  0.
         12    1    1    2    0    0 -0.33500345777E+01 -0.28596405896E+02  0.28708613119E+02  0.40659090362E+02  0.00000000000E+00 0. -1.
         11    1    3    3    0    0  0.81153992450E+01  0.29731232722E+02 -0.12373234838E+02  0.33209981100E+02  0.51100000000E-03 0. -1.
        -11    1    3    3    0    0 -0.26313390005E+01 -0.20955154121E+01 -0.10720602649E+02  0.11235944606E+02  0.51100000000E-03 0.  1.
         12    1    3    3    0    0 -0.21340256668E+01  0.96068858654E+00 -0.56147756325E+01  0.60829839315E+01  0.00000000000E+00 0. -1.
</event>
<event>
 7    1  0.2891523E-011  0.5052883E+02  0.7816164E-02  0.1300439E+00
        -11   -1    0    0    0    0  0.00000000000E+00  0.00000000000E+00  0.45593999997E+02  0.45594000000E+02  0.51100000000E-03 0.  1.
         11   -1    0    0    0    0 -0.00000000000E+00 -0.00000000000E+00 -0.45593999997E+02  0.45594000000E+02  0.51100000000E-03 0. -1.
    9900012    2    1    2    0    0  0.23576942419E+02 -0.15010900743E+01  0.33091428150E+02  0.50528830035E+02  0.29999909373E+02 0.  0.
         12    1    1    2    0    0 -0.23576942419E+02  0.15010900743E+01 -0.33091428150E+02  0.40659169965E+02  0.00000000000E+00 0. -1.
         11    1    3    3    0    0  0.89888088740E+01 -0.27713110880E+01  0.38183359854E+01  0.10151775218E+02  0.51100000000E-03 0. -1.
        -11    1    3    3    0    0 -0.34103645218E+01 -0.71328666947E+01  0.93325826978E+01  0.12231331634E+02  0.51100000000E-03 0.  1.
        -12    1    3    3    0    0  0.17998498067E+02  0.84030877085E+01  0.19940509467E+02  0.28145723183E+02  0.00000000000E+00 0.  1.
</event>
<event>
 7    1  0.2891523E-011  0.5052886E+02  0.7816164E-02  0.1300439E+00
        -11   -1    0    0    0    0  0.00000000000E+00  0.00000000000E+00  0.45593999997E+02  0.45594000000E+02  0.51100000000E-03 0.  1.
         11   -1    0    0    0    0 -0.00000000000E+00 -0.00000000000E+00 -0.45593999997E+02  0.45594000000E+02  0.51100000000E-03 0. -1.
    9900012    2    1    2    0    0  0.23779543120E+02  0.75243620881E+01  0.32110480870E+02  0.50528859853E+02  0.30000000009E+02 0.  0.
         12    1    1    2    0    0 -0.23779543120E+02 -0.75243620881E+01 -0.32110480870E+02  0.40659140147E+02  0.00000000000E+00 0. -1.
         11    1    3    3    0    0  0.95428273393E+01 -0.84765637024E+01  0.14547430563E+02  0.19353176020E+02  0.51100000000E-03 0. -1.
        -11    1    3    3    0    0  0.16382613530E+02  0.96197452864E+01  0.13589588813E+02  0.23358220176E+02  0.51100000000E-03 0.  1.
         12    1    3    3    0    0 -0.21458977492E+01  0.63811805041E+01  0.39734614935E+01  0.78174636562E+01  0.00000000000E+00 0. -1.
</event>
<event>
 7    1  0.2891523E-011  0.5052886E+02  0.7816164E-02  0.1300439E+00
        -11   -1    0    0    0    0  0.00000000000E+00  0.00000000000E+00  0.45593999997E+02  0.45594000000E+02  0.51100000000E-03 0.  1.
         11   -1    0    0    0    0 -0.00000000000E+00 -0.00000000000E+00 -0.45593999997E+02  0.45594000000E+02  0.51100000000E-03 0. -1.
    9900012    2    1    2    0    0 -0.36133659806E+02 -0.10824715215E+02 -0.15177283822E+02  0.50528858658E+02  0.29999996378E+02 0.  0.
         12    1    1    2    0    0  0.36133659806E+02  0.10824715215E+02  0.15177283822E+02  0.40659141342E+02  0.00000000000E+00 0. -1.
         11    1    3    3    0    0 -0.35213302041E+01 -0.11875599672E+01 -0.92982780385E+01  0.10013393023E+02  0.51100000000E-03 0. -1.
        -11    1    3    3    0    0 -0.14755069756E+02 -0.10954854566E+02  0.56415762777E+01  0.19223639229E+02  0.51100000000E-03 0.  1.
        -12    1    3    3    0    0 -0.17857259846E+02  0.13176993187E+01 -0.11520582061E+02  0.21291826406E+02  0.00000000000E+00 0.  1.
</event>
<event>
 7    1  0.2891523E-011  0.5052886E+02  0.7816164E-02  0.1300439E+00
        -11   -1    0    0    0    0  0.00000000000E+00  0.00000000000E+00  0.45593999997E+02  0.45594000000E+02  0.51100000000E-03 0.  1.
         11   -1    0    0    0    0 -0.00000000000E+00 -0.00000000000E+00 -0.45593999997E+02  0.45594000000E+02  0.51100000000E-03 0. -1.
    9900012    2    1    2    0    0 -0.10512122442E+02 -0.97255679896E+01  0.38053570312E+02  0.50528860751E+02  0.30000002739E+02 0.  0.
         12    1    1    2    0    0  0.10512122442E+02  0.97255679896E+01 -0.38053570312E+02  0.40659139249E+02  0.00000000000E+00 0. -1.
         11    1    3    3    0    0 -0.12786282034E+02  0.65059620687E+01  0.22304780210E+02  0.26520176681E+02  0.51100000000E-03 0. -1.
        -11    1    3    3    0    0  0.39715124867E-01 -0.14945425455E+02  0.10835641261E+02  0.18460185295E+02  0.51100000000E-03 0.  1.
         12    1    3    3    0    0  0.22344444672E+01 -0.12861046034E+01  0.49131488409E+01  0.55484987754E+01  0.00000000000E+00 0. -1.
</event>
<event>
 7    1  0.2891523E-011  0.5052884E+02  0.7816164E-02  0.1300439E+00
        -11   -1    0    0    0    0  0.00000000000E+00  0.00000000000E+00  0.45593999997E+02  0.45594000000E+02  0.51100000000E-03 0. -1.
         11   -1    0    0    0    0 -0.00000000000E+00 -0.00000000000E+00 -0.45593999997E+02  0.45594000000E+02  0.51100000000E-03 0.  1.
    9900012    2    1    2    0    0 -0.78575224724E+01  0.39727666983E+02  0.36248136510E+01  0.50528837965E+02  0.29999933480E+02 0.  0.
         12    1    1    2    0    0  0.78575224724E+01 -0.39727666983E+02 -0.36248136510E+01  0.40659162035E+02  0.00000000000E+00 0. -1.
         11    1    3    3    0    0  0.34143054391E+00  0.62019372236E+01  0.61247615858E+01  0.87231476478E+01  0.51100000000E-03 0.  1.
        -11    1    3    3    0    0 -0.48619541185E+01  0.12936499192E+01 -0.74864285430E+01  0.90199080125E+01  0.51100000000E-03 0. -1.
        -12    1    3    3    0    0 -0.33369988977E+01  0.32232079841E+02  0.49864806081E+01  0.32785782305E+02  0.00000000000E+00 0.  1.
</event>
<event>
 7    1  0.2891523E-011  0.5052886E+02  0.7816164E-02  0.1300439E+00
        -11   -1    0    0    0    0  0.00000000000E+00  0.00000000000E+00  0.45593999997E+02  0.45594000000E+02  0.51100000000E-03 0.  1.
         11   -1    0    0    0    0 -0.00000000000E+00 -0.00000000000E+00 -0.45593999997E+02  0.45594000000E+02  0.51100000000E-03 0. -1.
    9900012    2    1    2    0    0  0.22603276919E+02  0.18067559394E+02  0.28562576621E+02  0.50528860644E+02  0.30000002414E+02 0.  0.
         12    1    1    2    0    0 -0.22603276919E+02 -0.18067559394E+02 -0.28562576621E+02  0.40659139356E+02  0.00000000000E+00 0. -1.
         11    1    3    3    0    0  0.86526885771E+01  0.16829865454E+02  0.13044375828E+01  0.18968788798E+02  0.51100000000E-03 0. -1.
        -11    1    3    3    0    0  0.72202344656E+01  0.42169770369E+01  0.16873069543E+02  0.18831228243E+02  0.51100000000E-03 0.  1.
         12    1    3    3    0    0  0.67303538762E+01 -0.29792830963E+01  0.10385069495E+02  0.12728843603E+02  0.00000000000E+00 0. -1.
</event>
<event>
 7    1  0.2891523E-011  0.5052886E+02  0.7816164E-02  0.1300439E+00
        -11   -1    0    0    0    0  0.00000000000E+00  0.00000000000E+00  0.45593999997E+02  0.45594000000E+02  0.51100000000E-03 0.  1.
         11   -1    0    0    0    0 -0.00000000000E+00 -0.00000000000E+00 -0.45593999997E+02  0.45594000000E+02  0.51100000000E-03 0. -1.
    9900012    2    1    2    0    0  0.16077373348E+02 -0.12987913489E+02  0.35014256531E+02  0.50528855998E+02  0.29999988292E+02 0.  0.
         12    1    1    2    0    0 -0.16077373348E+02  0.12987913489E+02 -0.35014256531E+02  0.40659144002E+02  0.00000000000E+00 0. -1.
         11    1    3    3    0    0  0.79508070199E+01  0.44284973693E+01 -0.14811624426E+01  0.92206704561E+01  0.51100000000E-03 0. -1.
        -11    1    3    3    0    0  0.41175633349E+01 -0.80490456811E+01  0.14875085962E+02  0.17407172281E+02  0.51100000000E-03 0.  1.
         12    1    3    3    0    0  0.40090029935E+01 -0.93673651769E+01  0.21620333012E+02  0.23901013261E+02  0.00000000000E+00 0. -1.
</event>
<event>
 7    1  0.2891523E-011  0.5052886E+02  0.7816164E-02  0.1300439E+00
        -11   -1    0    0    0    0  0.00000000000E+00  0.00000000000E+00  0.45593999997E+02  0.45594000000E+02  0.51100000000E-03 0. -1.
         11   -1    0    0    0    0 -0.00000000000E+00 -0.00000000000E+00 -0.45593999997E+02  0.45594000000E+02  0.51100000000E-03 0.  1.
    9900012    2    1    2    0    0 -0.38454497594E+02  0.21003897789E+01 -0.13038618999E+02  0.50528860709E+02  0.30000002612E+02 0.  0.
         12    1    1    2    0    0  0.38454497594E+02 -0.21003897789E+01  0.13038618999E+02  0.40659139291E+02  0.00000000000E+00 0. -1.
         11    1    3    3    0    0 -0.51925181739E+01  0.79314038263E+01  0.49343117920E+01  0.10687228114E+02  0.51100000000E-03 0. -1.
        -11    1    3    3    0    0 -0.16139515537E+02 -0.81265409313E+01 -0.70156855676E+01  0.19384129424E+02  0.51100000000E-03 0.  1.
         12    1    3    3    0    0 -0.17122463883E+02  0.22955268839E+01 -0.10957245224E+02  0.20457503171E+02  0.00000000000E+00 0. -1.
</event>
<event>
 7    1  0.2891523E-011  0.5052886E+02  0.7816164E-02  0.1300439E+00
        -11   -1    0    0    0    0  0.00000000000E+00  0.00000000000E+00  0.45593999997E+02  0.45594000000E+02  0.51100000000E-03 0.  1.
         11   -1    0    0    0    0 -0.00000000000E+00 -0.00000000000E+00 -0.45593999997E+02  0.45594000000E+02  0.51100000000E-03 0. -1.
    9900012    2    1    2    0    0 -0.23189454148E+02  0.66437878764E+00  0.33391218784E+02  0.50528859887E+02  0.30000000114E+02 0.  0.
         12    1    1    2    0    0  0.23189454148E+02 -0.66437878764E+00 -0.33391218784E+02  0.40659140113E+02  0.00000000000E+00 0. -1.
         11    1    3    3    0    0 -0.13313877637E+02  0.39621398918E+01 -0.10581247011E+01  0.13931170747E+02  0.51100000000E-03 0. -1.
        -11    1    3    3    0    0 -0.83682696946E+01 -0.14055520510E+01  0.17196977327E+02  0.19176536280E+02  0.51100000000E-03 0.  1.
         12    1    3    3    0    0 -0.15073068165E+01 -0.18922090532E+01  0.17252366158E+02  0.17421152860E+02  0.00000000000E+00 0. -1.
</event>
<event>
 7    1  0.2891523E-011  0.5052887E+02  0.7816164E-02  0.1300439E+00
        -11   -1    0    0    0    0  0.00000000000E+00  0.00000000000E+00  0.45593999997E+02  0.45594000000E+02  0.51100000000E-03 0. -1.
         11   -1    0    0    0    0 -0.00000000000E+00 -0.00000000000E+00 -0.45593999997E+02  0.45594000000E+02  0.51100000000E-03 0.  1.
    9900012    2    1    2    0    0 -0.13063940258E+01 -0.13561086517E+02 -0.38308680900E+02  0.50528871072E+02  0.30000034110E+02 0.  0.
         12    1    1    2    0    0  0.13063940258E+01  0.13561086517E+02  0.38308680900E+02  0.40659128928E+02  0.00000000000E+00 0. -1.
         11    1    3    3    0    0 -0.21302631109E+01  0.24576404441E+01  0.91910862408E+00  0.33797601095E+01  0.51100000000E-03 0. -1.
        -11    1    3    3    0    0  0.36260214772E+01 -0.11795137163E+02 -0.40144508413E+02  0.41998271970E+02  0.51100000000E-03 0.  1.
        -12    1    3    3    0    0 -0.28021523921E+01 -0.42235897979E+01  0.91671888851E+00  0.51508389928E+01  0.00000000000E+00 0.  1.
</event>
<event>
 7    1  0.2891523E-011  0.5052886E+02  0.7816164E-02  0.1300439E+00
        -11   -1    0    0    0    0  0.00000000000E+00  0.00000000000E+00  0.45593999997E+02  0.45594000000E+02  0.51100000000E-03 0.  1.
         11   -1    0    0    0    0 -0.00000000000E+00 -0.00000000000E+00 -0.45593999997E+02  0.45594000000E+02  0.51100000000E-03 0. -1.
    9900012    2    1    2    0    0  0.11287909848E+02 -0.27982155002E+02  0.27253396586E+02  0.50528861633E+02  0.30000005419E+02 0.  0.
         12    1    1    2    0    0 -0.11287909848E+02  0.27982155002E+02 -0.27253396586E+02  0.40659138367E+02  0.00000000000E+00 0. -1.
         11    1    3    3    0    0  0.80039487708E+01 -0.75708124806E+01  0.69236009728E+00  0.11039010839E+02  0.51100000000E-03 0. -1.
        -11    1    3    3    0    0  0.76923125416E+01 -0.21660079673E+02  0.26259248271E+02  0.34898120919E+02  0.51100000000E-03 0.  1.
        -12    1    3    3    0    0 -0.44083514646E+01  0.12487371515E+01  0.30178821754E+00  0.45917298742E+01  0.00000000000E+00 0.  1.
</event>
<event>
 7    1  0.2891523E-011  0.5052884E+02  0.7816164E-02  0.1300439E+00
        -11   -1    0    0    0    0  0.00000000000E+00  0.00000000000E+00  0.45593999997E+02  0.45594000000E+02  0.51100000000E-03 0.  1.
         11   -1    0    0    0    0 -0.00000000000E+00 -0.00000000000E+00 -0.45593999997E+02  0.45594000000E+02  0.51100000000E-03 0. -1.
    9900012    2    1    2    0    0 -0.12243727118E+02  0.25477945002E+02 -0.29225551433E+02  0.50528838771E+02  0.29999935929E+02 0.  0.
         12    1    1    2    0    0  0.12243727118E+02 -0.25477945002E+02  0.29225551433E+02  0.40659161229E+02  0.00000000000E+00 0. -1.
         11    1    3    3    0    0 -0.14748343208E+01  0.17643584724E+02 -0.22428347043E+02  0.28574498588E+02  0.51100000000E-03 0. -1.
        -11    1    3    3    0    0 -0.10351053594E+02  0.94213426478E+01  0.95610390808E+00  0.14029260235E+02  0.51100000000E-03 0.  1.
         12    1    3    3    0    0 -0.41783920411E+00 -0.15869823692E+01 -0.77533082975E+01  0.79250799489E+01  0.00000000000E+00 0. -1.
</event>
<event>
 7    1  0.2891523E-011  0.5052889E+02  0.7816164E-02  0.1300439E+00
        -11   -1    0    0    0    0  0.00000000000E+00  0.00000000000E+00  0.45593999997E+02  0.45594000000E+02  0.51100000000E-03 0. -1.
         11   -1    0    0    0    0 -0.00000000000E+00 -0.00000000000E+00 -0.45593999997E+02  0.45594000000E+02  0.51100000000E-03 0.  1.
    9900012    2    1    2    0    0 -0.35536468094E+01  0.79181357659E+01 -0.39722003605E+02  0.50528894623E+02  0.30000105697E+02 0.  0.
         12    1    1    2    0    0  0.35536468094E+01 -0.79181357659E+01  0.39722003605E+02  0.40659105377E+02  0.00000000000E+00 0. -1.
         11    1    3    3    0    0  0.22457950616E+01 -0.23698394080E+01 -0.70821032355E+01  0.77984563074E+01  0.51100000000E-03 0. -1.
        -11    1    3    3    0    0  0.10938916911E+01  0.17452952737E+02 -0.18635489637E+02  0.25555501023E+02  0.51100000000E-03 0.  1.
        -12    1    3    3    0    0 -0.68933335621E+01 -0.71649775628E+01 -0.14004410732E+02  0.17174937293E+02  0.00000000000E+00 0.  1.
</event>
<event>
 7    1  0.2891523E-011  0.5052885E+02  0.7816164E-02  0.1300439E+00
        -11   -1    0    0    0    0  0.00000000000E+00  0.00000000000E+00  0.45593999997E+02  0.45594000000E+02  0.51100000000E-03 0.  1.
         11   -1    0    0    0    0 -0.00000000000E+00 -0.00000000000E+00 -0.45593999997E+02  0.45594000000E+02  0.51100000000E-03 0. -1.
    9900012    2    1    2    0    0 -0.40398205866E+01 -0.28153640361E+02  0.29055447989E+02  0.50528847601E+02  0.29999962769E+02 0.  0.
         12    1    1    2    0    0  0.40398205866E+01  0.28153640361E+02 -0.29055447989E+02  0.40659152399E+02  0.00000000000E+00 0. -1.
         11    1    3    3    0    0 -0.11019150102E+02 -0.15219300605E+02  0.76380265851E+01  0.20282707665E+02  0.51100000000E-03 0.  1.
        -11    1    3    3    0    0  0.28302470944E+01  0.34219200235E+01  0.52576515006E+01  0.68820589088E+01  0.51100000000E-03 0. -1.
        -12    1    3    3    0    0  0.41490824206E+01 -0.16356259780E+02  0.16159769903E+02  0.23364081027E+02  0.00000000000E+00 0.  1.
</event>
<event>
 7    1  0.2891523E-011  0.5052886E+02  0.7816164E-02  0.1300439E+00
        -11   -1    0    0    0    0  0.00000000000E+00  0.00000000000E+00  0.45593999997E+02  0.45594000000E+02  0.51100000000E-03 0. -1.
         11   -1    0    0    0    0 -0.00000000000E+00 -0.00000000000E+00 -0.45593999997E+02  0.45594000000E+02  0.51100000000E-03 0.  1.
    9900012    2    1    2    0    0 -0.20394992443E+02  0.34087091615E+01 -0.35008435592E+02  0.50528861082E+02  0.30000003746E+02 0.  0.
         12    1    1    2    0    0  0.20394992443E+02 -0.34087091615E+01  0.35008435592E+02  0.40659138918E+02  0.00000000000E+00 0. -1.
         11    1    3    3    0    0 -0.61662547139E+01  0.13758880379E+02 -0.82864074830E+01  0.17204477200E+02  0.51100000000E-03 0. -1.
        -11    1    3    3    0    0 -0.82564884290E+01 -0.86628314591E+01 -0.10373010765E+02  0.15837095777E+02  0.51100000000E-03 0.  1.
        -12    1    3    3    0    0 -0.59722493006E+01 -0.16873397582E+01 -0.16349017344E+02  0.17487288105E+02  0.00000000000E+00 0.  1.
</event>
<event>
 7    1  0.2891523E-011  0.5052887E+02  0.7816164E-02  0.1300439E+00
        -11   -1    0    0    0    0  0.00000000000E+00  0.00000000000E+00  0.45593999997E+02  0.45594000000E+02  0.51100000000E-03 0. -1.
         11   -1    0    0    0    0 -0.00000000000E+00 -0.00000000000E+00 -0.45593999997E+02  0.45594000000E+02  0.51100000000E-03 0.  1.
    9900012    2    1    2    0    0 -0.89320227973E+01 -0.46293641537E+01 -0.39394834653E+02  0.50528867679E+02  0.30000023798E+02 0.  0.
         12    1    1    2    0    0  0.89320227973E+01  0.46293641537E+01  0.39394834653E+02  0.40659132321E+02  0.00000000000E+00 0. -1.
         11    1    3    3    0    0  0.48828341500E-01  0.97753954453E+00 -0.19725565579E+02  0.19749833049E+02  0.51100000000E-03 0. -1.
        -11    1    3    3    0    0  0.55009516278E+01 -0.68435222494E+01 -0.48893319534E+01  0.10049867303E+02  0.51100000000E-03 0.  1.
        -12    1    3    3    0    0 -0.14481802767E+02  0.12366185512E+01 -0.14779937121E+02  0.20729167328E+02  0.00000000000E+00 0.  1.
</event>
<event>
 7    1  0.2891523E-011  0.5052886E+02  0.7816164E-02  0.1300439E+00
        -11   -1    0    0    0    0  0.00000000000E+00  0.00000000000E+00  0.45593999997E+02  0.45594000000E+02  0.51100000000E-03 0.  1.
         11   -1    0    0    0    0 -0.00000000000E+00 -0.00000000000E+00 -0.45593999997E+02  0.45594000000E+02  0.51100000000E-03 0. -1.
    9900012    2    1    2    0    0 -0.18979313694E+02 -0.17159507640E+02  0.31599095740E+02  0.50528857088E+02  0.29999991605E+02 0.  0.
         12    1    1    2    0    0  0.18979313694E+02  0.17159507640E+02 -0.31599095740E+02  0.40659142912E+02  0.00000000000E+00 0. -1.
         11    1    3    3    0    0 -0.20403064673E+02 -0.10285325153E+01  0.22646090396E+02  0.30498989125E+02  0.51100000000E-03 0.  1.
        -11    1    3    3    0    0  0.44251396743E+01 -0.11217637052E+02  0.50472892320E+01  0.13072580886E+02  0.51100000000E-03 0. -1.
        -12    1    3    3    0    0 -0.30013886952E+01 -0.49133380725E+01  0.39057161121E+01  0.69572870764E+01  0.00000000000E+00 0.  1.
</event>
<event>
 7    1  0.2891523E-011  0.5052890E+02  0.7816164E-02  0.1300439E+00
        -11   -1    0    0    0    0  0.00000000000E+00  0.00000000000E+00  0.45593999997E+02  0.45594000000E+02  0.51100000000E-03 0. -1.
         11   -1    0    0    0    0 -0.00000000000E+00 -0.00000000000E+00 -0.45593999997E+02  0.45594000000E+02  0.51100000000E-03 0.  1.
    9900012    2    1    2    0    0  0.12776911808E+02  0.35707439619E+02 -0.14659197966E+02  0.50528895184E+02  0.30000107400E+02 0.  0.
         12    1    1    2    0    0 -0.12776911808E+02 -0.35707439619E+02  0.14659197966E+02  0.40659104816E+02  0.00000000000E+00 0. -1.
         11    1    3    3    0    0 -0.48882409454E+01  0.14517879374E+02 -0.12833028919E+02  0.19983752214E+02  0.51100000000E-03 0. -1.
        -11    1    3    3    0    0  0.88833558555E+01  0.49241213955E+01 -0.57171777617E+01  0.11655346610E+02  0.51100000000E-03 0.  1.
         12    1    3    3    0    0  0.87817968977E+01  0.16265438849E+02  0.38910087143E+01  0.18889796360E+02  0.00000000000E+00 0. -1.
</event>
<event>
 7    1  0.2891523E-011  0.5052886E+02  0.7816164E-02  0.1300439E+00
        -11   -1    0    0    0    0  0.00000000000E+00  0.00000000000E+00  0.45593999997E+02  0.45594000000E+02  0.51100000000E-03 0. -1.
         11   -1    0    0    0    0 -0.00000000000E+00 -0.00000000000E+00 -0.45593999997E+02  0.45594000000E+02  0.51100000000E-03 0.  1.
    9900012    2    1    2    0    0 -0.30150058476E+02 -0.19423148946E+02 -0.19154134773E+02  0.50528860560E+02  0.30000002159E+02 0.  0.
         12    1    1    2    0    0  0.30150058476E+02  0.19423148946E+02  0.19154134773E+02  0.40659139440E+02  0.00000000000E+00 0. -1.
         11    1    3    3    0    0 -0.39329174896E+01  0.29007757826E+01  0.35700330578E+01  0.60520638146E+01  0.51100000000E-03 0. -1.
        -11    1    3    3    0    0 -0.16516233655E+02 -0.91570392961E+01 -0.20662961677E+02  0.27992772788E+02  0.51100000000E-03 0.  1.
        -12    1    3    3    0    0 -0.97009073314E+01 -0.13166885432E+02 -0.20612061540E+01  0.16484023958E+02  0.00000000000E+00 0.  1.
</event>
<event>
 7    1  0.2891523E-011  0.5052886E+02  0.7816164E-02  0.1300439E+00
        -11   -1    0    0    0    0  0.00000000000E+00  0.00000000000E+00  0.45593999997E+02  0.45594000000E+02  0.51100000000E-03 0. -1.
         11   -1    0    0    0    0 -0.00000000000E+00 -0.00000000000E+00 -0.45593999997E+02  0.45594000000E+02  0.51100000000E-03 0.  1.
    9900012    2    1    2    0    0  0.37120323884E+02  0.60537096479E+01 -0.15446668188E+02  0.50528863218E+02  0.30000010238E+02 0.  0.
         12    1    1    2    0    0 -0.37120323884E+02 -0.60537096479E+01  0.15446668188E+02  0.40659136782E+02  0.00000000000E+00 0. -1.
         11    1    3    3    0    0 -0.53469160888E+00  0.35072002486E+01  0.36158912170E+01  0.50656705632E+01  0.51100000000E-03 0. -1.
        -11    1    3    3    0    0  0.31077098807E+02 -0.45733652255E+01 -0.16271296712E+02  0.35375935842E+02  0.51100000000E-03 0.  1.
         12    1    3    3    0    0  0.65779166859E+01  0.71198746248E+01 -0.27912626923E+01  0.10087256813E+02  0.00000000000E+00 0. -1.
</event>
<event>
 7    1  0.2891523E-011  0.5052885E+02  0.7816164E-02  0.1300439E+00
        -11   -1    0    0    0    0  0.00000000000E+00  0.00000000000E+00  0.45593999997E+02  0.45594000000E+02  0.51100000000E-03 0.  1.
         11   -1    0    0    0    0 -0.00000000000E+00 -0.00000000000E+00 -0.45593999997E+02  0.45594000000E+02  0.51100000000E-03 0. -1.
    9900012    2    1    2    0    0 -0.16074407822E+02 -0.26429366588E+02  0.26386903952E+02  0.50528847215E+02  0.29999961594E+02 0.  0.
         12    1    1    2    0    0  0.16074407822E+02  0.26429366588E+02 -0.26386903952E+02  0.40659152785E+02  0.00000000000E+00 0. -1.
         11    1    3    3    0    0 -0.19803248629E+01 -0.20132128800E+01 -0.15841136021E+01  0.32379204481E+01  0.51100000000E-03 0. -1.
        -11    1    3    3    0    0  0.48733820021E+01 -0.36114258775E+01  0.15221204572E+02  0.16385277474E+02  0.51100000000E-03 0.  1.
        -12    1    3    3    0    0 -0.18967464961E+02 -0.20804727830E+02  0.12749812982E+02  0.30905649293E+02  0.00000000000E+00 0.  1.
</event>
<event>
 7    1  0.2891523E-011  0.5052886E+02  0.7816164E-02  0.1300439E+00
        -11   -1    0    0    0    0  0.00000000000E+00  0.00000000000E+00  0.45593999997E+02  0.45594000000E+02  0.51100000000E-03 0.  1.
         11   -1    0    0    0    0 -0.00000000000E+00 -0.00000000000E+00 -0.45593999997E+02  0.45594000000E+02  0.51100000000E-03 0. -1.
    9900012    2    1    2    0    0 -0.32973802794E+02 -0.23442622647E+02  0.40419395611E+01  0.50528862003E+02  0.30000006544E+02 0.  0.
         12    1    1    2    0    0  0.32973802794E+02  0.23442622647E+02 -0.40419395611E+01  0.40659137997E+02  0.00000000000E+00 0. -1.
         11    1    3    3    0    0 -0.18707071826E+02 -0.88889949825E+01 -0.12338367756E+02  0.24108174697E+02  0.51100000000E-03 0. -1.
        -11    1    3    3    0    0 -0.95920066579E+01 -0.72973204005E+01  0.10407012392E+02  0.15923673695E+02  0.51100000000E-03 0.  1.
        -12    1    3    3    0    0 -0.46747243096E+01 -0.72563072644E+01  0.59732949249E+01  0.10497013611E+02  0.00000000000E+00 0.  1.
</event>
<event>
 7    1  0.2891523E-011  0.5052887E+02  0.7816164E-02  0.1300439E+00
        -11   -1    0    0    0    0  0.00000000000E+00  0.00000000000E+00  0.45593999997E+02  0.45594000000E+02  0.51100000000E-03 0.  1.
         11   -1    0    0    0    0 -0.00000000000E+00 -0.00000000000E+00 -0.45593999997E+02  0.45594000000E+02  0.51100000000E-03 0. -1.
    9900012    2    1    2    0    0  0.27380934845E+02 -0.28104583734E+02 -0.10657471229E+02  0.50528869256E+02  0.30000028591E+02 0.  0.
         12    1    1    2    0    0 -0.27380934845E+02  0.28104583734E+02  0.10657471229E+02  0.40659130744E+02  0.00000000000E+00 0. -1.
         11    1    3    3    0    0  0.47722079199E+01 -0.40057001191E+01  0.82943640755E+00  0.62855045056E+01  0.51100000000E-03 0.  1.
        -11    1    3    3    0    0  0.78044142159E+01 -0.26255562292E+02 -0.46030399075E+01  0.27775014117E+02  0.51100000000E-03 0. -1.
        -12    1    3    3    0    0  0.14804312709E+02  0.21566786767E+01 -0.68838677292E+01  0.16468350634E+02  0.00000000000E+00 0.  1.
</event>
<event>
 7    1  0.2891523E-011  0.5052885E+02  0.7816164E-02  0.1300439E+00
        -11   -1    0    0    0    0  0.00000000000E+00  0.00000000000E+00  0.45593999997E+02  0.45594000000E+02  0.51100000000E-03 0. -1.
         11   -1    0    0    0    0 -0.00000000000E+00 -0.00000000000E+00 -0.45593999997E+02  0.45594000000E+02  0.51100000000E-03 0.  1.
    9900012    2    1    2    0    0  0.21949753515E+02 -0.18079012612E+02 -0.29060691388E+02  0.50528853915E+02  0.29999981961E+02 0.  0.
         12    1    1    2    0    0 -0.21949753515E+02  0.18079012612E+02  0.29060691388E+02  0.40659146085E+02  0.00000000000E+00 0. -1.
         11    1    3    3    0    0  0.18105432454E+02  0.13856840221E+01 -0.63742697340E+01  0.19244690682E+02  0.51100000000E-03 0. -1.
        -11    1    3    3    0    0  0.54868448413E+00 -0.14013496920E+02 -0.10451668282E+02  0.17490469425E+02  0.51100000000E-03 0.  1.
        -12    1    3    3    0    0  0.32956365768E+01 -0.54511997148E+01 -0.12234753372E+02  0.13793693807E+02  0.00000000000E+00 0.  1.
</event>
<event>
 7    1  0.2891523E-011  0.5052880E+02  0.7816164E-02  0.1300439E+00
        -11   -1    0    0    0    0  0.00000000000E+00  0.00000000000E+00  0.45593999997E+02  0.45594000000E+02  0.51100000000E-03 0. -1.
         11   -1    0    0    0    0 -0.00000000000E+00 -0.00000000000E+00 -0.45593999997E+02  0.45594000000E+02  0.51100000000E-03 0.  1.
    9900012    2    1    2    0    0  0.28513309850E+01 -0.37302019638E+02 -0.15924825167E+02  0.50528796687E+02  0.29999808010E+02 0.  0.
         12    1    1    2    0    0 -0.28513309850E+01  0.37302019638E+02  0.15924825167E+02  0.40659203313E+02  0.00000000000E+00 0. -1.
         11    1    3    3    0    0  0.10839821967E+02 -0.32052916582E+01 -0.70273903995E+00  0.11325611564E+02  0.51100000000E-03 0. -1.
        -11    1    3    3    0    0 -0.68804888458E+00 -0.12499319130E+02 -0.15345155899E+01  0.12611943876E+02  0.51100000000E-03 0.  1.
         12    1    3    3    0    0 -0.73004420973E+01 -0.21597408850E+02 -0.13687570537E+02  0.26591241247E+02  0.00000000000E+00 0. -1.
</event>
<event>
 7    1  0.2891523E-011  0.5052883E+02  0.7816164E-02  0.1300439E+00
        -11   -1    0    0    0    0  0.00000000000E+00  0.00000000000E+00  0.45593999997E+02  0.45594000000E+02  0.51100000000E-03 0.  1.
         11   -1    0    0    0    0 -0.00000000000E+00 -0.00000000000E+00 -0.45593999997E+02  0.45594000000E+02  0.51100000000E-03 0. -1.
    9900012    2    1    2    0    0  0.33585363494E+02 -0.99357239671E-01  0.22916834926E+02  0.50528833310E+02  0.29999919328E+02 0.  0.
         12    1    1    2    0    0 -0.33585363494E+02  0.99357239671E-01 -0.22916834926E+02  0.40659166690E+02  0.00000000000E+00 0. -1.
         11    1    3    3    0    0  0.23743093588E+01 -0.47717298410E+01  0.79407422233E+01  0.95635839477E+01  0.51100000000E-03 0. -1.
        -11    1    3    3    0    0  0.32957233522E+02  0.71661699999E+01  0.16515401445E+02  0.37553850922E+02  0.51100000000E-03 0.  1.
        -12    1    3    3    0    0 -0.17461793865E+01 -0.24937973986E+01 -0.15393087420E+01  0.34113984403E+01  0.00000000000E+00 0.  1.
</event>
<event>
 7    1  0.2891523E-011  0.5052886E+02  0.7816164E-02  0.1300439E+00
        -11   -1    0    0    0    0  0.00000000000E+00  0.00000000000E+00  0.45593999997E+02  0.45594000000E+02  0.51100000000E-03 0. -1.
         11   -1    0    0    0    0 -0.00000000000E+00 -0.00000000000E+00 -0.45593999997E+02  0.45594000000E+02  0.51100000000E-03 0.  1.
    9900012    2    1    2    0    0  0.12494657532E+02  0.38618753950E+02 -0.23751537584E+01  0.50528856147E+02  0.29999988745E+02 0.  0.
         12    1    1    2    0    0 -0.12494657532E+02 -0.38618753950E+02  0.23751537584E+01  0.40659143853E+02  0.00000000000E+00 0. -1.
         11    1    3    3    0    0 -0.26442721580E+01  0.31068727192E+00  0.33951489827E+01  0.43145960069E+01  0.51100000000E-03 0. -1.
        -11    1    3    3    0    0  0.14007757300E+02  0.34087813139E+02  0.24182430364E+01  0.36932968589E+02  0.51100000000E-03 0.  1.
        -12    1    3    3    0    0  0.11311723895E+01  0.42202535392E+01 -0.81885457775E+01  0.92812915513E+01  0.00000000000E+00 0.  1.
</event>
<event>
 7    1  0.2891523E-011  0.5052885E+02  0.7816164E-02  0.1300439E+00
        -11   -1    0    0    0    0  0.00000000000E+00  0.00000000000E+00  0.45593999997E+02  0.45594000000E+02  0.51100000000E-03 0.  1.
         11   -1    0    0    0    0 -0.00000000000E+00 -0.00000000000E+00 -0.45593999997E+02  0.45594000000E+02  0.51100000000E-03 0. -1.
    9900012    2    1    2    0    0  0.21005696969E+02 -0.12961493351E+02  0.32309853493E+02  0.50528852839E+02  0.29999978691E+02 0.  0.
         12    1    1    2    0    0 -0.21005696969E+02  0.12961493351E+02 -0.32309853493E+02  0.40659147161E+02  0.00000000000E+00 0. -1.
         11    1    3    3    0    0  0.85528509042E+00 -0.56549940587E+01  0.67708627729E-02  0.57193108409E+01  0.51100000000E-03 0. -1.
        -11    1    3    3    0    0  0.90196895322E+01  0.74794080376E+01  0.17736402866E+02  0.21257382970E+02  0.51100000000E-03 0.  1.
        -12    1    3    3    0    0  0.11130722347E+02 -0.14785907330E+02  0.14566679764E+02  0.23552159028E+02  0.00000000000E+00 0.  1.
</event>
<event>
 7    1  0.2891523E-011  0.5052889E+02  0.7816164E-02  0.1300439E+00
        -11   -1    0    0    0    0  0.00000000000E+00  0.00000000000E+00  0.45593999997E+02  0.45594000000E+02  0.51100000000E-03 0.  1.
         11   -1    0    0    0    0 -0.00000000000E+00 -0.00000000000E+00 -0.45593999997E+02  0.45594000000E+02  0.51100000000E-03 0. -1.
    9900012    2    1    2    0    0 -0.85527857946E+01  0.23912294201E+02  0.31752401872E+02  0.50528892983E+02  0.30000100711E+02 0.  0.
         12    1    1    2    0    0  0.85527857946E+01 -0.23912294201E+02 -0.31752401872E+02  0.40659107017E+02  0.00000000000E+00 0. -1.
         11    1    3    3    0    0 -0.76404665141E+01 -0.20951016154E+01 -0.44107174194E+00  0.79347793841E+01  0.51100000000E-03 0. -1.
        -11    1    3    3    0    0 -0.93908633577E+00  0.24108243636E+02  0.23444164177E+02  0.33641018542E+02  0.51100000000E-03 0.  1.
         12    1    3    3    0    0  0.26767055208E-01  0.18991521806E+01  0.87493094366E+01  0.89530950569E+01  0.00000000000E+00 0. -1.
</event>
<event>
 7    1  0.2891523E-011  0.5052886E+02  0.7816164E-02  0.1300439E+00
        -11   -1    0    0    0    0  0.00000000000E+00  0.00000000000E+00  0.45593999997E+02  0.45594000000E+02  0.51100000000E-03 0.  1.
         11   -1    0    0    0    0 -0.00000000000E+00 -0.00000000000E+00 -0.45593999997E+02  0.45594000000E+02  0.51100000000E-03 0. -1.
    9900012    2    1    2    0    0 -0.38753503156E+02 -0.12634159738E+01  0.12236639057E+02  0.50528861270E+02  0.30000004318E+02 0.  0.
         12    1    1    2    0    0  0.38753503156E+02  0.12634159738E+01 -0.12236639057E+02  0.40659138730E+02  0.00000000000E+00 0. -1.
         11    1    3    3    0    0 -0.38129524128E+02  0.77517399944E+01  0.57517234432E+01  0.39332332832E+02  0.51100000000E-03 0. -1.
        -11    1    3    3    0    0 -0.10141081812E+00 -0.50579510386E+01  0.43381978440E+01  0.66643164434E+01  0.51100000000E-03 0.  1.
         12    1    3    3    0    0 -0.52256821063E+00 -0.39572049296E+01  0.21467177698E+01  0.45322119956E+01  0.00000000000E+00 0. -1.
</event>
<event>
 7    1  0.2891523E-011  0.5052886E+02  0.7816164E-02  0.1300439E+00
        -11   -1    0    0    0    0  0.00000000000E+00  0.00000000000E+00  0.45593999997E+02  0.45594000000E+02  0.51100000000E-03 0.  1.
         11   -1    0    0    0    0 -0.00000000000E+00 -0.00000000000E+00 -0.45593999997E+02  0.45594000000E+02  0.51100000000E-03 0. -1.
    9900012    2    1    2    0    0  0.22367953155E+02 -0.23532565062E+02 -0.24475677180E+02  0.50528859329E+02  0.29999998416E+02 0.  0.
         12    1    1    2    0    0 -0.22367953155E+02  0.23532565062E+02  0.24475677180E+02  0.40659140671E+02  0.00000000000E+00 0. -1.
         11    1    3    3    0    0  0.80100991985E+01 -0.13136841524E+02 -0.20097098506E+02  0.25310702539E+02  0.51100000000E-03 0. -1.
        -11    1    3    3    0    0  0.40887065486E+01 -0.11002566691E+02  0.35137186626E+01  0.12252355452E+02  0.51100000000E-03 0.  1.
         12    1    3    3    0    0  0.10269147408E+02  0.60684315275E+00 -0.78922973363E+01  0.12965801338E+02  0.00000000000E+00 0. -1.
</event>
<event>
 7    1  0.2891523E-011  0.5052888E+02  0.7816164E-02  0.1300439E+00
        -11   -1    0    0    0    0  0.00000000000E+00  0.00000000000E+00  0.45593999997E+02  0.45594000000E+02  0.51100000000E-03 0. -1.
         11   -1    0    0    0    0 -0.00000000000E+00 -0.00000000000E+00 -0.45593999997E+02  0.45594000000E+02  0.51100000000E-03 0.  1.
    9900012    2    1    2    0    0 -0.24761896383E+00 -0.38793373714E+02  0.12172790358E+02  0.50528880674E+02  0.30000063297E+02 0.  0.
         12    1    1    2    0    0  0.24761896383E+00  0.38793373714E+02 -0.12172790358E+02  0.40659119326E+02  0.00000000000E+00 0. -1.
         11    1    3    3    0    0 -0.62142993405E+01 -0.16973673640E+01  0.34588189219E+01  0.73117713898E+01  0.51100000000E-03 0. -1.
        -11    1    3    3    0    0  0.10991054783E+02 -0.30630096986E+02  0.19578757277E+01  0.32601217834E+02  0.51100000000E-03 0.  1.
        -12    1    3    3    0    0 -0.50243744060E+01 -0.64659093636E+01  0.67560957083E+01  0.10615891451E+02  0.00000000000E+00 0.  1.
</event>
<event>
 7    1  0.2891523E-011  0.5052884E+02  0.7816164E-02  0.1300439E+00
        -11   -1    0    0    0    0  0.00000000000E+00  0.00000000000E+00  0.45593999997E+02  0.45594000000E+02  0.51100000000E-03 0.  1.
         11   -1    0    0    0    0 -0.00000000000E+00 -0.00000000000E+00 -0.45593999997E+02  0.45594000000E+02  0.51100000000E-03 0. -1.
    9900012    2    1    2    0    0 -0.20066729137E+02 -0.81280444873E+01  0.34415530134E+02  0.50528838181E+02  0.29999934135E+02 0.  0.
         12    1    1    2    0    0  0.20066729137E+02  0.81280444873E+01 -0.34415530134E+02  0.40659161819E+02  0.00000000000E+00 0. -1.
         11    1    3    3    0    0 -0.69635063048E+01 -0.28117555081E+01 -0.11029066048E+00  0.75105627875E+01  0.51100000000E-03 0. -1.
        -11    1    3    3    0    0  0.78160028141E+00 -0.23103522882E+01  0.26676121565E+02  0.26787386747E+02  0.51100000000E-03 0.  1.
        -12    1    3    3    0    0 -0.13884823113E+02 -0.30059366910E+01  0.78496992291E+01  0.16230888647E+02  0.00000000000E+00 0.  1.
</event>
<event>
 7    1  0.2891523E-011  0.5052885E+02  0.7816164E-02  0.1300439E+00
        -11   -1    0    0    0    0  0.00000000000E+00  0.00000000000E+00  0.45593999997E+02  0.45594000000E+02  0.51100000000E-03 0.  1.
         11   -1    0    0    0    0 -0.00000000000E+00 -0.00000000000E+00 -0.45593999997E+02  0.45594000000E+02  0.51100000000E-03 0. -1.
    9900012    2    1    2    0    0  0.28332773523E+02 -0.28242260067E+02  0.72660540510E+01  0.50528845426E+02  0.29999956157E+02 0.  0.
         12    1    1    2    0    0 -0.28332773523E+02  0.28242260067E+02 -0.72660540510E+01  0.40659154574E+02  0.00000000000E+00 0. -1.
         11    1    3    3    0    0  0.13482143941E+02 -0.14090331585E+02  0.18517446014E+02  0.26892405184E+02  0.51100000000E-03 0. -1.
        -11    1    3    3    0    0  0.13173956355E+02 -0.12657634855E+02 -0.86929329660E+01  0.20232052046E+02  0.51100000000E-03 0.  1.
         12    1    3    3    0    0  0.16766732267E+01 -0.14942936262E+01 -0.25584589971E+01  0.34043881961E+01  0.00000000000E+00 0. -1.
</event>
<event>
 7    1  0.2891523E-011  0.5052886E+02  0.7816164E-02  0.1300439E+00
        -11   -1    0    0    0    0  0.00000000000E+00  0.00000000000E+00  0.45593999997E+02  0.45594000000E+02  0.51100000000E-03 0.  1.
         11   -1    0    0    0    0 -0.00000000000E+00 -0.00000000000E+00 -0.45593999997E+02  0.45594000000E+02  0.51100000000E-03 0. -1.
    9900012    2    1    2    0    0 -0.95650310488E+01  0.34738390764E+02  0.18839326315E+02  0.50528858005E+02  0.29999994391E+02 0.  0.
         12    1    1    2    0    0  0.95650310488E+01 -0.34738390764E+02 -0.18839326315E+02  0.40659141995E+02  0.00000000000E+00 0. -1.
         11    1    3    3    0    0 -0.58503681744E+01 -0.13037000607E+01  0.82123498940E+01  0.10167061162E+02  0.51100000000E-03 0. -1.
        -11    1    3    3    0    0 -0.74800969356E+01  0.32903462183E+02  0.75603090196E+01  0.34579588582E+02  0.51100000000E-03 0.  1.
        -12    1    3    3    0    0  0.37654340613E+01  0.31386286414E+01  0.30666674011E+01  0.57822082605E+01  0.00000000000E+00 0.  1.
</event>
<event>
 7    1  0.2891523E-011  0.5052886E+02  0.7816164E-02  0.1300439E+00
        -11   -1    0    0    0    0  0.00000000000E+00  0.00000000000E+00  0.45593999997E+02  0.45594000000E+02  0.51100000000E-03 0.  1.
         11   -1    0    0    0    0 -0.00000000000E+00 -0.00000000000E+00 -0.45593999997E+02  0.45594000000E+02  0.51100000000E-03 0. -1.
    9900012    2    1    2    0    0  0.27797712624E+02  0.15950402062E+02  0.25020747256E+02  0.50528856547E+02  0.29999989961E+02 0.  0.
         12    1    1    2    0    0 -0.27797712624E+02 -0.15950402062E+02 -0.25020747256E+02  0.40659143453E+02  0.00000000000E+00 0. -1.
         11    1    3    3    0    0  0.10439870845E+02  0.45988899648E+01  0.23966524694E+02  0.26543078162E+02  0.51100000000E-03 0. -1.
        -11    1    3    3    0    0  0.12012707138E+02  0.17682785129E+01 -0.26053519511E+01  0.12418526513E+02  0.51100000000E-03 0.  1.
         12    1    3    3    0    0  0.53451346412E+01  0.95832335842E+01  0.36595745128E+01  0.11567251872E+02  0.00000000000E+00 0. -1.
</event>
<event>
 7    1  0.2891523E-011  0.5052886E+02  0.7816164E-02  0.1300439E+00
        -11   -1    0    0    0    0  0.00000000000E+00  0.00000000000E+00  0.45593999997E+02  0.45594000000E+02  0.51100000000E-03 0.  1.
         11   -1    0    0    0    0 -0.00000000000E+00 -0.00000000000E+00 -0.45593999997E+02  0.45594000000E+02  0.51100000000E-03 0. -1.
    9900012    2    1    2    0    0  0.26485626469E+01 -0.10433601752E+02  0.39208296754E+02  0.50528862479E+02  0.30000007992E+02 0.  0.
         12    1    1    2    0    0 -0.26485626469E+01  0.10433601752E+02 -0.39208296754E+02  0.40659137521E+02  0.00000000000E+00 0. -1.
         11    1    3    3    0    0  0.24754678384E+01  0.27266816548E+01  0.30705221280E+01  0.47948764599E+01  0.51100000000E-03 0. -1.
        -11    1    3    3    0    0 -0.11308278934E+02 -0.11842220391E+02  0.19275708205E+02  0.25291664305E+02  0.51100000000E-03 0.  1.
        -12    1    3    3    0    0  0.11481373742E+02 -0.13180630153E+01  0.16862066421E+02  0.20442321715E+02  0.00000000000E+00 0.  1.
</event>
<event>
 7    1  0.2891523E-011  0.5052882E+02  0.7816164E-02  0.1300439E+00
        -11   -1    0    0    0    0  0.00000000000E+00  0.00000000000E+00  0.45593999997E+02  0.45594000000E+02  0.51100000000E-03 0. -1.
         11   -1    0    0    0    0 -0.00000000000E+00 -0.00000000000E+00 -0.45593999997E+02  0.45594000000E+02  0.51100000000E-03 0.  1.
    9900012    2    1    2    0    0  0.23936046362E+02 -0.21392794473E+02 -0.24951616189E+02  0.50528817504E+02  0.29999871285E+02 0.  0.
         12    1    1    2    0    0 -0.23936046362E+02  0.21392794473E+02  0.24951616189E+02  0.40659182496E+02  0.00000000000E+00 0. -1.
         11    1    3    3    0    0  0.58084640859E+01 -0.13780743329E+02 -0.87102500543E+01  0.17306518946E+02  0.51100000000E-03 0. -1.
        -11    1    3    3    0    0  0.10478243895E+02  0.51664311066E+01 -0.70997692712E+00  0.11704258755E+02  0.51100000000E-03 0.  1.
        -12    1    3    3    0    0  0.76493383814E+01 -0.12778482250E+02 -0.15531389207E+02  0.21518039803E+02  0.00000000000E+00 0.  1.
</event>
<event>
 7    1  0.2891523E-011  0.5052886E+02  0.7816164E-02  0.1300439E+00
        -11   -1    0    0    0    0  0.00000000000E+00  0.00000000000E+00  0.45593999997E+02  0.45594000000E+02  0.51100000000E-03 0.  1.
         11   -1    0    0    0    0 -0.00000000000E+00 -0.00000000000E+00 -0.45593999997E+02  0.45594000000E+02  0.51100000000E-03 0. -1.
    9900012    2    1    2    0    0  0.16679883396E+02  0.16601956581E+02  0.33156033495E+02  0.50528855523E+02  0.29999986848E+02 0.  0.
         12    1    1    2    0    0 -0.16679883396E+02 -0.16601956581E+02 -0.33156033495E+02  0.40659144477E+02  0.00000000000E+00 0. -1.
         11    1    3    3    0    0  0.18567103259E+02  0.75182649653E+00  0.20648255187E+02  0.27778643038E+02  0.51100000000E-03 0.  1.
        -11    1    3    3    0    0 -0.36883386114E+01  0.14481156219E+02  0.13629106260E+02  0.20225238314E+02  0.51100000000E-03 0. -1.
         12    1    3    3    0    0  0.18011187493E+01  0.13689738660E+01 -0.11213279512E+01  0.25249741719E+01  0.00000000000E+00 0. -1.
</event>
<event>
 7    1  0.2891523E-011  0.5052886E+02  0.7816164E-02  0.1300439E+00
        -11   -1    0    0    0    0  0.00000000000E+00  0.00000000000E+00  0.45593999997E+02  0.45594000000E+02  0.51100000000E-03 0. -1.
         11   -1    0    0    0    0 -0.00000000000E+00 -0.00000000000E+00 -0.45593999997E+02  0.45594000000E+02  0.51100000000E-03 0.  1.
    9900012    2    1    2    0    0  0.72767039370E+01  0.38879202941E+02 -0.94139682174E+01  0.50528860325E+02  0.30000001445E+02 0.  0.
         12    1    1    2    0    0 -0.72767039370E+01 -0.38879202941E+02  0.94139682174E+01  0.40659139675E+02  0.00000000000E+00 0. -1.
         11    1    3    3    0    0 -0.21154205686E+01  0.23626104907E+01 -0.76101110171E+01  0.82444358488E+01  0.51100000000E-03 0. -1.
        -11    1    3    3    0    0  0.89491624343E+01  0.13428916665E+02  0.69744247404E+01  0.17580270526E+02  0.51100000000E-03 0.  1.
        -12    1    3    3    0    0  0.44296207123E+00  0.23087675785E+02 -0.87782819408E+01  0.24704153950E+02  0.00000000000E+00 0.  1.
</event>
<event>
 7    1  0.2891523E-011  0.5052886E+02  0.7816164E-02  0.1300439E+00
        -11   -1    0    0    0    0  0.00000000000E+00  0.00000000000E+00  0.45593999997E+02  0.45594000000E+02  0.51100000000E-03 0. -1.
         11   -1    0    0    0    0 -0.00000000000E+00 -0.00000000000E+00 -0.45593999997E+02  0.45594000000E+02  0.51100000000E-03 0.  1.
    9900012    2    1    2    0    0 -0.18789114182E+02  0.35344927819E+02  0.71323681686E+01  0.50528863143E+02  0.30000010010E+02 0.  0.
         12    1    1    2    0    0  0.18789114182E+02 -0.35344927819E+02 -0.71323681686E+01  0.40659136857E+02  0.00000000000E+00 0. -1.
         11    1    3    3    0    0 -0.20013674109E+02  0.24715991008E+02 -0.32716239937E+01  0.31970781765E+02  0.51100000000E-03 0. -1.
        -11    1    3    3    0    0  0.22699791463E+01  0.63685808886E+01 -0.52517107429E+00  0.67814034519E+01  0.51100000000E-03 0.  1.
         12    1    3    3    0    0 -0.10454192190E+01  0.42603559222E+01  0.10929163237E+02  0.11776677926E+02  0.00000000000E+00 0. -1.
</event>
<event>
 7    1  0.2891523E-011  0.5052886E+02  0.7816164E-02  0.1300439E+00
        -11   -1    0    0    0    0  0.00000000000E+00  0.00000000000E+00  0.45593999997E+02  0.45594000000E+02  0.51100000000E-03 0.  1.
         11   -1    0    0    0    0 -0.00000000000E+00 -0.00000000000E+00 -0.45593999997E+02  0.45594000000E+02  0.51100000000E-03 0. -1.
    9900012    2    1    2    0    0  0.37341519080E+01 -0.33009500461E+02 -0.23443431169E+02  0.50528862329E+02  0.30000007536E+02 0.  0.
         12    1    1    2    0    0 -0.37341519080E+01  0.33009500461E+02  0.23443431169E+02  0.40659137671E+02  0.00000000000E+00 0. -1.
         11    1    3    3    0    0  0.51924206592E+01 -0.29960942712E+01 -0.15622706245E+02  0.16733402639E+02  0.51100000000E-03 0. -1.
        -11    1    3    3    0    0 -0.16260784982E+01 -0.11955005858E+02  0.33990690812E+01  0.12534750386E+02  0.51100000000E-03 0.  1.
         12    1    3    3    0    0  0.16780974693E+00 -0.18058400331E+02 -0.11219794005E+02  0.21260709305E+02  0.00000000000E+00 0. -1.
</event>
<event>
 7    1  0.2891523E-011  0.5052886E+02  0.7816164E-02  0.1300439E+00
        -11   -1    0    0    0    0  0.00000000000E+00  0.00000000000E+00  0.45593999997E+02  0.45594000000E+02  0.51100000000E-03 0. -1.
         11   -1    0    0    0    0 -0.00000000000E+00 -0.00000000000E+00 -0.45593999997E+02  0.45594000000E+02  0.51100000000E-03 0.  1.
    9900012    2    1    2    0    0  0.29956019325E+02  0.27202273846E+02 -0.39797778988E+01  0.50528862918E+02  0.30000009324E+02 0.  0.
         12    1    1    2    0    0 -0.29956019325E+02 -0.27202273846E+02  0.39797778988E+01  0.40659137082E+02  0.00000000000E+00 0. -1.
         11    1    3    3    0    0 -0.47212415966E+01  0.75621929788E+01 -0.61405381717E+00  0.89361035812E+01  0.51100000000E-03 0. -1.
        -11    1    3    3    0    0  0.31569767780E+02  0.16699881799E+02 -0.64845690835E+01  0.36298566449E+02  0.51100000000E-03 0.  1.
         12    1    3    3    0    0  0.31074931410E+01  0.29401990678E+01  0.31188450019E+01  0.52941928871E+01  0.00000000000E+00 0. -1.
</event>
<event>
 7    1  0.2891523E-011  0.5052886E+02  0.7816164E-02  0.1300439E+00
        -11   -1    0    0    0    0  0.00000000000E+00  0.00000000000E+00  0.45593999997E+02  0.45594000000E+02  0.51100000000E-03 0.  1.
         11   -1    0    0    0    0 -0.00000000000E+00 -0.00000000000E+00 -0.45593999997E+02  0.45594000000E+02  0.51100000000E-03 0. -1.
    9900012    2    1    2    0    0  0.18405590600E+02  0.73956197046E+00  0.36247113937E+02  0.50528856059E+02  0.29999988477E+02 0.  0.
         12    1    1    2    0    0 -0.18405590600E+02 -0.73956197046E+00 -0.36247113937E+02  0.40659143941E+02  0.00000000000E+00 0. -1.
         11    1    3    3    0    0  0.73349665068E+01 -0.15425217873E+01  0.14909213890E+02  0.16687293555E+02  0.51100000000E-03 0. -1.
        -11    1    3    3    0    0  0.94923514776E+01  0.83210802875E+01  0.11092932569E+01  0.12671844598E+02  0.51100000000E-03 0.  1.
        -12    1    3    3    0    0  0.15782726157E+01 -0.60389965297E+01  0.20228606790E+02  0.21169717906E+02  0.00000000000E+00 0.  1.
</event>
<event>
 7    1  0.2891523E-011  0.5052885E+02  0.7816164E-02  0.1300439E+00
        -11   -1    0    0    0    0  0.00000000000E+00  0.00000000000E+00  0.45593999997E+02  0.45594000000E+02  0.51100000000E-03 0. -1.
         11   -1    0    0    0    0 -0.00000000000E+00 -0.00000000000E+00 -0.45593999997E+02  0.45594000000E+02  0.51100000000E-03 0.  1.
    9900012    2    1    2    0    0 -0.21609617448E+02  0.14803319095E+02 -0.31097465168E+02  0.50528853891E+02  0.29999981886E+02 0.  0.
         12    1    1    2    0    0  0.21609617448E+02 -0.14803319095E+02  0.31097465168E+02  0.40659146109E+02  0.00000000000E+00 0. -1.
         11    1    3    3    0    0  0.23324116887E+01  0.41456690061E+01  0.39964405604E+01  0.62127492472E+01  0.51100000000E-03 0. -1.
        -11    1    3    3    0    0 -0.11307594854E+02  0.15271150530E+01 -0.16338591554E+02  0.19928455936E+02  0.51100000000E-03 0.  1.
         12    1    3    3    0    0 -0.12634434283E+02  0.91305350363E+01 -0.18755314174E+02  0.24387648707E+02  0.00000000000E+00 0. -1.
</event>
<event>
 7    1  0.2891523E-011  0.5052887E+02  0.7816164E-02  0.1300439E+00
        -11   -1    0    0    0    0  0.00000000000E+00  0.00000000000E+00  0.45593999997E+02  0.45594000000E+02  0.51100000000E-03 0.  1.
         11   -1    0    0    0    0 -0.00000000000E+00 -0.00000000000E+00 -0.45593999997E+02  0.45594000000E+02  0.51100000000E-03 0. -1.
    9900012    2    1    2    0    0  0.28687541109E+02 -0.87693369845E+01  0.27446108915E+02  0.50528865964E+02  0.30000018583E+02 0.  0.
         12    1    1    2    0    0 -0.28687541109E+02  0.87693369845E+01 -0.27446108915E+02  0.40659134036E+02  0.00000000000E+00 0. -1.
         11    1    3    3    0    0  0.94825836548E+01  0.10791195656E+01  0.69958018235E+01  0.11833221675E+02  0.51100000000E-03 0. -1.
        -11    1    3    3    0    0  0.16707914176E+02 -0.17653819612E+02  0.17636614928E+02  0.30031016123E+02  0.51100000000E-03 0.  1.
        -12    1    3    3    0    0  0.24970432780E+01  0.78053630615E+01  0.28136921631E+01  0.86646281653E+01  0.00000000000E+00 0.  1.
</event>
<event>
 7    1  0.2891523E-011  0.5052889E+02  0.7816164E-02  0.1300439E+00
        -11   -1    0    0    0    0  0.00000000000E+00  0.00000000000E+00  0.45593999997E+02  0.45594000000E+02  0.51100000000E-03 0. -1.
         11   -1    0    0    0    0 -0.00000000000E+00 -0.00000000000E+00 -0.45593999997E+02  0.45594000000E+02  0.51100000000E-03 0.  1.
    9900012    2    1    2    0    0 -0.20681070639E+02  0.34875521453E+02 -0.30256854020E+01  0.50528887226E+02  0.30000083213E+02 0.  0.
         12    1    1    2    0    0  0.20681070639E+02 -0.34875521453E+02  0.30256854020E+01  0.40659112774E+02  0.00000000000E+00 0. -1.
         11    1    3    3    0    0  0.26943991203E+01  0.12973384902E+00  0.62066895283E+01  0.67675411084E+01  0.51100000000E-03 0. -1.
        -11    1    3    3    0    0 -0.19246736413E+02  0.23257251518E+02 -0.91802022766E+01  0.31553331438E+02  0.51100000000E-03 0.  1.
        -12    1    3    3    0    0 -0.41287333465E+01  0.11488536086E+02 -0.52172653751E-01  0.12208014680E+02  0.00000000000E+00 0.  1.
</event>
<event>
 7    1  0.2891523E-011  0.5052886E+02  0.7816164E-02  0.1300439E+00
        -11   -1    0    0    0    0  0.00000000000E+00  0.00000000000E+00  0.45593999997E+02  0.45594000000E+02  0.51100000000E-03 0.  1.
         11   -1    0    0    0    0 -0.00000000000E+00 -0.00000000000E+00 -0.45593999997E+02  0.45594000000E+02  0.51100000000E-03 0. -1.
    9900012    2    1    2    0    0 -0.59671291378E+01  0.39031431910E+02 -0.97008396700E+01  0.50528860838E+02  0.30000003004E+02 0.  0.
         12    1    1    2    0    0  0.59671291378E+01 -0.39031431910E+02  0.97008396700E+01  0.40659139162E+02  0.00000000000E+00 0. -1.
         11    1    3    3    0    0 -0.14122653162E+02  0.13118861984E+02 -0.84298171488E+01  0.21038433628E+02  0.51100000000E-03 0. -1.
        -11    1    3    3    0    0  0.59494054289E+01  0.35403315574E+01  0.49260175402E+00  0.69406072675E+01  0.51100000000E-03 0.  1.
        -12    1    3    3    0    0  0.22061185954E+01  0.22372238368E+02 -0.17636242752E+01  0.22549819942E+02  0.00000000000E+00 0.  1.
</event>
<event>
 7    1  0.2891523E-011  0.5052886E+02  0.7816164E-02  0.1300439E+00
        -11   -1    0    0    0    0  0.00000000000E+00  0.00000000000E+00  0.45593999997E+02  0.45594000000E+02  0.51100000000E-03 0.  1.
         11   -1    0    0    0    0 -0.00000000000E+00 -0.00000000000E+00 -0.45593999997E+02  0.45594000000E+02  0.51100000000E-03 0. -1.
    9900012    2    1    2    0    0 -0.36971586428E+01  0.24368324875E+02  0.32336997005E+02  0.50528860627E+02  0.30000002361E+02 0.  0.
         12    1    1    2    0    0  0.36971586428E+01 -0.24368324875E+02 -0.32336997005E+02  0.40659139373E+02  0.00000000000E+00 0. -1.
         11    1    3    3    0    0 -0.14955791015E+02  0.44319260258E+01  0.11048907127E+02  0.19115334215E+02  0.51100000000E-03 0. -1.
        -11    1    3    3    0    0  0.86376474239E+01  0.13703254505E+02  0.16542841205E+02  0.23152834220E+02  0.51100000000E-03 0.  1.
         12    1    3    3    0    0  0.26209849484E+01  0.62331443436E+01  0.47452486735E+01  0.82606921914E+01  0.00000000000E+00 0. -1.
</event>
<event>
 7    1  0.2891523E-011  0.5052888E+02  0.7816164E-02  0.1300439E+00
        -11   -1    0    0    0    0  0.00000000000E+00  0.00000000000E+00  0.45593999997E+02  0.45594000000E+02  0.51100000000E-03 0. -1.
         11   -1    0    0    0    0 -0.00000000000E+00 -0.00000000000E+00 -0.45593999997E+02  0.45594000000E+02  0.51100000000E-03 0.  1.
    9900012    2    1    2    0    0  0.37139141554E+02 -0.16543228272E+02  0.41200423886E+00  0.50528880672E+02  0.30000063291E+02 0.  0.
         12    1    1    2    0    0 -0.37139141554E+02  0.16543228272E+02 -0.41200423886E+00  0.40659119328E+02  0.00000000000E+00 0. -1.
         11    1    3    3    0    0  0.15366136424E+02 -0.16258506828E+02  0.11940033852E+02  0.25357870603E+02  0.51100000000E-03 0. -1.
        -11    1    3    3    0    0  0.47288202313E+01  0.63786256472E-01 -0.26101416536E+00  0.47364478380E+01  0.51100000000E-03 0.  1.
         12    1    3    3    0    0  0.17044184898E+02 -0.34850770066E+00 -0.11267015448E+02  0.20434562231E+02  0.00000000000E+00 0. -1.
</event>
<event>
 7    1  0.2891523E-011  0.5052884E+02  0.7816164E-02  0.1300439E+00
        -11   -1    0    0    0    0  0.00000000000E+00  0.00000000000E+00  0.45593999997E+02  0.45594000000E+02  0.51100000000E-03 0. -1.
         11   -1    0    0    0    0 -0.00000000000E+00 -0.00000000000E+00 -0.45593999997E+02  0.45594000000E+02  0.51100000000E-03 0.  1.
    9900012    2    1    2    0    0  0.40674847706E+00  0.31174112607E+02 -0.26099356607E+02  0.50528841665E+02  0.29999944726E+02 0.  0.
         12    1    1    2    0    0 -0.40674847706E+00 -0.31174112607E+02  0.26099356607E+02  0.40659158335E+02  0.00000000000E+00 0. -1.
         11    1    3    3    0    0  0.12370582812E+02  0.15313181460E+02 -0.51187845326E+01  0.20340275340E+02  0.51100000000E-03 0. -1.
        -11    1    3    3    0    0 -0.73363393099E+01  0.94818321219E+01 -0.18274777184E+02  0.21856223284E+02  0.51100000000E-03 0.  1.
         12    1    3    3    0    0 -0.46274950249E+01  0.63790990247E+01 -0.27057948903E+01  0.83323430415E+01  0.00000000000E+00 0. -1.
</event>
<event>
 7    1  0.2891523E-011  0.5052886E+02  0.7816164E-02  0.1300439E+00
        -11   -1    0    0    0    0  0.00000000000E+00  0.00000000000E+00  0.45593999997E+02  0.45594000000E+02  0.51100000000E-03 0. -1.
         11   -1    0    0    0    0 -0.00000000000E+00 -0.00000000000E+00 -0.45593999997E+02  0.45594000000E+02  0.51100000000E-03 0.  1.
    9900012    2    1    2    0    0 -0.19497657253E+02 -0.35269923443E+02  0.53888220465E+01  0.50528861531E+02  0.30000005109E+02 0.  0.
         12    1    1    2    0    0  0.19497657253E+02  0.35269923443E+02 -0.53888220465E+01  0.40659138469E+02  0.00000000000E+00 0. -1.
         11    1    3    3    0    0 -0.96544534751E+01 -0.80377515308E+01  0.10928629780E+02  0.16650791894E+02  0.51100000000E-03 0. -1.
        -11    1    3    3    0    0 -0.79713938683E+01 -0.27110616475E+02 -0.24337918500E+00  0.28259297223E+02  0.51100000000E-03 0.  1.
         12    1    3    3    0    0 -0.18718099096E+01 -0.12155543668E+00 -0.52964285486E+01  0.56187724133E+01  0.00000000000E+00 0. -1.
</event>
<event>
 7    1  0.2891523E-011  0.5052887E+02  0.7816164E-02  0.1300439E+00
        -11   -1    0    0    0    0  0.00000000000E+00  0.00000000000E+00  0.45593999997E+02  0.45594000000E+02  0.51100000000E-03 0.  1.
         11   -1    0    0    0    0 -0.00000000000E+00 -0.00000000000E+00 -0.45593999997E+02  0.45594000000E+02  0.51100000000E-03 0. -1.
    9900012    2    1    2    0    0  0.30399857827E+02  0.26714752370E+02 -0.39160760482E+01  0.50528868164E+02  0.30000025270E+02 0.  0.
         12    1    1    2    0    0 -0.30399857827E+02 -0.26714752370E+02  0.39160760482E+01  0.40659131836E+02  0.00000000000E+00 0. -1.
         11    1    3    3    0    0  0.22878834218E+02  0.14668806777E+02  0.92577103827E+01  0.28710976110E+02  0.51100000000E-03 0. -1.
        -11    1    3    3    0    0  0.21875087027E+01  0.49367262129E+01  0.59239527927E+00  0.54320707335E+01  0.51100000000E-03 0.  1.
         12    1    3    3    0    0  0.53335149064E+01  0.71092193799E+01 -0.13766181710E+02  0.16385821320E+02  0.00000000000E+00 0. -1.
</event>
<event>
 7    1  0.2891523E-011  0.5052886E+02  0.7816164E-02  0.1300439E+00
        -11   -1    0    0    0    0  0.00000000000E+00  0.00000000000E+00  0.45593999997E+02  0.45594000000E+02  0.51100000000E-03 0.  1.
         11   -1    0    0    0    0 -0.00000000000E+00 -0.00000000000E+00 -0.45593999997E+02  0.45594000000E+02  0.51100000000E-03 0. -1.
    9900012    2    1    2    0    0  0.73592912139E+00 -0.19755520059E+02  0.35529473666E+02  0.50528860026E+02  0.30000000534E+02 0.  0.
         12    1    1    2    0    0 -0.73592912139E+00  0.19755520059E+02 -0.35529473666E+02  0.40659139974E+02  0.00000000000E+00 0. -1.
         11    1    3    3    0    0  0.56644062991E+00  0.31656136983E+01 -0.22543599356E+01  0.39273533142E+01  0.51100000000E-03 0. -1.
        -11    1    3    3    0    0 -0.49782911028E+01 -0.14210636167E+02  0.30871408036E+02  0.34347771353E+02  0.51100000000E-03 0.  1.
        -12    1    3    3    0    0  0.51477795943E+01 -0.87104975902E+01  0.69124255659E+01  0.12253735358E+02  0.00000000000E+00 0.  1.
</event>
<event>
 7    1  0.2891523E-011  0.5052886E+02  0.7816164E-02  0.1300439E+00
        -11   -1    0    0    0    0  0.00000000000E+00  0.00000000000E+00  0.45593999997E+02  0.45594000000E+02  0.51100000000E-03 0.  1.
         11   -1    0    0    0    0 -0.00000000000E+00 -0.00000000000E+00 -0.45593999997E+02  0.45594000000E+02  0.51100000000E-03 0. -1.
    9900012    2    1    2    0    0 -0.89895952827E+01  0.25577417660E+02  0.30300965848E+02  0.50528860206E+02  0.30000001081E+02 0.  0.
         12    1    1    2    0    0  0.89895952827E+01 -0.25577417660E+02 -0.30300965848E+02  0.40659139794E+02  0.00000000000E+00 0. -1.
         11    1    3    3    0    0 -0.23856957188E+01  0.55347609259E+01  0.48851436099E+01  0.77582053930E+01  0.51100000000E-03 0. -1.
        -11    1    3    3    0    0  0.10057372497E+02  0.12647258854E+02  0.11367105583E+02  0.19756391058E+02  0.51100000000E-03 0.  1.
        -12    1    3    3    0    0 -0.16661272061E+02  0.73953978807E+01  0.14048716655E+02  0.23014263754E+02  0.00000000000E+00 0.  1.
</event>
<event>
 7    1  0.2891523E-011  0.5052885E+02  0.7816164E-02  0.1300439E+00
        -11   -1    0    0    0    0  0.00000000000E+00  0.00000000000E+00  0.45593999997E+02  0.45594000000E+02  0.51100000000E-03 0.  1.
         11   -1    0    0    0    0 -0.00000000000E+00 -0.00000000000E+00 -0.45593999997E+02  0.45594000000E+02  0.51100000000E-03 0. -1.
    9900012    2    1    2    0    0  0.35117918442E+02 -0.55946268889E+01 -0.19712892880E+02  0.50528853533E+02  0.29999980799E+02 0.  0.
         12    1    1    2    0    0 -0.35117918442E+02  0.55946268889E+01  0.19712892880E+02  0.40659146467E+02  0.00000000000E+00 0. -1.
         11    1    3    3    0    0  0.88921522356E+01  0.47896111363E+01 -0.15090276421E+01  0.10212145265E+02  0.51100000000E-03 0. -1.
        -11    1    3    3    0    0  0.38709879662E+01 -0.37684190450E+01 -0.16014216813E+02  0.16900907382E+02  0.51100000000E-03 0.  1.
        -12    1    3    3    0    0  0.22354778240E+02 -0.66158189802E+01 -0.21896484247E+01  0.23415800887E+02  0.00000000000E+00 0.  1.
</event>
<event>
 7    1  0.2891523E-011  0.5052887E+02  0.7816164E-02  0.1300439E+00
        -11   -1    0    0    0    0  0.00000000000E+00  0.00000000000E+00  0.45593999997E+02  0.45594000000E+02  0.51100000000E-03 0.  1.
         11   -1    0    0    0    0 -0.00000000000E+00 -0.00000000000E+00 -0.45593999997E+02  0.45594000000E+02  0.51100000000E-03 0. -1.
    9900012    2    1    2    0    0 -0.26526965379E+02  0.41368698897E+01  0.30534758676E+02  0.50528867297E+02  0.30000022637E+02 0.  0.
         12    1    1    2    0    0  0.26526965379E+02 -0.41368698897E+01 -0.30534758676E+02  0.40659132703E+02  0.00000000000E+00 0. -1.
         11    1    3    3    0    0  0.60610762669E+00  0.49524173243E+01  0.66690296356E+01  0.83288510823E+01  0.51100000000E-03 0. -1.
        -11    1    3    3    0    0 -0.18140277843E+02  0.86034585483E+01  0.78479184722E+01  0.21556414447E+02  0.51100000000E-03 0.  1.
        -12    1    3    3    0    0 -0.89927951624E+01 -0.94190059828E+01  0.16017810569E+02  0.20643601768E+02  0.00000000000E+00 0.  1.
</event>
<event>
 7    1  0.2891523E-011  0.5052886E+02  0.7816164E-02  0.1300439E+00
        -11   -1    0    0    0    0  0.00000000000E+00  0.00000000000E+00  0.45593999997E+02  0.45594000000E+02  0.51100000000E-03 0. -1.
         11   -1    0    0    0    0 -0.00000000000E+00 -0.00000000000E+00 -0.45593999997E+02  0.45594000000E+02  0.51100000000E-03 0.  1.
    9900012    2    1    2    0    0  0.25749607508E+02  0.31267829347E+02 -0.35278980695E+01  0.50528861991E+02  0.30000006508E+02 0.  0.
         12    1    1    2    0    0 -0.25749607508E+02 -0.31267829347E+02  0.35278980695E+01  0.40659138009E+02  0.00000000000E+00 0. -1.
         11    1    3    3    0    0  0.22158764898E+02  0.17766698250E+02  0.10869644475E+01  0.28422665612E+02  0.51100000000E-03 0.  1.
        -11    1    3    3    0    0 -0.41708357817E+01 -0.16907348979E+01 -0.16339770164E+01  0.47879365873E+01  0.51100000000E-03 0. -1.
         12    1    3    3    0    0  0.77616783908E+01  0.15191865994E+02 -0.29808855005E+01  0.17318259791E+02  0.00000000000E+00 0. -1.
</event>
<event>
 7    1  0.2891523E-011  0.5052887E+02  0.7816164E-02  0.1300439E+00
        -11   -1    0    0    0    0  0.00000000000E+00  0.00000000000E+00  0.45593999997E+02  0.45594000000E+02  0.51100000000E-03 0.  1.
         11   -1    0    0    0    0 -0.00000000000E+00 -0.00000000000E+00 -0.45593999997E+02  0.45594000000E+02  0.51100000000E-03 0. -1.
    9900012    2    1    2    0    0 -0.34857314519E+02  0.57624737337E+01  0.20122775157E+02  0.50528873607E+02  0.30000041814E+02 0.  0.
         12    1    1    2    0    0  0.34857314519E+02 -0.57624737337E+01 -0.20122775157E+02  0.40659126393E+02  0.00000000000E+00 0. -1.
         11    1    3    3    0    0 -0.12591016364E+02  0.95644079781E+01  0.87488447585E+01  0.18070801806E+02  0.51100000000E-03 0.  1.
        -11    1    3    3    0    0 -0.10096229777E+02 -0.11895060639E+02  0.40957711992E+01  0.16130767660E+02  0.51100000000E-03 0. -1.
         12    1    3    3    0    0 -0.12170068378E+02  0.80931263943E+01  0.72781591997E+01  0.16327304140E+02  0.00000000000E+00 0. -1.
</event>
<event>
 7    1  0.2891523E-011  0.5052885E+02  0.7816164E-02  0.1300439E+00
        -11   -1    0    0    0    0  0.00000000000E+00  0.00000000000E+00  0.45593999997E+02  0.45594000000E+02  0.51100000000E-03 0.  1.
         11   -1    0    0    0    0 -0.00000000000E+00 -0.00000000000E+00 -0.45593999997E+02  0.45594000000E+02  0.51100000000E-03 0. -1.
    9900012    2    1    2    0    0 -0.34992398770E+02 -0.20596098420E+02  0.21210525557E+01  0.50528854587E+02  0.29999984001E+02 0.  0.
         12    1    1    2    0    0  0.34992398770E+02  0.20596098420E+02 -0.21210525557E+01  0.40659145413E+02  0.00000000000E+00 0. -1.
         11    1    3    3    0    0 -0.13139811481E+02 -0.35318294142E+01 -0.12851132574E+02  0.18715770715E+02  0.51100000000E-03 0. -1.
        -11    1    3    3    0    0 -0.20910578976E+02 -0.14966735662E+02  0.13167655673E+02  0.28890182514E+02  0.51100000000E-03 0.  1.
         12    1    3    3    0    0 -0.94200831300E+00 -0.20975333438E+01  0.18045294561E+01  0.29229013579E+01  0.00000000000E+00 0. -1.
</event>
<event>
 7    1  0.2891523E-011  0.5052886E+02  0.7816164E-02  0.1300439E+00
        -11   -1    0    0    0    0  0.00000000000E+00  0.00000000000E+00  0.45593999997E+02  0.45594000000E+02  0.51100000000E-03 0. -1.
         11   -1    0    0    0    0 -0.00000000000E+00 -0.00000000000E+00 -0.45593999997E+02  0.45594000000E+02  0.51100000000E-03 0.  1.
    9900012    2    1    2    0    0  0.25135851473E+02  0.31750736494E+02 -0.36394293027E+01  0.50528859049E+02  0.29999997566E+02 0.  0.
         12    1    1    2    0    0 -0.25135851473E+02 -0.31750736494E+02  0.36394293027E+01  0.40659140951E+02  0.00000000000E+00 0. -1.
         11    1    3    3    0    0 -0.14028207863E+00  0.33942771403E+00 -0.63565882276E+01  0.63671896776E+01  0.51100000000E-03 0. -1.
        -11    1    3    3    0    0  0.62588323475E+01  0.10035255464E+02  0.90083748824E+01  0.14867082863E+02  0.51100000000E-03 0.  1.
        -12    1    3    3    0    0  0.19017301204E+02  0.21376053316E+02 -0.62912159575E+01  0.29294586508E+02  0.00000000000E+00 0.  1.
</event>
<event>
 7    1  0.2891523E-011  0.5052885E+02  0.7816164E-02  0.1300439E+00
        -11   -1    0    0    0    0  0.00000000000E+00  0.00000000000E+00  0.45593999997E+02  0.45594000000E+02  0.51100000000E-03 0. -1.
         11   -1    0    0    0    0 -0.00000000000E+00 -0.00000000000E+00 -0.45593999997E+02  0.45594000000E+02  0.51100000000E-03 0.  1.
    9900012    2    1    2    0    0 -0.76786085163E+01 -0.31629134294E+02 -0.24368079697E+02  0.50528850070E+02  0.29999970273E+02 0.  0.
         12    1    1    2    0    0  0.76786085163E+01  0.31629134294E+02  0.24368079697E+02  0.40659149930E+02  0.00000000000E+00 0. -1.
         11    1    3    3    0    0 -0.78687475269E+01 -0.57120059496E+01  0.38938177033E+01  0.10474063976E+02  0.51100000000E-03 0. -1.
        -11    1    3    3    0    0  0.48506693857E+01 -0.92919584487E+01 -0.14923001309E+02  0.18236377207E+02  0.51100000000E-03 0.  1.
         12    1    3    3    0    0 -0.46605303751E+01 -0.16625169895E+02 -0.13338896091E+02  0.21818408887E+02  0.00000000000E+00 0. -1.
</event>
<event>
 7    1  0.2891523E-011  0.5052886E+02  0.7816164E-02  0.1300439E+00
        -11   -1    0    0    0    0  0.00000000000E+00  0.00000000000E+00  0.45593999997E+02  0.45594000000E+02  0.51100000000E-03 0.  1.
         11   -1    0    0    0    0 -0.00000000000E+00 -0.00000000000E+00 -0.45593999997E+02  0.45594000000E+02  0.51100000000E-03 0. -1.
    9900012    2    1    2    0    0  0.23432046145E+02  0.15779388407E+02  0.29242361771E+02  0.50528860720E+02  0.30000002644E+02 0.  0.
         12    1    1    2    0    0 -0.23432046145E+02 -0.15779388407E+02 -0.29242361771E+02  0.40659139280E+02  0.00000000000E+00 0. -1.
         11    1    3    3    0    0 -0.54466595961E+01  0.69361129850E+01  0.36712504242E+01  0.95526877911E+01  0.51100000000E-03 0. -1.
        -11    1    3    3    0    0  0.24374768712E+02  0.10256717975E+02  0.17778896956E+02  0.31865636517E+02  0.51100000000E-03 0.  1.
         12    1    3    3    0    0  0.45039370297E+01 -0.14134425522E+01  0.77922143903E+01  0.91105364123E+01  0.00000000000E+00 0. -1.
</event>
<event>
 7    1  0.2891523E-011  0.5052887E+02  0.7816164E-02  0.1300439E+00
        -11   -1    0    0    0    0  0.00000000000E+00  0.00000000000E+00  0.45593999997E+02  0.45594000000E+02  0.51100000000E-03 0.  1.
         11   -1    0    0    0    0 -0.00000000000E+00 -0.00000000000E+00 -0.45593999997E+02  0.45594000000E+02  0.51100000000E-03 0. -1.
    9900012    2    1    2    0    0  0.12572677325E+02  0.15408678243E+01  0.38635718622E+02  0.50528865205E+02  0.30000016278E+02 0.  0.
         12    1    1    2    0    0 -0.12572677325E+02 -0.15408678243E+01 -0.38635718622E+02  0.40659134795E+02  0.00000000000E+00 0. -1.
         11    1    3    3    0    0  0.10031127628E+02  0.11814207087E+02  0.90691553189E+01  0.17956853540E+02  0.51100000000E-03 0. -1.
        -11    1    3    3    0    0  0.19635058389E-01 -0.69409158199E+01  0.79432438794E+01  0.10548545945E+02  0.51100000000E-03 0.  1.
        -12    1    3    3    0    0  0.25219146387E+01 -0.33324234430E+01  0.21623319424E+02  0.22023465721E+02  0.00000000000E+00 0.  1.
</event>
<event>
 7    1  0.2891523E-011  0.5052889E+02  0.7816164E-02  0.1300439E+00
        -11   -1    0    0    0    0  0.00000000000E+00  0.00000000000E+00  0.45593999997E+02  0.45594000000E+02  0.51100000000E-03 0.  1.
         11   -1    0    0    0    0 -0.00000000000E+00 -0.00000000000E+00 -0.45593999997E+02  0.45594000000E+02  0.51100000000E-03 0. -1.
    9900012    2    1    2    0    0 -0.21885284264E+02 -0.21463242292E+01  0.34199285300E+02  0.50528886752E+02  0.30000081773E+02 0.  0.
         12    1    1    2    0    0  0.21885284264E+02  0.21463242292E+01 -0.34199285300E+02  0.40659113248E+02  0.00000000000E+00 0. -1.
         11    1    3    3    0    0 -0.15984076723E+02 -0.47535095065E+00  0.13329093403E+02  0.20817814449E+02  0.51100000000E-03 0. -1.
        -11    1    3    3    0    0  0.46954458654E+01 -0.51917653889E+01  0.16124062874E+02  0.17578027294E+02  0.51100000000E-03 0.  1.
        -12    1    3    3    0    0 -0.10596653406E+02  0.35207921103E+01  0.47461290232E+01  0.12133045009E+02  0.00000000000E+00 0.  1.
</event>
<event>
 7    1  0.2891523E-011  0.5052886E+02  0.7816164E-02  0.1300439E+00
        -11   -1    0    0    0    0  0.00000000000E+00  0.00000000000E+00  0.45593999997E+02  0.45594000000E+02  0.51100000000E-03 0.  1.
         11   -1    0    0    0    0 -0.00000000000E+00 -0.00000000000E+00 -0.45593999997E+02  0.45594000000E+02  0.51100000000E-03 0. -1.
    9900012    2    1    2    0    0 -0.13682220881E+02  0.85571207847E+01  0.37319412216E+02  0.50528855733E+02  0.29999987487E+02 0.  0.
         12    1    1    2    0    0  0.13682220881E+02 -0.85571207847E+01 -0.37319412216E+02  0.40659144267E+02  0.00000000000E+00 0. -1.
         11    1    3    3    0    0 -0.14211758542E+02 -0.82178369130E+00  0.22505451904E+02  0.26629772341E+02  0.51100000000E-03 0. -1.
        -11    1    3    3    0    0 -0.24606191737E+01  0.11324310739E+02  0.36052749064E+01  0.12136419070E+02  0.51100000000E-03 0.  1.
        -12    1    3    3    0    0  0.29901568345E+01 -0.19454062634E+01  0.11208685406E+02  0.11762664322E+02  0.00000000000E+00 0.  1.
</event>
<event>
 7    1  0.2891523E-011  0.5052886E+02  0.7816164E-02  0.1300439E+00
        -11   -1    0    0    0    0  0.00000000000E+00  0.00000000000E+00  0.45593999997E+02  0.45594000000E+02  0.51100000000E-03 0.  1.
         11   -1    0    0    0    0 -0.00000000000E+00 -0.00000000000E+00 -0.45593999997E+02  0.45594000000E+02  0.51100000000E-03 0. -1.
    9900012    2    1    2    0    0  0.28400276984E+01  0.56935503914E+01  0.40158228310E+02  0.50528861121E+02  0.30000003864E+02 0.  0.
         12    1    1    2    0    0 -0.28400276984E+01 -0.56935503914E+01 -0.40158228310E+02  0.40659138879E+02  0.00000000000E+00 0. -1.
         11    1    3    3    0    0  0.61028962520E+01 -0.42557252131E+01  0.17500095483E+01  0.76432371043E+01  0.51100000000E-03 0.  1.
        -11    1    3    3    0    0 -0.69396716717E+01  0.57706074212E+01  0.82818766905E+01  0.12249425893E+02  0.51100000000E-03 0. -1.
        -12    1    3    3    0    0  0.36768031181E+01  0.41786681832E+01  0.30126342071E+02  0.30636198124E+02  0.00000000000E+00 0.  1.
</event>
<event>
 7    1  0.2891523E-011  0.5052886E+02  0.7816164E-02  0.1300439E+00
        -11   -1    0    0    0    0  0.00000000000E+00  0.00000000000E+00  0.45593999997E+02  0.45594000000E+02  0.51100000000E-03 0. -1.
         11   -1    0    0    0    0 -0.00000000000E+00 -0.00000000000E+00 -0.45593999997E+02  0.45594000000E+02  0.51100000000E-03 0.  1.
    9900012    2    1    2    0    0 -0.20809829194E+02  0.27291362328E+02 -0.21801341362E+02  0.50528856699E+02  0.29999990421E+02 0.  0.
         12    1    1    2    0    0  0.20809829194E+02 -0.27291362328E+02  0.21801341362E+02  0.40659143301E+02  0.00000000000E+00 0. -1.
         11    1    3    3    0    0  0.12432626661E+01 -0.65553319273E+00  0.50182794612E+01  0.52113870357E+01  0.51100000000E-03 0. -1.
        -11    1    3    3    0    0 -0.17246259750E+02  0.15752031208E+02 -0.15879564630E+02  0.28243946885E+02  0.51100000000E-03 0.  1.
         12    1    3    3    0    0 -0.48068321103E+01  0.12194864313E+02 -0.10940056194E+02  0.17073522778E+02  0.00000000000E+00 0. -1.
</event>
<event>
 7    1  0.2891523E-011  0.5052886E+02  0.7816164E-02  0.1300439E+00
        -11   -1    0    0    0    0  0.00000000000E+00  0.00000000000E+00  0.45593999997E+02  0.45594000000E+02  0.51100000000E-03 0.  1.
         11   -1    0    0    0    0 -0.00000000000E+00 -0.00000000000E+00 -0.45593999997E+02  0.45594000000E+02  0.51100000000E-03 0. -1.
    9900012    2    1    2    0    0 -0.11657312985E+02  0.30797361438E+02  0.23849433654E+02  0.50528857078E+02  0.29999991573E+02 0.  0.
         12    1    1    2    0    0  0.11657312985E+02 -0.30797361438E+02 -0.23849433654E+02  0.40659142922E+02  0.00000000000E+00 0. -1.
         11    1    3    3    0    0  0.44892835864E+01  0.48269498292E+01  0.15706196486E+02  0.17033429487E+02  0.51100000000E-03 0. -1.
        -11    1    3    3    0    0 -0.11255276091E+02  0.22427981017E+02  0.24796844970E+01  0.25215955422E+02  0.51100000000E-03 0.  1.
         12    1    3    3    0    0 -0.48913204796E+01  0.35424305920E+01  0.56635526707E+01  0.82794721684E+01  0.00000000000E+00 0. -1.
</event>
<event>
 7    1  0.2891523E-011  0.5052886E+02  0.7816164E-02  0.1300439E+00
        -11   -1    0    0    0    0  0.00000000000E+00  0.00000000000E+00  0.45593999997E+02  0.45594000000E+02  0.51100000000E-03 0.  1.
         11   -1    0    0    0    0 -0.00000000000E+00 -0.00000000000E+00 -0.45593999997E+02  0.45594000000E+02  0.51100000000E-03 0. -1.
    9900012    2    1    2    0    0  0.29960830278E+02 -0.26993502640E+02  0.51831491715E+01  0.50528861162E+02  0.30000003987E+02 0.  0.
         12    1    1    2    0    0 -0.29960830278E+02  0.26993502640E+02 -0.51831491715E+01  0.40659138838E+02  0.00000000000E+00 0. -1.
         11    1    3    3    0    0  0.88474698998E+01 -0.16472366633E+02 -0.34408097079E+01  0.19011989844E+02  0.51100000000E-03 0. -1.
        -11    1    3    3    0    0  0.14282595010E+02  0.17927215700E+01  0.97569830903E+01  0.17389798450E+02  0.51100000000E-03 0.  1.
        -12    1    3    3    0    0  0.68307653678E+01 -0.12313857577E+02 -0.11330242109E+01  0.14127072868E+02  0.00000000000E+00 0.  1.
</event>
<event>
 7    1  0.2891523E-011  0.5052887E+02  0.7816164E-02  0.1300439E+00
        -11   -1    0    0    0    0  0.00000000000E+00  0.00000000000E+00  0.45593999997E+02  0.45594000000E+02  0.51100000000E-03 0.  1.
         11   -1    0    0    0    0 -0.00000000000E+00 -0.00000000000E+00 -0.45593999997E+02  0.45594000000E+02  0.51100000000E-03 0. -1.
    9900012    2    1    2    0    0  0.26522254580E+01  0.32590704592E+02  0.24165605524E+02  0.50528870447E+02  0.30000032211E+02 0.  0.
         12    1    1    2    0    0 -0.26522254580E+01 -0.32590704592E+02 -0.24165605524E+02  0.40659129553E+02  0.00000000000E+00 0. -1.
         11    1    3    3    0    0  0.87637976075E+01  0.74014925177E+01  0.15407851091E+02  0.19209063368E+02  0.51100000000E-03 0. -1.
        -11    1    3    3    0    0 -0.92654967470E+01  0.71186637715E+01  0.42207134347E+01  0.12423333933E+02  0.51100000000E-03 0.  1.
        -12    1    3    3    0    0  0.31539245975E+01  0.18070548303E+02  0.45370409981E+01  0.18896473145E+02  0.00000000000E+00 0.  1.
</event>
<event>
 7    1  0.2891523E-011  0.5052887E+02  0.7816164E-02  0.1300439E+00
        -11   -1    0    0    0    0  0.00000000000E+00  0.00000000000E+00  0.45593999997E+02  0.45594000000E+02  0.51100000000E-03 0.  1.
         11   -1    0    0    0    0 -0.00000000000E+00 -0.00000000000E+00 -0.45593999997E+02  0.45594000000E+02  0.51100000000E-03 0. -1.
    9900012    2    1    2    0    0  0.34520014754E+02 -0.16711095853E+02  0.13500851189E+02  0.50528866634E+02  0.30000020622E+02 0.  0.
         12    1    1    2    0    0 -0.34520014754E+02  0.16711095853E+02 -0.13500851189E+02  0.40659133366E+02  0.00000000000E+00 0. -1.
         11    1    3    3    0    0  0.57159389953E+01  0.62708230176E+01  0.97510083868E+01  0.12925840195E+02  0.51100000000E-03 0. -1.
        -11    1    3    3    0    0  0.39805015257E+01 -0.61232306058E+01 -0.37942054960E+00  0.73131597591E+01  0.51100000000E-03 0.  1.
         12    1    3    3    0    0  0.24823574233E+02 -0.16858688265E+02  0.41292633520E+01  0.30289866681E+02  0.00000000000E+00 0. -1.
</event>
<event>
 7    1  0.2891523E-011  0.5052887E+02  0.7816164E-02  0.1300439E+00
        -11   -1    0    0    0    0  0.00000000000E+00  0.00000000000E+00  0.45593999997E+02  0.45594000000E+02  0.51100000000E-03 0.  1.
         11   -1    0    0    0    0 -0.00000000000E+00 -0.00000000000E+00 -0.45593999997E+02  0.45594000000E+02  0.51100000000E-03 0. -1.
    9900012    2    1    2    0    0 -0.23036304084E+02  0.31352953185E+02  0.11810412308E+02  0.50528870420E+02  0.30000032130E+02 0.  0.
         12    1    1    2    0    0  0.23036304084E+02 -0.31352953185E+02 -0.11810412308E+02  0.40659129580E+02  0.00000000000E+00 0. -1.
         11    1    3    3    0    0 -0.16071776522E+02  0.13303753323E+01  0.99520077158E+01  0.18950312845E+02  0.51100000000E-03 0. -1.
        -11    1    3    3    0    0 -0.24881147124E+01  0.49670464552E+01 -0.18548445235E+01  0.58568518658E+01  0.51100000000E-03 0.  1.
         12    1    3    3    0    0 -0.44764128501E+01  0.25055531397E+02  0.37132491159E+01  0.25721705709E+02  0.00000000000E+00 0. -1.
</event>
<event>
 7    1  0.2891523E-011  0.5052886E+02  0.7816164E-02  0.1300439E+00
        -11   -1    0    0    0    0  0.00000000000E+00  0.00000000000E+00  0.45593999997E+02  0.45594000000E+02  0.51100000000E-03 0.  1.
         11   -1    0    0    0    0 -0.00000000000E+00 -0.00000000000E+00 -0.45593999997E+02  0.45594000000E+02  0.51100000000E-03 0. -1.
    9900012    2    1    2    0    0 -0.19008402011E+02 -0.28485461447E+02  0.21918598893E+02  0.50528857876E+02  0.29999994000E+02 0.  0.
         12    1    1    2    0    0  0.19008402011E+02  0.28485461447E+02 -0.21918598893E+02  0.40659142124E+02  0.00000000000E+00 0. -1.
         11    1    3    3    0    0 -0.16689477575E+02 -0.30603426742E+02  0.74295516345E+01  0.35641361194E+02  0.51100000000E-03 0. -1.
        -11    1    3    3    0    0 -0.16756661754E+01  0.73668701265E+00  0.64202422684E+01  0.66760823791E+01  0.51100000000E-03 0.  1.
         12    1    3    3    0    0 -0.64325826096E+00  0.13812782821E+01  0.80688049897E+01  0.82114143023E+01  0.00000000000E+00 0. -1.
</event>
<event>
 7    1  0.2891523E-011  0.5052884E+02  0.7816164E-02  0.1300439E+00
        -11   -1    0    0    0    0  0.00000000000E+00  0.00000000000E+00  0.45593999997E+02  0.45594000000E+02  0.51100000000E-03 0. -1.
         11   -1    0    0    0    0 -0.00000000000E+00 -0.00000000000E+00 -0.45593999997E+02  0.45594000000E+02  0.51100000000E-03 0.  1.
    9900012    2    1    2    0    0 -0.36461575906E+02  0.12374951508E+02 -0.13060676401E+02  0.50528841002E+02  0.29999942709E+02 0.  0.
         12    1    1    2    0    0  0.36461575906E+02 -0.12374951508E+02  0.13060676401E+02  0.40659158998E+02  0.00000000000E+00 0. -1.
         11    1    3    3    0    0 -0.36872266888E+01 -0.21494965193E+01 -0.27114877593E+01  0.50564950382E+01  0.51100000000E-03 0. -1.
        -11    1    3    3    0    0 -0.29600005710E+02  0.69471709688E+01  0.21883305631E+01  0.30482983998E+02  0.51100000000E-03 0.  1.
        -12    1    3    3    0    0 -0.31743435075E+01  0.75772770589E+01 -0.12537519205E+02  0.14989361966E+02  0.00000000000E+00 0.  1.
</event>
<event>
 7    1  0.2891523E-011  0.5052885E+02  0.7816164E-02  0.1300439E+00
        -11   -1    0    0    0    0  0.00000000000E+00  0.00000000000E+00  0.45593999997E+02  0.45594000000E+02  0.51100000000E-03 0.  1.
         11   -1    0    0    0    0 -0.00000000000E+00 -0.00000000000E+00 -0.45593999997E+02  0.45594000000E+02  0.51100000000E-03 0. -1.
    9900012    2    1    2    0    0 -0.50775453734E+01  0.34008392634E+02  0.21698249141E+02  0.50528852784E+02  0.29999978522E+02 0.  0.
         12    1    1    2    0    0  0.50775453734E+01 -0.34008392634E+02 -0.21698249141E+02  0.40659147216E+02  0.00000000000E+00 0. -1.
         11    1    3    3    0    0  0.64195848211E+01  0.33411496343E+01 -0.23312486110E+00  0.72407663694E+01  0.51100000000E-03 0. -1.
        -11    1    3    3    0    0 -0.52580851853E+01  0.17399331806E+02  0.22113914656E+02  0.28625328448E+02  0.51100000000E-03 0.  1.
        -12    1    3    3    0    0 -0.62390450092E+01  0.13267911194E+02 -0.18254065412E+00  0.14662757966E+02  0.00000000000E+00 0.  1.
</event>
<event>
 7    1  0.2891523E-011  0.5052886E+02  0.7816164E-02  0.1300439E+00
        -11   -1    0    0    0    0  0.00000000000E+00  0.00000000000E+00  0.45593999997E+02  0.45594000000E+02  0.51100000000E-03 0. -1.
         11   -1    0    0    0    0 -0.00000000000E+00 -0.00000000000E+00 -0.45593999997E+02  0.45594000000E+02  0.51100000000E-03 0.  1.
    9900012    2    1    2    0    0 -0.16280998989E+02  0.36937440526E+02  0.48703742449E+01  0.50528856060E+02  0.29999988479E+02 0.  0.
         12    1    1    2    0    0  0.16280998989E+02 -0.36937440526E+02 -0.48703742449E+01  0.40659143940E+02  0.00000000000E+00 0. -1.
         11    1    3    3    0    0  0.87546677323E+00  0.90633796958E+01  0.68686868987E+01  0.11405707061E+02  0.51100000000E-03 0. -1.
        -11    1    3    3    0    0 -0.59663949469E+01  0.78866260766E+01 -0.10745204499E+02  0.14603292763E+02  0.51100000000E-03 0.  1.
        -12    1    3    3    0    0 -0.11190070816E+02  0.19987434753E+02  0.87468918453E+01  0.24519856236E+02  0.00000000000E+00 0.  1.
</event>
<event>
 7    1  0.2891523E-011  0.5052894E+02  0.7816164E-02  0.1300439E+00
        -11   -1    0    0    0    0  0.00000000000E+00  0.00000000000E+00  0.45593999997E+02  0.45594000000E+02  0.51100000000E-03 0.  1.
         11   -1    0    0    0    0 -0.00000000000E+00 -0.00000000000E+00 -0.45593999997E+02  0.45594000000E+02  0.51100000000E-03 0. -1.
    9900012    2    1    2    0    0  0.23395393133E+02 -0.31290945446E+02 -0.11255739627E+02  0.50528937526E+02  0.30000236102E+02 0.  0.
         12    1    1    2    0    0 -0.23395393133E+02  0.31290945446E+02  0.11255739627E+02  0.40659062474E+02  0.00000000000E+00 0. -1.
         11    1    3    3    0    0 -0.58346922212E+01 -0.24023914082E+01  0.55102972298E-02  0.63099245969E+01  0.51100000000E-03 0. -1.
        -11    1    3    3    0    0  0.29203554789E+02 -0.26117812951E+02 -0.80857797881E+01  0.40004594745E+02  0.51100000000E-03 0.  1.
        -12    1    3    3    0    0  0.26530565156E-01 -0.27707410860E+01 -0.31754701362E+01  0.42144181832E+01  0.00000000000E+00 0.  1.
</event>
<event>
 7    1  0.2891523E-011  0.5052885E+02  0.7816164E-02  0.1300439E+00
        -11   -1    0    0    0    0  0.00000000000E+00  0.00000000000E+00  0.45593999997E+02  0.45594000000E+02  0.51100000000E-03 0.  1.
         11   -1    0    0    0    0 -0.00000000000E+00 -0.00000000000E+00 -0.45593999997E+02  0.45594000000E+02  0.51100000000E-03 0. -1.
    9900012    2    1    2    0    0  0.47339646497E+01  0.10101362708E+02  0.39098832962E+02  0.50528847416E+02  0.29999962206E+02 0.  0.
         12    1    1    2    0    0 -0.47339646497E+01 -0.10101362708E+02 -0.39098832962E+02  0.40659152584E+02  0.00000000000E+00 0. -1.
         11    1    3    3    0    0  0.73948257089E+01 -0.22601507312E+01  0.15117218456E+01  0.78788978793E+01  0.51100000000E-03 0. -1.
        -11    1    3    3    0    0 -0.22001056476E+01 -0.47147809163E+00  0.23425151470E+02  0.23532965773E+02  0.51100000000E-03 0.  1.
         12    1    3    3    0    0 -0.46075541169E+00  0.12832991530E+02  0.14161959647E+02  0.19116983763E+02  0.00000000000E+00 0. -1.
</event>
<event>
 7    1  0.2891523E-011  0.5052884E+02  0.7816164E-02  0.1300439E+00
        -11   -1    0    0    0    0  0.00000000000E+00  0.00000000000E+00  0.45593999997E+02  0.45594000000E+02  0.51100000000E-03 0.  1.
         11   -1    0    0    0    0 -0.00000000000E+00 -0.00000000000E+00 -0.45593999997E+02  0.45594000000E+02  0.51100000000E-03 0. -1.
    9900012    2    1    2    0    0 -0.17875403777E+02  0.34839154581E+02 -0.10948538781E+02  0.50528840471E+02  0.29999941096E+02 0.  0.
         12    1    1    2    0    0  0.17875403777E+02 -0.34839154581E+02  0.10948538781E+02  0.40659159529E+02  0.00000000000E+00 0. -1.
         11    1    3    3    0    0 -0.21259471988E+02  0.11597876926E+02 -0.73582267385E+01  0.25310460276E+02  0.51100000000E-03 0. -1.
        -11    1    3    3    0    0  0.57950472691E+01  0.14000758312E+02 -0.42862611523E+00  0.15158744235E+02  0.51100000000E-03 0.  1.
        -12    1    3    3    0    0 -0.24109790586E+01  0.92405193429E+01 -0.31616859272E+01  0.10059635960E+02  0.00000000000E+00 0.  1.
</event>
<event>
 7    1  0.2891523E-011  0.5052886E+02  0.7816164E-02  0.1300439E+00
        -11   -1    0    0    0    0  0.00000000000E+00  0.00000000000E+00  0.45593999997E+02  0.45594000000E+02  0.51100000000E-03 0.  1.
         11   -1    0    0    0    0 -0.00000000000E+00 -0.00000000000E+00 -0.45593999997E+02  0.45594000000E+02  0.51100000000E-03 0. -1.
    9900012    2    1    2    0    0  0.37988248579E+02  0.33938864502E+01 -0.14090423476E+02  0.50528861678E+02  0.30000005556E+02 0.  0.
         12    1    1    2    0    0 -0.37988248579E+02 -0.33938864502E+01  0.14090423476E+02  0.40659138322E+02  0.00000000000E+00 0. -1.
         11    1    3    3    0    0  0.32123353194E+00 -0.79172450514E+01 -0.17955791159E+01  0.81246578272E+01  0.51100000000E-03 0. -1.
        -11    1    3    3    0    0  0.15131958734E+02  0.20804307296E+01 -0.34558616471E+00  0.15278213155E+02  0.51100000000E-03 0.  1.
         12    1    3    3    0    0  0.22535056313E+02  0.92307007720E+01 -0.11949258196E+02  0.27125990695E+02  0.00000000000E+00 0. -1.
</event>
<event>
 7    1  0.2891523E-011  0.5052886E+02  0.7816164E-02  0.1300439E+00
        -11   -1    0    0    0    0  0.00000000000E+00  0.00000000000E+00  0.45593999997E+02  0.45594000000E+02  0.51100000000E-03 0.  1.
         11   -1    0    0    0    0 -0.00000000000E+00 -0.00000000000E+00 -0.45593999997E+02  0.45594000000E+02  0.51100000000E-03 0. -1.
    9900012    2    1    2    0    0 -0.40970590759E+01 -0.45885511937E+01  0.40191109016E+02  0.50528856636E+02  0.29999990231E+02 0.  0.
         12    1    1    2    0    0  0.40970590759E+01  0.45885511937E+01 -0.40191109016E+02  0.40659143364E+02  0.00000000000E+00 0. -1.
         11    1    3    3    0    0  0.78042798402E+01  0.51871360338E+00  0.42485454311E+01  0.89008980540E+01  0.51100000000E-03 0. -1.
        -11    1    3    3    0    0 -0.44589108238E+01 -0.65305331089E+01  0.32237815380E+02  0.33193470580E+02  0.51100000000E-03 0.  1.
        -12    1    3    3    0    0 -0.74424280923E+01  0.14232683117E+01  0.37047482056E+01  0.84344880024E+01  0.00000000000E+00 0.  1.
</event>
<event>
 7    1  0.2891523E-011  0.5052885E+02  0.7816164E-02  0.1300439E+00
        -11   -1    0    0    0    0  0.00000000000E+00  0.00000000000E+00  0.45593999997E+02  0.45594000000E+02  0.51100000000E-03 0. -1.
         11   -1    0    0    0    0 -0.00000000000E+00 -0.00000000000E+00 -0.45593999997E+02  0.45594000000E+02  0.51100000000E-03 0.  1.
    9900012    2    1    2    0    0 -0.37282413561E+02 -0.26288687858E+01  0.16008663173E+02  0.50528848403E+02  0.29999965205E+02 0.  0.
         12    1    1    2    0    0  0.37282413561E+02  0.26288687858E+01 -0.16008663173E+02  0.40659151597E+02  0.00000000000E+00 0. -1.
         11    1    3    3    0    0 -0.25554655109E+00 -0.79929853025E+01  0.66700290948E+01  0.10413568383E+02  0.51100000000E-03 0. -1.
        -11    1    3    3    0    0 -0.20326140501E+02 -0.84876858152E+00  0.91211694627E+01  0.22295024746E+02  0.51100000000E-03 0.  1.
         12    1    3    3    0    0 -0.16700726509E+02  0.62128850982E+01  0.21746461556E+00  0.17820255274E+02  0.00000000000E+00 0. -1.
</event>
<event>
 7    1  0.2891523E-011  0.5052886E+02  0.7816164E-02  0.1300439E+00
        -11   -1    0    0    0    0  0.00000000000E+00  0.00000000000E+00  0.45593999997E+02  0.45594000000E+02  0.51100000000E-03 0.  1.
         11   -1    0    0    0    0 -0.00000000000E+00 -0.00000000000E+00 -0.45593999997E+02  0.45594000000E+02  0.51100000000E-03 0. -1.
    9900012    2    1    2    0    0 -0.34547713678E+02 -0.21080414859E+02  0.39035025433E+01  0.50528859046E+02  0.29999997555E+02 0.  0.
         12    1    1    2    0    0  0.34547713678E+02  0.21080414859E+02 -0.39035025433E+01  0.40659140954E+02  0.00000000000E+00 0. -1.
         11    1    3    3    0    0 -0.50380069459E+01 -0.37913566604E+00 -0.78974425348E+01  0.93752256875E+01  0.51100000000E-03 0. -1.
        -11    1    3    3    0    0 -0.31101716879E+02 -0.19311003454E+02  0.90986021805E+01  0.37722887073E+02  0.51100000000E-03 0.  1.
         12    1    3    3    0    0  0.15920101465E+01 -0.13902757397E+01  0.27023428976E+01  0.34307462854E+01  0.00000000000E+00 0. -1.
</event>
<event>
 7    1  0.2891523E-011  0.5052883E+02  0.7816164E-02  0.1300439E+00
        -11   -1    0    0    0    0  0.00000000000E+00  0.00000000000E+00  0.45593999997E+02  0.45594000000E+02  0.51100000000E-03 0.  1.
         11   -1    0    0    0    0 -0.00000000000E+00 -0.00000000000E+00 -0.45593999997E+02  0.45594000000E+02  0.51100000000E-03 0. -1.
    9900012    2    1    2    0    0  0.32370959061E+02  0.22248151381E+02 -0.10502818072E+02  0.50528826154E+02  0.29999897577E+02 0.  0.
         12    1    1    2    0    0 -0.32370959061E+02 -0.22248151381E+02  0.10502818072E+02  0.40659173846E+02  0.00000000000E+00 0. -1.
         11    1    3    3    0    0  0.96070303228E+01 -0.41586013967E+01 -0.11852247922E+01  0.10535357387E+02  0.51100000000E-03 0. -1.
        -11    1    3    3    0    0  0.17776267058E+02  0.26825036678E+02 -0.35790198655E+01  0.32378814783E+02  0.51100000000E-03 0.  1.
        -12    1    3    3    0    0  0.49876616804E+01 -0.41828390127E+00 -0.57385734140E+01  0.76146539835E+01  0.00000000000E+00 0.  1.
</event>
<event>
 7    1  0.2891523E-011  0.5052886E+02  0.7816164E-02  0.1300439E+00
        -11   -1    0    0    0    0  0.00000000000E+00  0.00000000000E+00  0.45593999997E+02  0.45594000000E+02  0.51100000000E-03 0.  1.
         11   -1    0    0    0    0 -0.00000000000E+00 -0.00000000000E+00 -0.45593999997E+02  0.45594000000E+02  0.51100000000E-03 0. -1.
    9900012    2    1    2    0    0 -0.16222635927E+02  0.37713598715E+01  0.37091349863E+02  0.50528864417E+02  0.30000013880E+02 0.  0.
         12    1    1    2    0    0  0.16222635927E+02 -0.37713598715E+01 -0.37091349863E+02  0.40659135583E+02  0.00000000000E+00 0. -1.
         11    1    3    3    0    0 -0.10430648426E+02  0.12528903834E+02  0.13164166468E+02  0.20953928914E+02  0.51100000000E-03 0. -1.
        -11    1    3    3    0    0  0.42672512912E+01 -0.37588882275E+00  0.55775968965E+01  0.70328026697E+01  0.51100000000E-03 0.  1.
        -12    1    3    3    0    0 -0.10059238792E+02 -0.83816551401E+01  0.18349586499E+02  0.22542132833E+02  0.00000000000E+00 0.  1.
</event>
<event>
 7    1  0.2891523E-011  0.5052886E+02  0.7816164E-02  0.1300439E+00
        -11   -1    0    0    0    0  0.00000000000E+00  0.00000000000E+00  0.45593999997E+02  0.45594000000E+02  0.51100000000E-03 0. -1.
         11   -1    0    0    0    0 -0.00000000000E+00 -0.00000000000E+00 -0.45593999997E+02  0.45594000000E+02  0.51100000000E-03 0.  1.
    9900012    2    1    2    0    0  0.27624919030E+02  0.39596812409E+01 -0.29569414083E+02  0.50528862329E+02  0.30000007534E+02 0.  0.
         12    1    1    2    0    0 -0.27624919030E+02 -0.39596812409E+01  0.29569414083E+02  0.40659137671E+02  0.00000000000E+00 0. -1.
         11    1    3    3    0    0  0.24264229070E+01  0.20533505069E+01  0.29395928640E+01  0.43295476548E+01  0.51100000000E-03 0. -1.
        -11    1    3    3    0    0  0.27020764694E+02 -0.33237998177E+01 -0.28046036189E+02  0.39086436471E+02  0.51100000000E-03 0.  1.
        -12    1    3    3    0    0 -0.18222685706E+01  0.52301305517E+01 -0.44629707586E+01  0.71128782025E+01  0.00000000000E+00 0.  1.
</event>
<event>
 7    1  0.2891523E-011  0.5052886E+02  0.7816164E-02  0.1300439E+00
        -11   -1    0    0    0    0  0.00000000000E+00  0.00000000000E+00  0.45593999997E+02  0.45594000000E+02  0.51100000000E-03 0. -1.
         11   -1    0    0    0    0 -0.00000000000E+00 -0.00000000000E+00 -0.45593999997E+02  0.45594000000E+02  0.51100000000E-03 0.  1.
    9900012    2    1    2    0    0  0.34365046190E+02  0.11491689796E+02 -0.18443170440E+02  0.50528857486E+02  0.29999992816E+02 0.  0.
         12    1    1    2    0    0 -0.34365046190E+02 -0.11491689796E+02  0.18443170440E+02  0.40659142514E+02  0.00000000000E+00 0. -1.
         11    1    3    3    0    0  0.15528610687E+01 -0.66584565914E+01 -0.15299931271E+01  0.70062330042E+01  0.51100000000E-03 0. -1.
        -11    1    3    3    0    0  0.15936149606E+02  0.16370802960E+02 -0.71216558813E+01  0.23930775929E+02  0.51100000000E-03 0.  1.
         12    1    3    3    0    0  0.16876035516E+02  0.17793434275E+01 -0.97915214319E+01  0.19591848553E+02  0.00000000000E+00 0. -1.
</event>
<event>
 7    1  0.2891523E-011  0.5052886E+02  0.7816164E-02  0.1300439E+00
        -11   -1    0    0    0    0  0.00000000000E+00  0.00000000000E+00  0.45593999997E+02  0.45594000000E+02  0.51100000000E-03 0.  1.
         11   -1    0    0    0    0 -0.00000000000E+00 -0.00000000000E+00 -0.45593999997E+02  0.45594000000E+02  0.51100000000E-03 0. -1.
    9900012    2    1    2    0    0  0.13054813207E+02  0.37728332935E+02 -0.77013356226E+01  0.50528858048E+02  0.29999994522E+02 0.  0.
         12    1    1    2    0    0 -0.13054813207E+02 -0.37728332935E+02  0.77013356226E+01  0.40659141952E+02  0.00000000000E+00 0. -1.
         11    1    3    3    0    0  0.39836216443E+01  0.40972968075E+01 -0.67469417261E+01  0.88418496623E+01  0.51100000000E-03 0. -1.
        -11    1    3    3    0    0 -0.36829398081E+01  0.52693324519E+01  0.70851597610E+01  0.95670998332E+01  0.51100000000E-03 0.  1.
        -12    1    3    3    0    0  0.12754131371E+02  0.28361703675E+02 -0.80395536575E+01  0.32119908552E+02  0.00000000000E+00 0.  1.
</event>
<event>
 7    1  0.2891523E-011  0.5052888E+02  0.7816164E-02  0.1300439E+00
        -11   -1    0    0    0    0  0.00000000000E+00  0.00000000000E+00  0.45593999997E+02  0.45594000000E+02  0.51100000000E-03 0.  1.
         11   -1    0    0    0    0 -0.00000000000E+00 -0.00000000000E+00 -0.45593999997E+02  0.45594000000E+02  0.51100000000E-03 0. -1.
    9900012    2    1    2    0    0  0.39461801544E+02  0.87426558845E+01  0.44154477233E+01  0.50528880585E+02  0.30000063027E+02 0.  0.
         12    1    1    2    0    0 -0.39461801544E+02 -0.87426558845E+01 -0.44154477233E+01  0.40659119415E+02  0.00000000000E+00 0. -1.
         11    1    3    3    0    0  0.29394199699E+00  0.61318029117E+01 -0.50518892082E+01  0.79502826163E+01  0.51100000000E-03 0. -1.
        -11    1    3    3    0    0  0.37198569278E+02  0.18775810127E+01  0.49203504800E+01  0.37569518441E+02  0.51100000000E-03 0.  1.
         12    1    3    3    0    0  0.19692902686E+01  0.73327196013E+00  0.45469864514E+01  0.50090795281E+01  0.00000000000E+00 0. -1.
</event>
<event>
 7    1  0.2891523E-011  0.5052884E+02  0.7816164E-02  0.1300439E+00
        -11   -1    0    0    0    0  0.00000000000E+00  0.00000000000E+00  0.45593999997E+02  0.45594000000E+02  0.51100000000E-03 0.  1.
         11   -1    0    0    0    0 -0.00000000000E+00 -0.00000000000E+00 -0.45593999997E+02  0.45594000000E+02  0.51100000000E-03 0. -1.
    9900012    2    1    2    0    0 -0.25542473184E+02 -0.11778015429E+02  0.29360301571E+02  0.50528844916E+02  0.29999954606E+02 0.  0.
         12    1    1    2    0    0  0.25542473184E+02  0.11778015429E+02 -0.29360301571E+02  0.40659155084E+02  0.00000000000E+00 0. -1.
         11    1    3    3    0    0  0.71959901462E+00 -0.12850090272E+02  0.43832289176E+01  0.13596151615E+02  0.51100000000E-03 0. -1.
        -11    1    3    3    0    0 -0.14724277390E+02  0.20187546585E+01  0.18277468521E+02  0.23557282756E+02  0.51100000000E-03 0.  1.
         12    1    3    3    0    0 -0.11537794809E+02 -0.94667981603E+00  0.66996041323E+01  0.13375410545E+02  0.00000000000E+00 0. -1.
</event>
<event>
 7    1  0.2891523E-011  0.5052886E+02  0.7816164E-02  0.1300439E+00
        -11   -1    0    0    0    0  0.00000000000E+00  0.00000000000E+00  0.45593999997E+02  0.45594000000E+02  0.51100000000E-03 0. -1.
         11   -1    0    0    0    0 -0.00000000000E+00 -0.00000000000E+00 -0.45593999997E+02  0.45594000000E+02  0.51100000000E-03 0.  1.
    9900012    2    1    2    0    0  0.17589502576E+02 -0.24305961606E+01 -0.36576864526E+02  0.50528863055E+02  0.30000009741E+02 0.  0.
         12    1    1    2    0    0 -0.17589502576E+02  0.24305961606E+01  0.36576864526E+02  0.40659136945E+02  0.00000000000E+00 0. -1.
         11    1    3    3    0    0  0.61179074494E+01  0.68309824603E+00 -0.65675381607E+01  0.90015538951E+01  0.51100000000E-03 0. -1.
        -11    1    3    3    0    0  0.11465385962E+02  0.10114446707E+02 -0.13712301421E+02  0.20537388295E+02  0.51100000000E-03 0.  1.
        -12    1    3    3    0    0  0.62091642542E-02 -0.13228141114E+02 -0.16297024944E+02  0.20989920865E+02  0.00000000000E+00 0.  1.
</event>
<event>
 7    1  0.2891523E-011  0.5052886E+02  0.7816164E-02  0.1300439E+00
        -11   -1    0    0    0    0  0.00000000000E+00  0.00000000000E+00  0.45593999997E+02  0.45594000000E+02  0.51100000000E-03 0.  1.
         11   -1    0    0    0    0 -0.00000000000E+00 -0.00000000000E+00 -0.45593999997E+02  0.45594000000E+02  0.51100000000E-03 0. -1.
    9900012    2    1    2    0    0  0.28305369363E+02 -0.95228038873E+01  0.27591441596E+02  0.50528863536E+02  0.30000011204E+02 0.  0.
         12    1    1    2    0    0 -0.28305369363E+02  0.95228038873E+01 -0.27591441596E+02  0.40659136464E+02  0.00000000000E+00 0. -1.
         11    1    3    3    0    0  0.21532893313E+02 -0.47275860666E+01  0.25704163862E+02  0.33863248582E+02  0.51100000000E-03 0.  1.
        -11    1    3    3    0    0  0.69628711822E+01  0.29999529767E+01 -0.21559014696E+01  0.78822080898E+01  0.51100000000E-03 0. -1.
         12    1    3    3    0    0 -0.19039513156E+00 -0.77951707974E+01  0.40431792037E+01  0.87834068640E+01  0.00000000000E+00 0. -1.
</event>
<event>
 7    1  0.2891523E-011  0.5052886E+02  0.7816164E-02  0.1300439E+00
        -11   -1    0    0    0    0  0.00000000000E+00  0.00000000000E+00  0.45593999997E+02  0.45594000000E+02  0.51100000000E-03 0. -1.
         11   -1    0    0    0    0 -0.00000000000E+00 -0.00000000000E+00 -0.45593999997E+02  0.45594000000E+02  0.51100000000E-03 0.  1.
    9900012    2    1    2    0    0  0.79950088034E+01 -0.23281598348E+02 -0.32360664851E+02  0.50528860597E+02  0.30000002270E+02 0.  0.
         12    1    1    2    0    0 -0.79950088034E+01  0.23281598348E+02  0.32360664851E+02  0.40659139403E+02  0.00000000000E+00 0. -1.
         11    1    3    3    0    0  0.56920214319E+01  0.16605415924E+00 -0.22524198996E+01  0.61237306954E+01  0.51100000000E-03 0. -1.
        -11    1    3    3    0    0 -0.61678803900E+01 -0.21544734016E+02 -0.14958294379E+02  0.26943809740E+02  0.51100000000E-03 0.  1.
        -12    1    3    3    0    0  0.84708677615E+01 -0.19029184911E+01 -0.15149950573E+02  0.17461320162E+02  0.00000000000E+00 0.  1.
</event>
<event>
 7    1  0.2891523E-011  0.5052886E+02  0.7816164E-02  0.1300439E+00
        -11   -1    0    0    0    0  0.00000000000E+00  0.00000000000E+00  0.45593999997E+02  0.45594000000E+02  0.51100000000E-03 0.  1.
         11   -1    0    0    0    0 -0.00000000000E+00 -0.00000000000E+00 -0.45593999997E+02  0.45594000000E+02  0.51100000000E-03 0. -1.
    9900012    2    1    2    0    0  0.28273826496E+02  0.22895368715E+02 -0.18153754969E+02  0.50528855975E+02  0.29999988223E+02 0.  0.
         12    1    1    2    0    0 -0.28273826496E+02 -0.22895368715E+02  0.18153754969E+02  0.40659144025E+02  0.00000000000E+00 0. -1.
         11    1    3    3    0    0  0.34259026756E+01  0.12965682246E+02 -0.22274712782E+01  0.13594386849E+02  0.51100000000E-03 0.  1.
        -11    1    3    3    0    0  0.91781260917E+01 -0.59928820801E+01 -0.46014532749E+01  0.11888061519E+02  0.51100000000E-03 0. -1.
        -12    1    3    3    0    0  0.15669797729E+02  0.15922568550E+02 -0.11324830416E+02  0.25046407607E+02  0.00000000000E+00 0.  1.
</event>
<event>
 7    1  0.2891523E-011  0.5052886E+02  0.7816164E-02  0.1300439E+00
        -11   -1    0    0    0    0  0.00000000000E+00  0.00000000000E+00  0.45593999997E+02  0.45594000000E+02  0.51100000000E-03 0.  1.
         11   -1    0    0    0    0 -0.00000000000E+00 -0.00000000000E+00 -0.45593999997E+02  0.45594000000E+02  0.51100000000E-03 0. -1.
    9900012    2    1    2    0    0  0.21510551457E+02  0.24107316780E+02  0.24683991495E+02  0.50528856103E+02  0.29999988611E+02 0.  0.
         12    1    1    2    0    0 -0.21510551457E+02 -0.24107316780E+02 -0.24683991495E+02  0.40659143897E+02  0.00000000000E+00 0. -1.
         11    1    3    3    0    0  0.39867515900E+01  0.83837239685E+01 -0.19653173498E+01  0.94891247419E+01  0.51100000000E-03 0. -1.
        -11    1    3    3    0    0  0.15847913233E+02  0.20635136553E+02  0.22390103063E+02  0.34326111487E+02  0.51100000000E-03 0.  1.
        -12    1    3    3    0    0  0.16758866335E+01 -0.49115437408E+01  0.42592057816E+01  0.67136198742E+01  0.00000000000E+00 0.  1.
</event>
<event>
 7    1  0.2891523E-011  0.5052884E+02  0.7816164E-02  0.1300439E+00
        -11   -1    0    0    0    0  0.00000000000E+00  0.00000000000E+00  0.45593999997E+02  0.45594000000E+02  0.51100000000E-03 0.  1.
         11   -1    0    0    0    0 -0.00000000000E+00 -0.00000000000E+00 -0.45593999997E+02  0.45594000000E+02  0.51100000000E-03 0. -1.
    9900012    2    1    2    0    0 -0.17733291918E+02  0.26890109021E+02  0.24811686255E+02  0.50528838914E+02  0.29999936361E+02 0.  0.
         12    1    1    2    0    0  0.17733291918E+02 -0.26890109021E+02 -0.24811686255E+02  0.40659161086E+02  0.00000000000E+00 0. -1.
         11    1    3    3    0    0 -0.15308601976E+02  0.95049495062E+01  0.61125808002E+01  0.19027900669E+02  0.51100000000E-03 0. -1.
        -11    1    3    3    0    0 -0.33874892162E+00  0.21056067410E+02  0.16414153704E+02  0.26700134226E+02  0.51100000000E-03 0.  1.
        -12    1    3    3    0    0 -0.20859410201E+01 -0.36709078951E+01  0.22849517511E+01  0.48008040179E+01  0.00000000000E+00 0.  1.
</event>
<event>
 7    1  0.2891523E-011  0.5052887E+02  0.7816164E-02  0.1300439E+00
        -11   -1    0    0    0    0  0.00000000000E+00  0.00000000000E+00  0.45593999997E+02  0.45594000000E+02  0.51100000000E-03 0.  1.
         11   -1    0    0    0    0 -0.00000000000E+00 -0.00000000000E+00 -0.45593999997E+02  0.45594000000E+02  0.51100000000E-03 0. -1.
    9900012    2    1    2    0    0 -0.14285895116E+02 -0.17085682122E+02  0.34017013708E+02  0.50528873664E+02  0.30000041988E+02 0.  0.
         12    1    1    2    0    0  0.14285895116E+02  0.17085682122E+02 -0.34017013708E+02  0.40659126336E+02  0.00000000000E+00 0. -1.
         11    1    3    3    0    0  0.35170682055E+01 -0.72660189745E+00 -0.19127315262E+01  0.40689385879E+01  0.51100000000E-03 0. -1.
        -11    1    3    3    0    0 -0.52408066012E+00 -0.10994732478E+02  0.17185974016E+02  0.20408736020E+02  0.51100000000E-03 0.  1.
        -12    1    3    3    0    0 -0.17278882661E+02 -0.53643477471E+01  0.18743771218E+02  0.26051199056E+02  0.00000000000E+00 0.  1.
</event>
<event>
 7    1  0.2891523E-011  0.5052886E+02  0.7816164E-02  0.1300439E+00
        -11   -1    0    0    0    0  0.00000000000E+00  0.00000000000E+00  0.45593999997E+02  0.45594000000E+02  0.51100000000E-03 0.  1.
         11   -1    0    0    0    0 -0.00000000000E+00 -0.00000000000E+00 -0.45593999997E+02  0.45594000000E+02  0.51100000000E-03 0. -1.
    9900012    2    1    2    0    0  0.21733919555E+02 -0.19519345913E+02  0.28280690960E+02  0.50528860741E+02  0.30000002707E+02 0.  0.
         12    1    1    2    0    0 -0.21733919555E+02  0.19519345913E+02 -0.28280690960E+02  0.40659139259E+02  0.00000000000E+00 0. -1.
         11    1    3    3    0    0  0.18893581105E+02 -0.23336678550E+02  0.15757341983E+02  0.33909612197E+02  0.51100000000E-03 0. -1.
        -11    1    3    3    0    0  0.52825234371E+01  0.21262215092E+01  0.25982294006E+01  0.62591267801E+01  0.51100000000E-03 0.  1.
         12    1    3    3    0    0 -0.24421849863E+01  0.16911111277E+01  0.99251195760E+01  0.10360121763E+02  0.00000000000E+00 0. -1.
</event>
<event>
 7    1  0.2891523E-011  0.5052886E+02  0.7816164E-02  0.1300439E+00
        -11   -1    0    0    0    0  0.00000000000E+00  0.00000000000E+00  0.45593999997E+02  0.45594000000E+02  0.51100000000E-03 0.  1.
         11   -1    0    0    0    0 -0.00000000000E+00 -0.00000000000E+00 -0.45593999997E+02  0.45594000000E+02  0.51100000000E-03 0. -1.
    9900012    2    1    2    0    0 -0.21793313781E+01  0.37016140396E+02  0.16679966600E+02  0.50528863009E+02  0.30000009602E+02 0.  0.
         12    1    1    2    0    0  0.21793313781E+01 -0.37016140396E+02 -0.16679966600E+02  0.40659136991E+02  0.00000000000E+00 0. -1.
         11    1    3    3    0    0 -0.25608233151E+01  0.91882257038E+00  0.57886321539E+01  0.63961170597E+01  0.51100000000E-03 0. -1.
        -11    1    3    3    0    0  0.90328719479E+01  0.26287502998E+02  0.13330755823E+02  0.30827498124E+02  0.51100000000E-03 0.  1.
        -12    1    3    3    0    0 -0.86513800109E+01  0.98098148274E+01 -0.24394213766E+01  0.13305247825E+02  0.00000000000E+00 0.  1.
</event>
<event>
 7    1  0.2891523E-011  0.5052886E+02  0.7816164E-02  0.1300439E+00
        -11   -1    0    0    0    0  0.00000000000E+00  0.00000000000E+00  0.45593999997E+02  0.45594000000E+02  0.51100000000E-03 0.  1.
         11   -1    0    0    0    0 -0.00000000000E+00 -0.00000000000E+00 -0.45593999997E+02  0.45594000000E+02  0.51100000000E-03 0. -1.
    9900012    2    1    2    0    0  0.42926742155E+01 -0.23061104130E+02  0.33210305025E+02  0.50528856680E+02  0.29999990365E+02 0.  0.
         12    1    1    2    0    0 -0.42926742155E+01  0.23061104130E+02 -0.33210305025E+02  0.40659143320E+02  0.00000000000E+00 0. -1.
         11    1    3    3    0    0  0.67871606661E+00 -0.27002648538E+02  0.21955226259E+02  0.34808557050E+02  0.51100000000E-03 0. -1.
        -11    1    3    3    0    0  0.61904823179E+01  0.52532486511E+00  0.43045234591E+01  0.75582378908E+01  0.51100000000E-03 0.  1.
         12    1    3    3    0    0 -0.25765241690E+01  0.34162195426E+01  0.69505553077E+01  0.81620617396E+01  0.00000000000E+00 0. -1.
</event>
<event>
 7    1  0.2891523E-011  0.5052884E+02  0.7816164E-02  0.1300439E+00
        -11   -1    0    0    0    0  0.00000000000E+00  0.00000000000E+00  0.45593999997E+02  0.45594000000E+02  0.51100000000E-03 0.  1.
         11   -1    0    0    0    0 -0.00000000000E+00 -0.00000000000E+00 -0.45593999997E+02  0.45594000000E+02  0.51100000000E-03 0. -1.
    9900012    2    1    2    0    0  0.23770288191E+02  0.55981682677E+01  0.32508473868E+02  0.50528844059E+02  0.29999952002E+02 0.  0.
         12    1    1    2    0    0 -0.23770288191E+02 -0.55981682677E+01 -0.32508473868E+02  0.40659155941E+02  0.00000000000E+00 0. -1.
         11    1    3    3    0    0  0.21411163568E+01  0.50772469848E+01 -0.10520687675E+01  0.56097829861E+01  0.51100000000E-03 0. -1.
        -11    1    3    3    0    0  0.19990499326E+02  0.81397680457E+01  0.20851916869E+02  0.30011303279E+02  0.51100000000E-03 0.  1.
        -12    1    3    3    0    0  0.16386725084E+01 -0.76188467628E+01  0.12708625766E+02  0.14907757794E+02  0.00000000000E+00 0.  1.
</event>
<event>
 7    1  0.2891523E-011  0.5052885E+02  0.7816164E-02  0.1300439E+00
        -11   -1    0    0    0    0  0.00000000000E+00  0.00000000000E+00  0.45593999997E+02  0.45594000000E+02  0.51100000000E-03 0.  1.
         11   -1    0    0    0    0 -0.00000000000E+00 -0.00000000000E+00 -0.45593999997E+02  0.45594000000E+02  0.51100000000E-03 0. -1.
    9900012    2    1    2    0    0  0.13469858030E+02  0.38168728795E+02 -0.38571302989E+01  0.50528851124E+02  0.29999973477E+02 0.  0.
         12    1    1    2    0    0 -0.13469858030E+02 -0.38168728795E+02  0.38571302989E+01  0.40659148876E+02  0.00000000000E+00 0. -1.
         11    1    3    3    0    0  0.24666775131E+01  0.23235039129E+02  0.24686067155E+01  0.23495649824E+02  0.51100000000E-03 0. -1.
        -11    1    3    3    0    0  0.10141475102E+02  0.22893986855E+01  0.35287251977E+01  0.10979196936E+02  0.51100000000E-03 0.  1.
         12    1    3    3    0    0  0.86170541555E+00  0.12644290981E+02 -0.98544622122E+01  0.16054004364E+02  0.00000000000E+00 0. -1.
</event>
<event>
 7    1  0.2891523E-011  0.5052885E+02  0.7816164E-02  0.1300439E+00
        -11   -1    0    0    0    0  0.00000000000E+00  0.00000000000E+00  0.45593999997E+02  0.45594000000E+02  0.51100000000E-03 0.  1.
         11   -1    0    0    0    0 -0.00000000000E+00 -0.00000000000E+00 -0.45593999997E+02  0.45594000000E+02  0.51100000000E-03 0. -1.
    9900012    2    1    2    0    0 -0.39360444867E+02 -0.95820563546E+01  0.34793388851E+01  0.50528853142E+02  0.29999979612E+02 0.  0.
         12    1    1    2    0    0  0.39360444867E+02  0.95820563546E+01 -0.34793388851E+01  0.40659146858E+02  0.00000000000E+00 0. -1.
         11    1    3    3    0    0  0.65336026940E+00 -0.74869516913E+01 -0.22825293777E+01  0.78543787718E+01  0.51100000000E-03 0. -1.
        -11    1    3    3    0    0 -0.37607661133E+02 -0.51709245637E+01  0.34065655968E+01  0.38114030568E+02  0.51100000000E-03 0.  1.
         12    1    3    3    0    0 -0.24061440034E+01  0.30758199004E+01  0.23553026659E+01  0.45604438022E+01  0.00000000000E+00 0. -1.
</event>
<event>
 7    1  0.2891523E-011  0.5052888E+02  0.7816164E-02  0.1300439E+00
        -11   -1    0    0    0    0  0.00000000000E+00  0.00000000000E+00  0.45593999997E+02  0.45594000000E+02  0.51100000000E-03 0.  1.
         11   -1    0    0    0    0 -0.00000000000E+00 -0.00000000000E+00 -0.45593999997E+02  0.45594000000E+02  0.51100000000E-03 0. -1.
    9900012    2    1    2    0    0  0.56822974385E+01 -0.15000480175E+02  0.37361229692E+02  0.50528875640E+02  0.30000047994E+02 0.  0.
         12    1    1    2    0    0 -0.56822974385E+01  0.15000480175E+02 -0.37361229692E+02  0.40659124360E+02  0.00000000000E+00 0. -1.
         11    1    3    3    0    0  0.70894734972E+01 -0.80965003380E+01  0.35808139678E+01  0.11341789150E+02  0.51100000000E-03 0. -1.
        -11    1    3    3    0    0 -0.60814137811E+01 -0.94286927507E+01  0.31439823123E+02  0.33381826176E+02  0.51100000000E-03 0.  1.
        -12    1    3    3    0    0  0.46742377225E+01  0.25247129142E+01  0.23405926012E+01  0.58052603137E+01  0.00000000000E+00 0.  1.
</event>
<event>
 7    1  0.2891523E-011  0.5052882E+02  0.7816164E-02  0.1300439E+00
        -11   -1    0    0    0    0  0.00000000000E+00  0.00000000000E+00  0.45593999997E+02  0.45594000000E+02  0.51100000000E-03 0.  1.
         11   -1    0    0    0    0 -0.00000000000E+00 -0.00000000000E+00 -0.45593999997E+02  0.45594000000E+02  0.51100000000E-03 0. -1.
    9900012    2    1    2    0    0 -0.49327678636E+01  0.93016327368E+01  0.39272338551E+02  0.50528817204E+02  0.29999870372E+02 0.  0.
         12    1    1    2    0    0  0.49327678636E+01 -0.93016327368E+01 -0.39272338551E+02  0.40659182796E+02  0.00000000000E+00 0. -1.
         11    1    3    3    0    0 -0.57222696267E+01 -0.52737644843E+01  0.13609427013E+01  0.78999447349E+01  0.51100000000E-03 0. -1.
        -11    1    3    3    0    0  0.33217879188E+01  0.16126281091E+02  0.30855949153E+02  0.34974001990E+02  0.51100000000E-03 0.  1.
        -12    1    3    3    0    0 -0.25322861557E+01 -0.15508838701E+01  0.70554466973E+01  0.76548704791E+01  0.00000000000E+00 0.  1.
</event>
<event>
 7    1  0.2891523E-011  0.5052886E+02  0.7816164E-02  0.1300439E+00
        -11   -1    0    0    0    0  0.00000000000E+00  0.00000000000E+00  0.45593999997E+02  0.45594000000E+02  0.51100000000E-03 0.  1.
         11   -1    0    0    0    0 -0.00000000000E+00 -0.00000000000E+00 -0.45593999997E+02  0.45594000000E+02  0.51100000000E-03 0. -1.
    9900012    2    1    2    0    0  0.33100032622E+02 -0.20686733632E+02  0.11384751790E+02  0.50528859807E+02  0.29999999869E+02 0.  0.
         12    1    1    2    0    0 -0.33100032622E+02  0.20686733632E+02 -0.11384751790E+02  0.40659140193E+02  0.00000000000E+00 0. -1.
         11    1    3    3    0    0  0.21936426209E+02 -0.16768634112E+01  0.10316703359E+02  0.24299239374E+02  0.51100000000E-03 0.  1.
        -11    1    3    3    0    0  0.89126154537E+01 -0.10694004127E+02 -0.59289294356E+01  0.15131048972E+02  0.51100000000E-03 0. -1.
        -12    1    3    3    0    0  0.22509909596E+01 -0.83158660936E+01  0.69969778664E+01  0.11098571460E+02  0.00000000000E+00 0.  1.
</event>
<event>
 7    1  0.2891523E-011  0.5052886E+02  0.7816164E-02  0.1300439E+00
        -11   -1    0    0    0    0  0.00000000000E+00  0.00000000000E+00  0.45593999997E+02  0.45594000000E+02  0.51100000000E-03 0.  1.
         11   -1    0    0    0    0 -0.00000000000E+00 -0.00000000000E+00 -0.45593999997E+02  0.45594000000E+02  0.51100000000E-03 0. -1.
    9900012    2    1    2    0    0 -0.22697419206E+02  0.30854013966E+02  0.13639015869E+02  0.50528858711E+02  0.29999996539E+02 0.  0.
         12    1    1    2    0    0  0.22697419206E+02 -0.30854013966E+02 -0.13639015869E+02  0.40659141289E+02  0.00000000000E+00 0. -1.
         11    1    3    3    0    0  0.48750045437E-02  0.21351183005E+02  0.43045248123E+01  0.21780770731E+02  0.51100000000E-03 0. -1.
        -11    1    3    3    0    0 -0.10232173904E+02  0.10359046856E+02  0.64218025918E+01  0.15913729399E+02  0.51100000000E-03 0.  1.
         12    1    3    3    0    0 -0.12470120307E+02 -0.85621589566E+00  0.29126884654E+01  0.12834358582E+02  0.00000000000E+00 0. -1.
</event>
<event>
 7    1  0.2891523E-011  0.5052886E+02  0.7816164E-02  0.1300439E+00
        -11   -1    0    0    0    0  0.00000000000E+00  0.00000000000E+00  0.45593999997E+02  0.45594000000E+02  0.51100000000E-03 0. -1.
         11   -1    0    0    0    0 -0.00000000000E+00 -0.00000000000E+00 -0.45593999997E+02  0.45594000000E+02  0.51100000000E-03 0.  1.
    9900012    2    1    2    0    0 -0.28143898059E+02  0.14894069486E+02 -0.25283462208E+02  0.50528858776E+02  0.29999996737E+02 0.  0.
         12    1    1    2    0    0  0.28143898059E+02 -0.14894069486E+02  0.25283462208E+02  0.40659141224E+02  0.00000000000E+00 0. -1.
         11    1    3    3    0    0  0.25725790019E+01 -0.44885169672E+01 -0.51067118008E+00  0.51986279537E+01  0.51100000000E-03 0. -1.
        -11    1    3    3    0    0 -0.18410535065E+02  0.16022977276E+02 -0.11704102543E+02  0.27067870599E+02  0.51100000000E-03 0.  1.
         12    1    3    3    0    0 -0.12305941996E+02  0.33596091774E+01 -0.13068688485E+02  0.18262360224E+02  0.00000000000E+00 0. -1.
</event>
<event>
 7    1  0.2891523E-011  0.5052884E+02  0.7816164E-02  0.1300439E+00
        -11   -1    0    0    0    0  0.00000000000E+00  0.00000000000E+00  0.45593999997E+02  0.45594000000E+02  0.51100000000E-03 0.  1.
         11   -1    0    0    0    0 -0.00000000000E+00 -0.00000000000E+00 -0.45593999997E+02  0.45594000000E+02  0.51100000000E-03 0. -1.
    9900012    2    1    2    0    0 -0.20118163116E+02  0.27551395102E+02  0.22121195406E+02  0.50528841801E+02  0.29999945140E+02 0.  0.
         12    1    1    2    0    0  0.20118163116E+02 -0.27551395102E+02 -0.22121195406E+02  0.40659158199E+02  0.00000000000E+00 0. -1.
         11    1    3    3    0    0 -0.71520900386E+01  0.13794511410E+00  0.77961358629E+01  0.10580697304E+02  0.51100000000E-03 0. -1.
        -11    1    3    3    0    0 -0.72478350696E+01  0.29655878268E+02  0.14513563701E+02  0.33803043659E+02  0.51100000000E-03 0.  1.
        -12    1    3    3    0    0 -0.57182380077E+01 -0.22424282801E+01 -0.18850415787E+00  0.61451008390E+01  0.00000000000E+00 0.  1.
</event>
<event>
 7    1  0.2891523E-011  0.5052886E+02  0.7816164E-02  0.1300439E+00
        -11   -1    0    0    0    0  0.00000000000E+00  0.00000000000E+00  0.45593999997E+02  0.45594000000E+02  0.51100000000E-03 0.  1.
         11   -1    0    0    0    0 -0.00000000000E+00 -0.00000000000E+00 -0.45593999997E+02  0.45594000000E+02  0.51100000000E-03 0. -1.
    9900012    2    1    2    0    0 -0.21073816513E+02 -0.17297896865E+02  0.30163599859E+02  0.50528859148E+02  0.29999997866E+02 0.  0.
         12    1    1    2    0    0  0.21073816513E+02  0.17297896865E+02 -0.30163599859E+02  0.40659140852E+02  0.00000000000E+00 0. -1.
         11    1    3    3    0    0 -0.58832523623E+01 -0.15073712876E+02  0.11855859663E+02  0.20059683119E+02  0.51100000000E-03 0.  1.
        -11    1    3    3    0    0 -0.10330384161E+02  0.75029499538E+01  0.13496219709E+02  0.18578456384E+02  0.51100000000E-03 0. -1.
         12    1    3    3    0    0 -0.48601799894E+01 -0.97271339427E+01  0.48115204864E+01  0.11890719644E+02  0.00000000000E+00 0. -1.
</event>
<event>
 7    1  0.2891523E-011  0.5052880E+02  0.7816164E-02  0.1300439E+00
        -11   -1    0    0    0    0  0.00000000000E+00  0.00000000000E+00  0.45593999997E+02  0.45594000000E+02  0.51100000000E-03 0.  1.
         11   -1    0    0    0    0 -0.00000000000E+00 -0.00000000000E+00 -0.45593999997E+02  0.45594000000E+02  0.51100000000E-03 0. -1.
    9900012    2    1    2    0    0  0.71726370795E+01 -0.39575574431E+02  0.59580154749E+01  0.50528797319E+02  0.29999809932E+02 0.  0.
         12    1    1    2    0    0 -0.71726370795E+01  0.39575574431E+02 -0.59580154749E+01  0.40659202681E+02  0.00000000000E+00 0. -1.
         11    1    3    3    0    0  0.10550012112E+02 -0.48096596853E+01 -0.22875245399E+01  0.11818136513E+02  0.51100000000E-03 0. -1.
        -11    1    3    3    0    0 -0.59874127339E+01 -0.98596937958E+01  0.72981989743E+01  0.13650142180E+02  0.51100000000E-03 0.  1.
         12    1    3    3    0    0  0.26100377011E+01 -0.24906220950E+02  0.94734104058E+00  0.25060518627E+02  0.00000000000E+00 0. -1.
</event>
<event>
 7    1  0.2891523E-011  0.5052887E+02  0.7816164E-02  0.1300439E+00
        -11   -1    0    0    0    0  0.00000000000E+00  0.00000000000E+00  0.45593999997E+02  0.45594000000E+02  0.51100000000E-03 0.  1.
         11   -1    0    0    0    0 -0.00000000000E+00 -0.00000000000E+00 -0.45593999997E+02  0.45594000000E+02  0.51100000000E-03 0. -1.
    9900012    2    1    2    0    0  0.94991493604E+00  0.34714644368E+02  0.21146055628E+02  0.50528873833E+02  0.30000042503E+02 0.  0.
         12    1    1    2    0    0 -0.94991493604E+00 -0.34714644368E+02 -0.21146055628E+02  0.40659126167E+02  0.00000000000E+00 0. -1.
         11    1    3    3    0    0  0.14169312345E+01 -0.56068722401E-01 -0.47774872590E+01  0.49834950182E+01  0.51100000000E-03 0. -1.
        -11    1    3    3    0    0  0.27501763121E+01  0.24304535003E+02  0.24295926170E+02  0.34475584407E+02  0.51100000000E-03 0.  1.
         12    1    3    3    0    0 -0.32171926106E+01  0.10466178088E+02  0.16276167168E+01  0.11069794408E+02  0.00000000000E+00 0. -1.
</event>
<event>
 7    1  0.2891523E-011  0.5052886E+02  0.7816164E-02  0.1300439E+00
        -11   -1    0    0    0    0  0.00000000000E+00  0.00000000000E+00  0.45593999997E+02  0.45594000000E+02  0.51100000000E-03 0. -1.
         11   -1    0    0    0    0 -0.00000000000E+00 -0.00000000000E+00 -0.45593999997E+02  0.45594000000E+02  0.51100000000E-03 0.  1.
    9900012    2    1    2    0    0 -0.22122239668E+02  0.58376647967E+01 -0.33610919569E+02  0.50528859177E+02  0.29999997954E+02 0.  0.
         12    1    1    2    0    0  0.22122239668E+02 -0.58376647967E+01  0.33610919569E+02  0.40659140823E+02  0.00000000000E+00 0. -1.
         11    1    3    3    0    0 -0.76572272705E+01  0.46820824023E+01 -0.12587728116E+02  0.15459816444E+02  0.51100000000E-03 0. -1.
        -11    1    3    3    0    0 -0.15164034875E+02 -0.58804128009E+01 -0.41664923714E+01  0.16789486810E+02  0.51100000000E-03 0.  1.
        -12    1    3    3    0    0  0.69902247771E+00  0.70359951952E+01 -0.16856699082E+02  0.18279555923E+02  0.00000000000E+00 0.  1.
</event>
<event>
 7    1  0.2891523E-011  0.5052886E+02  0.7816164E-02  0.1300439E+00
        -11   -1    0    0    0    0  0.00000000000E+00  0.00000000000E+00  0.45593999997E+02  0.45594000000E+02  0.51100000000E-03 0.  1.
         11   -1    0    0    0    0 -0.00000000000E+00 -0.00000000000E+00 -0.45593999997E+02  0.45594000000E+02  0.51100000000E-03 0. -1.
    9900012    2    1    2    0    0  0.19572136825E+02 -0.15266719586E+02  0.32202863832E+02  0.50528859505E+02  0.29999998951E+02 0.  0.
         12    1    1    2    0    0 -0.19572136825E+02  0.15266719586E+02 -0.32202863832E+02  0.40659140495E+02  0.00000000000E+00 0. -1.
         11    1    3    3    0    0 -0.18116747489E+01  0.52175525205E+01  0.17097913098E+00  0.55257808339E+01  0.51100000000E-03 0. -1.
        -11    1    3    3    0    0  0.11531062812E+02 -0.16408379176E+02  0.15568825977E+02  0.25388750645E+02  0.51100000000E-03 0.  1.
         12    1    3    3    0    0  0.98527487623E+01 -0.40758929300E+01  0.16463058724E+02  0.19614328026E+02  0.00000000000E+00 0. -1.
</event>
<event>
 7    1  0.2891523E-011  0.5052886E+02  0.7816164E-02  0.1300439E+00
        -11   -1    0    0    0    0  0.00000000000E+00  0.00000000000E+00  0.45593999997E+02  0.45594000000E+02  0.51100000000E-03 0.  1.
         11   -1    0    0    0    0 -0.00000000000E+00 -0.00000000000E+00 -0.45593999997E+02  0.45594000000E+02  0.51100000000E-03 0. -1.
    9900012    2    1    2    0    0  0.14340501626E+02 -0.28334082925E+01  0.37940574542E+02  0.50528863437E+02  0.30000010903E+02 0.  0.
         12    1    1    2    0    0 -0.14340501626E+02  0.28334082925E+01 -0.37940574542E+02  0.40659136563E+02  0.00000000000E+00 0. -1.
         11    1    3    3    0    0  0.61818403988E+01 -0.17909376794E+01  0.75404936611E+01  0.99137103751E+01  0.51100000000E-03 0. -1.
        -11    1    3    3    0    0 -0.55787078657E+01 -0.63065960203E+01  0.20355444037E+01  0.86624809434E+01  0.51100000000E-03 0.  1.
        -12    1    3    3    0    0  0.13737369093E+02  0.52641254071E+01  0.28364536478E+02  0.31952672118E+02  0.00000000000E+00 0.  1.
</event>
<event>
 7    1  0.2891523E-011  0.5052885E+02  0.7816164E-02  0.1300439E+00
        -11   -1    0    0    0    0  0.00000000000E+00  0.00000000000E+00  0.45593999997E+02  0.45594000000E+02  0.51100000000E-03 0.  1.
         11   -1    0    0    0    0 -0.00000000000E+00 -0.00000000000E+00 -0.45593999997E+02  0.45594000000E+02  0.51100000000E-03 0. -1.
    9900012    2    1    2    0    0  0.34504329378E+02  0.13259391770E+02  0.16935345719E+02  0.50528854035E+02  0.29999982326E+02 0.  0.
         12    1    1    2    0    0 -0.34504329378E+02 -0.13259391770E+02 -0.16935345719E+02  0.40659145965E+02  0.00000000000E+00 0. -1.
         11    1    3    3    0    0 -0.21563359937E+00 -0.80194351404E+00 -0.31254925709E-01  0.83101647420E+00  0.51100000000E-03 0. -1.
        -11    1    3    3    0    0  0.23072276472E+02 -0.14644824719E+01 -0.11500155746E+01  0.23147293289E+02  0.51100000000E-03 0.  1.
        -12    1    3    3    0    0  0.11647686506E+02  0.15525817756E+02  0.18116616219E+02  0.26550544272E+02  0.00000000000E+00 0.  1.
</event>
<event>
 7    1  0.2891523E-011  0.5052885E+02  0.7816164E-02  0.1300439E+00
        -11   -1    0    0    0    0  0.00000000000E+00  0.00000000000E+00  0.45593999997E+02  0.45594000000E+02  0.51100000000E-03 0. -1.
         11   -1    0    0    0    0 -0.00000000000E+00 -0.00000000000E+00 -0.45593999997E+02  0.45594000000E+02  0.51100000000E-03 0.  1.
    9900012    2    1    2    0    0 -0.24945097508E+02  0.66160916424E+01 -0.31418714061E+02  0.50528854023E+02  0.29999982289E+02 0.  0.
         12    1    1    2    0    0  0.24945097508E+02 -0.66160916424E+01  0.31418714061E+02  0.40659145977E+02  0.00000000000E+00 0. -1.
         11    1    3    3    0    0 -0.76050623842E+01  0.42801187875E+01 -0.77545575862E+00  0.87611484748E+01  0.51100000000E-03 0. -1.
        -11    1    3    3    0    0  0.10642722356E+01  0.70860873440E+01 -0.16767265917E+02  0.18234212783E+02  0.51100000000E-03 0.  1.
        -12    1    3    3    0    0 -0.18404307359E+02 -0.47501144892E+01 -0.13875992386E+02  0.23533492765E+02  0.00000000000E+00 0.  1.
</event>
<event>
 7    1  0.2891523E-011  0.5052886E+02  0.7816164E-02  0.1300439E+00
        -11   -1    0    0    0    0  0.00000000000E+00  0.00000000000E+00  0.45593999997E+02  0.45594000000E+02  0.51100000000E-03 0. -1.
         11   -1    0    0    0    0 -0.00000000000E+00 -0.00000000000E+00 -0.45593999997E+02  0.45594000000E+02  0.51100000000E-03 0.  1.
    9900012    2    1    2    0    0 -0.30738061965E+02 -0.22600603604E+02 -0.14055259596E+02  0.50528855162E+02  0.29999985750E+02 0.  0.
         12    1    1    2    0    0  0.30738061965E+02  0.22600603604E+02  0.14055259596E+02  0.40659144838E+02  0.00000000000E+00 0. -1.
         11    1    3    3    0    0 -0.28659906207E+02 -0.12797511022E+02 -0.72532855005E+01  0.32214541173E+02  0.51100000000E-03 0. -1.
        -11    1    3    3    0    0 -0.30835638703E+01 -0.75209191433E+01 -0.10851614385E+02  0.13558396879E+02  0.51100000000E-03 0.  1.
         12    1    3    3    0    0  0.10054081123E+01 -0.22821734395E+01  0.40496402902E+01  0.47559171103E+01  0.00000000000E+00 0. -1.
</event>
<event>
 7    1  0.2891523E-011  0.5052884E+02  0.7816164E-02  0.1300439E+00
        -11   -1    0    0    0    0  0.00000000000E+00  0.00000000000E+00  0.45593999997E+02  0.45594000000E+02  0.51100000000E-03 0. -1.
         11   -1    0    0    0    0 -0.00000000000E+00 -0.00000000000E+00 -0.45593999997E+02  0.45594000000E+02  0.51100000000E-03 0.  1.
    9900012    2    1    2    0    0 -0.12901900330E+02  0.23163358184E+02 -0.30824778497E+02  0.50528841575E+02  0.29999944451E+02 0.  0.
         12    1    1    2    0    0  0.12901900330E+02 -0.23163358184E+02  0.30824778497E+02  0.40659158425E+02  0.00000000000E+00 0. -1.
         11    1    3    3    0    0 -0.15592967096E+02  0.11234610432E+02 -0.26213085558E+02  0.32503583635E+02  0.51100000000E-03 0.  1.
        -11    1    3    3    0    0  0.62157401889E+01  0.12382343587E+02 -0.33494295477E+01  0.14254000750E+02  0.51100000000E-03 0. -1.
        -12    1    3    3    0    0 -0.35246734235E+01 -0.45359583559E+00 -0.12622633909E+01  0.37712571899E+01  0.00000000000E+00 0.  1.
</event>
<event>
 7    1  0.2891523E-011  0.5052886E+02  0.7816164E-02  0.1300439E+00
        -11   -1    0    0    0    0  0.00000000000E+00  0.00000000000E+00  0.45593999997E+02  0.45594000000E+02  0.51100000000E-03 0. -1.
         11   -1    0    0    0    0 -0.00000000000E+00 -0.00000000000E+00 -0.45593999997E+02  0.45594000000E+02  0.51100000000E-03 0.  1.
    9900012    2    1    2    0    0 -0.34983121869E+02 -0.25587500336E+01 -0.20562083569E+02  0.50528864518E+02  0.30000014189E+02 0.  0.
         12    1    1    2    0    0  0.34983121869E+02  0.25587500336E+01  0.20562083569E+02  0.40659135482E+02  0.00000000000E+00 0. -1.
         11    1    3    3    0    0  0.10480994189E+01  0.12599823690E+01  0.33019037410E+01  0.36862767853E+01  0.51100000000E-03 0. -1.
        -11    1    3    3    0    0 -0.25541096753E+02  0.11432730697E+01 -0.24241220972E+02  0.35231966893E+02  0.51100000000E-03 0.  1.
        -12    1    3    3    0    0 -0.10490124534E+02 -0.49620054723E+01  0.37723366132E+00  0.11610620840E+02  0.00000000000E+00 0.  1.
</event>
<event>
 7    1  0.2891523E-011  0.5052885E+02  0.7816164E-02  0.1300439E+00
        -11   -1    0    0    0    0  0.00000000000E+00  0.00000000000E+00  0.45593999997E+02  0.45594000000E+02  0.51100000000E-03 0.  1.
         11   -1    0    0    0    0 -0.00000000000E+00 -0.00000000000E+00 -0.45593999997E+02  0.45594000000E+02  0.51100000000E-03 0. -1.
    9900012    2    1    2    0    0 -0.16437547099E+02  0.16476871977E+02  0.33338955993E+02  0.50528852794E+02  0.29999978552E+02 0.  0.
         12    1    1    2    0    0  0.16437547099E+02 -0.16476871977E+02 -0.33338955993E+02  0.40659147206E+02  0.00000000000E+00 0. -1.
         11    1    3    3    0    0 -0.14353455021E+02  0.20592325648E+02  0.31818093564E+02  0.40527233127E+02  0.51100000000E-03 0. -1.
        -11    1    3    3    0    0 -0.54663626477E+01 -0.24760047371E+01  0.17048757017E+01  0.62384550550E+01  0.51100000000E-03 0.  1.
         12    1    3    3    0    0  0.33822705698E+01 -0.16394489334E+01 -0.18401327205E+00  0.37631646120E+01  0.00000000000E+00 0. -1.
</event>
<event>
 7    1  0.2891523E-011  0.5052885E+02  0.7816164E-02  0.1300439E+00
        -11   -1    0    0    0    0  0.00000000000E+00  0.00000000000E+00  0.45593999997E+02  0.45594000000E+02  0.51100000000E-03 0.  1.
         11   -1    0    0    0    0 -0.00000000000E+00 -0.00000000000E+00 -0.45593999997E+02  0.45594000000E+02  0.51100000000E-03 0. -1.
    9900012    2    1    2    0    0  0.23585384906E+01  0.35521331711E+02  0.19642770600E+02  0.50528854077E+02  0.29999982454E+02 0.  0.
         12    1    1    2    0    0 -0.23585384906E+01 -0.35521331711E+02 -0.19642770600E+02  0.40659145923E+02  0.00000000000E+00 0. -1.
         11    1    3    3    0    0 -0.66251741356E+01  0.17300908849E+01  0.28021771000E+01  0.73985365822E+01  0.51100000000E-03 0. -1.
        -11    1    3    3    0    0  0.40337937944E+00  0.27509700650E+02  0.17276846490E+02  0.32487470964E+02  0.51100000000E-03 0.  1.
        -12    1    3    3    0    0  0.85803332468E+01  0.62815401760E+01 -0.43625298960E+00  0.10642846531E+02  0.00000000000E+00 0.  1.
</event>
<event>
 7    1  0.2891523E-011  0.5052886E+02  0.7816164E-02  0.1300439E+00
        -11   -1    0    0    0    0  0.00000000000E+00  0.00000000000E+00  0.45593999997E+02  0.45594000000E+02  0.51100000000E-03 0.  1.
         11   -1    0    0    0    0 -0.00000000000E+00 -0.00000000000E+00 -0.45593999997E+02  0.45594000000E+02  0.51100000000E-03 0. -1.
    9900012    2    1    2    0    0  0.15018148657E+02 -0.27388070578E+02  0.26029109707E+02  0.50528858947E+02  0.29999997254E+02 0.  0.
         12    1    1    2    0    0 -0.15018148657E+02  0.27388070578E+02 -0.26029109707E+02  0.40659141053E+02  0.00000000000E+00 0. -1.
         11    1    3    3    0    0  0.14407259202E+01  0.17543259784E+01 -0.35852368272E+01  0.42434978713E+01  0.51100000000E-03 0. -1.
        -11    1    3    3    0    0  0.26086157498E+01 -0.19809874950E+02  0.22911418561E+02  0.30400150039E+02  0.51100000000E-03 0.  1.
         12    1    3    3    0    0  0.10968806987E+02 -0.93325216064E+01  0.67029279734E+01  0.15885211036E+02  0.00000000000E+00 0. -1.
</event>
<event>
 7    1  0.2891523E-011  0.5052886E+02  0.7816164E-02  0.1300439E+00
        -11   -1    0    0    0    0  0.00000000000E+00  0.00000000000E+00  0.45593999997E+02  0.45594000000E+02  0.51100000000E-03 0. -1.
         11   -1    0    0    0    0 -0.00000000000E+00 -0.00000000000E+00 -0.45593999997E+02  0.45594000000E+02  0.51100000000E-03 0.  1.
    9900012    2    1    2    0    0  0.16838586887E+02 -0.10321146031E+02 -0.35540140682E+02  0.50528860026E+02  0.30000000536E+02 0.  0.
         12    1    1    2    0    0 -0.16838586887E+02  0.10321146031E+02  0.35540140682E+02  0.40659139974E+02  0.00000000000E+00 0. -1.
         11    1    3    3    0    0  0.32733144919E+01  0.87917867679E+01 -0.84891981825E+01  0.12652137700E+02  0.51100000000E-03 0. -1.
        -11    1    3    3    0    0  0.97881264834E+01 -0.81637305969E+01 -0.21589909506E+02  0.25071460070E+02  0.51100000000E-03 0.  1.
         12    1    3    3    0    0  0.37771459114E+01 -0.10949202202E+02 -0.54610329931E+01  0.12805262256E+02  0.00000000000E+00 0. -1.
</event>
<event>
 7    1  0.2891523E-011  0.5052886E+02  0.7816164E-02  0.1300439E+00
        -11   -1    0    0    0    0  0.00000000000E+00  0.00000000000E+00  0.45593999997E+02  0.45594000000E+02  0.51100000000E-03 0. -1.
         11   -1    0    0    0    0 -0.00000000000E+00 -0.00000000000E+00 -0.45593999997E+02  0.45594000000E+02  0.51100000000E-03 0.  1.
    9900012    2    1    2    0    0  0.64574809177E+01  0.20615218125E+02 -0.34445311193E+02  0.50528859069E+02  0.29999997625E+02 0.  0.
         12    1    1    2    0    0 -0.64574809177E+01 -0.20615218125E+02  0.34445311193E+02  0.40659140931E+02  0.00000000000E+00 0. -1.
         11    1    3    3    0    0 -0.37793605356E-01  0.36255103247E+01  0.37400818744E+01  0.52090273717E+01  0.51100000000E-03 0. -1.
        -11    1    3    3    0    0  0.18499686494E+01  0.17576869487E+02 -0.20701661295E+02  0.27219983571E+02  0.51100000000E-03 0.  1.
        -12    1    3    3    0    0  0.46453058737E+01 -0.58716168708E+00 -0.17483731772E+02  0.18099848126E+02  0.00000000000E+00 0.  1.
</event>
<event>
 7    1  0.2891523E-011  0.5052887E+02  0.7816164E-02  0.1300439E+00
        -11   -1    0    0    0    0  0.00000000000E+00  0.00000000000E+00  0.45593999997E+02  0.45594000000E+02  0.51100000000E-03 0.  1.
         11   -1    0    0    0    0 -0.00000000000E+00 -0.00000000000E+00 -0.45593999997E+02  0.45594000000E+02  0.51100000000E-03 0. -1.
    9900012    2    1    2    0    0 -0.52389829341E+01 -0.24719118323E+02  0.31854093855E+02  0.50528867592E+02  0.30000023533E+02 0.  0.
         12    1    1    2    0    0  0.52389829341E+01  0.24719118323E+02 -0.31854093855E+02  0.40659132408E+02  0.00000000000E+00 0. -1.
         11    1    3    3    0    0 -0.31335695575E+01 -0.48232247441E+00  0.20419657596E+01  0.37711427400E+01  0.51100000000E-03 0. -1.
        -11    1    3    3    0    0 -0.90072861261E+01 -0.81168284626E+01 -0.53114410726E-01  0.12125053775E+02  0.51100000000E-03 0.  1.
        -12    1    3    3    0    0  0.69018727495E+01 -0.16119967386E+02  0.29865242506E+02  0.34632671077E+02  0.00000000000E+00 0.  1.
</event>
<event>
 7    1  0.2891523E-011  0.5052886E+02  0.7816164E-02  0.1300439E+00
        -11   -1    0    0    0    0  0.00000000000E+00  0.00000000000E+00  0.45593999997E+02  0.45594000000E+02  0.51100000000E-03 0. -1.
         11   -1    0    0    0    0 -0.00000000000E+00 -0.00000000000E+00 -0.45593999997E+02  0.45594000000E+02  0.51100000000E-03 0.  1.
    9900012    2    1    2    0    0 -0.28235320937E+02 -0.19936359197E+02 -0.21412004782E+02  0.50528859389E+02  0.29999998598E+02 0.  0.
         12    1    1    2    0    0  0.28235320937E+02  0.19936359197E+02  0.21412004782E+02  0.40659140611E+02  0.00000000000E+00 0. -1.
         11    1    3    3    0    0  0.36603754569E+01 -0.75086582796E+00 -0.71747249031E+00  0.38048541382E+01  0.51100000000E-03 0. -1.
        -11    1    3    3    0    0 -0.23250258262E+02 -0.80931461712E+01 -0.21432834809E+02  0.32641077378E+02  0.51100000000E-03 0.  1.
        -12    1    3    3    0    0 -0.86454381314E+01 -0.11092347198E+02  0.73830251661E+00  0.14082927872E+02  0.00000000000E+00 0.  1.
</event>
<event>
 7    1  0.2891523E-011  0.5052884E+02  0.7816164E-02  0.1300439E+00
        -11   -1    0    0    0    0  0.00000000000E+00  0.00000000000E+00  0.45593999997E+02  0.45594000000E+02  0.51100000000E-03 0.  1.
         11   -1    0    0    0    0 -0.00000000000E+00 -0.00000000000E+00 -0.45593999997E+02  0.45594000000E+02  0.51100000000E-03 0. -1.
    9900012    2    1    2    0    0  0.23283146337E+02 -0.30705530965E+02  0.12970472562E+02  0.50528835059E+02  0.29999924647E+02 0.  0.
         12    1    1    2    0    0 -0.23283146337E+02  0.30705530965E+02 -0.12970472562E+02  0.40659164941E+02  0.00000000000E+00 0. -1.
         11    1    3    3    0    0 -0.41512956365E+01 -0.70001628593E+01  0.65843872743E+01  0.10468509519E+02  0.51100000000E-03 0. -1.
        -11    1    3    3    0    0  0.20486596513E+02 -0.74897425208E+01  0.21574720173E+01  0.21919205403E+02  0.51100000000E-03 0.  1.
        -12    1    3    3    0    0  0.69478454598E+01 -0.16215625585E+02  0.42286132707E+01  0.18141120137E+02  0.00000000000E+00 0.  1.
</event>
<event>
 7    1  0.2891523E-011  0.5052884E+02  0.7816164E-02  0.1300439E+00
        -11   -1    0    0    0    0  0.00000000000E+00  0.00000000000E+00  0.45593999997E+02  0.45594000000E+02  0.51100000000E-03 0.  1.
         11   -1    0    0    0    0 -0.00000000000E+00 -0.00000000000E+00 -0.45593999997E+02  0.45594000000E+02  0.51100000000E-03 0. -1.
    9900012    2    1    2    0    0  0.21953240824E+02 -0.22064917216E+02 -0.26160317650E+02  0.50528836531E+02  0.29999929119E+02 0.  0.
         12    1    1    2    0    0 -0.21953240824E+02  0.22064917216E+02  0.26160317650E+02  0.40659163469E+02  0.00000000000E+00 0. -1.
         11    1    3    3    0    0 -0.46922134419E+01 -0.23173002117E+01 -0.76953612659E+01  0.93061986079E+01  0.51100000000E-03 0. -1.
        -11    1    3    3    0    0  0.25038154966E+02 -0.20435896658E+02 -0.20703711308E+02  0.38382010610E+02  0.51100000000E-03 0.  1.
        -12    1    3    3    0    0  0.16072993003E+01  0.68827965386E+00  0.22387549231E+01  0.28406273125E+01  0.00000000000E+00 0.  1.
</event>
<event>
 7    1  0.2891523E-011  0.5052883E+02  0.7816164E-02  0.1300439E+00
        -11   -1    0    0    0    0  0.00000000000E+00  0.00000000000E+00  0.45593999997E+02  0.45594000000E+02  0.51100000000E-03 0. -1.
         11   -1    0    0    0    0 -0.00000000000E+00 -0.00000000000E+00 -0.45593999997E+02  0.45594000000E+02  0.51100000000E-03 0.  1.
    9900012    2    1    2    0    0 -0.33216774594E+02 -0.23309000606E+02  0.25503219525E+01  0.50528834173E+02  0.29999921952E+02 0.  0.
         12    1    1    2    0    0  0.33216774594E+02  0.23309000606E+02 -0.25503219525E+01  0.40659165827E+02  0.00000000000E+00 0. -1.
         11    1    3    3    0    0 -0.81840797933E+01 -0.27272401285E+01  0.74328179200E+01  0.11387000627E+02  0.51100000000E-03 0. -1.
        -11    1    3    3    0    0 -0.12847831178E+02 -0.42524087654E+00 -0.83586315908E+01  0.15333437910E+02  0.51100000000E-03 0.  1.
        -12    1    3    3    0    0 -0.12184863622E+02 -0.20156519601E+02  0.34761356232E+01  0.23808395637E+02  0.00000000000E+00 0.  1.
</event>
<event>
 7    1  0.2891523E-011  0.5052885E+02  0.7816164E-02  0.1300439E+00
        -11   -1    0    0    0    0  0.00000000000E+00  0.00000000000E+00  0.45593999997E+02  0.45594000000E+02  0.51100000000E-03 0. -1.
         11   -1    0    0    0    0 -0.00000000000E+00 -0.00000000000E+00 -0.45593999997E+02  0.45594000000E+02  0.51100000000E-03 0.  1.
    9900012    2    1    2    0    0 -0.19804151948E+01 -0.39183014148E+02 -0.10674061813E+02  0.50528852965E+02  0.29999979072E+02 0.  0.
         12    1    1    2    0    0  0.19804151948E+01  0.39183014148E+02  0.10674061813E+02  0.40659147035E+02  0.00000000000E+00 0. -1.
         11    1    3    3    0    0 -0.33599710437E+00 -0.36736038701E+01 -0.95288436626E+01  0.10217980292E+02  0.51100000000E-03 0. -1.
        -11    1    3    3    0    0 -0.14198514248E+01 -0.37842503747E+02 -0.47140154765E+00  0.37872064739E+02  0.51100000000E-03 0.  1.
        -12    1    3    3    0    0 -0.22456666567E+00  0.23330934693E+01 -0.67381660277E+00  0.24388079338E+01  0.00000000000E+00 0.  1.
</event>
<event>
 7    1  0.2891523E-011  0.5052884E+02  0.7816164E-02  0.1300439E+00
        -11   -1    0    0    0    0  0.00000000000E+00  0.00000000000E+00  0.45593999997E+02  0.45594000000E+02  0.51100000000E-03 0.  1.
         11   -1    0    0    0    0 -0.00000000000E+00 -0.00000000000E+00 -0.45593999997E+02  0.45594000000E+02  0.51100000000E-03 0. -1.
    9900012    2    1    2    0    0 -0.18169282333E+02 -0.30304656752E+02  0.20116472260E+02  0.50528837471E+02  0.29999931978E+02 0.  0.
         12    1    1    2    0    0  0.18169282333E+02  0.30304656752E+02 -0.20116472260E+02  0.40659162529E+02  0.00000000000E+00 0. -1.
         11    1    3    3    0    0 -0.10643614545E+02 -0.11835126833E+02 -0.36441126641E+01  0.16329002269E+02  0.51100000000E-03 0.  1.
        -11    1    3    3    0    0 -0.34074677205E+01 -0.29604700424E+00  0.11242538570E+02  0.11751304347E+02  0.51100000000E-03 0. -1.
        -12    1    3    3    0    0 -0.41182000674E+01 -0.18173482915E+02  0.12518046354E+02  0.22448530855E+02  0.00000000000E+00 0.  1.
</event>
<event>
 7    1  0.2891523E-011  0.5052886E+02  0.7816164E-02  0.1300439E+00
        -11   -1    0    0    0    0  0.00000000000E+00  0.00000000000E+00  0.45593999997E+02  0.45594000000E+02  0.51100000000E-03 0.  1.
         11   -1    0    0    0    0 -0.00000000000E+00 -0.00000000000E+00 -0.45593999997E+02  0.45594000000E+02  0.51100000000E-03 0. -1.
    9900012    2    1    2    0    0 -0.21758309807E+02  0.36878144220E+01  0.34148810555E+02  0.50528864702E+02  0.30000014747E+02 0.  0.
         12    1    1    2    0    0  0.21758309807E+02 -0.36878144220E+01 -0.34148810555E+02  0.40659135298E+02  0.00000000000E+00 0. -1.
         11    1    3    3    0    0  0.57338942115E+01  0.17457731566E+01  0.62199739930E+01  0.86379015668E+01  0.51100000000E-03 0. -1.
        -11    1    3    3    0    0 -0.18782075157E+02 -0.41955965274E+01  0.11845967870E+02  0.22598591382E+02  0.51100000000E-03 0.  1.
        -12    1    3    3    0    0 -0.87101288616E+01  0.61376377929E+01  0.16082868692E+02  0.19292371753E+02  0.00000000000E+00 0.  1.
</event>
<event>
 7    1  0.2891523E-011  0.5052886E+02  0.7816164E-02  0.1300439E+00
        -11   -1    0    0    0    0  0.00000000000E+00  0.00000000000E+00  0.45593999997E+02  0.45594000000E+02  0.51100000000E-03 0. -1.
         11   -1    0    0    0    0 -0.00000000000E+00 -0.00000000000E+00 -0.45593999997E+02  0.45594000000E+02  0.51100000000E-03 0.  1.
    9900012    2    1    2    0    0 -0.49454552953E+01  0.39120555295E+02 -0.99141435872E+01  0.50528860588E+02  0.30000002243E+02 0.  0.
         12    1    1    2    0    0  0.49454552953E+01 -0.39120555295E+02  0.99141435872E+01  0.40659139412E+02  0.00000000000E+00 0. -1.
         11    1    3    3    0    0 -0.75830171000E+01  0.16926427940E+01 -0.55714718677E+01  0.95607785771E+01  0.51100000000E-03 0. -1.
        -11    1    3    3    0    0  0.69280024537E+01  0.33277605447E+02 -0.74674459261E+00  0.33999321611E+02  0.51100000000E-03 0.  1.
        -12    1    3    3    0    0 -0.42904406491E+01  0.41503070541E+01 -0.35959271269E+01  0.69687603997E+01  0.00000000000E+00 0.  1.
</event>
<event>
 7    1  0.2891523E-011  0.5052886E+02  0.7816164E-02  0.1300439E+00
        -11   -1    0    0    0    0  0.00000000000E+00  0.00000000000E+00  0.45593999997E+02  0.45594000000E+02  0.51100000000E-03 0.  1.
         11   -1    0    0    0    0 -0.00000000000E+00 -0.00000000000E+00 -0.45593999997E+02  0.45594000000E+02  0.51100000000E-03 0. -1.
    9900012    2    1    2    0    0  0.40645624911E+02 -0.40237078419E+00  0.96801242705E+00  0.50528858658E+02  0.29999996376E+02 0.  0.
         12    1    1    2    0    0 -0.40645624911E+02  0.40237078419E+00 -0.96801242705E+00  0.40659141342E+02  0.00000000000E+00 0. -1.
         11    1    3    3    0    0  0.16046164402E+02 -0.13408585955E+02 -0.13615650416E+01  0.20955272104E+02  0.51100000000E-03 0. -1.
        -11    1    3    3    0    0  0.19324786999E+02  0.10563605827E+02 -0.22988122714E+01  0.22143208863E+02  0.51100000000E-03 0.  1.
         12    1    3    3    0    0  0.52746735101E+01  0.24426093436E+01  0.46283897401E+01  0.74303776909E+01  0.00000000000E+00 0. -1.
</event>
<event>
 7    1  0.2891523E-011  0.5052886E+02  0.7816164E-02  0.1300439E+00
        -11   -1    0    0    0    0  0.00000000000E+00  0.00000000000E+00  0.45593999997E+02  0.45594000000E+02  0.51100000000E-03 0.  1.
         11   -1    0    0    0    0 -0.00000000000E+00 -0.00000000000E+00 -0.45593999997E+02  0.45594000000E+02  0.51100000000E-03 0. -1.
    9900012    2    1    2    0    0 -0.38562221694E+02  0.12269433193E+02 -0.39474085570E+01  0.50528856291E+02  0.29999989181E+02 0.  0.
         12    1    1    2    0    0  0.38562221694E+02 -0.12269433193E+02  0.39474085570E+01  0.40659143709E+02  0.00000000000E+00 0. -1.
         11    1    3    3    0    0 -0.19933688552E+02  0.73193346537E+01  0.56960070202E+01  0.21985656581E+02  0.51100000000E-03 0.  1.
        -11    1    3    3    0    0  0.38810375704E+01  0.43591674934E+00 -0.12917210353E+01  0.41135166864E+01  0.51100000000E-03 0. -1.
        -12    1    3    3    0    0 -0.22509570713E+02  0.45141817903E+01 -0.83516945418E+01  0.24429683024E+02  0.00000000000E+00 0.  1.
</event>
<event>
 7    1  0.2891523E-011  0.5052886E+02  0.7816164E-02  0.1300439E+00
        -11   -1    0    0    0    0  0.00000000000E+00  0.00000000000E+00  0.45593999997E+02  0.45594000000E+02  0.51100000000E-03 0. -1.
         11   -1    0    0    0    0 -0.00000000000E+00 -0.00000000000E+00 -0.45593999997E+02  0.45594000000E+02  0.51100000000E-03 0.  1.
    9900012    2    1    2    0    0  0.34739826220E+02  0.14461683391E+02 -0.15400322153E+02  0.50528859149E+02  0.29999997870E+02 0.  0.
         12    1    1    2    0    0 -0.34739826220E+02 -0.14461683391E+02  0.15400322153E+02  0.40659140851E+02  0.00000000000E+00 0. -1.
         11    1    3    3    0    0 -0.33256227121E+01 -0.22129572741E+01 -0.20490537250E+01  0.44894952666E+01  0.51100000000E-03 0. -1.
        -11    1    3    3    0    0  0.36908929082E+02  0.13230083421E+02 -0.15088989830E+02  0.42011686084E+02  0.51100000000E-03 0.  1.
        -12    1    3    3    0    0  0.11565198501E+01  0.34445572447E+01  0.17377214024E+01  0.40276777985E+01  0.00000000000E+00 0.  1.
</event>
<event>
 7    1  0.2891523E-011  0.5052886E+02  0.7816164E-02  0.1300439E+00
        -11   -1    0    0    0    0  0.00000000000E+00  0.00000000000E+00  0.45593999997E+02  0.45594000000E+02  0.51100000000E-03 0.  1.
         11   -1    0    0    0    0 -0.00000000000E+00 -0.00000000000E+00 -0.45593999997E+02  0.45594000000E+02  0.51100000000E-03 0. -1.
    9900012    2    1    2    0    0 -0.25803271807E+02  0.12293734830E+02  0.28917486511E+02  0.50528858616E+02  0.29999996249E+02 0.  0.
         12    1    1    2    0    0  0.25803271807E+02 -0.12293734830E+02 -0.28917486511E+02  0.40659141384E+02  0.00000000000E+00 0. -1.
         11    1    3    3    0    0 -0.77717429715E+01 -0.96162881187E+01  0.86676470754E+01  0.15099705033E+02  0.51100000000E-03 0. -1.
        -11    1    3    3    0    0 -0.10096266190E+02  0.10498485851E+02  0.13952103404E+02  0.20169630284E+02  0.51100000000E-03 0.  1.
         12    1    3    3    0    0 -0.79352626456E+01  0.11411537098E+02  0.62977360312E+01  0.15259523299E+02  0.00000000000E+00 0. -1.
</event>
<event>
 7    1  0.2891523E-011  0.5052884E+02  0.7816164E-02  0.1300439E+00
        -11   -1    0    0    0    0  0.00000000000E+00  0.00000000000E+00  0.45593999997E+02  0.45594000000E+02  0.51100000000E-03 0.  1.
         11   -1    0    0    0    0 -0.00000000000E+00 -0.00000000000E+00 -0.45593999997E+02  0.45594000000E+02  0.51100000000E-03 0. -1.
    9900012    2    1    2    0    0  0.29966081914E+02  0.46384659833E+01  0.27086636188E+02  0.50528839999E+02  0.29999939662E+02 0.  0.
         12    1    1    2    0    0 -0.29966081914E+02 -0.46384659833E+01 -0.27086636188E+02  0.40659160001E+02  0.00000000000E+00 0. -1.
         11    1    3    3    0    0  0.17195894810E+01 -0.70441913942E+01  0.11661944149E+02  0.13732390978E+02  0.51100000000E-03 0. -1.
        -11    1    3    3    0    0  0.25223415984E+02  0.14052514212E+02  0.15839241779E+02  0.32932893131E+02  0.51100000000E-03 0.  1.
         12    1    3    3    0    0  0.30230764485E+01 -0.23698568346E+01 -0.41454973929E+00  0.38635558901E+01  0.00000000000E+00 0. -1.
</event>
<event>
 7    1  0.2891523E-011  0.5052886E+02  0.7816164E-02  0.1300439E+00
        -11   -1    0    0    0    0  0.00000000000E+00  0.00000000000E+00  0.45593999997E+02  0.45594000000E+02  0.51100000000E-03 0. -1.
         11   -1    0    0    0    0 -0.00000000000E+00 -0.00000000000E+00 -0.45593999997E+02  0.45594000000E+02  0.51100000000E-03 0.  1.
    9900012    2    1    2    0    0  0.14492784262E+02  0.30632103733E+02 -0.22467732246E+02  0.50528861211E+02  0.30000004137E+02 0.  0.
         12    1    1    2    0    0 -0.14492784262E+02 -0.30632103733E+02  0.22467732246E+02  0.40659138789E+02  0.00000000000E+00 0. -1.
         11    1    3    3    0    0  0.18175544691E+02  0.72062051580E+01 -0.13785036975E+02  0.23922940084E+02  0.51100000000E-03 0. -1.
        -11    1    3    3    0    0  0.21781391850E+01  0.12769313718E+02 -0.51646636883E+01  0.13945372509E+02  0.51100000000E-03 0.  1.
         12    1    3    3    0    0 -0.58608996139E+01  0.10656584857E+02 -0.35180315827E+01  0.12660548618E+02  0.00000000000E+00 0. -1.
</event>
<event>
 7    1  0.2891523E-011  0.5052878E+02  0.7816164E-02  0.1300439E+00
        -11   -1    0    0    0    0  0.00000000000E+00  0.00000000000E+00  0.45593999997E+02  0.45594000000E+02  0.51100000000E-03 0.  1.
         11   -1    0    0    0    0 -0.00000000000E+00 -0.00000000000E+00 -0.45593999997E+02  0.45594000000E+02  0.51100000000E-03 0. -1.
    9900012    2    1    2    0    0 -0.88295915936E+00 -0.21662955144E+02  0.34396355036E+02  0.50528776173E+02  0.29999745653E+02 0.  0.
         12    1    1    2    0    0  0.88295915936E+00  0.21662955144E+02 -0.34396355036E+02  0.40659223827E+02  0.00000000000E+00 0. -1.
         11    1    3    3    0    0 -0.14547554279E+01  0.54015733127E+01  0.13363766025E+02  0.14487358290E+02  0.51100000000E-03 0. -1.
        -11    1    3    3    0    0 -0.11914042245E+01 -0.15748502028E+02  0.54594000766E+01  0.16710470059E+02  0.51100000000E-03 0.  1.
         12    1    3    3    0    0  0.17632004930E+01 -0.11316026430E+02  0.15573188935E+02  0.19330947823E+02  0.00000000000E+00 0. -1.
</event>
<event>
 7    1  0.2891523E-011  0.5052887E+02  0.7816164E-02  0.1300439E+00
        -11   -1    0    0    0    0  0.00000000000E+00  0.00000000000E+00  0.45593999997E+02  0.45594000000E+02  0.51100000000E-03 0.  1.
         11   -1    0    0    0    0 -0.00000000000E+00 -0.00000000000E+00 -0.45593999997E+02  0.45594000000E+02  0.51100000000E-03 0. -1.
    9900012    2    1    2    0    0  0.39024827600E+02  0.48711748471E+01  0.10319858793E+02  0.50528868195E+02  0.30000025367E+02 0.  0.
         12    1    1    2    0    0 -0.39024827600E+02 -0.48711748471E+01 -0.10319858793E+02  0.40659131805E+02  0.00000000000E+00 0. -1.
         11    1    3    3    0    0  0.13777923501E+02  0.15777971962E+02  0.74434345074E+01  0.22230166278E+02  0.51100000000E-03 0. -1.
        -11    1    3    3    0    0  0.15406574856E+02 -0.35102916400E+01  0.86303626471E+00  0.15824965341E+02  0.51100000000E-03 0.  1.
         12    1    3    3    0    0  0.98403292426E+01 -0.73965054746E+01  0.20133880212E+01  0.12473736576E+02  0.00000000000E+00 0. -1.
</event>
<event>
 7    1  0.2891523E-011  0.5052887E+02  0.7816164E-02  0.1300439E+00
        -11   -1    0    0    0    0  0.00000000000E+00  0.00000000000E+00  0.45593999997E+02  0.45594000000E+02  0.51100000000E-03 0. -1.
         11   -1    0    0    0    0 -0.00000000000E+00 -0.00000000000E+00 -0.45593999997E+02  0.45594000000E+02  0.51100000000E-03 0.  1.
    9900012    2    1    2    0    0  0.38026535048E+02  0.12396838747E+02 -0.73120156167E+01  0.50528873705E+02  0.30000042113E+02 0.  0.
         12    1    1    2    0    0 -0.38026535048E+02 -0.12396838747E+02  0.73120156167E+01  0.40659126295E+02  0.00000000000E+00 0. -1.
         11    1    3    3    0    0 -0.17152230967E+00 -0.16050783257E+01 -0.45882860567E+00  0.16781597912E+01  0.51100000000E-03 0. -1.
        -11    1    3    3    0    0  0.10696207855E+02  0.14442268758E+02 -0.10945426959E+02  0.21042584465E+02  0.51100000000E-03 0.  1.
        -12    1    3    3    0    0  0.27501849503E+02 -0.44035168554E+00  0.40922399480E+01  0.27808129449E+02  0.00000000000E+00 0.  1.
</event>
<event>
 7    1  0.2891523E-011  0.5052886E+02  0.7816164E-02  0.1300439E+00
        -11   -1    0    0    0    0  0.00000000000E+00  0.00000000000E+00  0.45593999997E+02  0.45594000000E+02  0.51100000000E-03 0.  1.
         11   -1    0    0    0    0 -0.00000000000E+00 -0.00000000000E+00 -0.45593999997E+02  0.45594000000E+02  0.51100000000E-03 0. -1.
    9900012    2    1    2    0    0  0.39672321400E+00 -0.32959611119E+02  0.23804879085E+02  0.50528860527E+02  0.30000002058E+02 0.  0.
         12    1    1    2    0    0 -0.39672321400E+00  0.32959611119E+02 -0.23804879085E+02  0.40659139473E+02  0.00000000000E+00 0. -1.
         11    1    3    3    0    0 -0.18646309936E+01  0.13376728447E+01  0.10616447822E+00  0.22972785072E+01  0.51100000000E-03 0. -1.
        -11    1    3    3    0    0  0.75099725304E+01 -0.28422529405E+02  0.26785429330E+02  0.39770580708E+02  0.51100000000E-03 0.  1.
        -12    1    3    3    0    0 -0.52486183228E+01 -0.58747545584E+01 -0.30867147229E+01  0.84610013119E+01  0.00000000000E+00 0.  1.
</event>
<event>
 7    1  0.2891523E-011  0.5052885E+02  0.7816164E-02  0.1300439E+00
        -11   -1    0    0    0    0  0.00000000000E+00  0.00000000000E+00  0.45593999997E+02  0.45594000000E+02  0.51100000000E-03 0.  1.
         11   -1    0    0    0    0 -0.00000000000E+00 -0.00000000000E+00 -0.45593999997E+02  0.45594000000E+02  0.51100000000E-03 0. -1.
    9900012    2    1    2    0    0 -0.71968090658E+01 -0.17762208409E+02  0.35859113714E+02  0.50528854109E+02  0.29999982549E+02 0.  0.
         12    1    1    2    0    0  0.71968090658E+01  0.17762208409E+02 -0.35859113714E+02  0.40659145891E+02  0.00000000000E+00 0. -1.
         11    1    3    3    0    0  0.11566568302E+01  0.67021638340E+01  0.13455744216E+02  0.15076932968E+02  0.51100000000E-03 0. -1.
        -11    1    3    3    0    0 -0.85279524361E+01 -0.22118895097E+02  0.15921038852E+02  0.28556102175E+02  0.51100000000E-03 0.  1.
        -12    1    3    3    0    0  0.17448654015E+00 -0.23454771463E+01  0.64823306458E+01  0.68958189650E+01  0.00000000000E+00 0.  1.
</event>
<event>
 7    1  0.2891523E-011  0.5052886E+02  0.7816164E-02  0.1300439E+00
        -11   -1    0    0    0    0  0.00000000000E+00  0.00000000000E+00  0.45593999997E+02  0.45594000000E+02  0.51100000000E-03 0.  1.
         11   -1    0    0    0    0 -0.00000000000E+00 -0.00000000000E+00 -0.45593999997E+02  0.45594000000E+02  0.51100000000E-03 0. -1.
    9900012    2    1    2    0    0 -0.39592817090E+02  0.80875588449E+01  0.44906482495E+01  0.50528859639E+02  0.29999999360E+02 0.  0.
         12    1    1    2    0    0  0.39592817090E+02 -0.80875588449E+01 -0.44906482495E+01  0.40659140361E+02  0.00000000000E+00 0. -1.
         11    1    3    3    0    0 -0.37400671407E+02  0.11126549158E+02  0.13516817003E+01  0.39044043868E+02  0.51100000000E-03 0.  1.
        -11    1    3    3    0    0 -0.60775198193E+01 -0.36736704663E+01  0.17954306324E+01  0.73250032946E+01  0.51100000000E-03 0. -1.
         12    1    3    3    0    0  0.38853741371E+01  0.63468015343E+00  0.13435359168E+01  0.41598124768E+01  0.00000000000E+00 0. -1.
</event>
<event>
 7    1  0.2891523E-011  0.5052886E+02  0.7816164E-02  0.1300439E+00
        -11   -1    0    0    0    0  0.00000000000E+00  0.00000000000E+00  0.45593999997E+02  0.45594000000E+02  0.51100000000E-03 0.  1.
         11   -1    0    0    0    0 -0.00000000000E+00 -0.00000000000E+00 -0.45593999997E+02  0.45594000000E+02  0.51100000000E-03 0. -1.
    9900012    2    1    2    0    0  0.12276870354E+02  0.15607619001E+01  0.38729935138E+02  0.50528863275E+02  0.30000010411E+02 0.  0.
         12    1    1    2    0    0 -0.12276870354E+02 -0.15607619001E+01 -0.38729935138E+02  0.40659136725E+02  0.00000000000E+00 0. -1.
         11    1    3    3    0    0 -0.22172846369E+01 -0.27877277336E+01  0.48644634129E+01  0.60291609395E+01  0.51100000000E-03 0. -1.
        -11    1    3    3    0    0  0.20841277536E+02  0.63526314969E+01  0.28913405991E+02  0.36203588531E+02  0.51100000000E-03 0.  1.
        -12    1    3    3    0    0 -0.63471225455E+01 -0.20041418632E+01  0.49520657348E+01  0.82961138045E+01  0.00000000000E+00 0.  1.
</event>
<event>
 7    1  0.2891523E-011  0.5052885E+02  0.7816164E-02  0.1300439E+00
        -11   -1    0    0    0    0  0.00000000000E+00  0.00000000000E+00  0.45593999997E+02  0.45594000000E+02  0.51100000000E-03 0.  1.
         11   -1    0    0    0    0 -0.00000000000E+00 -0.00000000000E+00 -0.45593999997E+02  0.45594000000E+02  0.51100000000E-03 0. -1.
    9900012    2    1    2    0    0 -0.25276923294E+02 -0.12537064496E+02  0.29275687532E+02  0.50528847059E+02  0.29999961122E+02 0.  0.
         12    1    1    2    0    0  0.25276923294E+02  0.12537064496E+02 -0.29275687532E+02  0.40659152941E+02  0.00000000000E+00 0. -1.
         11    1    3    3    0    0 -0.81801050921E+01 -0.30730061200E+01  0.34899215132E+01  0.94094122219E+01  0.51100000000E-03 0. -1.
        -11    1    3    3    0    0  0.44318295127E+01 -0.19813514158E+01  0.15261457465E+02  0.16014960208E+02  0.51100000000E-03 0.  1.
        -12    1    3    3    0    0 -0.21528647715E+02 -0.74827069600E+01  0.10524308554E+02  0.25104474629E+02  0.00000000000E+00 0.  1.
</event>
<event>
 7    1  0.2891523E-011  0.5052886E+02  0.7816164E-02  0.1300439E+00
        -11   -1    0    0    0    0  0.00000000000E+00  0.00000000000E+00  0.45593999997E+02  0.45594000000E+02  0.51100000000E-03 0. -1.
         11   -1    0    0    0    0 -0.00000000000E+00 -0.00000000000E+00 -0.45593999997E+02  0.45594000000E+02  0.51100000000E-03 0.  1.
    9900012    2    1    2    0    0  0.33385087764E+02 -0.11134586831E+02 -0.20362273535E+02  0.50528864588E+02  0.30000014403E+02 0.  0.
         12    1    1    2    0    0 -0.33385087764E+02  0.11134586831E+02  0.20362273535E+02  0.40659135412E+02  0.00000000000E+00 0. -1.
         11    1    3    3    0    0  0.22797855155E+02 -0.15615390900E+02 -0.31182378607E+01  0.27808380756E+02  0.51100000000E-03 0. -1.
        -11    1    3    3    0    0  0.10662965623E+01  0.64064074747E+00 -0.10187029807E+02  0.10262698743E+02  0.51100000000E-03 0.  1.
         12    1    3    3    0    0  0.95209360472E+01  0.38401633216E+01 -0.70570058665E+01  0.12457785090E+02  0.00000000000E+00 0. -1.
</event>
<event>
 7    1  0.2891523E-011  0.5052887E+02  0.7816164E-02  0.1300439E+00
        -11   -1    0    0    0    0  0.00000000000E+00  0.00000000000E+00  0.45593999997E+02  0.45594000000E+02  0.51100000000E-03 0.  1.
         11   -1    0    0    0    0 -0.00000000000E+00 -0.00000000000E+00 -0.45593999997E+02  0.45594000000E+02  0.51100000000E-03 0. -1.
    9900012    2    1    2    0    0  0.56667525581E+01  0.19759752496E+02  0.35079984978E+02  0.50528865119E+02  0.30000016015E+02 0.  0.
         12    1    1    2    0    0 -0.56667525581E+01 -0.19759752496E+02 -0.35079984978E+02  0.40659134881E+02  0.00000000000E+00 0. -1.
         11    1    3    3    0    0  0.10942768679E+02 -0.24778845973E+01  0.11271953930E+02  0.15904120350E+02  0.51100000000E-03 0. -1.
        -11    1    3    3    0    0  0.12269360802E+01  0.13975802860E+02  0.17242479898E+02  0.22229069954E+02  0.51100000000E-03 0.  1.
         12    1    3    3    0    0 -0.65029522007E+01  0.82618342335E+01  0.65655511500E+01  0.12395674815E+02  0.00000000000E+00 0. -1.
</event>
<event>
 7    1  0.2891523E-011  0.5052884E+02  0.7816164E-02  0.1300439E+00
        -11   -1    0    0    0    0  0.00000000000E+00  0.00000000000E+00  0.45593999997E+02  0.45594000000E+02  0.51100000000E-03 0. -1.
         11   -1    0    0    0    0 -0.00000000000E+00 -0.00000000000E+00 -0.45593999997E+02  0.45594000000E+02  0.51100000000E-03 0.  1.
    9900012    2    1    2    0    0 -0.25949105902E+02  0.29390008330E+02 -0.10772127293E+02  0.50528838509E+02  0.29999935132E+02 0.  0.
         12    1    1    2    0    0  0.25949105902E+02 -0.29390008330E+02  0.10772127293E+02  0.40659161491E+02  0.00000000000E+00 0. -1.
         11    1    3    3    0    0 -0.81630231159E+01  0.19885542721E+02  0.64911935021E+01  0.22454517341E+02  0.51100000000E-03 0. -1.
        -11    1    3    3    0    0 -0.17385332404E+02  0.88579092402E+01 -0.18325270901E+02  0.26768038643E+02  0.51100000000E-03 0.  1.
        -12    1    3    3    0    0 -0.40075038201E+00  0.64655636868E+00  0.10619501065E+01  0.13062825250E+01  0.00000000000E+00 0.  1.
</event>
<event>
 7    1  0.2891523E-011  0.5052887E+02  0.7816164E-02  0.1300439E+00
        -11   -1    0    0    0    0  0.00000000000E+00  0.00000000000E+00  0.45593999997E+02  0.45594000000E+02  0.51100000000E-03 0. -1.
         11   -1    0    0    0    0 -0.00000000000E+00 -0.00000000000E+00 -0.45593999997E+02  0.45594000000E+02  0.51100000000E-03 0.  1.
    9900012    2    1    2    0    0 -0.41700790711E+01 -0.40443651843E+02 -0.29416476604E+00  0.50528867363E+02  0.30000022837E+02 0.  0.
         12    1    1    2    0    0  0.41700790711E+01  0.40443651843E+02  0.29416476604E+00  0.40659132637E+02  0.00000000000E+00 0. -1.
         11    1    3    3    0    0 -0.53233885188E+01 -0.15328555431E+02  0.14058386372E+02  0.21469543651E+02  0.51100000000E-03 0. -1.
        -11    1    3    3    0    0  0.19471380426E+01 -0.19421146369E+02 -0.11076789576E+02  0.22442538635E+02  0.51100000000E-03 0.  1.
         12    1    3    3    0    0 -0.79382859490E+00 -0.56939500435E+01 -0.32757615625E+01  0.66167850767E+01  0.00000000000E+00 0. -1.
</event>
<event>
 7    1  0.2891523E-011  0.5052885E+02  0.7816164E-02  0.1300439E+00
        -11   -1    0    0    0    0  0.00000000000E+00  0.00000000000E+00  0.45593999997E+02  0.45594000000E+02  0.51100000000E-03 0.  1.
         11   -1    0    0    0    0 -0.00000000000E+00 -0.00000000000E+00 -0.45593999997E+02  0.45594000000E+02  0.51100000000E-03 0. -1.
    9900012    2    1    2    0    0  0.24004871516E+02 -0.78276028487E+01  0.31869441862E+02  0.50528849155E+02  0.29999967492E+02 0.  0.
         12    1    1    2    0    0 -0.24004871516E+02  0.78276028487E+01 -0.31869441862E+02  0.40659150845E+02  0.00000000000E+00 0. -1.
         11    1    3    3    0    0  0.13186753908E+02 -0.15458712172E+02  0.68918130218E+01  0.21455986289E+02  0.51100000000E-03 0. -1.
        -11    1    3    3    0    0  0.74894175853E+01  0.52349499089E+01  0.22491355419E+02  0.24276679039E+02  0.51100000000E-03 0.  1.
         12    1    3    3    0    0  0.33287000224E+01  0.23961594146E+01  0.24862734206E+01  0.47961838269E+01  0.00000000000E+00 0. -1.
</event>
<event>
 7    1  0.2891523E-011  0.5052893E+02  0.7816164E-02  0.1300439E+00
        -11   -1    0    0    0    0  0.00000000000E+00  0.00000000000E+00  0.45593999997E+02  0.45594000000E+02  0.51100000000E-03 0.  1.
         11   -1    0    0    0    0 -0.00000000000E+00 -0.00000000000E+00 -0.45593999997E+02  0.45594000000E+02  0.51100000000E-03 0. -1.
    9900012    2    1    2    0    0  0.34225610911E+01  0.88742685174E+01  0.39530912686E+02  0.50528934296E+02  0.30000226286E+02 0.  0.
         12    1    1    2    0    0 -0.34225610911E+01 -0.88742685174E+01 -0.39530912686E+02  0.40659065704E+02  0.00000000000E+00 0. -1.
         11    1    3    3    0    0 -0.15838045224E+01 -0.81579989229E+01  0.63326461074E+01  0.10448147691E+02  0.51100000000E-03 0. -1.
        -11    1    3    3    0    0  0.79388741177E+01  0.93441542553E+01  0.11248303862E+02  0.16639209147E+02  0.51100000000E-03 0.  1.
         12    1    3    3    0    0 -0.29325085042E+01  0.76881131850E+01  0.21949962717E+02  0.23441577459E+02  0.00000000000E+00 0. -1.
</event>
<event>
 7    1  0.2891523E-011  0.5052886E+02  0.7816164E-02  0.1300439E+00
        -11   -1    0    0    0    0  0.00000000000E+00  0.00000000000E+00  0.45593999997E+02  0.45594000000E+02  0.51100000000E-03 0.  1.
         11   -1    0    0    0    0 -0.00000000000E+00 -0.00000000000E+00 -0.45593999997E+02  0.45594000000E+02  0.51100000000E-03 0. -1.
    9900012    2    1    2    0    0 -0.94395653647E+01 -0.20764851780E+02  0.33658300778E+02  0.50528859884E+02  0.30000000102E+02 0.  0.
         12    1    1    2    0    0  0.94395653647E+01  0.20764851780E+02 -0.33658300778E+02  0.40659140116E+02  0.00000000000E+00 0. -1.
         11    1    3    3    0    0  0.19769157141E+01  0.50454698377E+01  0.10803249484E+01  0.55255826732E+01  0.51100000000E-03 0. -1.
        -11    1    3    3    0    0 -0.21459504801E+01 -0.64651431642E+01  0.17509903551E+02  0.18788291626E+02  0.51100000000E-03 0.  1.
         12    1    3    3    0    0 -0.92705305987E+01 -0.19345178454E+02  0.15068072279E+02  0.26214985585E+02  0.00000000000E+00 0. -1.
</event>
<event>
 7    1  0.2891523E-011  0.5052886E+02  0.7816164E-02  0.1300439E+00
        -11   -1    0    0    0    0  0.00000000000E+00  0.00000000000E+00  0.45593999997E+02  0.45594000000E+02  0.51100000000E-03 0. -1.
         11   -1    0    0    0    0 -0.00000000000E+00 -0.00000000000E+00 -0.45593999997E+02  0.45594000000E+02  0.51100000000E-03 0.  1.
    9900012    2    1    2    0    0 -0.60139290723E+01  0.25552542509E+02 -0.31049416641E+02  0.50528855330E+02  0.29999986260E+02 0.  0.
         12    1    1    2    0    0  0.60139290723E+01 -0.25552542509E+02  0.31049416641E+02  0.40659144670E+02  0.00000000000E+00 0. -1.
         11    1    3    3    0    0 -0.37448549185E+01  0.15030561410E+02 -0.93431630661E+00  0.15518204209E+02  0.51100000000E-03 0. -1.
        -11    1    3    3    0    0 -0.37119708340E+01 -0.16909947005E+01 -0.14893132285E+02  0.15441618441E+02  0.51100000000E-03 0.  1.
         12    1    3    3    0    0  0.14428966803E+01  0.12212975800E+02 -0.15221968049E+02  0.19569032680E+02  0.00000000000E+00 0. -1.
</event>
<event>
 7    1  0.2891523E-011  0.5052883E+02  0.7816164E-02  0.1300439E+00
        -11   -1    0    0    0    0  0.00000000000E+00  0.00000000000E+00  0.45593999997E+02  0.45594000000E+02  0.51100000000E-03 0. -1.
         11   -1    0    0    0    0 -0.00000000000E+00 -0.00000000000E+00 -0.45593999997E+02  0.45594000000E+02  0.51100000000E-03 0.  1.
    9900012    2    1    2    0    0  0.19757285396E+02 -0.35420020987E+02 -0.28705484932E+01  0.50528828075E+02  0.29999903418E+02 0.  0.
         12    1    1    2    0    0 -0.19757285396E+02  0.35420020987E+02  0.28705484932E+01  0.40659171925E+02  0.00000000000E+00 0. -1.
         11    1    3    3    0    0 -0.26021406367E+01 -0.12153212901E+02 -0.67734416843E+01  0.14154548111E+02  0.51100000000E-03 0. -1.
        -11    1    3    3    0    0  0.24412407035E+02 -0.18363417612E+02  0.16256904548E+01  0.30591233930E+02  0.51100000000E-03 0.  1.
        -12    1    3    3    0    0 -0.20529810024E+01 -0.49033904738E+01  0.22772027362E+01  0.57830460344E+01  0.00000000000E+00 0.  1.
</event>
<event>
 7    1  0.2891523E-011  0.5052886E+02  0.7816164E-02  0.1300439E+00
        -11   -1    0    0    0    0  0.00000000000E+00  0.00000000000E+00  0.45593999997E+02  0.45594000000E+02  0.51100000000E-03 0.  1.
         11   -1    0    0    0    0 -0.00000000000E+00 -0.00000000000E+00 -0.45593999997E+02  0.45594000000E+02  0.51100000000E-03 0. -1.
    9900012    2    1    2    0    0  0.37230753454E+02  0.16076061543E+02  0.29320951991E+01  0.50528856628E+02  0.29999990205E+02 0.  0.
         12    1    1    2    0    0 -0.37230753454E+02 -0.16076061543E+02 -0.29320951991E+01  0.40659143372E+02  0.00000000000E+00 0. -1.
         11    1    3    3    0    0  0.23448307668E+02 -0.12833258669E+01  0.74063155027E+01  0.24623638386E+02  0.51100000000E-03 0. -1.
        -11    1    3    3    0    0  0.15024113198E+02  0.11161946248E+02 -0.54861477633E+01  0.19504123640E+02  0.51100000000E-03 0.  1.
         12    1    3    3    0    0 -0.12416674113E+01  0.61974411618E+01  0.10119274596E+01  0.64010946015E+01  0.00000000000E+00 0. -1.
</event>
<event>
 7    1  0.2891523E-011  0.5052884E+02  0.7816164E-02  0.1300439E+00
        -11   -1    0    0    0    0  0.00000000000E+00  0.00000000000E+00  0.45593999997E+02  0.45594000000E+02  0.51100000000E-03 0.  1.
         11   -1    0    0    0    0 -0.00000000000E+00 -0.00000000000E+00 -0.45593999997E+02  0.45594000000E+02  0.51100000000E-03 0. -1.
    9900012    2    1    2    0    0  0.43177742034E+01  0.27799158188E+01  0.40333558970E+02  0.50528842542E+02  0.29999947390E+02 0.  0.
         12    1    1    2    0    0 -0.43177742034E+01 -0.27799158188E+01 -0.40333558970E+02  0.40659157458E+02  0.00000000000E+00 0. -1.
         11    1    3    3    0    0  0.11188824857E+02 -0.43996212072E+01  0.38080328787E+02  0.39933168034E+02  0.51100000000E-03 0.  1.
        -11    1    3    3    0    0 -0.34176987677E+01  0.49347765501E+01  0.23089036174E+00  0.60071619827E+01  0.51100000000E-03 0. -1.
        -12    1    3    3    0    0 -0.34533518856E+01  0.22447604759E+01  0.20223398213E+01  0.45885125251E+01  0.00000000000E+00 0.  1.
</event>
<event>
 7    1  0.2891523E-011  0.5052886E+02  0.7816164E-02  0.1300439E+00
        -11   -1    0    0    0    0  0.00000000000E+00  0.00000000000E+00  0.45593999997E+02  0.45594000000E+02  0.51100000000E-03 0.  1.
         11   -1    0    0    0    0 -0.00000000000E+00 -0.00000000000E+00 -0.45593999997E+02  0.45594000000E+02  0.51100000000E-03 0. -1.
    9900012    2    1    2    0    0 -0.25130985082E+02 -0.79025198239E+01  0.30970137894E+02  0.50528859922E+02  0.30000000218E+02 0.  0.
         12    1    1    2    0    0  0.25130985082E+02  0.79025198239E+01 -0.30970137894E+02  0.40659140078E+02  0.00000000000E+00 0. -1.
         11    1    3    3    0    0  0.14734539789E+01  0.31808391734E+01 -0.35904444598E+01  0.50179772972E+01  0.51100000000E-03 0. -1.
        -11    1    3    3    0    0 -0.15710977768E+02 -0.28862221023E+01  0.18275015227E+02  0.24272232741E+02  0.51100000000E-03 0.  1.
         12    1    3    3    0    0 -0.10893461294E+02 -0.81971368950E+01  0.16285567127E+02  0.21238649883E+02  0.00000000000E+00 0. -1.
</event>
<event>
 7    1  0.3010515E-011  0.5052885E+02  0.7816164E-02  0.1300439E+00
        -11   -1    0    0    0    0  0.00000000000E+00  0.00000000000E+00  0.45593999997E+02  0.45594000000E+02  0.51100000000E-03 0.  1.
         11   -1    0    0    0    0 -0.00000000000E+00 -0.00000000000E+00 -0.45593999997E+02  0.45594000000E+02  0.51100000000E-03 0. -1.
    9900012    2    1    2    0    0  0.33937573204E+02  0.72073572734E+01  0.21200509482E+02  0.50528850032E+02  0.29999970157E+02 0.  0.
         12    1    1    2    0    0 -0.33937573204E+02 -0.72073572734E+01 -0.21200509482E+02  0.40659149968E+02  0.00000000000E+00 0. -1.
         11    1    3    3    0    0  0.62470769065E+00  0.54236672201E+00 -0.44415758725E+01  0.45179661189E+01  0.51100000000E-03 0. -1.
        -11    1    3    3    0    0  0.32370131455E+02  0.10231830850E+01  0.20575123719E+02  0.38369363173E+02  0.51100000000E-03 0.  1.
        -12    1    3    3    0    0  0.94273405821E+00  0.56418074664E+01  0.50669616360E+01  0.76415207396E+01  0.00000000000E+00 0.  1.
</event>
<event>
 7    1  0.2891523E-011  0.5052885E+02  0.7816164E-02  0.1300439E+00
        -11   -1    0    0    0    0  0.00000000000E+00  0.00000000000E+00  0.45593999997E+02  0.45594000000E+02  0.51100000000E-03 0.  1.
         11   -1    0    0    0    0 -0.00000000000E+00 -0.00000000000E+00 -0.45593999997E+02  0.45594000000E+02  0.51100000000E-03 0. -1.
    9900012    2    1    2    0    0  0.69043120100E+01 -0.12943821026E+02  0.37920373537E+02  0.50528846587E+02  0.29999959684E+02 0.  0.
         12    1    1    2    0    0 -0.69043120100E+01  0.12943821026E+02 -0.37920373537E+02  0.40659153413E+02  0.00000000000E+00 0. -1.
         11    1    3    3    0    0  0.10913829214E+02 -0.32284899213E+01  0.59178283085E+01  0.12827919061E+02  0.51100000000E-03 0. -1.
        -11    1    3    3    0    0 -0.31033820683E+01  0.18514718683E+01  0.22257926482E+02  0.22549372938E+02  0.51100000000E-03 0.  1.
         12    1    3    3    0    0 -0.90613513582E+00 -0.11566802973E+02  0.97446187466E+01  0.15151554587E+02  0.00000000000E+00 0. -1.
</event>
<event>
 7    1  0.2891523E-011  0.5052887E+02  0.7816164E-02  0.1300439E+00
        -11   -1    0    0    0    0  0.00000000000E+00  0.00000000000E+00  0.45593999997E+02  0.45594000000E+02  0.51100000000E-03 0. -1.
         11   -1    0    0    0    0 -0.00000000000E+00 -0.00000000000E+00 -0.45593999997E+02  0.45594000000E+02  0.51100000000E-03 0.  1.
    9900012    2    1    2    0    0  0.11384815838E+01  0.38454004013E+02 -0.13158966034E+02  0.50528868774E+02  0.30000027126E+02 0.  0.
         12    1    1    2    0    0 -0.11384815838E+01 -0.38454004013E+02  0.13158966034E+02  0.40659131226E+02  0.00000000000E+00 0. -1.
         11    1    3    3    0    0 -0.42830023539E+01  0.20721525110E+01 -0.13256240764E+01  0.49391501946E+01  0.51100000000E-03 0. -1.
        -11    1    3    3    0    0  0.14594159028E+02  0.24912172966E+02 -0.46629820692E+01  0.29246354331E+02  0.51100000000E-03 0.  1.
        -12    1    3    3    0    0 -0.91726750904E+01  0.11469678536E+02 -0.71703598888E+01  0.16343364249E+02  0.00000000000E+00 0.  1.
</event>
<event>
 7    1  0.2891523E-011  0.5052887E+02  0.7816164E-02  0.1300439E+00
        -11   -1    0    0    0    0  0.00000000000E+00  0.00000000000E+00  0.45593999997E+02  0.45594000000E+02  0.51100000000E-03 0.  1.
         11   -1    0    0    0    0 -0.00000000000E+00 -0.00000000000E+00 -0.45593999997E+02  0.45594000000E+02  0.51100000000E-03 0. -1.
    9900012    2    1    2    0    0 -0.35286168337E+02  0.12049405446E+02  0.16213050369E+02  0.50528870031E+02  0.30000030947E+02 0.  0.
         12    1    1    2    0    0  0.35286168337E+02 -0.12049405446E+02 -0.16213050369E+02  0.40659129969E+02  0.00000000000E+00 0. -1.
         11    1    3    3    0    0  0.40403049606E+01 -0.17852908748E+01 -0.96957024109E+00  0.45223217926E+01  0.51100000000E-03 0. -1.
        -11    1    3    3    0    0 -0.38503148475E+02  0.14617020916E+02  0.15559502662E+02  0.44025536525E+02  0.51100000000E-03 0.  1.
        -12    1    3    3    0    0 -0.82332482217E+00 -0.78232459462E+00  0.16231179488E+01  0.19810117137E+01  0.00000000000E+00 0.  1.
</event>
<event>
 7    1  0.2891523E-011  0.5052886E+02  0.7816164E-02  0.1300439E+00
        -11   -1    0    0    0    0  0.00000000000E+00  0.00000000000E+00  0.45593999997E+02  0.45594000000E+02  0.51100000000E-03 0.  1.
         11   -1    0    0    0    0 -0.00000000000E+00 -0.00000000000E+00 -0.45593999997E+02  0.45594000000E+02  0.51100000000E-03 0. -1.
    9900012    2    1    2    0    0 -0.15754861233E+02 -0.18085460929E+02  0.32830867920E+02  0.50528862800E+02  0.30000008966E+02 0.  0.
         12    1    1    2    0    0  0.15754861233E+02  0.18085460929E+02 -0.32830867920E+02  0.40659137200E+02  0.00000000000E+00 0. -1.
         11    1    3    3    0    0 -0.13131623874E+02 -0.16671562716E+02  0.53126936716E+01  0.21877048779E+02  0.51100000000E-03 0. -1.
        -11    1    3    3    0    0  0.17566230733E+01 -0.15980322479E+01  0.18196552241E+02  0.18350856803E+02  0.51100000000E-03 0.  1.
         12    1    3    3    0    0 -0.43798604331E+01  0.18413403501E+00  0.93216220072E+01  0.10300957218E+02  0.00000000000E+00 0. -1.
</event>
<event>
 7    1  0.2891523E-011  0.5052886E+02  0.7816164E-02  0.1300439E+00
        -11   -1    0    0    0    0  0.00000000000E+00  0.00000000000E+00  0.45593999997E+02  0.45594000000E+02  0.51100000000E-03 0.  1.
         11   -1    0    0    0    0 -0.00000000000E+00 -0.00000000000E+00 -0.45593999997E+02  0.45594000000E+02  0.51100000000E-03 0. -1.
    9900012    2    1    2    0    0  0.23934818705E+02 -0.32149899619E+02  0.68318309323E+01  0.50528861964E+02  0.30000006426E+02 0.  0.
         12    1    1    2    0    0 -0.23934818705E+02  0.32149899619E+02 -0.68318309323E+01  0.40659138036E+02  0.00000000000E+00 0. -1.
         11    1    3    3    0    0  0.90325086308E+01 -0.21657329000E+02  0.27082589110E+01  0.23621193411E+02  0.51100000000E-03 0. -1.
        -11    1    3    3    0    0  0.48992261965E+01  0.19742130662E+01  0.87914530900E+01  0.10256197261E+02  0.51100000000E-03 0.  1.
         12    1    3    3    0    0  0.10003083877E+02 -0.12466783686E+02 -0.46678810687E+01  0.16651471292E+02  0.00000000000E+00 0. -1.
</event>
<event>
 7    1  0.2891523E-011  0.5052887E+02  0.7816164E-02  0.1300439E+00
        -11   -1    0    0    0    0  0.00000000000E+00  0.00000000000E+00  0.45593999997E+02  0.45594000000E+02  0.51100000000E-03 0.  1.
         11   -1    0    0    0    0 -0.00000000000E+00 -0.00000000000E+00 -0.45593999997E+02  0.45594000000E+02  0.51100000000E-03 0. -1.
    9900012    2    1    2    0    0 -0.12892251252E+02  0.38223458870E+02  0.50913180180E+01  0.50528874708E+02  0.30000045163E+02 0.  0.
         12    1    1    2    0    0  0.12892251252E+02 -0.38223458870E+02 -0.50913180180E+01  0.40659125292E+02  0.00000000000E+00 0. -1.
         11    1    3    3    0    0 -0.52057268053E+01  0.13000133052E+02 -0.99624755096E+01  0.17185865398E+02  0.51100000000E-03 0. -1.
        -11    1    3    3    0    0  0.11152791708E+00  0.20459329221E+02  0.11940678331E+02  0.23689161866E+02  0.51100000000E-03 0.  1.
        -12    1    3    3    0    0 -0.77980523641E+01  0.47639965969E+01  0.31131151963E+01  0.96538474441E+01  0.00000000000E+00 0.  1.
</event>
<event>
 7    1  0.2891523E-011  0.5052887E+02  0.7816164E-02  0.1300439E+00
        -11   -1    0    0    0    0  0.00000000000E+00  0.00000000000E+00  0.45593999997E+02  0.45594000000E+02  0.51100000000E-03 0.  1.
         11   -1    0    0    0    0 -0.00000000000E+00 -0.00000000000E+00 -0.45593999997E+02  0.45594000000E+02  0.51100000000E-03 0. -1.
    9900012    2    1    2    0    0  0.20239244874E+01 -0.32369635693E+02  0.24520913818E+02  0.50528870648E+02  0.30000032822E+02 0.  0.
         12    1    1    2    0    0 -0.20239244874E+01  0.32369635693E+02 -0.24520913818E+02  0.40659129352E+02  0.00000000000E+00 0. -1.
         11    1    3    3    0    0 -0.19678269443E+01  0.35030636335E+01 -0.20991185843E+01  0.45332214588E+01  0.51100000000E-03 0. -1.
        -11    1    3    3    0    0  0.24416555190E+01 -0.29760074682E+02  0.26115883227E+02  0.39669422528E+02  0.51100000000E-03 0.  1.
         12    1    3    3    0    0  0.15500959126E+01 -0.61126246438E+01  0.50414917516E+00  0.63262266609E+01  0.00000000000E+00 0. -1.
</event>
<event>
 7    1  0.2891523E-011  0.5052886E+02  0.7816164E-02  0.1300439E+00
        -11   -1    0    0    0    0  0.00000000000E+00  0.00000000000E+00  0.45593999997E+02  0.45594000000E+02  0.51100000000E-03 0.  1.
         11   -1    0    0    0    0 -0.00000000000E+00 -0.00000000000E+00 -0.45593999997E+02  0.45594000000E+02  0.51100000000E-03 0. -1.
    9900012    2    1    2    0    0  0.71593038471E+01 -0.51582773903E+01  0.39690079049E+02  0.50528857951E+02  0.29999994229E+02 0.  0.
         12    1    1    2    0    0 -0.71593038471E+01  0.51582773903E+01 -0.39690079049E+02  0.40659142049E+02  0.00000000000E+00 0. -1.
         11    1    3    3    0    0  0.15114143649E+02 -0.11805346150E+02  0.28578612814E+02  0.34417156283E+02  0.51100000000E-03 0. -1.
        -11    1    3    3    0    0 -0.44781529763E+00  0.30783147371E+01  0.45986881147E+01  0.55519809798E+01  0.51100000000E-03 0.  1.
         12    1    3    3    0    0 -0.75070245041E+01  0.35687540226E+01  0.65127781205E+01  0.10559720689E+02  0.00000000000E+00 0. -1.
</event>
<event>
 7    1  0.2891523E-011  0.5052879E+02  0.7816164E-02  0.1300439E+00
        -11   -1    0    0    0    0  0.00000000000E+00  0.00000000000E+00  0.45593999997E+02  0.45594000000E+02  0.51100000000E-03 0.  1.
         11   -1    0    0    0    0 -0.00000000000E+00 -0.00000000000E+00 -0.45593999997E+02  0.45594000000E+02  0.51100000000E-03 0. -1.
    9900012    2    1    2    0    0 -0.31729112556E+02 -0.25137780066E+02  0.38114279208E+01  0.50528787599E+02  0.29999780385E+02 0.  0.
         12    1    1    2    0    0  0.31729112556E+02  0.25137780066E+02 -0.38114279208E+01  0.40659212401E+02  0.00000000000E+00 0. -1.
         11    1    3    3    0    0 -0.65679895859E+00  0.39130800716E+01  0.11004582969E+01  0.41175950801E+01  0.51100000000E-03 0. -1.
        -11    1    3    3    0    0 -0.11224105122E+02 -0.22945402795E+02  0.22126259860E+01  0.25639184059E+02  0.51100000000E-03 0.  1.
        -12    1    3    3    0    0 -0.19848208476E+02 -0.61054573433E+01  0.49834363794E+00  0.20772008460E+02  0.00000000000E+00 0.  1.
</event>
<event>
 7    1  0.2891523E-011  0.5052886E+02  0.7816164E-02  0.1300439E+00
        -11   -1    0    0    0    0  0.00000000000E+00  0.00000000000E+00  0.45593999997E+02  0.45594000000E+02  0.51100000000E-03 0.  1.
         11   -1    0    0    0    0 -0.00000000000E+00 -0.00000000000E+00 -0.45593999997E+02  0.45594000000E+02  0.51100000000E-03 0. -1.
    9900012    2    1    2    0    0 -0.39937109789E+02 -0.39726884657E+00  0.76180682725E+01  0.50528861728E+02  0.30000005708E+02 0.  0.
         12    1    1    2    0    0  0.39937109789E+02  0.39726884657E+00 -0.76180682725E+01  0.40659138272E+02  0.00000000000E+00 0. -1.
         11    1    3    3    0    0 -0.94802610962E+00 -0.25976263914E+01 -0.11653012070E+00  0.27676697606E+01  0.51100000000E-03 0. -1.
        -11    1    3    3    0    0 -0.31121270338E+02 -0.62656517881E+01  0.13907520894E+02  0.34658490987E+02  0.51100000000E-03 0.  1.
        -12    1    3    3    0    0 -0.78678133411E+01  0.84660093329E+01 -0.61729225008E+01  0.13102700981E+02  0.00000000000E+00 0.  1.
</event>
<event>
 7    1  0.2891523E-011  0.5052886E+02  0.7816164E-02  0.1300439E+00
        -11   -1    0    0    0    0  0.00000000000E+00  0.00000000000E+00  0.45593999997E+02  0.45594000000E+02  0.51100000000E-03 0. -1.
         11   -1    0    0    0    0 -0.00000000000E+00 -0.00000000000E+00 -0.45593999997E+02  0.45594000000E+02  0.51100000000E-03 0.  1.
    9900012    2    1    2    0    0  0.33897049012E+02  0.15248505276E+02 -0.16481470073E+02  0.50528859568E+02  0.29999999144E+02 0.  0.
         12    1    1    2    0    0 -0.33897049012E+02 -0.15248505276E+02  0.16481470073E+02  0.40659140432E+02  0.00000000000E+00 0. -1.
         11    1    3    3    0    0  0.32645000112E+02  0.10295123413E+02 -0.64176558951E+01  0.34826310540E+02  0.51100000000E-03 0.  1.
        -11    1    3    3    0    0 -0.40855219808E+01  0.38231321749E+01 -0.82196757529E+01  0.99433846967E+01  0.51100000000E-03 0. -1.
         12    1    3    3    0    0  0.53375708810E+01  0.11302496872E+01 -0.18441384247E+01  0.57591643313E+01  0.00000000000E+00 0. -1.
</event>
<event>
 7    1  0.3190541E-011  0.5052886E+02  0.7816164E-02  0.1300439E+00
        -11   -1    0    0    0    0  0.00000000000E+00  0.00000000000E+00  0.45593999997E+02  0.45594000000E+02  0.51100000000E-03 0. -1.
         11   -1    0    0    0    0 -0.00000000000E+00 -0.00000000000E+00 -0.45593999997E+02  0.45594000000E+02  0.51100000000E-03 0.  1.
    9900012    2    1    2    0    0  0.20128405282E+02 -0.11512517085E+02 -0.33398727537E+02  0.50528858962E+02  0.29999997301E+02 0.  0.
         12    1    1    2    0    0 -0.20128405282E+02  0.11512517085E+02  0.33398727537E+02  0.40659141038E+02  0.00000000000E+00 0. -1.
         11    1    3    3    0    0 -0.28431057624E+01 -0.21878990723E+01  0.61839733736E+00  0.36404077045E+01  0.51100000000E-03 0. -1.
        -11    1    3    3    0    0  0.22065618710E+02 -0.12652714512E+02 -0.19730142904E+02  0.32191011989E+02  0.51100000000E-03 0.  1.
        -12    1    3    3    0    0  0.90589233388E+00  0.33280964992E+01 -0.14286981971E+02  0.14697439269E+02  0.00000000000E+00 0.  1.
</event>
<event>
 7    1  0.2891523E-011  0.5052887E+02  0.7816164E-02  0.1300439E+00
        -11   -1    0    0    0    0  0.00000000000E+00  0.00000000000E+00  0.45593999997E+02  0.45594000000E+02  0.51100000000E-03 0. -1.
         11   -1    0    0    0    0 -0.00000000000E+00 -0.00000000000E+00 -0.45593999997E+02  0.45594000000E+02  0.51100000000E-03 0.  1.
    9900012    2    1    2    0    0  0.32840673969E+02  0.12230999118E+02 -0.20616917534E+02  0.50528874398E+02  0.30000044219E+02 0.  0.
         12    1    1    2    0    0 -0.32840673969E+02 -0.12230999118E+02  0.20616917534E+02  0.40659125602E+02  0.00000000000E+00 0. -1.
         11    1    3    3    0    0  0.12205010143E+02 -0.56357809892E+01 -0.71610456135E+00  0.13462433136E+02  0.51100000000E-03 0. -1.
        -11    1    3    3    0    0  0.20241429643E+02  0.19148412451E+02 -0.14322203935E+02  0.31328943474E+02  0.51100000000E-03 0.  1.
        -12    1    3    3    0    0  0.39423418255E+00 -0.12816323438E+01 -0.55786090382E+01  0.57374977870E+01  0.00000000000E+00 0.  1.
</event>
<event>
 7    1  0.2891523E-011  0.5052885E+02  0.7816164E-02  0.1300439E+00
        -11   -1    0    0    0    0  0.00000000000E+00  0.00000000000E+00  0.45593999997E+02  0.45594000000E+02  0.51100000000E-03 0. -1.
         11   -1    0    0    0    0 -0.00000000000E+00 -0.00000000000E+00 -0.45593999997E+02  0.45594000000E+02  0.51100000000E-03 0.  1.
    9900012    2    1    2    0    0 -0.24606911572E+02 -0.26303608686E+02 -0.18862307710E+02  0.50528848765E+02  0.29999966306E+02 0.  0.
         12    1    1    2    0    0  0.24606911572E+02  0.26303608686E+02  0.18862307710E+02  0.40659151235E+02  0.00000000000E+00 0. -1.
         11    1    3    3    0    0 -0.64843771192E+01  0.51232638616E+01 -0.72953780255E+00  0.82962162994E+01  0.51100000000E-03 0. -1.
        -11    1    3    3    0    0 -0.83072508261E+01 -0.10884862916E+02 -0.98009965417E+00  0.13727754827E+02  0.51100000000E-03 0.  1.
         12    1    3    3    0    0 -0.98152836265E+01 -0.20542009632E+02 -0.17152670253E+02  0.28504877639E+02  0.00000000000E+00 0. -1.
</event>
<event>
 7    1  0.2891523E-011  0.5052886E+02  0.7816164E-02  0.1300439E+00
        -11   -1    0    0    0    0  0.00000000000E+00  0.00000000000E+00  0.45593999997E+02  0.45594000000E+02  0.51100000000E-03 0. -1.
         11   -1    0    0    0    0 -0.00000000000E+00 -0.00000000000E+00 -0.45593999997E+02  0.45594000000E+02  0.51100000000E-03 0.  1.
    9900012    2    1    2    0    0 -0.37850051776E+02 -0.14524997507E+02 -0.30925318837E+01  0.50528859263E+02  0.29999998217E+02 0.  0.
         12    1    1    2    0    0  0.37850051776E+02  0.14524997507E+02  0.30925318837E+01  0.40659140737E+02  0.00000000000E+00 0. -1.
         11    1    3    3    0    0 -0.60617996980E+01  0.41410863250E+01  0.39691160190E+01  0.83455313650E+01  0.51100000000E-03 0. -1.
        -11    1    3    3    0    0 -0.18520499699E+02 -0.20996091055E+02 -0.32600750718E+01  0.28186394562E+02  0.51100000000E-03 0.  1.
        -12    1    3    3    0    0 -0.13267752379E+02  0.23300072225E+01 -0.38015728309E+01  0.13996933336E+02  0.00000000000E+00 0.  1.
</event>
<event>
 7    1  0.2891523E-011  0.5052888E+02  0.7816164E-02  0.1300439E+00
        -11   -1    0    0    0    0  0.00000000000E+00  0.00000000000E+00  0.45593999997E+02  0.45594000000E+02  0.51100000000E-03 0.  1.
         11   -1    0    0    0    0 -0.00000000000E+00 -0.00000000000E+00 -0.45593999997E+02  0.45594000000E+02  0.51100000000E-03 0. -1.
    9900012    2    1    2    0    0  0.37084453054E+02  0.12554725201E+02  0.10967495015E+02  0.50528883801E+02  0.30000072802E+02 0.  0.
         12    1    1    2    0    0 -0.37084453054E+02 -0.12554725201E+02 -0.10967495015E+02  0.40659116199E+02  0.00000000000E+00 0. -1.
         11    1    3    3    0    0  0.34768169899E+02  0.57438437672E+01  0.12762027388E+02  0.37479150507E+02  0.51100000000E-03 0. -1.
        -11    1    3    3    0    0  0.43265399918E+01  0.85955983643E+01 -0.30333662630E+01  0.10089825107E+02  0.51100000000E-03 0.  1.
         12    1    3    3    0    0 -0.20102568376E+01 -0.17847169304E+01  0.12388338896E+01  0.29599081879E+01  0.00000000000E+00 0. -1.
</event>
<event>
 7    1  0.2891523E-011  0.5052886E+02  0.7816164E-02  0.1300439E+00
        -11   -1    0    0    0    0  0.00000000000E+00  0.00000000000E+00  0.45593999997E+02  0.45594000000E+02  0.51100000000E-03 0. -1.
         11   -1    0    0    0    0 -0.00000000000E+00 -0.00000000000E+00 -0.45593999997E+02  0.45594000000E+02  0.51100000000E-03 0.  1.
    9900012    2    1    2    0    0  0.29441147077E+02 -0.33217160398E+01 -0.27845114472E+02  0.50528864020E+02  0.30000012676E+02 0.  0.
         12    1    1    2    0    0 -0.29441147077E+02  0.33217160398E+01  0.27845114472E+02  0.40659135980E+02  0.00000000000E+00 0. -1.
         11    1    3    3    0    0  0.11303287312E+02 -0.13581752756E+02 -0.73403816134E+01  0.19133988463E+02  0.51100000000E-03 0. -1.
        -11    1    3    3    0    0  0.70964483831E+01  0.61298227533E+01 -0.16437772800E+02  0.18924446663E+02  0.51100000000E-03 0.  1.
         12    1    3    3    0    0  0.11041411382E+02  0.41302139634E+01 -0.40669600585E+01  0.12470428894E+02  0.00000000000E+00 0. -1.
</event>
<event>
 7    1  0.2891523E-011  0.5052885E+02  0.7816164E-02  0.1300439E+00
        -11   -1    0    0    0    0  0.00000000000E+00  0.00000000000E+00  0.45593999997E+02  0.45594000000E+02  0.51100000000E-03 0.  1.
         11   -1    0    0    0    0 -0.00000000000E+00 -0.00000000000E+00 -0.45593999997E+02  0.45594000000E+02  0.51100000000E-03 0. -1.
    9900012    2    1    2    0    0 -0.52812031503E+01 -0.26763478730E+02  0.30149484088E+02  0.50528852306E+02  0.29999977069E+02 0.  0.
         12    1    1    2    0    0  0.52812031503E+01  0.26763478730E+02 -0.30149484088E+02  0.40659147694E+02  0.00000000000E+00 0. -1.
         11    1    3    3    0    0 -0.11540462263E+02 -0.78870825392E+01  0.39085502304E+01  0.14514306921E+02  0.51100000000E-03 0. -1.
        -11    1    3    3    0    0 -0.20098084830E+01 -0.97828162549E+01  0.19710518010E+02  0.22096319704E+02  0.51100000000E-03 0.  1.
         12    1    3    3    0    0  0.82690675959E+01 -0.90935799357E+01  0.65304158479E+01  0.13918225681E+02  0.00000000000E+00 0. -1.
</event>
<event>
 7    1  0.2891523E-011  0.5052885E+02  0.7816164E-02  0.1300439E+00
        -11   -1    0    0    0    0  0.00000000000E+00  0.00000000000E+00  0.45593999997E+02  0.45594000000E+02  0.51100000000E-03 0. -1.
         11   -1    0    0    0    0 -0.00000000000E+00 -0.00000000000E+00 -0.45593999997E+02  0.45594000000E+02  0.51100000000E-03 0.  1.
    9900012    2    1    2    0    0 -0.14073260910E+02 -0.11731693867E+02 -0.36297065361E+02  0.50528852598E+02  0.29999977957E+02 0.  0.
         12    1    1    2    0    0  0.14073260910E+02  0.11731693867E+02  0.36297065361E+02  0.40659147402E+02  0.00000000000E+00 0. -1.
         11    1    3    3    0    0 -0.30859227348E+01  0.51256161691E+01  0.13837745767E+01  0.61408218162E+01  0.51100000000E-03 0. -1.
        -11    1    3    3    0    0 -0.94251090904E+01 -0.15412374048E+02 -0.38147847393E+02  0.42209385403E+02  0.51100000000E-03 0.  1.
        -12    1    3    3    0    0 -0.15622290849E+01 -0.14449359878E+01  0.46700745509E+00  0.21786453786E+01  0.00000000000E+00 0.  1.
</event>
<event>
 7    1  0.2891523E-011  0.5052886E+02  0.7816164E-02  0.1300439E+00
        -11   -1    0    0    0    0  0.00000000000E+00  0.00000000000E+00  0.45593999997E+02  0.45594000000E+02  0.51100000000E-03 0. -1.
         11   -1    0    0    0    0 -0.00000000000E+00 -0.00000000000E+00 -0.45593999997E+02  0.45594000000E+02  0.51100000000E-03 0.  1.
    9900012    2    1    2    0    0 -0.64318819098E+01 -0.43951145613E+01 -0.39905883409E+02  0.50528859975E+02  0.30000000381E+02 0.  0.
         12    1    1    2    0    0  0.64318819098E+01  0.43951145613E+01  0.39905883409E+02  0.40659140025E+02  0.00000000000E+00 0. -1.
         11    1    3    3    0    0  0.70044130013E+01 -0.11515744669E+02 -0.10592353503E+02  0.17142699022E+02  0.51100000000E-03 0. -1.
        -11    1    3    3    0    0 -0.10571438681E+02  0.46806913863E+01 -0.17386105110E+02  0.20879196316E+02  0.51100000000E-03 0.  1.
         12    1    3    3    0    0 -0.28648562299E+01  0.24399387213E+01 -0.11927424796E+02  0.12506964638E+02  0.00000000000E+00 0. -1.
</event>
<event>
 7    1  0.2891523E-011  0.5052887E+02  0.7816164E-02  0.1300439E+00
        -11   -1    0    0    0    0  0.00000000000E+00  0.00000000000E+00  0.45593999997E+02  0.45594000000E+02  0.51100000000E-03 0.  1.
         11   -1    0    0    0    0 -0.00000000000E+00 -0.00000000000E+00 -0.45593999997E+02  0.45594000000E+02  0.51100000000E-03 0. -1.
    9900012    2    1    2    0    0  0.18192278656E+02  0.18925635541E+01  0.36312865209E+02  0.50528868440E+02  0.30000026110E+02 0.  0.
         12    1    1    2    0    0 -0.18192278656E+02 -0.18925635541E+01 -0.36312865209E+02  0.40659131560E+02  0.00000000000E+00 0. -1.
         11    1    3    3    0    0 -0.58845108952E+01 -0.26127651002E+00  0.18589798799E+01  0.61766933181E+01  0.51100000000E-03 0. -1.
        -11    1    3    3    0    0  0.10569913943E+02  0.70527538487E+01  0.10799676675E+02  0.16676253601E+02  0.51100000000E-03 0.  1.
         12    1    3    3    0    0  0.13506875608E+02 -0.48989137845E+01  0.23654208655E+02  0.27675921521E+02  0.00000000000E+00 0. -1.
</event>
<event>
 7    1  0.2891523E-011  0.5052885E+02  0.7816164E-02  0.1300439E+00
        -11   -1    0    0    0    0  0.00000000000E+00  0.00000000000E+00  0.45593999997E+02  0.45594000000E+02  0.51100000000E-03 0.  1.
         11   -1    0    0    0    0 -0.00000000000E+00 -0.00000000000E+00 -0.45593999997E+02  0.45594000000E+02  0.51100000000E-03 0. -1.
    9900012    2    1    2    0    0 -0.13239868016E+01  0.29841988237E+02  0.27583865320E+02  0.50528845693E+02  0.29999956968E+02 0.  0.
         12    1    1    2    0    0  0.13239868016E+01 -0.29841988237E+02 -0.27583865320E+02  0.40659154307E+02  0.00000000000E+00 0. -1.
         11    1    3    3    0    0  0.12540064307E+01  0.10761797117E+02 -0.37657232962E+01  0.11470374079E+02  0.51100000000E-03 0. -1.
        -11    1    3    3    0    0  0.52000405360E+01  0.10438350674E+02  0.16235975620E+02  0.19990159853E+02  0.51100000000E-03 0.  1.
         12    1    3    3    0    0 -0.77780337684E+01  0.86418404471E+01  0.15113612995E+02  0.19068311760E+02  0.00000000000E+00 0. -1.
</event>
<event>
 7    1  0.2891523E-011  0.5052886E+02  0.7816164E-02  0.1300439E+00
        -11   -1    0    0    0    0  0.00000000000E+00  0.00000000000E+00  0.45593999997E+02  0.45594000000E+02  0.51100000000E-03 0. -1.
         11   -1    0    0    0    0 -0.00000000000E+00 -0.00000000000E+00 -0.45593999997E+02  0.45594000000E+02  0.51100000000E-03 0.  1.
    9900012    2    1    2    0    0 -0.23097941020E+02 -0.30384049078E+02 -0.14016424751E+02  0.50528862275E+02  0.30000007372E+02 0.  0.
         12    1    1    2    0    0  0.23097941020E+02  0.30384049078E+02  0.14016424751E+02  0.40659137725E+02  0.00000000000E+00 0. -1.
         11    1    3    3    0    0 -0.49425724556E+01 -0.92693486455E+01  0.74100770968E+01  0.12855313673E+02  0.51100000000E-03 0. -1.
        -11    1    3    3    0    0 -0.10481545390E+02 -0.15088125035E+02 -0.58265148191E+01  0.19273364678E+02  0.51100000000E-03 0.  1.
         12    1    3    3    0    0 -0.76738231748E+01 -0.60265753972E+01 -0.15599987029E+02  0.18400183924E+02  0.00000000000E+00 0. -1.
</event>
<event>
 7    1  0.2891523E-011  0.5052880E+02  0.7816164E-02  0.1300439E+00
        -11   -1    0    0    0    0  0.00000000000E+00  0.00000000000E+00  0.45593999997E+02  0.45594000000E+02  0.51100000000E-03 0. -1.
         11   -1    0    0    0    0 -0.00000000000E+00 -0.00000000000E+00 -0.45593999997E+02  0.45594000000E+02  0.51100000000E-03 0.  1.
    9900012    2    1    2    0    0  0.23126656843E+02 -0.32972966370E+02  0.55778180261E+01  0.50528796590E+02  0.29999807715E+02 0.  0.
         12    1    1    2    0    0 -0.23126656843E+02  0.32972966370E+02 -0.55778180261E+01  0.40659203410E+02  0.00000000000E+00 0. -1.
         11    1    3    3    0    0  0.10692756952E+02 -0.18576626138E+02 -0.58897559733E+01  0.22228704767E+02  0.51100000000E-03 0.  1.
        -11    1    3    3    0    0  0.43798501343E+01 -0.48695117447E+01  0.14103055377E+02  0.15549643181E+02  0.51100000000E-03 0. -1.
         12    1    3    3    0    0  0.80540497564E+01 -0.95268284874E+01 -0.26354813771E+01  0.12750448643E+02  0.00000000000E+00 0. -1.
</event>
<event>
 7    1  0.2891523E-011  0.5052884E+02  0.7816164E-02  0.1300439E+00
        -11   -1    0    0    0    0  0.00000000000E+00  0.00000000000E+00  0.45593999997E+02  0.45594000000E+02  0.51100000000E-03 0.  1.
         11   -1    0    0    0    0 -0.00000000000E+00 -0.00000000000E+00 -0.45593999997E+02  0.45594000000E+02  0.51100000000E-03 0. -1.
    9900012    2    1    2    0    0 -0.29168718081E+02  0.27489729532E+02  0.68314087451E+01  0.50528837568E+02  0.29999932270E+02 0.  0.
         12    1    1    2    0    0  0.29168718081E+02 -0.27489729532E+02 -0.68314087451E+01  0.40659162432E+02  0.00000000000E+00 0. -1.
         11    1    3    3    0    0  0.30002048703E+01  0.60413078846E+01 -0.13523754392E+01  0.68795021484E+01  0.51100000000E-03 0. -1.
        -11    1    3    3    0    0 -0.69659394896E+01 -0.31608721509E+01  0.13683333679E+01  0.77709563243E+01  0.51100000000E-03 0.  1.
         12    1    3    3    0    0 -0.25202983462E+02  0.24609293799E+02  0.68154508164E+01  0.35878379095E+02  0.00000000000E+00 0. -1.
</event>
<event>
 7    1  0.2891523E-011  0.5052885E+02  0.7816164E-02  0.1300439E+00
        -11   -1    0    0    0    0  0.00000000000E+00  0.00000000000E+00  0.45593999997E+02  0.45594000000E+02  0.51100000000E-03 0. -1.
         11   -1    0    0    0    0 -0.00000000000E+00 -0.00000000000E+00 -0.45593999997E+02  0.45594000000E+02  0.51100000000E-03 0.  1.
    9900012    2    1    2    0    0  0.36350591118E+02  0.11230516885E+01 -0.18180758696E+02  0.50528847199E+02  0.29999961546E+02 0.  0.
         12    1    1    2    0    0 -0.36350591118E+02 -0.11230516885E+01  0.18180758696E+02  0.40659152801E+02  0.00000000000E+00 0. -1.
         11    1    3    3    0    0  0.23977585822E+02 -0.11867589189E+02 -0.84485724118E+01  0.28056063000E+02  0.51100000000E-03 0. -1.
        -11    1    3    3    0    0  0.62530537588E+01  0.88189464679E+01 -0.10444543824E+02  0.15032065529E+02  0.51100000000E-03 0.  1.
        -12    1    3    3    0    0  0.61199515365E+01  0.41716944094E+01  0.71235753972E+00  0.74407186695E+01  0.00000000000E+00 0.  1.
</event>
<event>
 7    1  0.2891523E-011  0.5052888E+02  0.7816164E-02  0.1300439E+00
        -11   -1    0    0    0    0  0.00000000000E+00  0.00000000000E+00  0.45593999997E+02  0.45594000000E+02  0.51100000000E-03 0.  1.
         11   -1    0    0    0    0 -0.00000000000E+00 -0.00000000000E+00 -0.45593999997E+02  0.45594000000E+02  0.51100000000E-03 0. -1.
    9900012    2    1    2    0    0 -0.67355111827E+01 -0.34520701629E+02  0.20398977468E+02  0.50528877609E+02  0.30000053981E+02 0.  0.
         12    1    1    2    0    0  0.67355111827E+01  0.34520701629E+02 -0.20398977468E+02  0.40659122391E+02  0.00000000000E+00 0. -1.
         11    1    3    3    0    0 -0.54046394173E+01 -0.18879633324E+02 -0.86566941346E+00  0.19657061465E+02  0.51100000000E-03 0. -1.
        -11    1    3    3    0    0  0.29896762899E+01 -0.69575637524E+01  0.19624800199E+02  0.21035176272E+02  0.51100000000E-03 0.  1.
        -12    1    3    3    0    0 -0.43205480553E+01 -0.86835045530E+01  0.16398466818E+01  0.98366398715E+01  0.00000000000E+00 0.  1.
</event>
<event>
 7    1  0.2891523E-011  0.5052885E+02  0.7816164E-02  0.1300439E+00
        -11   -1    0    0    0    0  0.00000000000E+00  0.00000000000E+00  0.45593999997E+02  0.45594000000E+02  0.51100000000E-03 0.  1.
         11   -1    0    0    0    0 -0.00000000000E+00 -0.00000000000E+00 -0.45593999997E+02  0.45594000000E+02  0.51100000000E-03 0. -1.
    9900012    2    1    2    0    0  0.25914915374E+02  0.29691915402E+02  0.99986878024E+01  0.50528850515E+02  0.29999971625E+02 0.  0.
         12    1    1    2    0    0 -0.25914915374E+02 -0.29691915402E+02 -0.99986878024E+01  0.40659149485E+02  0.00000000000E+00 0. -1.
         11    1    3    3    0    0 -0.31461039328E+01  0.16804740896E+01  0.79773970147E+01  0.87384682018E+01  0.51100000000E-03 0. -1.
        -11    1    3    3    0    0  0.15219594220E+02  0.20351394644E+02 -0.19257791765E+01  0.25485759511E+02  0.51100000000E-03 0.  1.
         12    1    3    3    0    0  0.13841425087E+02  0.76600466689E+01  0.39470699642E+01  0.16304622802E+02  0.00000000000E+00 0. -1.
</event>
<event>
 7    1  0.2891523E-011  0.5052886E+02  0.7816164E-02  0.1300439E+00
        -11   -1    0    0    0    0  0.00000000000E+00  0.00000000000E+00  0.45593999997E+02  0.45594000000E+02  0.51100000000E-03 0.  1.
         11   -1    0    0    0    0 -0.00000000000E+00 -0.00000000000E+00 -0.45593999997E+02  0.45594000000E+02  0.51100000000E-03 0. -1.
    9900012    2    1    2    0    0  0.30362960737E+00 -0.28490745438E+02  0.29006051264E+02  0.50528858636E+02  0.29999996309E+02 0.  0.
         12    1    1    2    0    0 -0.30362960737E+00  0.28490745438E+02 -0.29006051264E+02  0.40659141364E+02  0.00000000000E+00 0. -1.
         11    1    3    3    0    0  0.67121621798E+01 -0.49600353416E+01  0.19547229535E+02  0.21254393769E+02  0.51100000000E-03 0. -1.
        -11    1    3    3    0    0 -0.66626709338E+01 -0.13273602067E+02  0.11536290273E+02  0.18806001418E+02  0.51100000000E-03 0.  1.
         12    1    3    3    0    0  0.25413836139E+00 -0.10257108029E+02 -0.20774685438E+01  0.10468463449E+02  0.00000000000E+00 0. -1.
</event>
<event>
 7    1  0.2891523E-011  0.5052886E+02  0.7816164E-02  0.1300439E+00
        -11   -1    0    0    0    0  0.00000000000E+00  0.00000000000E+00  0.45593999997E+02  0.45594000000E+02  0.51100000000E-03 0. -1.
         11   -1    0    0    0    0 -0.00000000000E+00 -0.00000000000E+00 -0.45593999997E+02  0.45594000000E+02  0.51100000000E-03 0.  1.
    9900012    2    1    2    0    0  0.13811203460E+02  0.38042699477E+02 -0.38947934020E+01  0.50528859082E+02  0.29999997665E+02 0.  0.
         12    1    1    2    0    0 -0.13811203460E+02 -0.38042699477E+02  0.38947934020E+01  0.40659140918E+02  0.00000000000E+00 0. -1.
         11    1    3    3    0    0  0.31392909943E+00 -0.62826100817E+00  0.48541044297E+01  0.49046501862E+01  0.51100000000E-03 0. -1.
        -11    1    3    3    0    0  0.16051636517E+02  0.21424923934E+02 -0.17189580206E+01  0.26826054824E+02  0.51100000000E-03 0.  1.
        -12    1    3    3    0    0 -0.25543621564E+01  0.17246036551E+02 -0.70299398112E+01  0.18798154072E+02  0.00000000000E+00 0.  1.
</event>
<event>
 7    1  0.2891523E-011  0.5052886E+02  0.7816164E-02  0.1300439E+00
        -11   -1    0    0    0    0  0.00000000000E+00  0.00000000000E+00  0.45593999997E+02  0.45594000000E+02  0.51100000000E-03 0.  1.
         11   -1    0    0    0    0 -0.00000000000E+00 -0.00000000000E+00 -0.45593999997E+02  0.45594000000E+02  0.51100000000E-03 0. -1.
    9900012    2    1    2    0    0  0.40384074787E+01 -0.16461078233E+02  0.36957941743E+02  0.50528864625E+02  0.30000014514E+02 0.  0.
         12    1    1    2    0    0 -0.40384074787E+01  0.16461078233E+02 -0.36957941743E+02  0.40659135375E+02  0.00000000000E+00 0. -1.
         11    1    3    3    0    0  0.12073090938E+02 -0.53983358316E+01  0.17916013725E+02  0.22268477779E+02  0.51100000000E-03 0. -1.
        -11    1    3    3    0    0 -0.62277684154E+01 -0.83676147198E+01  0.16405223839E+01  0.10559043019E+02  0.51100000000E-03 0.  1.
        -12    1    3    3    0    0 -0.18069150441E+01 -0.26951276813E+01  0.17401405634E+02  0.17701343826E+02  0.00000000000E+00 0.  1.
</event>
<event>
 7    1  0.2891523E-011  0.5052886E+02  0.7816164E-02  0.1300439E+00
        -11   -1    0    0    0    0  0.00000000000E+00  0.00000000000E+00  0.45593999997E+02  0.45594000000E+02  0.51100000000E-03 0.  1.
         11   -1    0    0    0    0 -0.00000000000E+00 -0.00000000000E+00 -0.45593999997E+02  0.45594000000E+02  0.51100000000E-03 0. -1.
    9900012    2    1    2    0    0 -0.30653130851E+02  0.15064158753E+02  0.22059519543E+02  0.50528859424E+02  0.29999998706E+02 0.  0.
         12    1    1    2    0    0  0.30653130851E+02 -0.15064158753E+02 -0.22059519543E+02  0.40659140576E+02  0.00000000000E+00 0. -1.
         11    1    3    3    0    0 -0.18506750860E+02  0.81936387971E+01  0.28668526994E+01  0.20441486952E+02  0.51100000000E-03 0. -1.
        -11    1    3    3    0    0  0.17775866062E+00  0.32391175284E+01  0.16684355175E+02  0.16996799356E+02  0.51100000000E-03 0.  1.
        -12    1    3    3    0    0 -0.12324138651E+02  0.36314024280E+01  0.25083116688E+01  0.13090573116E+02  0.00000000000E+00 0.  1.
</event>
<event>
 7    1  0.2891523E-011  0.5052886E+02  0.7816164E-02  0.1300439E+00
        -11   -1    0    0    0    0  0.00000000000E+00  0.00000000000E+00  0.45593999997E+02  0.45594000000E+02  0.51100000000E-03 0.  1.
         11   -1    0    0    0    0 -0.00000000000E+00 -0.00000000000E+00 -0.45593999997E+02  0.45594000000E+02  0.51100000000E-03 0. -1.
    9900012    2    1    2    0    0 -0.17879034882E+02  0.35981165126E+02 -0.62338934296E+01  0.50528861305E+02  0.30000004424E+02 0.  0.
         12    1    1    2    0    0  0.17879034882E+02 -0.35981165126E+02  0.62338934296E+01  0.40659138695E+02  0.00000000000E+00 0. -1.
         11    1    3    3    0    0 -0.93635682468E+01  0.18305004091E+02 -0.16951560781E+02  0.26647795374E+02  0.51100000000E-03 0. -1.
        -11    1    3    3    0    0 -0.52472088250E+01  0.11042349986E+02  0.18993764998E+01  0.12372320923E+02  0.51100000000E-03 0.  1.
         12    1    3    3    0    0 -0.32682578101E+01  0.66338110483E+01  0.88182908516E+01  0.11508745009E+02  0.00000000000E+00 0. -1.
</event>
<event>
 7    1  0.2891523E-011  0.5052892E+02  0.7816164E-02  0.1300439E+00
        -11   -1    0    0    0    0  0.00000000000E+00  0.00000000000E+00  0.45593999997E+02  0.45594000000E+02  0.51100000000E-03 0. -1.
         11   -1    0    0    0    0 -0.00000000000E+00 -0.00000000000E+00 -0.45593999997E+02  0.45594000000E+02  0.51100000000E-03 0.  1.
    9900012    2    1    2    0    0  0.14965769719E+02  0.22059587244E+02 -0.30701157742E+02  0.50528920579E+02  0.30000184591E+02 0.  0.
         12    1    1    2    0    0 -0.14965769719E+02 -0.22059587244E+02  0.30701157742E+02  0.40659079421E+02  0.00000000000E+00 0. -1.
         11    1    3    3    0    0  0.25240242153E+01 -0.14138378720E+01 -0.18819680810E+02  0.19040746357E+02  0.51100000000E-03 0. -1.
        -11    1    3    3    0    0  0.10309546322E+02  0.14083035883E+02 -0.17985484208E+01  0.17545752242E+02  0.51100000000E-03 0.  1.
         12    1    3    3    0    0  0.21321991809E+01  0.93903892334E+01 -0.10082928511E+02  0.13942421980E+02  0.00000000000E+00 0. -1.
</event>
<event>
 7    1  0.2891523E-011  0.5052886E+02  0.7816164E-02  0.1300439E+00
        -11   -1    0    0    0    0  0.00000000000E+00  0.00000000000E+00  0.45593999997E+02  0.45594000000E+02  0.51100000000E-03 0.  1.
         11   -1    0    0    0    0 -0.00000000000E+00 -0.00000000000E+00 -0.45593999997E+02  0.45594000000E+02  0.51100000000E-03 0. -1.
    9900012    2    1    2    0    0  0.27798847452E+02 -0.24897783477E+02  0.16139700234E+02  0.50528862462E+02  0.30000007938E+02 0.  0.
         12    1    1    2    0    0 -0.27798847452E+02  0.24897783477E+02 -0.16139700234E+02  0.40659137538E+02  0.00000000000E+00 0. -1.
         11    1    3    3    0    0  0.17122419003E+02 -0.43940833997E+00  0.11727433388E+02  0.20758203350E+02  0.51100000000E-03 0. -1.
        -11    1    3    3    0    0  0.12248261033E+02 -0.17758448556E+02  0.65826605810E+01  0.22554684969E+02  0.51100000000E-03 0.  1.
        -12    1    3    3    0    0 -0.15718325841E+01 -0.66999265809E+01 -0.21703937348E+01  0.72159741426E+01  0.00000000000E+00 0.  1.
</event>
<event>
 7    1  0.2891523E-011  0.5052886E+02  0.7816164E-02  0.1300439E+00
        -11   -1    0    0    0    0  0.00000000000E+00  0.00000000000E+00  0.45593999997E+02  0.45594000000E+02  0.51100000000E-03 0.  1.
         11   -1    0    0    0    0 -0.00000000000E+00 -0.00000000000E+00 -0.45593999997E+02  0.45594000000E+02  0.51100000000E-03 0. -1.
    9900012    2    1    2    0    0 -0.10836153055E+02 -0.33598606068E+02  0.20171189825E+02  0.50528862753E+02  0.30000008824E+02 0.  0.
         12    1    1    2    0    0  0.10836153055E+02  0.33598606068E+02 -0.20171189825E+02  0.40659137247E+02  0.00000000000E+00 0. -1.
         11    1    3    3    0    0 -0.15369312327E+02 -0.82673728229E+01  0.19469916503E+01  0.17560068096E+02  0.51100000000E-03 0. -1.
        -11    1    3    3    0    0  0.26880114576E+01 -0.10423625766E+02  0.13407355021E+02  0.17194026539E+02  0.51100000000E-03 0.  1.
         12    1    3    3    0    0  0.18451478146E+01 -0.14907607479E+02  0.48168431535E+01  0.15774768118E+02  0.00000000000E+00 0. -1.
</event>
<event>
 7    1  0.2891523E-011  0.5052885E+02  0.7816164E-02  0.1300439E+00
        -11   -1    0    0    0    0  0.00000000000E+00  0.00000000000E+00  0.45593999997E+02  0.45594000000E+02  0.51100000000E-03 0.  1.
         11   -1    0    0    0    0 -0.00000000000E+00 -0.00000000000E+00 -0.45593999997E+02  0.45594000000E+02  0.51100000000E-03 0. -1.
    9900012    2    1    2    0    0 -0.29586257007E+02  0.25942523274E+02  0.10237444356E+02  0.50528851159E+02  0.29999973584E+02 0.  0.
         12    1    1    2    0    0  0.29586257007E+02 -0.25942523274E+02 -0.10237444356E+02  0.40659148841E+02  0.00000000000E+00 0. -1.
         11    1    3    3    0    0 -0.19876036798E+02 -0.19647069594E+00  0.82224802765E+01  0.21510569999E+02  0.51100000000E-03 0.  1.
        -11    1    3    3    0    0 -0.52604377255E+01  0.16799573787E+02 -0.24066839845E+01  0.17767667617E+02  0.51100000000E-03 0. -1.
         12    1    3    3    0    0 -0.44497824843E+01  0.93394201831E+01  0.44216480640E+01  0.11250613544E+02  0.00000000000E+00 0. -1.
</event>
<event>
 7    1  0.2891523E-011  0.5052885E+02  0.7816164E-02  0.1300439E+00
        -11   -1    0    0    0    0  0.00000000000E+00  0.00000000000E+00  0.45593999997E+02  0.45594000000E+02  0.51100000000E-03 0.  1.
         11   -1    0    0    0    0 -0.00000000000E+00 -0.00000000000E+00 -0.45593999997E+02  0.45594000000E+02  0.51100000000E-03 0. -1.
    9900012    2    1    2    0    0 -0.39441777791E+02 -0.11634945993E+01 -0.98060458756E+01  0.50528854772E+02  0.29999984565E+02 0.  0.
         12    1    1    2    0    0  0.39441777791E+02  0.11634945993E+01  0.98060458756E+01  0.40659145228E+02  0.00000000000E+00 0. -1.
         11    1    3    3    0    0 -0.15276646839E+02  0.85167514773E+01  0.49196985063E+01  0.18169051379E+02  0.51100000000E-03 0. -1.
        -11    1    3    3    0    0 -0.18513650279E+02 -0.94617234582E+01 -0.54465997980E+01  0.21492903645E+02  0.51100000000E-03 0.  1.
         12    1    3    3    0    0 -0.56514806725E+01 -0.21852261839E+00 -0.92791445839E+01  0.10866899748E+02  0.00000000000E+00 0. -1.
</event>
<event>
 7    1  0.2891523E-011  0.5052886E+02  0.7816164E-02  0.1300439E+00
        -11   -1    0    0    0    0  0.00000000000E+00  0.00000000000E+00  0.45593999997E+02  0.45594000000E+02  0.51100000000E-03 0.  1.
         11   -1    0    0    0    0 -0.00000000000E+00 -0.00000000000E+00 -0.45593999997E+02  0.45594000000E+02  0.51100000000E-03 0. -1.
    9900012    2    1    2    0    0  0.26276788180E+02  0.46240586906E+01  0.30680836989E+02  0.50528864813E+02  0.30000015085E+02 0.  0.
         12    1    1    2    0    0 -0.26276788180E+02 -0.46240586906E+01 -0.30680836989E+02  0.40659135187E+02  0.00000000000E+00 0. -1.
         11    1    3    3    0    0 -0.52951074609E+00  0.32008365400E+01 -0.22967084472E+01  0.39749976275E+01  0.51100000000E-03 0. -1.
        -11    1    3    3    0    0  0.27310850169E+02  0.29234756800E+01  0.34673272538E+02  0.44234207078E+02  0.51100000000E-03 0.  1.
        -12    1    3    3    0    0 -0.50455124371E+00 -0.15002535295E+01 -0.16957271020E+01  0.23196601076E+01  0.00000000000E+00 0.  1.
</event>
<event>
 7    1  0.2891523E-011  0.5052886E+02  0.7816164E-02  0.1300439E+00
        -11   -1    0    0    0    0  0.00000000000E+00  0.00000000000E+00  0.45593999997E+02  0.45594000000E+02  0.51100000000E-03 0. -1.
         11   -1    0    0    0    0 -0.00000000000E+00 -0.00000000000E+00 -0.45593999997E+02  0.45594000000E+02  0.51100000000E-03 0.  1.
    9900012    2    1    2    0    0 -0.15544205700E+02  0.33957859906E+02  0.16075054461E+02  0.50528856426E+02  0.29999989593E+02 0.  0.
         12    1    1    2    0    0  0.15544205700E+02 -0.33957859906E+02 -0.16075054461E+02  0.40659143574E+02  0.00000000000E+00 0. -1.
         11    1    3    3    0    0 -0.29851540096E+00 -0.22016824806E+01  0.72170935202E+01  0.75513546023E+01  0.51100000000E-03 0. -1.
        -11    1    3    3    0    0 -0.11603761354E+02  0.25756963290E+02  0.13135829562E+02  0.31154750104E+02  0.51100000000E-03 0.  1.
         12    1    3    3    0    0 -0.36419289452E+01  0.10402579096E+02 -0.42778686206E+01  0.11822751720E+02  0.00000000000E+00 0. -1.
</event>
<event>
 7    1  0.2891523E-011  0.5052886E+02  0.7816164E-02  0.1300439E+00
        -11   -1    0    0    0    0  0.00000000000E+00  0.00000000000E+00  0.45593999997E+02  0.45594000000E+02  0.51100000000E-03 0.  1.
         11   -1    0    0    0    0 -0.00000000000E+00 -0.00000000000E+00 -0.45593999997E+02  0.45594000000E+02  0.51100000000E-03 0. -1.
    9900012    2    1    2    0    0  0.38083264210E+02  0.52937665981E+00  0.14232021948E+02  0.50528859560E+02  0.29999999120E+02 0.  0.
         12    1    1    2    0    0 -0.38083264210E+02 -0.52937665981E+00 -0.14232021948E+02  0.40659140440E+02  0.00000000000E+00 0. -1.
         11    1    3    3    0    0  0.78422428775E+01 -0.64631494086E+01 -0.55566866241E+01  0.11582307202E+02  0.51100000000E-03 0. -1.
        -11    1    3    3    0    0  0.10819517886E+02  0.37473072999E+01  0.14654809000E+02  0.18597518823E+02  0.51100000000E-03 0.  1.
        -12    1    3    3    0    0  0.19421503447E+02  0.32452187685E+01  0.51338995721E+01  0.20349033535E+02  0.00000000000E+00 0.  1.
</event>
<event>
 7    1  0.2891523E-011  0.5052887E+02  0.7816164E-02  0.1300439E+00
        -11   -1    0    0    0    0  0.00000000000E+00  0.00000000000E+00  0.45593999997E+02  0.45594000000E+02  0.51100000000E-03 0.  1.
         11   -1    0    0    0    0 -0.00000000000E+00 -0.00000000000E+00 -0.45593999997E+02  0.45594000000E+02  0.51100000000E-03 0. -1.
    9900012    2    1    2    0    0  0.44256331000E+01 -0.34166184752E+02  0.21592841239E+02  0.50528865705E+02  0.30000017796E+02 0.  0.
         12    1    1    2    0    0 -0.44256331000E+01  0.34166184752E+02 -0.21592841239E+02  0.40659134295E+02  0.00000000000E+00 0. -1.
         11    1    3    3    0    0  0.99520901612E+00  0.22804256033E+00  0.47439855256E+01  0.48526120103E+01  0.51100000000E-03 0. -1.
        -11    1    3    3    0    0 -0.18810486033E+01 -0.34832325738E+02  0.19237376802E+02  0.39835987833E+02  0.51100000000E-03 0.  1.
        -12    1    3    3    0    0  0.53114726871E+01  0.43809842522E+00 -0.23885210891E+01  0.58402658612E+01  0.00000000000E+00 0.  1.
</event>
<event>
 7    1  0.2891523E-011  0.5052889E+02  0.7816164E-02  0.1300439E+00
        -11   -1    0    0    0    0  0.00000000000E+00  0.00000000000E+00  0.45593999997E+02  0.45594000000E+02  0.51100000000E-03 0. -1.
         11   -1    0    0    0    0 -0.00000000000E+00 -0.00000000000E+00 -0.45593999997E+02  0.45594000000E+02  0.51100000000E-03 0.  1.
    9900012    2    1    2    0    0 -0.39688432834E+02 -0.68428193736E+01  0.55827877736E+01  0.50528887896E+02  0.30000085248E+02 0.  0.
         12    1    1    2    0    0  0.39688432834E+02  0.68428193736E+01 -0.55827877736E+01  0.40659112104E+02  0.00000000000E+00 0. -1.
         11    1    3    3    0    0 -0.75045099430E+01 -0.22814714770E+01  0.11788716437E+02  0.14159682803E+02  0.51100000000E-03 0. -1.
        -11    1    3    3    0    0 -0.21025378415E+02  0.62189281606E+00  0.26626644754E+01  0.21202430770E+02  0.51100000000E-03 0.  1.
         12    1    3    3    0    0 -0.11158544475E+02 -0.51832407127E+01 -0.88685931389E+01  0.15166774323E+02  0.00000000000E+00 0. -1.
</event>
<event>
 7    1  0.2891523E-011  0.5052879E+02  0.7816164E-02  0.1300439E+00
        -11   -1    0    0    0    0  0.00000000000E+00  0.00000000000E+00  0.45593999997E+02  0.45594000000E+02  0.51100000000E-03 0. -1.
         11   -1    0    0    0    0 -0.00000000000E+00 -0.00000000000E+00 -0.45593999997E+02  0.45594000000E+02  0.51100000000E-03 0.  1.
    9900012    2    1    2    0    0  0.36003168848E+02 -0.16069083680E+02 -0.99361895640E+01  0.50528788492E+02  0.29999783098E+02 0.  0.
         12    1    1    2    0    0 -0.36003168848E+02  0.16069083680E+02  0.99361895640E+01  0.40659211508E+02  0.00000000000E+00 0. -1.
         11    1    3    3    0    0  0.30798416214E+02  0.48733757058E+00 -0.18273518068E+01  0.30856428084E+02  0.51100000000E-03 0. -1.
        -11    1    3    3    0    0  0.59195323047E+01 -0.15613593789E+02 -0.72179861535E+01  0.18191330300E+02  0.51100000000E-03 0.  1.
         12    1    3    3    0    0 -0.71477967047E+00 -0.94282746114E+00 -0.89085160372E+00  0.14810301073E+01  0.00000000000E+00 0. -1.
</event>
<event>
 7    1  0.2891523E-011  0.5052887E+02  0.7816164E-02  0.1300439E+00
        -11   -1    0    0    0    0  0.00000000000E+00  0.00000000000E+00  0.45593999997E+02  0.45594000000E+02  0.51100000000E-03 0. -1.
         11   -1    0    0    0    0 -0.00000000000E+00 -0.00000000000E+00 -0.45593999997E+02  0.45594000000E+02  0.51100000000E-03 0.  1.
    9900012    2    1    2    0    0 -0.16254015312E+02 -0.33511582542E+02 -0.16307841974E+02  0.50528869560E+02  0.30000029516E+02 0.  0.
         12    1    1    2    0    0  0.16254015312E+02  0.33511582542E+02  0.16307841974E+02  0.40659130440E+02  0.00000000000E+00 0. -1.
         11    1    3    3    0    0  0.17135686666E+01  0.74931570292E-01  0.22245485667E+01  0.28090120866E+01  0.51100000000E-03 0. -1.
        -11    1    3    3    0    0 -0.11432941961E+02 -0.10994003431E+02 -0.18277173474E+02  0.24199903797E+02  0.51100000000E-03 0.  1.
        -12    1    3    3    0    0 -0.65346420179E+01 -0.22592510682E+02 -0.25521706651E+00  0.23519953677E+02  0.00000000000E+00 0.  1.
</event>
<event>
 7    1  0.2891523E-011  0.5052885E+02  0.7816164E-02  0.1300439E+00
        -11   -1    0    0    0    0  0.00000000000E+00  0.00000000000E+00  0.45593999997E+02  0.45594000000E+02  0.51100000000E-03 0.  1.
         11   -1    0    0    0    0 -0.00000000000E+00 -0.00000000000E+00 -0.45593999997E+02  0.45594000000E+02  0.51100000000E-03 0. -1.
    9900012    2    1    2    0    0 -0.19479407322E+02 -0.35291206355E+02  0.53151029774E+01  0.50528845123E+02  0.29999955237E+02 0.  0.
         12    1    1    2    0    0  0.19479407322E+02  0.35291206355E+02 -0.53151029774E+01  0.40659154877E+02  0.00000000000E+00 0. -1.
         11    1    3    3    0    0 -0.43357607199E+01 -0.13445480563E+02 -0.73994153133E+01  0.15947762095E+02  0.51100000000E-03 0. -1.
        -11    1    3    3    0    0 -0.43026357096E+00 -0.68004087063E+01  0.11667060407E+02  0.13511142961E+02  0.51100000000E-03 0.  1.
        -12    1    3    3    0    0 -0.14713383031E+02 -0.15045317086E+02  0.10474578841E+01  0.21069940067E+02  0.00000000000E+00 0.  1.
</event>
<event>
 7    1  0.2891523E-011  0.5052886E+02  0.7816164E-02  0.1300439E+00
        -11   -1    0    0    0    0  0.00000000000E+00  0.00000000000E+00  0.45593999997E+02  0.45594000000E+02  0.51100000000E-03 0. -1.
         11   -1    0    0    0    0 -0.00000000000E+00 -0.00000000000E+00 -0.45593999997E+02  0.45594000000E+02  0.51100000000E-03 0.  1.
    9900012    2    1    2    0    0 -0.61955080751E+01 -0.35164239480E+02 -0.19448849526E+02  0.50528858268E+02  0.29999995192E+02 0.  0.
         12    1    1    2    0    0  0.61955080751E+01  0.35164239480E+02  0.19448849526E+02  0.40659141732E+02  0.00000000000E+00 0. -1.
         11    1    3    3    0    0  0.53457080287E+01 -0.16012480278E+02 -0.73745690969E+00  0.16897335942E+02  0.51100000000E-03 0. -1.
        -11    1    3    3    0    0 -0.41595500108E+01 -0.13054066489E+02 -0.19711127512E+02  0.24004979822E+02  0.51100000000E-03 0.  1.
         12    1    3    3    0    0 -0.73816660930E+01 -0.60976927130E+01  0.99973489579E+00  0.96265425046E+01  0.00000000000E+00 0. -1.
</event>
<event>
 7    1  0.2891523E-011  0.5052886E+02  0.7816164E-02  0.1300439E+00
        -11   -1    0    0    0    0  0.00000000000E+00  0.00000000000E+00  0.45593999997E+02  0.45594000000E+02  0.51100000000E-03 0.  1.
         11   -1    0    0    0    0 -0.00000000000E+00 -0.00000000000E+00 -0.45593999997E+02  0.45594000000E+02  0.51100000000E-03 0. -1.
    9900012    2    1    2    0    0 -0.18721533910E+02  0.12588208196E+02  0.33826129329E+02  0.50528857818E+02  0.29999993825E+02 0.  0.
         12    1    1    2    0    0  0.18721533910E+02 -0.12588208196E+02 -0.33826129329E+02  0.40659142182E+02  0.00000000000E+00 0. -1.
         11    1    3    3    0    0 -0.14409433097E+02 -0.83454614587E+00  0.78827900651E+01  0.16445869053E+02  0.51100000000E-03 0. -1.
        -11    1    3    3    0    0  0.61234694215E+01  0.23657377187E+01  0.52554624535E+01  0.84091306667E+01  0.51100000000E-03 0.  1.
        -12    1    3    3    0    0 -0.10435570234E+02  0.11057016624E+02  0.20687876811E+02  0.25673858099E+02  0.00000000000E+00 0.  1.
</event>
<event>
 7    1  0.2891523E-011  0.5052879E+02  0.7816164E-02  0.1300439E+00
        -11   -1    0    0    0    0  0.00000000000E+00  0.00000000000E+00  0.45593999997E+02  0.45594000000E+02  0.51100000000E-03 0.  1.
         11   -1    0    0    0    0 -0.00000000000E+00 -0.00000000000E+00 -0.45593999997E+02  0.45594000000E+02  0.51100000000E-03 0. -1.
    9900012    2    1    2    0    0 -0.10221971508E+02 -0.38092010133E+02 -0.98833999585E+01  0.50528787855E+02  0.29999781165E+02 0.  0.
         12    1    1    2    0    0  0.10221971508E+02  0.38092010133E+02  0.98833999585E+01  0.40659212145E+02  0.00000000000E+00 0. -1.
         11    1    3    3    0    0 -0.19185044550E+02 -0.21613409601E+02 -0.91198740006E+00  0.28914306670E+02  0.51100000000E-03 0. -1.
        -11    1    3    3    0    0  0.15624903411E+01 -0.49827767304E+01 -0.53389689976E+01  0.74682012714E+01  0.51100000000E-03 0.  1.
         12    1    3    3    0    0  0.74005827001E+01 -0.11495823802E+02 -0.36324435608E+01  0.14146279914E+02  0.00000000000E+00 0. -1.
</event>
<event>
 7    1  0.2891523E-011  0.5052887E+02  0.7816164E-02  0.1300439E+00
        -11   -1    0    0    0    0  0.00000000000E+00  0.00000000000E+00  0.45593999997E+02  0.45594000000E+02  0.51100000000E-03 0.  1.
         11   -1    0    0    0    0 -0.00000000000E+00 -0.00000000000E+00 -0.45593999997E+02  0.45594000000E+02  0.51100000000E-03 0. -1.
    9900012    2    1    2    0    0  0.36406872278E+02 -0.15882226500E+02  0.86867533970E+01  0.50528866313E+02  0.30000019644E+02 0.  0.
         12    1    1    2    0    0 -0.36406872278E+02  0.15882226500E+02 -0.86867533970E+01  0.40659133687E+02  0.00000000000E+00 0. -1.
         11    1    3    3    0    0 -0.27249505801E+01 -0.49196707346E+01 -0.37541023017E+00  0.56364393817E+01  0.51100000000E-03 0. -1.
        -11    1    3    3    0    0  0.16927950933E+02  0.18424861467E+01  0.90013785119E+01  0.19260713730E+02  0.51100000000E-03 0.  1.
        -12    1    3    3    0    0  0.22203871924E+02 -0.12805041912E+02  0.60785115339E-01  0.25631713201E+02  0.00000000000E+00 0.  1.
</event>
<event>
 7    1  0.2891523E-011  0.5052886E+02  0.7816164E-02  0.1300439E+00
        -11   -1    0    0    0    0  0.00000000000E+00  0.00000000000E+00  0.45593999997E+02  0.45594000000E+02  0.51100000000E-03 0. -1.
         11   -1    0    0    0    0 -0.00000000000E+00 -0.00000000000E+00 -0.45593999997E+02  0.45594000000E+02  0.51100000000E-03 0.  1.
    9900012    2    1    2    0    0  0.37055501836E+02 -0.15240002261E+02 -0.69136213812E+01  0.50528855323E+02  0.29999986241E+02 0.  0.
         12    1    1    2    0    0 -0.37055501836E+02  0.15240002261E+02  0.69136213812E+01  0.40659144677E+02  0.00000000000E+00 0. -1.
         11    1    3    3    0    0  0.79912926023E+01 -0.73166190590E+01  0.75835859291E+01  0.13225144525E+02  0.51100000000E-03 0. -1.
        -11    1    3    3    0    0  0.27571474678E+02 -0.11897283875E+02 -0.13599574666E+02  0.32964829908E+02  0.51100000000E-03 0.  1.
        -12    1    3    3    0    0  0.14927345556E+01  0.39739006730E+01 -0.89763264427E+00  0.43388808898E+01  0.00000000000E+00 0.  1.
</event>
<event>
 7    1  0.2891523E-011  0.5052886E+02  0.7816164E-02  0.1300439E+00
        -11   -1    0    0    0    0  0.00000000000E+00  0.00000000000E+00  0.45593999997E+02  0.45594000000E+02  0.51100000000E-03 0. -1.
         11   -1    0    0    0    0 -0.00000000000E+00 -0.00000000000E+00 -0.45593999997E+02  0.45594000000E+02  0.51100000000E-03 0.  1.
    9900012    2    1    2    0    0 -0.26633961765E+02  0.30438407231E+02  0.41594184783E+01  0.50528864297E+02  0.30000013516E+02 0.  0.
         12    1    1    2    0    0  0.26633961765E+02 -0.30438407231E+02 -0.41594184783E+01  0.40659135703E+02  0.00000000000E+00 0. -1.
         11    1    3    3    0    0 -0.67903938670E+01  0.10094894517E+02  0.12382533424E+02  0.17359247635E+02  0.51100000000E-03 0. -1.
        -11    1    3    3    0    0 -0.11878539468E+02  0.20644250280E+01 -0.45983943962E+01  0.12903750690E+02  0.51100000000E-03 0.  1.
        -12    1    3    3    0    0 -0.79650284301E+01  0.18279087686E+02 -0.36247205500E+01  0.20265865972E+02  0.00000000000E+00 0.  1.
</event>
<event>
 7    1  0.2891523E-011  0.5052885E+02  0.7816164E-02  0.1300439E+00
        -11   -1    0    0    0    0  0.00000000000E+00  0.00000000000E+00  0.45593999997E+02  0.45594000000E+02  0.51100000000E-03 0.  1.
         11   -1    0    0    0    0 -0.00000000000E+00 -0.00000000000E+00 -0.45593999997E+02  0.45594000000E+02  0.51100000000E-03 0. -1.
    9900012    2    1    2    0    0 -0.92755788984E+01 -0.30742954532E+02  0.24939942029E+02  0.50528851882E+02  0.29999975781E+02 0.  0.
         12    1    1    2    0    0  0.92755788984E+01  0.30742954532E+02 -0.24939942029E+02  0.40659148118E+02  0.00000000000E+00 0. -1.
         11    1    3    3    0    0 -0.31115800876E+01 -0.18480938122E+02  0.20914555129E+02  0.28082834989E+02  0.51100000000E-03 0.  1.
        -11    1    3    3    0    0 -0.66513997956E+01 -0.10297801738E+02 -0.49681714697E+01  0.13227568480E+02  0.51100000000E-03 0. -1.
         12    1    3    3    0    0  0.48740098488E+00 -0.19642146722E+01  0.89935583697E+01  0.92184484132E+01  0.00000000000E+00 0. -1.
</event>
<event>
 7    1  0.2891523E-011  0.5052885E+02  0.7816164E-02  0.1300439E+00
        -11   -1    0    0    0    0  0.00000000000E+00  0.00000000000E+00  0.45593999997E+02  0.45594000000E+02  0.51100000000E-03 0.  1.
         11   -1    0    0    0    0 -0.00000000000E+00 -0.00000000000E+00 -0.45593999997E+02  0.45594000000E+02  0.51100000000E-03 0. -1.
    9900012    2    1    2    0    0  0.62714895449E+01 -0.32039606640E+02  0.24234235100E+02  0.50528854342E+02  0.29999983257E+02 0.  0.
         12    1    1    2    0    0 -0.62714895449E+01  0.32039606640E+02 -0.24234235100E+02  0.40659145658E+02  0.00000000000E+00 0. -1.
         11    1    3    3    0    0  0.18294561967E+02 -0.19245408923E+02  0.13394804541E+02  0.29740503545E+02  0.51100000000E-03 0. -1.
        -11    1    3    3    0    0 -0.92940335316E+01 -0.10172989396E+02  0.96481910345E+01  0.16821306817E+02  0.51100000000E-03 0.  1.
         12    1    3    3    0    0 -0.27290388903E+01 -0.26212083207E+01  0.11912395251E+01  0.39670439790E+01  0.00000000000E+00 0. -1.
</event>
<event>
 7    1  0.2891523E-011  0.5052885E+02  0.7816164E-02  0.1300439E+00
        -11   -1    0    0    0    0  0.00000000000E+00  0.00000000000E+00  0.45593999997E+02  0.45594000000E+02  0.51100000000E-03 0.  1.
         11   -1    0    0    0    0 -0.00000000000E+00 -0.00000000000E+00 -0.45593999997E+02  0.45594000000E+02  0.51100000000E-03 0. -1.
    9900012    2    1    2    0    0  0.14470122933E+02 -0.18341626193E+02  0.33277115061E+02  0.50528854708E+02  0.29999984370E+02 0.  0.
         12    1    1    2    0    0 -0.14470122933E+02  0.18341626193E+02 -0.33277115061E+02  0.40659145292E+02  0.00000000000E+00 0. -1.
         11    1    3    3    0    0  0.11162372534E+02  0.24911323415E+01  0.83168099362E+01  0.14141203227E+02  0.51100000000E-03 0. -1.
        -11    1    3    3    0    0 -0.38519644633E+01 -0.17120664101E+02  0.21108036219E+02  0.27450026644E+02  0.51100000000E-03 0.  1.
        -12    1    3    3    0    0  0.71597148629E+01 -0.37120944336E+01  0.38522689064E+01  0.89376248371E+01  0.00000000000E+00 0.  1.
</event>
<event>
 7    1  0.2891523E-011  0.5052886E+02  0.7816164E-02  0.1300439E+00
        -11   -1    0    0    0    0  0.00000000000E+00  0.00000000000E+00  0.45593999997E+02  0.45594000000E+02  0.51100000000E-03 0.  1.
         11   -1    0    0    0    0 -0.00000000000E+00 -0.00000000000E+00 -0.45593999997E+02  0.45594000000E+02  0.51100000000E-03 0. -1.
    9900012    2    1    2    0    0  0.74552614085E+01 -0.39749468863E+02  0.41909997746E+01  0.50528859864E+02  0.30000000041E+02 0.  0.
         12    1    1    2    0    0 -0.74552614085E+01  0.39749468863E+02 -0.41909997746E+01  0.40659140136E+02  0.00000000000E+00 0. -1.
         11    1    3    3    0    0 -0.58887710445E+01 -0.42067828180E+01  0.33475262167E+01  0.79737430435E+01  0.51100000000E-03 0. -1.
        -11    1    3    3    0    0  0.63903354832E+01 -0.33491921016E+02  0.45744451653E+01  0.34401609116E+02  0.51100000000E-03 0.  1.
        -12    1    3    3    0    0  0.69536969697E+01 -0.20507650288E+01 -0.37309716074E+01  0.81535077043E+01  0.00000000000E+00 0.  1.
</event>
<event>
 7    1  0.2891523E-011  0.5052884E+02  0.7816164E-02  0.1300439E+00
        -11   -1    0    0    0    0  0.00000000000E+00  0.00000000000E+00  0.45593999997E+02  0.45594000000E+02  0.51100000000E-03 0.  1.
         11   -1    0    0    0    0 -0.00000000000E+00 -0.00000000000E+00 -0.45593999997E+02  0.45594000000E+02  0.51100000000E-03 0. -1.
    9900012    2    1    2    0    0  0.38138732359E+01  0.38667139686E+02  0.11978049104E+02  0.50528843825E+02  0.29999951290E+02 0.  0.
         12    1    1    2    0    0 -0.38138732359E+01 -0.38667139686E+02 -0.11978049104E+02  0.40659156175E+02  0.00000000000E+00 0. -1.
         11    1    3    3    0    0 -0.62555525484E+01 -0.55071886750E+00 -0.70665274393E+00  0.63193818779E+01  0.51100000000E-03 0. -1.
        -11    1    3    3    0    0  0.10509352421E+02  0.30994943242E+02  0.53117844789E+01  0.33156417923E+02  0.51100000000E-03 0.  1.
        -12    1    3    3    0    0 -0.43992663663E+00  0.82229153112E+01  0.73729173693E+01  0.11053044024E+02  0.00000000000E+00 0.  1.
</event>
<event>
 7    1  0.2891523E-011  0.5052886E+02  0.7816164E-02  0.1300439E+00
        -11   -1    0    0    0    0  0.00000000000E+00  0.00000000000E+00  0.45593999997E+02  0.45594000000E+02  0.51100000000E-03 0.  1.
         11   -1    0    0    0    0 -0.00000000000E+00 -0.00000000000E+00 -0.45593999997E+02  0.45594000000E+02  0.51100000000E-03 0. -1.
    9900012    2    1    2    0    0  0.30525865924E+01 -0.34408572584E+02  0.21445215385E+02  0.50528863080E+02  0.30000009819E+02 0.  0.
         12    1    1    2    0    0 -0.30525865924E+01  0.34408572584E+02 -0.21445215385E+02  0.40659136920E+02  0.00000000000E+00 0. -1.
         11    1    3    3    0    0 -0.52973783266E+01 -0.19053046234E+02  0.24793569145E+02  0.31714379375E+02  0.51100000000E-03 0. -1.
        -11    1    3    3    0    0  0.74413772803E+01 -0.14536685898E+02 -0.12407683890E+01  0.16377693341E+02  0.51100000000E-03 0.  1.
         12    1    3    3    0    0  0.90858763867E+00 -0.81884045279E+00 -0.21075853712E+01  0.24367903646E+01  0.00000000000E+00 0. -1.
</event>
<event>
 7    1  0.2891523E-011  0.5052885E+02  0.7816164E-02  0.1300439E+00
        -11   -1    0    0    0    0  0.00000000000E+00  0.00000000000E+00  0.45593999997E+02  0.45594000000E+02  0.51100000000E-03 0.  1.
         11   -1    0    0    0    0 -0.00000000000E+00 -0.00000000000E+00 -0.45593999997E+02  0.45594000000E+02  0.51100000000E-03 0. -1.
    9900012    2    1    2    0    0  0.24840819292E+02 -0.28657295432E+02  0.14658078747E+02  0.50528853955E+02  0.29999982080E+02 0.  0.
         12    1    1    2    0    0 -0.24840819292E+02  0.28657295432E+02 -0.14658078747E+02  0.40659146045E+02  0.00000000000E+00 0. -1.
         11    1    3    3    0    0  0.32832502672E+01 -0.38508800909E+01 -0.24650787317E+01  0.56289984195E+01  0.51100000000E-03 0. -1.
        -11    1    3    3    0    0 -0.20676121308E+00 -0.35496996129E+00  0.11714088076E+02  0.11721288904E+02  0.51100000000E-03 0.  1.
        -12    1    3    3    0    0  0.21764330238E+02 -0.24451445380E+02  0.54090694034E+01  0.33178566631E+02  0.00000000000E+00 0.  1.
</event>
<event>
 7    1  0.2891523E-011  0.5052885E+02  0.7816164E-02  0.1300439E+00
        -11   -1    0    0    0    0  0.00000000000E+00  0.00000000000E+00  0.45593999997E+02  0.45594000000E+02  0.51100000000E-03 0.  1.
         11   -1    0    0    0    0 -0.00000000000E+00 -0.00000000000E+00 -0.45593999997E+02  0.45594000000E+02  0.51100000000E-03 0. -1.
    9900012    2    1    2    0    0 -0.20951578001E+02  0.31629090206E+02  0.14621851071E+02  0.50528849778E+02  0.29999969386E+02 0.  0.
         12    1    1    2    0    0  0.20951578001E+02 -0.31629090206E+02 -0.14621851071E+02  0.40659150222E+02  0.00000000000E+00 0. -1.
         11    1    3    3    0    0  0.21349042845E+01  0.18545567202E+02 -0.20454727034E+01  0.18779772043E+02  0.51100000000E-03 0. -1.
        -11    1    3    3    0    0 -0.12091061128E+02  0.80297606691E+01  0.11799071463E+02  0.18705317513E+02  0.51100000000E-03 0.  1.
         12    1    3    3    0    0 -0.10995421157E+02  0.50537623347E+01  0.48682523112E+01  0.13043760222E+02  0.00000000000E+00 0. -1.
</event>
<event>
 7    1  0.2891523E-011  0.5052886E+02  0.7816164E-02  0.1300439E+00
        -11   -1    0    0    0    0  0.00000000000E+00  0.00000000000E+00  0.45593999997E+02  0.45594000000E+02  0.51100000000E-03 0.  1.
         11   -1    0    0    0    0 -0.00000000000E+00 -0.00000000000E+00 -0.45593999997E+02  0.45594000000E+02  0.51100000000E-03 0. -1.
    9900012    2    1    2    0    0  0.91808934712E+01 -0.18015813686E+02  0.35274740172E+02  0.50528860290E+02  0.30000001339E+02 0.  0.
         12    1    1    2    0    0 -0.91808934712E+01  0.18015813686E+02 -0.35274740172E+02  0.40659139710E+02  0.00000000000E+00 0. -1.
         11    1    3    3    0    0  0.13333424727E+02  0.20814821191E+01  0.19734857015E+02  0.23907684213E+02  0.51100000000E-03 0. -1.
        -11    1    3    3    0    0 -0.48262693458E+01 -0.76178640327E+01  0.77817731968E+01  0.11911369466E+02  0.51100000000E-03 0.  1.
         12    1    3    3    0    0  0.67373808999E+00 -0.12479431772E+02  0.77581099609E+01  0.14709806611E+02  0.00000000000E+00 0. -1.
</event>
<event>
 7    1  0.2891523E-011  0.5052886E+02  0.7816164E-02  0.1300439E+00
        -11   -1    0    0    0    0  0.00000000000E+00  0.00000000000E+00  0.45593999997E+02  0.45594000000E+02  0.51100000000E-03 0.  1.
         11   -1    0    0    0    0 -0.00000000000E+00 -0.00000000000E+00 -0.45593999997E+02  0.45594000000E+02  0.51100000000E-03 0. -1.
    9900012    2    1    2    0    0 -0.36308961215E+01 -0.32924379710E+02  0.23578963158E+02  0.50528859705E+02  0.29999999560E+02 0.  0.
         12    1    1    2    0    0  0.36308961215E+01  0.32924379710E+02 -0.23578963158E+02  0.40659140295E+02  0.00000000000E+00 0. -1.
         11    1    3    3    0    0  0.46839985444E+01  0.25315630769E+01  0.44778875178E+01  0.69570202573E+01  0.51100000000E-03 0. -1.
        -11    1    3    3    0    0 -0.85930612788E+01 -0.83640324948E+01  0.46150738062E+01  0.12848994055E+02  0.51100000000E-03 0.  1.
         12    1    3    3    0    0  0.27816661285E+00 -0.27091910292E+02  0.14486001834E+02  0.30722845393E+02  0.00000000000E+00 0. -1.
</event>
<event>
 7    1  0.2893726E-011  0.5052886E+02  0.7816164E-02  0.1300439E+00
        -11   -1    0    0    0    0  0.00000000000E+00  0.00000000000E+00  0.45593999997E+02  0.45594000000E+02  0.51100000000E-03 0.  1.
         11   -1    0    0    0    0 -0.00000000000E+00 -0.00000000000E+00 -0.45593999997E+02  0.45594000000E+02  0.51100000000E-03 0. -1.
    9900012    2    1    2    0    0 -0.13906745438E+02 -0.23948595498E+02 -0.29769665123E+02  0.50528858881E+02  0.29999997056E+02 0.  0.
         12    1    1    2    0    0  0.13906745438E+02  0.23948595498E+02  0.29769665123E+02  0.40659141119E+02  0.00000000000E+00 0. -1.
         11    1    3    3    0    0 -0.54812915476E-01  0.20814623427E+01  0.90649590885E+00  0.22709524508E+01  0.51100000000E-03 0. -1.
        -11    1    3    3    0    0 -0.17351164336E+02 -0.14755577748E+02 -0.28105763498E+02  0.36176289480E+02  0.51100000000E-03 0.  1.
        -12    1    3    3    0    0  0.34992318138E+01 -0.11274480093E+02 -0.25703975333E+01  0.12081616950E+02  0.00000000000E+00 0.  1.
</event>
<event>
 7    1  0.2891523E-011  0.5052889E+02  0.7816164E-02  0.1300439E+00
        -11   -1    0    0    0    0  0.00000000000E+00  0.00000000000E+00  0.45593999997E+02  0.45594000000E+02  0.51100000000E-03 0. -1.
         11   -1    0    0    0    0 -0.00000000000E+00 -0.00000000000E+00 -0.45593999997E+02  0.45594000000E+02  0.51100000000E-03 0.  1.
    9900012    2    1    2    0    0 -0.24533632054E+02 -0.12652495669E+02  0.29852616527E+02  0.50528887099E+02  0.30000082827E+02 0.  0.
         12    1    1    2    0    0  0.24533632054E+02  0.12652495669E+02 -0.29852616527E+02  0.40659112901E+02  0.00000000000E+00 0. -1.
         11    1    3    3    0    0 -0.25493419600E+02 -0.32898989589E+00  0.14661370979E+02  0.29410516427E+02  0.51100000000E-03 0. -1.
        -11    1    3    3    0    0 -0.26399893040E+01 -0.59187364754E+01  0.10692957504E+02  0.12503612496E+02  0.51100000000E-03 0.  1.
         12    1    3    3    0    0  0.35997768503E+01 -0.64047692972E+01  0.44982880429E+01  0.86147581765E+01  0.00000000000E+00 0. -1.
</event>
<event>
 7    1  0.2891523E-011  0.5052886E+02  0.7816164E-02  0.1300439E+00
        -11   -1    0    0    0    0  0.00000000000E+00  0.00000000000E+00  0.45593999997E+02  0.45594000000E+02  0.51100000000E-03 0.  1.
         11   -1    0    0    0    0 -0.00000000000E+00 -0.00000000000E+00 -0.45593999997E+02  0.45594000000E+02  0.51100000000E-03 0. -1.
    9900012    2    1    2    0    0  0.37655412370E+02  0.94402810557E+01  0.12087873056E+02  0.50528860041E+02  0.30000000581E+02 0.  0.
         12    1    1    2    0    0 -0.37655412370E+02 -0.94402810557E+01 -0.12087873056E+02  0.40659139959E+02  0.00000000000E+00 0. -1.
         11    1    3    3    0    0  0.11619358038E+02  0.29697422021E+01 -0.86818390149E+01  0.14805511774E+02  0.51100000000E-03 0. -1.
        -11    1    3    3    0    0  0.21481074494E+02  0.91602266508E+01  0.14367313897E+02  0.27418351931E+02  0.51100000000E-03 0.  1.
         12    1    3    3    0    0  0.45549798381E+01 -0.26896877972E+01  0.64023981735E+01  0.83049963362E+01  0.00000000000E+00 0. -1.
</event>
<event>
 7    1  0.2891523E-011  0.5052886E+02  0.7816164E-02  0.1300439E+00
        -11   -1    0    0    0    0  0.00000000000E+00  0.00000000000E+00  0.45593999997E+02  0.45594000000E+02  0.51100000000E-03 0.  1.
         11   -1    0    0    0    0 -0.00000000000E+00 -0.00000000000E+00 -0.45593999997E+02  0.45594000000E+02  0.51100000000E-03 0. -1.
    9900012    2    1    2    0    0 -0.24122675473E+02  0.31627950701E+02  0.84223003111E+01  0.50528857362E+02  0.29999992437E+02 0.  0.
         12    1    1    2    0    0  0.24122675473E+02 -0.31627950701E+02 -0.84223003111E+01  0.40659142638E+02  0.00000000000E+00 0. -1.
         11    1    3    3    0    0 -0.35974753576E+01  0.13131986579E+01 -0.45924095316E+01  0.59796776862E+01  0.51100000000E-03 0. -1.
        -11    1    3    3    0    0 -0.20096392251E+02  0.11281468029E+02  0.10570109782E+02  0.25354757413E+02  0.51100000000E-03 0.  1.
        -12    1    3    3    0    0 -0.42880786447E+00  0.19033284014E+02  0.24446000604E+01  0.19194422263E+02  0.00000000000E+00 0.  1.
</event>
<event>
 7    1  0.2891523E-011  0.5052886E+02  0.7816164E-02  0.1300439E+00
        -11   -1    0    0    0    0  0.00000000000E+00  0.00000000000E+00  0.45593999997E+02  0.45594000000E+02  0.51100000000E-03 0.  1.
         11   -1    0    0    0    0 -0.00000000000E+00 -0.00000000000E+00 -0.45593999997E+02  0.45594000000E+02  0.51100000000E-03 0. -1.
    9900012    2    1    2    0    0 -0.26505838381E+02 -0.16776972020E+02  0.25867735978E+02  0.50528855603E+02  0.29999987091E+02 0.  0.
         12    1    1    2    0    0  0.26505838381E+02  0.16776972020E+02 -0.25867735978E+02  0.40659144397E+02  0.00000000000E+00 0. -1.
         11    1    3    3    0    0  0.11088725631E+00  0.20254078455E+00 -0.19318116017E+01  0.19455629207E+01  0.51100000000E-03 0. -1.
        -11    1    3    3    0    0 -0.20567329314E+02 -0.18459791674E+02  0.31042070043E+02  0.41561870225E+02  0.51100000000E-03 0.  1.
        -12    1    3    3    0    0 -0.60493963232E+01  0.14802788694E+01 -0.32425224629E+01  0.70214224577E+01  0.00000000000E+00 0.  1.
</event>
<event>
 7    1  0.2891523E-011  0.5052885E+02  0.7816164E-02  0.1300439E+00
        -11   -1    0    0    0    0  0.00000000000E+00  0.00000000000E+00  0.45593999997E+02  0.45594000000E+02  0.51100000000E-03 0.  1.
         11   -1    0    0    0    0 -0.00000000000E+00 -0.00000000000E+00 -0.45593999997E+02  0.45594000000E+02  0.51100000000E-03 0. -1.
    9900012    2    1    2    0    0 -0.84934015641E+01 -0.16291892636E+02  0.36271235381E+02  0.50528854019E+02  0.29999982277E+02 0.  0.
         12    1    1    2    0    0  0.84934015641E+01  0.16291892636E+02 -0.36271235381E+02  0.40659145981E+02  0.00000000000E+00 0. -1.
         11    1    3    3    0    0 -0.33059579820E+01 -0.96403355555E+01  0.43193594344E+01  0.11068978904E+02  0.51100000000E-03 0. -1.
        -11    1    3    3    0    0  0.16332460107E+01 -0.65896471174E+01  0.31924969609E+02  0.32638851488E+02  0.51100000000E-03 0.  1.
        -12    1    3    3    0    0 -0.68206895927E+01 -0.61909962975E-01  0.26906337550E-01  0.68210236266E+01  0.00000000000E+00 0.  1.
</event>
<event>
 7    1  0.2891523E-011  0.5052886E+02  0.7816164E-02  0.1300439E+00
        -11   -1    0    0    0    0  0.00000000000E+00  0.00000000000E+00  0.45593999997E+02  0.45594000000E+02  0.51100000000E-03 0.  1.
         11   -1    0    0    0    0 -0.00000000000E+00 -0.00000000000E+00 -0.45593999997E+02  0.45594000000E+02  0.51100000000E-03 0. -1.
    9900012    2    1    2    0    0 -0.59533283215E+00  0.37041335858E+02  0.16755615794E+02  0.50528860265E+02  0.30000001262E+02 0.  0.
         12    1    1    2    0    0  0.59533283215E+00 -0.37041335858E+02 -0.16755615794E+02  0.40659139735E+02  0.00000000000E+00 0. -1.
         11    1    3    3    0    0  0.53266518425E+01  0.44768385549E+01  0.71314697997E+01  0.99635919759E+01  0.51100000000E-03 0. -1.
        -11    1    3    3    0    0 -0.93172801276E+01  0.30151617200E+02  0.13999589861E+02  0.34524197968E+02  0.51100000000E-03 0.  1.
        -12    1    3    3    0    0  0.33952954530E+01  0.24128801028E+01 -0.43754438664E+01  0.60410703217E+01  0.00000000000E+00 0.  1.
</event>
<event>
 7    1  0.2891523E-011  0.5052886E+02  0.7816164E-02  0.1300439E+00
        -11   -1    0    0    0    0  0.00000000000E+00  0.00000000000E+00  0.45593999997E+02  0.45594000000E+02  0.51100000000E-03 0. -1.
         11   -1    0    0    0    0 -0.00000000000E+00 -0.00000000000E+00 -0.45593999997E+02  0.45594000000E+02  0.51100000000E-03 0.  1.
    9900012    2    1    2    0    0 -0.32880736745E+01  0.11970576759E+02 -0.38717688060E+02  0.50528861972E+02  0.30000006450E+02 0.  0.
         12    1    1    2    0    0  0.32880736745E+01 -0.11970576759E+02  0.38717688060E+02  0.40659138028E+02  0.00000000000E+00 0. -1.
         11    1    3    3    0    0 -0.39530737567E+01  0.87133789498E+01 -0.20764107281E+01  0.97908756821E+01  0.51100000000E-03 0. -1.
        -11    1    3    3    0    0 -0.36821398613E+01 -0.60777315191E+01 -0.19339090147E+02  0.20603334254E+02  0.51100000000E-03 0.  1.
        -12    1    3    3    0    0  0.43471399435E+01  0.93349293279E+01 -0.17302187185E+02  0.20134652036E+02  0.00000000000E+00 0.  1.
</event>
<event>
 7    1  0.2891523E-011  0.5052884E+02  0.7816164E-02  0.1300439E+00
        -11   -1    0    0    0    0  0.00000000000E+00  0.00000000000E+00  0.45593999997E+02  0.45594000000E+02  0.51100000000E-03 0. -1.
         11   -1    0    0    0    0 -0.00000000000E+00 -0.00000000000E+00 -0.45593999997E+02  0.45594000000E+02  0.51100000000E-03 0.  1.
    9900012    2    1    2    0    0  0.33459119891E+02 -0.19565526785E+02  0.12281895725E+02  0.50528837381E+02  0.29999931704E+02 0.  0.
         12    1    1    2    0    0 -0.33459119891E+02  0.19565526785E+02 -0.12281895725E+02  0.40659162619E+02  0.00000000000E+00 0. -1.
         11    1    3    3    0    0  0.16099630040E+02 -0.44474464145E+01 -0.86823253278E+01  0.18824469193E+02  0.51100000000E-03 0. -1.
        -11    1    3    3    0    0  0.36220495474E+01 -0.64296189266E+01  0.49478666424E+01  0.88848537995E+01  0.51100000000E-03 0.  1.
         12    1    3    3    0    0  0.13737440304E+02 -0.86884614439E+01  0.16016354410E+02  0.22819514389E+02  0.00000000000E+00 0. -1.
</event>
<event>
 7    1  0.2891523E-011  0.5052878E+02  0.7816164E-02  0.1300439E+00
        -11   -1    0    0    0    0  0.00000000000E+00  0.00000000000E+00  0.45593999997E+02  0.45594000000E+02  0.51100000000E-03 0. -1.
         11   -1    0    0    0    0 -0.00000000000E+00 -0.00000000000E+00 -0.45593999997E+02  0.45594000000E+02  0.51100000000E-03 0.  1.
    9900012    2    1    2    0    0 -0.19298425021E+02  0.48191142735E+01 -0.35461517379E+02  0.50528778592E+02  0.29999753008E+02 0.  0.
         12    1    1    2    0    0  0.19298425021E+02 -0.48191142735E+01  0.35461517379E+02  0.40659221408E+02  0.00000000000E+00 0. -1.
         11    1    3    3    0    0 -0.96838148702E+01  0.11209390939E+02 -0.43342176557E+01  0.15434123189E+02  0.51100000000E-03 0. -1.
        -11    1    3    3    0    0 -0.57691812079E+01 -0.11120116532E+01 -0.26366098777E+02  0.27012796721E+02  0.51100000000E-03 0.  1.
         12    1    3    3    0    0 -0.38454289434E+01 -0.52782650127E+01 -0.47612009463E+01  0.80818586819E+01  0.00000000000E+00 0. -1.
</event>
<event>
 7    1  0.2891523E-011  0.5052878E+02  0.7816164E-02  0.1300439E+00
        -11   -1    0    0    0    0  0.00000000000E+00  0.00000000000E+00  0.45593999997E+02  0.45594000000E+02  0.51100000000E-03 0.  1.
         11   -1    0    0    0    0 -0.00000000000E+00 -0.00000000000E+00 -0.45593999997E+02  0.45594000000E+02  0.51100000000E-03 0. -1.
    9900012    2    1    2    0    0 -0.39493494003E+02 -0.61798429336E+01 -0.74327417849E+01  0.50528779918E+02  0.29999757037E+02 0.  0.
         12    1    1    2    0    0  0.39493494003E+02  0.61798429336E+01  0.74327417849E+01  0.40659220082E+02  0.00000000000E+00 0. -1.
         11    1    3    3    0    0 -0.31732267613E+01 -0.37274520992E+01 -0.39791676476E-01  0.48953907780E+01  0.51100000000E-03 0. -1.
        -11    1    3    3    0    0 -0.80896357835E+01  0.11083326475E+02 -0.21090202002E+01  0.13882733857E+02  0.51100000000E-03 0.  1.
        -12    1    3    3    0    0 -0.28230631458E+02 -0.13535717310E+02 -0.52839299082E+01  0.31750655283E+02  0.00000000000E+00 0.  1.
</event>
<event>
 7    1  0.2891523E-011  0.5052886E+02  0.7816164E-02  0.1300439E+00
        -11   -1    0    0    0    0  0.00000000000E+00  0.00000000000E+00  0.45593999997E+02  0.45594000000E+02  0.51100000000E-03 0.  1.
         11   -1    0    0    0    0 -0.00000000000E+00 -0.00000000000E+00 -0.45593999997E+02  0.45594000000E+02  0.51100000000E-03 0. -1.
    9900012    2    1    2    0    0  0.21202543569E+02  0.27601238906E+02  0.21018777955E+02  0.50528864868E+02  0.30000015253E+02 0.  0.
         12    1    1    2    0    0 -0.21202543569E+02 -0.27601238906E+02 -0.21018777955E+02  0.40659135132E+02  0.00000000000E+00 0. -1.
         11    1    3    3    0    0 -0.52555355861E+01  0.63726775416E+01  0.31032487400E+01  0.88239348564E+01  0.51100000000E-03 0. -1.
        -11    1    3    3    0    0  0.20211616607E+02  0.10604553373E+02  0.18479678516E+02  0.29367746192E+02  0.51100000000E-03 0.  1.
         12    1    3    3    0    0  0.62464625481E+01  0.10624007992E+02 -0.56414930040E+00  0.12337183820E+02  0.00000000000E+00 0. -1.
</event>
<event>
 7    1  0.2891523E-011  0.5052886E+02  0.7816164E-02  0.1300439E+00
        -11   -1    0    0    0    0  0.00000000000E+00  0.00000000000E+00  0.45593999997E+02  0.45594000000E+02  0.51100000000E-03 0.  1.
         11   -1    0    0    0    0 -0.00000000000E+00 -0.00000000000E+00 -0.45593999997E+02  0.45594000000E+02  0.51100000000E-03 0. -1.
    9900012    2    1    2    0    0  0.12663656133E+02  0.18902435949E+02  0.33697110734E+02  0.50528861503E+02  0.30000005026E+02 0.  0.
         12    1    1    2    0    0 -0.12663656133E+02 -0.18902435949E+02 -0.33697110734E+02  0.40659138497E+02  0.00000000000E+00 0. -1.
         11    1    3    3    0    0 -0.51765118780E+01  0.28258195240E+01  0.13019119058E+02  0.14292620212E+02  0.51100000000E-03 0.  1.
        -11    1    3    3    0    0  0.10155253517E+02 -0.15264359966E+01  0.48961328134E+01  0.11376787668E+02  0.51100000000E-03 0. -1.
        -12    1    3    3    0    0  0.76849144943E+01  0.17603052422E+02  0.15781858862E+02  0.24859453624E+02  0.00000000000E+00 0.  1.
</event>
<event>
 7    1  0.2891523E-011  0.5052886E+02  0.7816164E-02  0.1300439E+00
        -11   -1    0    0    0    0  0.00000000000E+00  0.00000000000E+00  0.45593999997E+02  0.45594000000E+02  0.51100000000E-03 0. -1.
         11   -1    0    0    0    0 -0.00000000000E+00 -0.00000000000E+00 -0.45593999997E+02  0.45594000000E+02  0.51100000000E-03 0.  1.
    9900012    2    1    2    0    0 -0.82578678678E+01  0.90972564785E+01 -0.38758393215E+02  0.50528862014E+02  0.30000006578E+02 0.  0.
         12    1    1    2    0    0  0.82578678678E+01 -0.90972564785E+01  0.38758393215E+02  0.40659137986E+02  0.00000000000E+00 0. -1.
         11    1    3    3    0    0 -0.30705131202E+01 -0.44710263893E+01  0.30948109034E-01  0.54239363788E+01  0.51100000000E-03 0. -1.
        -11    1    3    3    0    0  0.66793647304E+01  0.51910265331E+01 -0.15458251656E+02  0.17621527010E+02  0.51100000000E-03 0.  1.
        -12    1    3    3    0    0 -0.11866719478E+02  0.83772563348E+01 -0.23331089668E+02  0.27483398625E+02  0.00000000000E+00 0.  1.
</event>
<event>
 7    1  0.2891523E-011  0.5052888E+02  0.7816164E-02  0.1300439E+00
        -11   -1    0    0    0    0  0.00000000000E+00  0.00000000000E+00  0.45593999997E+02  0.45594000000E+02  0.51100000000E-03 0. -1.
         11   -1    0    0    0    0 -0.00000000000E+00 -0.00000000000E+00 -0.45593999997E+02  0.45594000000E+02  0.51100000000E-03 0.  1.
    9900012    2    1    2    0    0  0.57065792321E+01 -0.12679433205E+02 -0.38207736681E+02  0.50528877835E+02  0.30000054667E+02 0.  0.
         12    1    1    2    0    0 -0.57065792321E+01  0.12679433205E+02  0.38207736681E+02  0.40659122165E+02  0.00000000000E+00 0. -1.
         11    1    3    3    0    0  0.12317553915E+02 -0.10265136865E+02 -0.31912479960E+02  0.35714164512E+02  0.51100000000E-03 0. -1.
        -11    1    3    3    0    0 -0.76174644243E+01 -0.15024764222E+01 -0.89404590740E+01  0.11841241842E+02  0.51100000000E-03 0.  1.
         12    1    3    3    0    0  0.10064897410E+01 -0.91181991818E+00  0.26452023526E+01  0.29734714810E+01  0.00000000000E+00 0. -1.
</event>
<event>
 7    1  0.2891523E-011  0.5052887E+02  0.7816164E-02  0.1300439E+00
        -11   -1    0    0    0    0  0.00000000000E+00  0.00000000000E+00  0.45593999997E+02  0.45594000000E+02  0.51100000000E-03 0.  1.
         11   -1    0    0    0    0 -0.00000000000E+00 -0.00000000000E+00 -0.45593999997E+02  0.45594000000E+02  0.51100000000E-03 0. -1.
    9900012    2    1    2    0    0 -0.39612347747E+02  0.42169063661E+01  0.81390876198E+01  0.50528866455E+02  0.30000020077E+02 0.  0.
         12    1    1    2    0    0  0.39612347747E+02 -0.42169063661E+01 -0.81390876198E+01  0.40659133545E+02  0.00000000000E+00 0. -1.
         11    1    3    3    0    0 -0.11924332326E+02 -0.39311802861E+00  0.12565473343E+02  0.17327301112E+02  0.51100000000E-03 0. -1.
        -11    1    3    3    0    0 -0.28855383658E+02  0.49134911137E+01 -0.69381738949E+00  0.29278950524E+02  0.51100000000E-03 0.  1.
         12    1    3    3    0    0  0.11673682373E+01 -0.30346671904E+00 -0.37325683339E+01  0.39226148189E+01  0.00000000000E+00 0. -1.
</event>
<event>
 7    1  0.2891523E-011  0.5052885E+02  0.7816164E-02  0.1300439E+00
        -11   -1    0    0    0    0  0.00000000000E+00  0.00000000000E+00  0.45593999997E+02  0.45594000000E+02  0.51100000000E-03 0.  1.
         11   -1    0    0    0    0 -0.00000000000E+00 -0.00000000000E+00 -0.45593999997E+02  0.45594000000E+02  0.51100000000E-03 0. -1.
    9900012    2    1    2    0    0  0.20649197089E+02 -0.22826325024E+01  0.34950924232E+02  0.50528845358E+02  0.29999955949E+02 0.  0.
         12    1    1    2    0    0 -0.20649197089E+02  0.22826325024E+01 -0.34950924232E+02  0.40659154642E+02  0.00000000000E+00 0. -1.
         11    1    3    3    0    0  0.15471673413E+02 -0.80299763046E+01  0.75368881835E+01  0.18990994745E+02  0.51100000000E-03 0. -1.
        -11    1    3    3    0    0 -0.11356888032E+01  0.76315709815E+01  0.20875152339E+02  0.22255395978E+02  0.51100000000E-03 0.  1.
         12    1    3    3    0    0  0.63132124799E+01 -0.18842271793E+01  0.65388837090E+01  0.92824546344E+01  0.00000000000E+00 0. -1.
</event>
<event>
 7    1  0.2891523E-011  0.5052886E+02  0.7816164E-02  0.1300439E+00
        -11   -1    0    0    0    0  0.00000000000E+00  0.00000000000E+00  0.45593999997E+02  0.45594000000E+02  0.51100000000E-03 0.  1.
         11   -1    0    0    0    0 -0.00000000000E+00 -0.00000000000E+00 -0.45593999997E+02  0.45594000000E+02  0.51100000000E-03 0. -1.
    9900012    2    1    2    0    0 -0.31531599065E+02  0.37228027999E+01  0.25398123980E+02  0.50528859552E+02  0.29999999093E+02 0.  0.
         12    1    1    2    0    0  0.31531599065E+02 -0.37228027999E+01 -0.25398123980E+02  0.40659140448E+02  0.00000000000E+00 0. -1.
         11    1    3    3    0    0 -0.31270917620E+01  0.89053083505E+01  0.68417194797E+01  0.11657287223E+02  0.51100000000E-03 0. -1.
        -11    1    3    3    0    0 -0.28433331513E+02  0.35211433415E+00  0.16968623581E+02  0.33113630304E+02  0.51100000000E-03 0.  1.
        -12    1    3    3    0    0  0.28824210203E-01 -0.55346198847E+01  0.15877809197E+01  0.57579420241E+01  0.00000000000E+00 0.  1.
</event>
<event>
 7    1  0.2891523E-011  0.5052886E+02  0.7816164E-02  0.1300439E+00
        -11   -1    0    0    0    0  0.00000000000E+00  0.00000000000E+00  0.45593999997E+02  0.45594000000E+02  0.51100000000E-03 0.  1.
         11   -1    0    0    0    0 -0.00000000000E+00 -0.00000000000E+00 -0.45593999997E+02  0.45594000000E+02  0.51100000000E-03 0. -1.
    9900012    2    1    2    0    0 -0.14220353200E+02 -0.26890710984E+02  0.26978446664E+02  0.50528863674E+02  0.30000011624E+02 0.  0.
         12    1    1    2    0    0  0.14220353200E+02  0.26890710984E+02 -0.26978446664E+02  0.40659136326E+02  0.00000000000E+00 0. -1.
         11    1    3    3    0    0  0.13343882645E+01 -0.84505672350E+01  0.46240020715E+01  0.97249202594E+01  0.51100000000E-03 0. -1.
        -11    1    3    3    0    0 -0.13044574358E+02  0.22247376442E+01  0.10110678733E+02  0.16653414138E+02  0.51100000000E-03 0.  1.
        -12    1    3    3    0    0 -0.25101671066E+01 -0.20664881394E+02  0.12243765859E+02  0.24150529276E+02  0.00000000000E+00 0.  1.
</event>
<event>
 7    1  0.2891523E-011  0.5052886E+02  0.7816164E-02  0.1300439E+00
        -11   -1    0    0    0    0  0.00000000000E+00  0.00000000000E+00  0.45593999997E+02  0.45594000000E+02  0.51100000000E-03 0.  1.
         11   -1    0    0    0    0 -0.00000000000E+00 -0.00000000000E+00 -0.45593999997E+02  0.45594000000E+02  0.51100000000E-03 0. -1.
    9900012    2    1    2    0    0  0.19253706598E+02 -0.33969301017E+02  0.11337867492E+02  0.50528857503E+02  0.29999992866E+02 0.  0.
         12    1    1    2    0    0 -0.19253706598E+02  0.33969301017E+02 -0.11337867492E+02  0.40659142497E+02  0.00000000000E+00 0. -1.
         11    1    3    3    0    0  0.16485509239E+02 -0.77506824834E+01  0.99146474003E+01  0.20739945206E+02  0.51100000000E-03 0. -1.
        -11    1    3    3    0    0  0.40674426036E+00 -0.19618605204E+02  0.69972934288E+01  0.20833080105E+02  0.51100000000E-03 0.  1.
         12    1    3    3    0    0  0.23614530988E+01 -0.66000133290E+01 -0.55740733375E+01  0.89558321921E+01  0.00000000000E+00 0. -1.
</event>
<event>
 7    1  0.2891523E-011  0.5052886E+02  0.7816164E-02  0.1300439E+00
        -11   -1    0    0    0    0  0.00000000000E+00  0.00000000000E+00  0.45593999997E+02  0.45594000000E+02  0.51100000000E-03 0. -1.
         11   -1    0    0    0    0 -0.00000000000E+00 -0.00000000000E+00 -0.45593999997E+02  0.45594000000E+02  0.51100000000E-03 0.  1.
    9900012    2    1    2    0    0 -0.34917295904E+00 -0.27158326483E+02 -0.30256724148E+02  0.50528856191E+02  0.29999988878E+02 0.  0.
         12    1    1    2    0    0  0.34917295904E+00  0.27158326483E+02  0.30256724148E+02  0.40659143809E+02  0.00000000000E+00 0. -1.
         11    1    3    3    0    0 -0.48516770185E+01 -0.45074240557E+01  0.23529338949E+01  0.70279399318E+01  0.51100000000E-03 0. -1.
        -11    1    3    3    0    0  0.71784045354E+01 -0.23804664634E+02 -0.31999701093E+02  0.40523726634E+02  0.51100000000E-03 0.  1.
        -12    1    3    3    0    0 -0.26759004760E+01  0.11537622060E+01 -0.60995694964E+00  0.29771896254E+01  0.00000000000E+00 0.  1.
</event>
<event>
 7    1  0.2891523E-011  0.5052885E+02  0.7816164E-02  0.1300439E+00
        -11   -1    0    0    0    0  0.00000000000E+00  0.00000000000E+00  0.45593999997E+02  0.45594000000E+02  0.51100000000E-03 0. -1.
         11   -1    0    0    0    0 -0.00000000000E+00 -0.00000000000E+00 -0.45593999997E+02  0.45594000000E+02  0.51100000000E-03 0.  1.
    9900012    2    1    2    0    0  0.52945961044E+01  0.34148592501E+02 -0.21424450069E+02  0.50528853692E+02  0.29999981284E+02 0.  0.
         12    1    1    2    0    0 -0.52945961044E+01 -0.34148592501E+02  0.21424450069E+02  0.40659146308E+02  0.00000000000E+00 0. -1.
         11    1    3    3    0    0 -0.71643047002E+01  0.63616560069E+00  0.23709746520E+01  0.75732086708E+01  0.51100000000E-03 0. -1.
        -11    1    3    3    0    0  0.70015952308E+01  0.19140688915E+02 -0.14028390511E+02  0.24742353334E+02  0.51100000000E-03 0.  1.
         12    1    3    3    0    0  0.54573055738E+01  0.14371737985E+02 -0.97670342105E+01  0.18213291688E+02  0.00000000000E+00 0. -1.
</event>
<event>
 7    1  0.2891523E-011  0.5052886E+02  0.7816164E-02  0.1300439E+00
        -11   -1    0    0    0    0  0.00000000000E+00  0.00000000000E+00  0.45593999997E+02  0.45594000000E+02  0.51100000000E-03 0. -1.
         11   -1    0    0    0    0 -0.00000000000E+00 -0.00000000000E+00 -0.45593999997E+02  0.45594000000E+02  0.51100000000E-03 0.  1.
    9900012    2    1    2    0    0 -0.12015270184E+02 -0.35565065380E+02 -0.15618110847E+02  0.50528856139E+02  0.29999988720E+02 0.  0.
         12    1    1    2    0    0  0.12015270184E+02  0.35565065380E+02  0.15618110847E+02  0.40659143861E+02  0.00000000000E+00 0. -1.
         11    1    3    3    0    0 -0.21391867472E+01  0.59828058014E+00  0.56949731357E-01  0.22220043036E+01  0.51100000000E-03 0. -1.
        -11    1    3    3    0    0  0.13500284504E+01 -0.22276953011E+02 -0.19962177967E+02  0.29942841577E+02  0.51100000000E-03 0.  1.
        -12    1    3    3    0    0 -0.11226111887E+02 -0.13886392949E+02  0.42871173889E+01  0.18364010258E+02  0.00000000000E+00 0.  1.
</event>
<event>
 7    1  0.2891523E-011  0.5052886E+02  0.7816164E-02  0.1300439E+00
        -11   -1    0    0    0    0  0.00000000000E+00  0.00000000000E+00  0.45593999997E+02  0.45594000000E+02  0.51100000000E-03 0.  1.
         11   -1    0    0    0    0 -0.00000000000E+00 -0.00000000000E+00 -0.45593999997E+02  0.45594000000E+02  0.51100000000E-03 0. -1.
    9900012    2    1    2    0    0 -0.75577487991E+00 -0.54341164663E+01  0.40287283386E+02  0.50528855641E+02  0.29999987205E+02 0.  0.
         12    1    1    2    0    0  0.75577487991E+00  0.54341164663E+01 -0.40287283386E+02  0.40659144359E+02  0.00000000000E+00 0. -1.
         11    1    3    3    0    0 -0.68991875053E+01  0.17814272208E+01  0.15878956591E+01  0.73002523286E+01  0.51100000000E-03 0. -1.
        -11    1    3    3    0    0  0.66087883277E+01 -0.12282140136E+02  0.25199711238E+02  0.28801952993E+02  0.51100000000E-03 0.  1.
        -12    1    3    3    0    0 -0.46537570232E+00  0.50665964490E+01  0.13499676488E+02  0.14426650319E+02  0.00000000000E+00 0.  1.
</event>
<event>
 7    1  0.2891523E-011  0.5052885E+02  0.7816164E-02  0.1300439E+00
        -11   -1    0    0    0    0  0.00000000000E+00  0.00000000000E+00  0.45593999997E+02  0.45594000000E+02  0.51100000000E-03 0. -1.
         11   -1    0    0    0    0 -0.00000000000E+00 -0.00000000000E+00 -0.45593999997E+02  0.45594000000E+02  0.51100000000E-03 0.  1.
    9900012    2    1    2    0    0 -0.21071635890E+02 -0.69873244588E+01 -0.34063617332E+02  0.50528848903E+02  0.29999966727E+02 0.  0.
         12    1    1    2    0    0  0.21071635890E+02  0.69873244588E+01  0.34063617332E+02  0.40659151097E+02  0.00000000000E+00 0. -1.
         11    1    3    3    0    0  0.25008608982E+01  0.18587233563E+01 -0.14844247665E+01  0.34514743075E+01  0.51100000000E-03 0. -1.
        -11    1    3    3    0    0 -0.16901642692E+02 -0.12139265702E+02 -0.95869259923E+01  0.22911491608E+02  0.51100000000E-03 0.  1.
        -12    1    3    3    0    0 -0.66708540964E+01  0.32932178867E+01 -0.22992266573E+02  0.24165882988E+02  0.00000000000E+00 0.  1.
</event>
<event>
 7    1  0.2891523E-011  0.5052886E+02  0.7816164E-02  0.1300439E+00
        -11   -1    0    0    0    0  0.00000000000E+00  0.00000000000E+00  0.45593999997E+02  0.45594000000E+02  0.51100000000E-03 0.  1.
         11   -1    0    0    0    0 -0.00000000000E+00 -0.00000000000E+00 -0.45593999997E+02  0.45594000000E+02  0.51100000000E-03 0. -1.
    9900012    2    1    2    0    0 -0.17023150231E+02  0.12071560398E+02  0.34894923314E+02  0.50528857273E+02  0.29999992167E+02 0.  0.
         12    1    1    2    0    0  0.17023150231E+02 -0.12071560398E+02 -0.34894923314E+02  0.40659142727E+02  0.00000000000E+00 0. -1.
         11    1    3    3    0    0 -0.14175246613E+02  0.16870225166E+01  0.22889593349E+02  0.26976232974E+02  0.51100000000E-03 0.  1.
        -11    1    3    3    0    0 -0.47368736723E+01  0.44653086612E+01 -0.31067392847E+01  0.72130980079E+01  0.51100000000E-03 0. -1.
        -12    1    3    3    0    0  0.18889700540E+01  0.59192292199E+01  0.15112069249E+02  0.16339526291E+02  0.00000000000E+00 0.  1.
</event>
<event>
 7    1  0.2891523E-011  0.5052886E+02  0.7816164E-02  0.1300439E+00
        -11   -1    0    0    0    0  0.00000000000E+00  0.00000000000E+00  0.45593999997E+02  0.45594000000E+02  0.51100000000E-03 0.  1.
         11   -1    0    0    0    0 -0.00000000000E+00 -0.00000000000E+00 -0.45593999997E+02  0.45594000000E+02  0.51100000000E-03 0. -1.
    9900012    2    1    2    0    0 -0.19008177957E+02 -0.17875470435E+02  0.31182088255E+02  0.50528857111E+02  0.29999991674E+02 0.  0.
         12    1    1    2    0    0  0.19008177957E+02  0.17875470435E+02 -0.31182088255E+02  0.40659142889E+02  0.00000000000E+00 0. -1.
         11    1    3    3    0    0  0.47991001283E+01 -0.10778935542E+02  0.93085608230E+01  0.15028842880E+02  0.51100000000E-03 0. -1.
        -11    1    3    3    0    0 -0.20258789998E+02 -0.73188323030E+01  0.11257929193E+02  0.24304831792E+02  0.51100000000E-03 0.  1.
         12    1    3    3    0    0 -0.35484880869E+01  0.22229741010E+00  0.10615598240E+02  0.11195182438E+02  0.00000000000E+00 0. -1.
</event>
<event>
 7    1  0.2891523E-011  0.5052883E+02  0.7816164E-02  0.1300439E+00
        -11   -1    0    0    0    0  0.00000000000E+00  0.00000000000E+00  0.45593999997E+02  0.45594000000E+02  0.51100000000E-03 0.  1.
         11   -1    0    0    0    0 -0.00000000000E+00 -0.00000000000E+00 -0.45593999997E+02  0.45594000000E+02  0.51100000000E-03 0. -1.
    9900012    2    1    2    0    0  0.34243282745E+02 -0.14849913898E+02  0.16125924533E+02  0.50528833776E+02  0.29999920746E+02 0.  0.
         12    1    1    2    0    0 -0.34243282745E+02  0.14849913898E+02 -0.16125924533E+02  0.40659166224E+02  0.00000000000E+00 0. -1.
         11    1    3    3    0    0  0.18772326425E+02 -0.86322626866E+01  0.55841862322E+01  0.21403255235E+02  0.51100000000E-03 0. -1.
        -11    1    3    3    0    0 -0.15858227418E+01  0.42729266132E+01  0.76338426035E+01  0.88909104577E+01  0.51100000000E-03 0.  1.
        -12    1    3    3    0    0  0.17056779062E+02 -0.10490577825E+02  0.29078956974E+01  0.20234668084E+02  0.00000000000E+00 0.  1.
</event>
<event>
 7    1  0.2891523E-011  0.5052889E+02  0.7816164E-02  0.1300439E+00
        -11   -1    0    0    0    0  0.00000000000E+00  0.00000000000E+00  0.45593999997E+02  0.45594000000E+02  0.51100000000E-03 0.  1.
         11   -1    0    0    0    0 -0.00000000000E+00 -0.00000000000E+00 -0.45593999997E+02  0.45594000000E+02  0.51100000000E-03 0. -1.
    9900012    2    1    2    0    0 -0.13168245745E+02  0.38464587669E+02  0.48585219991E+00  0.50528889669E+02  0.30000090637E+02 0.  0.
         12    1    1    2    0    0  0.13168245745E+02 -0.38464587669E+02 -0.48585219991E+00  0.40659110331E+02  0.00000000000E+00 0. -1.
         11    1    3    3    0    0 -0.95149574515E+01  0.36704336415E+02 -0.86515668691E+01  0.38892060070E+02  0.51100000000E-03 0. -1.
        -11    1    3    3    0    0  0.67306445003E+00  0.22425616030E+00  0.60794203187E+01  0.61206746566E+01  0.51100000000E-03 0.  1.
        -12    1    3    3    0    0 -0.43263527430E+01  0.15359950944E+01  0.30579987503E+01  0.55161549419E+01  0.00000000000E+00 0.  1.
</event>
<event>
 7    1  0.2891523E-011  0.5052885E+02  0.7816164E-02  0.1300439E+00
        -11   -1    0    0    0    0  0.00000000000E+00  0.00000000000E+00  0.45593999997E+02  0.45594000000E+02  0.51100000000E-03 0.  1.
         11   -1    0    0    0    0 -0.00000000000E+00 -0.00000000000E+00 -0.45593999997E+02  0.45594000000E+02  0.51100000000E-03 0. -1.
    9900012    2    1    2    0    0  0.20319516064E+02  0.94888870544E+01  0.33915257575E+02  0.50528850882E+02  0.29999972741E+02 0.  0.
         12    1    1    2    0    0 -0.20319516064E+02 -0.94888870544E+01 -0.33915257575E+02  0.40659149118E+02  0.00000000000E+00 0. -1.
         11    1    3    3    0    0  0.38406356143E+01  0.17712456902E+02  0.22204939515E+02  0.28662535661E+02  0.51100000000E-03 0. -1.
        -11    1    3    3    0    0  0.85336161073E+01 -0.47812528029E+01  0.67853227554E+01  0.11904771623E+02  0.51100000000E-03 0.  1.
         12    1    3    3    0    0  0.79452643423E+01 -0.34423170442E+01  0.49249953047E+01  0.99615435979E+01  0.00000000000E+00 0. -1.
</event>
<event>
 7    1  0.2891523E-011  0.5052885E+02  0.7816164E-02  0.1300439E+00
        -11   -1    0    0    0    0  0.00000000000E+00  0.00000000000E+00  0.45593999997E+02  0.45594000000E+02  0.51100000000E-03 0.  1.
         11   -1    0    0    0    0 -0.00000000000E+00 -0.00000000000E+00 -0.45593999997E+02  0.45594000000E+02  0.51100000000E-03 0. -1.
    9900012    2    1    2    0    0 -0.26078130586E+02 -0.22897538952E+02  0.21184903125E+02  0.50528852132E+02  0.29999976541E+02 0.  0.
         12    1    1    2    0    0  0.26078130586E+02  0.22897538952E+02 -0.21184903125E+02  0.40659147868E+02  0.00000000000E+00 0. -1.
         11    1    3    3    0    0 -0.21999222368E+02 -0.17100207210E+01  0.70558061473E+01  0.23166233105E+02  0.51100000000E-03 0. -1.
        -11    1    3    3    0    0 -0.45565264660E+01 -0.62392324563E+01  0.82221849894E+01  0.11282476738E+02  0.51100000000E-03 0.  1.
         12    1    3    3    0    0  0.47761824738E+00 -0.14948285775E+02  0.59069119882E+01  0.16080142289E+02  0.00000000000E+00 0. -1.
</event>
<event>
 7    1  0.2891523E-011  0.5052891E+02  0.7816164E-02  0.1300439E+00
        -11   -1    0    0    0    0  0.00000000000E+00  0.00000000000E+00  0.45593999997E+02  0.45594000000E+02  0.51100000000E-03 0.  1.
         11   -1    0    0    0    0 -0.00000000000E+00 -0.00000000000E+00 -0.45593999997E+02  0.45594000000E+02  0.51100000000E-03 0. -1.
    9900012    2    1    2    0    0 -0.18324983736E+02  0.32673877257E+02  0.15804247722E+02  0.50528910856E+02  0.30000155038E+02 0.  0.
         12    1    1    2    0    0  0.18324983736E+02 -0.32673877257E+02 -0.15804247722E+02  0.40659089144E+02  0.00000000000E+00 0. -1.
         11    1    3    3    0    0  0.44059503988E+01  0.21050647562E+01 -0.57123541584E+00  0.49163001034E+01  0.51100000000E-03 0. -1.
        -11    1    3    3    0    0 -0.24977202823E+02  0.30785268971E+02  0.13334678057E+02  0.41825914044E+02  0.51100000000E-03 0.  1.
         12    1    3    3    0    0  0.22462686880E+01 -0.21645647037E+00  0.30408050807E+01  0.37866967083E+01  0.00000000000E+00 0. -1.
</event>
<event>
 7    1  0.2891523E-011  0.5052892E+02  0.7816164E-02  0.1300439E+00
        -11   -1    0    0    0    0  0.00000000000E+00  0.00000000000E+00  0.45593999997E+02  0.45594000000E+02  0.51100000000E-03 0. -1.
         11   -1    0    0    0    0 -0.00000000000E+00 -0.00000000000E+00 -0.45593999997E+02  0.45594000000E+02  0.51100000000E-03 0.  1.
    9900012    2    1    2    0    0 -0.21905242684E+02 -0.34230961221E+02  0.12499425704E+01  0.50528920822E+02  0.30000185331E+02 0.  0.
         12    1    1    2    0    0  0.21905242684E+02  0.34230961221E+02 -0.12499425704E+01  0.40659079178E+02  0.00000000000E+00 0. -1.
         11    1    3    3    0    0  0.27958083635E+00 -0.32383605040E+01  0.19295093682E+01  0.37799670449E+01  0.51100000000E-03 0. -1.
        -11    1    3    3    0    0 -0.13080842638E+02 -0.97874553761E+01  0.12136770194E+02  0.20352000341E+02  0.51100000000E-03 0.  1.
        -12    1    3    3    0    0 -0.91039808815E+01 -0.21205145341E+02 -0.12816336992E+02  0.26396953436E+02  0.00000000000E+00 0.  1.
</event>
<event>
 7    1  0.2891523E-011  0.5052886E+02  0.7816164E-02  0.1300439E+00
        -11   -1    0    0    0    0  0.00000000000E+00  0.00000000000E+00  0.45593999997E+02  0.45594000000E+02  0.51100000000E-03 0.  1.
         11   -1    0    0    0    0 -0.00000000000E+00 -0.00000000000E+00 -0.45593999997E+02  0.45594000000E+02  0.51100000000E-03 0. -1.
    9900012    2    1    2    0    0  0.24580493471E+02  0.25561667351E+02  0.19888845539E+02  0.50528859897E+02  0.30000000144E+02 0.  0.
         12    1    1    2    0    0 -0.24580493471E+02 -0.25561667351E+02 -0.19888845539E+02  0.40659140103E+02  0.00000000000E+00 0. -1.
         11    1    3    3    0    0  0.18657681085E+02  0.18338558926E+01  0.40286399386E+00  0.18751916983E+02  0.51100000000E-03 0. -1.
        -11    1    3    3    0    0  0.10478718337E+01  0.13503162452E+02  0.12733485610E+02  0.18589650013E+02  0.51100000000E-03 0.  1.
        -12    1    3    3    0    0  0.48749405528E+01  0.10224649006E+02  0.67524959353E+01  0.13187292901E+02  0.00000000000E+00 0.  1.
</event>
<event>
 7    1  0.2891523E-011  0.5052885E+02  0.7816164E-02  0.1300439E+00
        -11   -1    0    0    0    0  0.00000000000E+00  0.00000000000E+00  0.45593999997E+02  0.45594000000E+02  0.51100000000E-03 0. -1.
         11   -1    0    0    0    0 -0.00000000000E+00 -0.00000000000E+00 -0.45593999997E+02  0.45594000000E+02  0.51100000000E-03 0.  1.
    9900012    2    1    2    0    0  0.40106818290E+02 -0.66764201662E+01  0.18730861659E+00  0.50528849196E+02  0.29999967615E+02 0.  0.
         12    1    1    2    0    0 -0.40106818290E+02  0.66764201662E+01 -0.18730861659E+00  0.40659150804E+02  0.00000000000E+00 0. -1.
         11    1    3    3    0    0  0.10099879937E+02 -0.12894497382E+02  0.66401722191E+01  0.17673922169E+02  0.51100000000E-03 0. -1.
        -11    1    3    3    0    0  0.16045370758E+02  0.58440878639E+01  0.84347684100E+00  0.17097331346E+02  0.51100000000E-03 0.  1.
         12    1    3    3    0    0  0.13961567595E+02  0.37398935211E+00 -0.72963404435E+01  0.15757595680E+02  0.00000000000E+00 0. -1.
</event>
<event>
 7    1  0.2891523E-011  0.5052886E+02  0.7816164E-02  0.1300439E+00
        -11   -1    0    0    0    0  0.00000000000E+00  0.00000000000E+00  0.45593999997E+02  0.45594000000E+02  0.51100000000E-03 0. -1.
         11   -1    0    0    0    0 -0.00000000000E+00 -0.00000000000E+00 -0.45593999997E+02  0.45594000000E+02  0.51100000000E-03 0.  1.
    9900012    2    1    2    0    0  0.35335769751E+01  0.19709537646E+02 -0.35386635097E+02  0.50528856085E+02  0.29999988555E+02 0.  0.
         12    1    1    2    0    0 -0.35335769751E+01 -0.19709537646E+02  0.35386635097E+02  0.40659143915E+02  0.00000000000E+00 0. -1.
         11    1    3    3    0    0  0.79488134363E+01  0.64802459686E+01  0.25674851621E+00  0.10258808065E+02  0.51100000000E-03 0. -1.
        -11    1    3    3    0    0  0.15540414979E+01  0.12266905877E+02 -0.20184506707E+02  0.23670790778E+02  0.51100000000E-03 0.  1.
        -12    1    3    3    0    0 -0.59692779590E+01  0.96238580029E+00 -0.15458876906E+02  0.16599257242E+02  0.00000000000E+00 0.  1.
</event>
<event>
 7    1  0.2891523E-011  0.5052886E+02  0.7816164E-02  0.1300439E+00
        -11   -1    0    0    0    0  0.00000000000E+00  0.00000000000E+00  0.45593999997E+02  0.45594000000E+02  0.51100000000E-03 0.  1.
         11   -1    0    0    0    0 -0.00000000000E+00 -0.00000000000E+00 -0.45593999997E+02  0.45594000000E+02  0.51100000000E-03 0. -1.
    9900012    2    1    2    0    0  0.45044839977E+01  0.14272099480E+02  0.37804531005E+02  0.50528858787E+02  0.29999996770E+02 0.  0.
         12    1    1    2    0    0 -0.45044839977E+01 -0.14272099480E+02 -0.37804531005E+02  0.40659141213E+02  0.00000000000E+00 0. -1.
         11    1    3    3    0    0  0.26139054388E+01 -0.34584482186E+01  0.14311596970E+02  0.14953767880E+02  0.51100000000E-03 0. -1.
        -11    1    3    3    0    0  0.10063665260E+02  0.14216730407E+02  0.12531040996E+02  0.21457394311E+02  0.51100000000E-03 0.  1.
        -12    1    3    3    0    0 -0.81730867010E+01  0.35138172919E+01  0.10961893039E+02  0.14117696596E+02  0.00000000000E+00 0.  1.
</event>
<event>
 7    1  0.2891523E-011  0.5052883E+02  0.7816164E-02  0.1300439E+00
        -11   -1    0    0    0    0  0.00000000000E+00  0.00000000000E+00  0.45593999997E+02  0.45594000000E+02  0.51100000000E-03 0. -1.
         11   -1    0    0    0    0 -0.00000000000E+00 -0.00000000000E+00 -0.45593999997E+02  0.45594000000E+02  0.51100000000E-03 0.  1.
    9900012    2    1    2    0    0 -0.16752128743E+02  0.20449132506E+02  0.30892834132E+02  0.50528830820E+02  0.29999911762E+02 0.  0.
         12    1    1    2    0    0  0.16752128743E+02 -0.20449132506E+02 -0.30892834132E+02  0.40659169180E+02  0.00000000000E+00 0. -1.
         11    1    3    3    0    0  0.56173832860E+01  0.39159686646E+01 -0.76613775120E+00  0.68903390975E+01  0.51100000000E-03 0. -1.
        -11    1    3    3    0    0 -0.15427149969E+02  0.91603378335E+01  0.27174140158E+02  0.32562902803E+02  0.51100000000E-03 0.  1.
        -12    1    3    3    0    0 -0.69423620596E+01  0.73728260081E+01  0.44848317252E+01  0.11075588920E+02  0.00000000000E+00 0.  1.
</event>
<event>
 7    1  0.2891523E-011  0.5052887E+02  0.7816164E-02  0.1300439E+00
        -11   -1    0    0    0    0  0.00000000000E+00  0.00000000000E+00  0.45593999997E+02  0.45594000000E+02  0.51100000000E-03 0.  1.
         11   -1    0    0    0    0 -0.00000000000E+00 -0.00000000000E+00 -0.45593999997E+02  0.45594000000E+02  0.51100000000E-03 0. -1.
    9900012    2    1    2    0    0 -0.32751340343E+02  0.20840786103E+02  0.12090340143E+02  0.50528868376E+02  0.30000025916E+02 0.  0.
         12    1    1    2    0    0  0.32751340343E+02 -0.20840786103E+02 -0.12090340143E+02  0.40659131624E+02  0.00000000000E+00 0. -1.
         11    1    3    3    0    0 -0.45737010704E+01  0.12837590451E+02  0.10795470378E+02  0.17385760007E+02  0.51100000000E-03 0.  1.
        -11    1    3    3    0    0 -0.86815260377E+01 -0.45050432436E+01 -0.11617127327E+01  0.98495627164E+01  0.51100000000E-03 0. -1.
        -12    1    3    3    0    0 -0.19496113235E+02  0.12508238895E+02  0.24565824975E+01  0.23293545653E+02  0.00000000000E+00 0.  1.
</event>
<event>
 7    1  0.2891523E-011  0.5052886E+02  0.7816164E-02  0.1300439E+00
        -11   -1    0    0    0    0  0.00000000000E+00  0.00000000000E+00  0.45593999997E+02  0.45594000000E+02  0.51100000000E-03 0. -1.
         11   -1    0    0    0    0 -0.00000000000E+00 -0.00000000000E+00 -0.45593999997E+02  0.45594000000E+02  0.51100000000E-03 0.  1.
    9900012    2    1    2    0    0 -0.26981423946E+01 -0.38961386218E+02  0.11309110826E+02  0.50528861100E+02  0.30000003800E+02 0.  0.
         12    1    1    2    0    0  0.26981423946E+01  0.38961386218E+02 -0.11309110826E+02  0.40659138900E+02  0.00000000000E+00 0. -1.
         11    1    3    3    0    0  0.86877433192E+01 -0.69543571206E+01  0.12490670229E+01  0.11198220199E+02  0.51100000000E-03 0. -1.
        -11    1    3    3    0    0 -0.66708988546E+01 -0.29800870753E+02  0.31804807892E+01  0.30703554314E+02  0.51100000000E-03 0.  1.
         12    1    3    3    0    0 -0.47149868592E+01 -0.22061583441E+01  0.68795630136E+01  0.86270865870E+01  0.00000000000E+00 0. -1.
</event>
<event>
 7    1  0.2891523E-011  0.5052883E+02  0.7816164E-02  0.1300439E+00
        -11   -1    0    0    0    0  0.00000000000E+00  0.00000000000E+00  0.45593999997E+02  0.45594000000E+02  0.51100000000E-03 0.  1.
         11   -1    0    0    0    0 -0.00000000000E+00 -0.00000000000E+00 -0.45593999997E+02  0.45594000000E+02  0.51100000000E-03 0. -1.
    9900012    2    1    2    0    0 -0.27919689329E+02 -0.19774628076E+02  0.21968685185E+02  0.50528830105E+02  0.29999909588E+02 0.  0.
         12    1    1    2    0    0  0.27919689329E+02  0.19774628076E+02 -0.21968685185E+02  0.40659169895E+02  0.00000000000E+00 0. -1.
         11    1    3    3    0    0  0.49638728749E+01 -0.85781056168E+01  0.83313354754E+01  0.12947396686E+02  0.51100000000E-03 0. -1.
        -11    1    3    3    0    0 -0.87922504295E+01 -0.98856159178E+00  0.37836240173E+01  0.96227196053E+01  0.51100000000E-03 0.  1.
         12    1    3    3    0    0 -0.24091311774E+02 -0.10207960867E+02  0.98537256926E+01  0.27958713813E+02  0.00000000000E+00 0. -1.
</event>
<event>
 7    1  0.2891523E-011  0.5052884E+02  0.7816164E-02  0.1300439E+00
        -11   -1    0    0    0    0  0.00000000000E+00  0.00000000000E+00  0.45593999997E+02  0.45594000000E+02  0.51100000000E-03 0.  1.
         11   -1    0    0    0    0 -0.00000000000E+00 -0.00000000000E+00 -0.45593999997E+02  0.45594000000E+02  0.51100000000E-03 0. -1.
    9900012    2    1    2    0    0 -0.20757409812E+02  0.34854141237E+02  0.27359938207E+01  0.50528844995E+02  0.29999954848E+02 0.  0.
         12    1    1    2    0    0  0.20757409812E+02 -0.34854141237E+02 -0.27359938207E+01  0.40659155005E+02  0.00000000000E+00 0. -1.
         11    1    3    3    0    0 -0.18032870549E+01  0.43551546124E+01  0.16119039622E+00  0.47164815811E+01  0.51100000000E-03 0. -1.
        -11    1    3    3    0    0  0.11525004078E+01  0.22041342894E+02  0.77522685393E+01  0.23393305058E+02  0.51100000000E-03 0.  1.
        -12    1    3    3    0    0 -0.20106623165E+02  0.84576437309E+01 -0.51774651149E+01  0.22419058356E+02  0.00000000000E+00 0.  1.
</event>
<event>
 7    1  0.2891523E-011  0.5052888E+02  0.7816164E-02  0.1300439E+00
        -11   -1    0    0    0    0  0.00000000000E+00  0.00000000000E+00  0.45593999997E+02  0.45594000000E+02  0.51100000000E-03 0.  1.
         11   -1    0    0    0    0 -0.00000000000E+00 -0.00000000000E+00 -0.45593999997E+02  0.45594000000E+02  0.51100000000E-03 0. -1.
    9900012    2    1    2    0    0  0.45199492559E+01 -0.37571078281E+02  0.14871055654E+02  0.50528878505E+02  0.30000056705E+02 0.  0.
         12    1    1    2    0    0 -0.45199492559E+01  0.37571078281E+02 -0.14871055654E+02  0.40659121495E+02  0.00000000000E+00 0. -1.
         11    1    3    3    0    0  0.50143113967E+01 -0.22052592594E+02 -0.19909523140E+01  0.22702952457E+02  0.51100000000E-03 0. -1.
        -11    1    3    3    0    0 -0.63634231323E+01 -0.10728096182E+02  0.15870297169E+02  0.20185428758E+02  0.51100000000E-03 0.  1.
        -12    1    3    3    0    0  0.58690609915E+01 -0.47903895047E+01  0.99171079896E+00  0.76404972899E+01  0.00000000000E+00 0.  1.
</event>
<event>
 7    1  0.2891523E-011  0.5052885E+02  0.7816164E-02  0.1300439E+00
        -11   -1    0    0    0    0  0.00000000000E+00  0.00000000000E+00  0.45593999997E+02  0.45594000000E+02  0.51100000000E-03 0. -1.
         11   -1    0    0    0    0 -0.00000000000E+00 -0.00000000000E+00 -0.45593999997E+02  0.45594000000E+02  0.51100000000E-03 0.  1.
    9900012    2    1    2    0    0  0.92652217974E+01  0.17715050116E+02 -0.35404789671E+02  0.50528850141E+02  0.29999970489E+02 0.  0.
         12    1    1    2    0    0 -0.92652217974E+01 -0.17715050116E+02  0.35404789671E+02  0.40659149859E+02  0.00000000000E+00 0. -1.
         11    1    3    3    0    0  0.10813367552E+02  0.81510080043E+01 -0.14626010811E+01  0.13620097338E+02  0.51100000000E-03 0. -1.
        -11    1    3    3    0    0  0.39531148214E+01  0.76266689369E+01 -0.22023100566E+02  0.23639165693E+02  0.51100000000E-03 0.  1.
         12    1    3    3    0    0 -0.55012605763E+01  0.19373731750E+01 -0.11919088024E+02  0.13269587110E+02  0.00000000000E+00 0. -1.
</event>
<event>
 7    1  0.2891523E-011  0.5052886E+02  0.7816164E-02  0.1300439E+00
        -11   -1    0    0    0    0  0.00000000000E+00  0.00000000000E+00  0.45593999997E+02  0.45594000000E+02  0.51100000000E-03 0. -1.
         11   -1    0    0    0    0 -0.00000000000E+00 -0.00000000000E+00 -0.45593999997E+02  0.45594000000E+02  0.51100000000E-03 0.  1.
    9900012    2    1    2    0    0  0.40150941636E+01 -0.29795454942E+02 -0.27372900835E+02  0.50528858143E+02  0.29999994812E+02 0.  0.
         12    1    1    2    0    0 -0.40150941636E+01  0.29795454942E+02  0.27372900835E+02  0.40659141857E+02  0.00000000000E+00 0. -1.
         11    1    3    3    0    0  0.93772749478E+01 -0.17845091447E+02 -0.65229768289E+00  0.20169433972E+02  0.51100000000E-03 0. -1.
        -11    1    3    3    0    0 -0.26295223697E+01 -0.95257604862E+01 -0.14081901910E+02  0.17203327074E+02  0.51100000000E-03 0.  1.
         12    1    3    3    0    0 -0.27326584146E+01 -0.24246030092E+01 -0.12638701242E+02  0.13156097098E+02  0.00000000000E+00 0. -1.
</event>
<event>
 7    1  0.2891523E-011  0.5052884E+02  0.7816164E-02  0.1300439E+00
        -11   -1    0    0    0    0  0.00000000000E+00  0.00000000000E+00  0.45593999997E+02  0.45594000000E+02  0.51100000000E-03 0. -1.
         11   -1    0    0    0    0 -0.00000000000E+00 -0.00000000000E+00 -0.45593999997E+02  0.45594000000E+02  0.51100000000E-03 0.  1.
    9900012    2    1    2    0    0  0.24692511742E+02  0.28335853698E+02 -0.15508923980E+02  0.50528837884E+02  0.29999933233E+02 0.  0.
         12    1    1    2    0    0 -0.24692511742E+02 -0.28335853698E+02  0.15508923980E+02  0.40659162116E+02  0.00000000000E+00 0. -1.
         11    1    3    3    0    0  0.72481122101E+00  0.38057349216E+01 -0.38074828177E+00  0.38928060721E+01  0.51100000000E-03 0. -1.
        -11    1    3    3    0    0 -0.77372197191E+00  0.92969788583E+01 -0.14900766798E+02  0.17580253496E+02  0.51100000000E-03 0.  1.
        -12    1    3    3    0    0  0.24741422493E+02  0.15233139918E+02 -0.22740890109E+00  0.29055778316E+02  0.00000000000E+00 0.  1.
</event>
<event>
 7    1  0.2891523E-011  0.5052886E+02  0.7816164E-02  0.1300439E+00
        -11   -1    0    0    0    0  0.00000000000E+00  0.00000000000E+00  0.45593999997E+02  0.45594000000E+02  0.51100000000E-03 0.  1.
         11   -1    0    0    0    0 -0.00000000000E+00 -0.00000000000E+00 -0.45593999997E+02  0.45594000000E+02  0.51100000000E-03 0. -1.
    9900012    2    1    2    0    0 -0.27909701570E+02 -0.14588191218E+02  0.25717673953E+02  0.50528861811E+02  0.30000005961E+02 0.  0.
         12    1    1    2    0    0  0.27909701570E+02  0.14588191218E+02 -0.25717673953E+02  0.40659138189E+02  0.00000000000E+00 0. -1.
         11    1    3    3    0    0  0.49831568804E+00 -0.93818301319E+00 -0.30351171925E+01  0.32156558467E+01  0.51100000000E-03 0. -1.
        -11    1    3    3    0    0 -0.28912804977E+02 -0.16879254523E+02  0.22747330512E+02  0.40475925815E+02  0.51100000000E-03 0.  1.
        -12    1    3    3    0    0  0.50478771879E+00  0.32292463185E+01  0.60054606331E+01  0.68372801495E+01  0.00000000000E+00 0.  1.
</event>
<event>
 7    1  0.2891523E-011  0.5052880E+02  0.7816164E-02  0.1300439E+00
        -11   -1    0    0    0    0  0.00000000000E+00  0.00000000000E+00  0.45593999997E+02  0.45594000000E+02  0.51100000000E-03 0.  1.
         11   -1    0    0    0    0 -0.00000000000E+00 -0.00000000000E+00 -0.45593999997E+02  0.45594000000E+02  0.51100000000E-03 0. -1.
    9900012    2    1    2    0    0 -0.29170643284E+01  0.44642400133E+01  0.40307963122E+02  0.50528799390E+02  0.29999816227E+02 0.  0.
         12    1    1    2    0    0  0.29170643284E+01 -0.44642400133E+01 -0.40307963122E+02  0.40659200610E+02  0.00000000000E+00 0. -1.
         11    1    3    3    0    0 -0.11684906668E+01  0.23878750755E+00  0.36352098349E+02  0.36371657159E+02  0.51100000000E-03 0. -1.
        -11    1    3    3    0    0  0.27753226439E+01  0.59363056314E+01 -0.16456410894E+01  0.67564987370E+01  0.51100000000E-03 0.  1.
         12    1    3    3    0    0 -0.45238963055E+01 -0.17108531257E+01  0.56015058624E+01  0.74006434941E+01  0.00000000000E+00 0. -1.
</event>
<event>
 7    1  0.2891523E-011  0.5052886E+02  0.7816164E-02  0.1300439E+00
        -11   -1    0    0    0    0  0.00000000000E+00  0.00000000000E+00  0.45593999997E+02  0.45594000000E+02  0.51100000000E-03 0. -1.
         11   -1    0    0    0    0 -0.00000000000E+00 -0.00000000000E+00 -0.45593999997E+02  0.45594000000E+02  0.51100000000E-03 0.  1.
    9900012    2    1    2    0    0 -0.31882407710E+02 -0.15449996213E+02 -0.19949323565E+02  0.50528858161E+02  0.29999994866E+02 0.  0.
         12    1    1    2    0    0  0.31882407710E+02  0.15449996213E+02  0.19949323565E+02  0.40659141839E+02  0.00000000000E+00 0. -1.
         11    1    3    3    0    0 -0.13854155664E+02  0.39894765814E+01 -0.14107896897E+02  0.20171423045E+02  0.51100000000E-03 0. -1.
        -11    1    3    3    0    0 -0.14549016352E+02 -0.19327913785E+02 -0.88466951298E+01  0.25758612988E+02  0.51100000000E-03 0.  1.
        -12    1    3    3    0    0 -0.34792356941E+01 -0.11155900959E+00  0.30052684622E+01  0.45988221272E+01  0.00000000000E+00 0.  1.
</event>
<event>
 7    1  0.2891523E-011  0.5052889E+02  0.7816164E-02  0.1300439E+00
        -11   -1    0    0    0    0  0.00000000000E+00  0.00000000000E+00  0.45593999997E+02  0.45594000000E+02  0.51100000000E-03 0.  1.
         11   -1    0    0    0    0 -0.00000000000E+00 -0.00000000000E+00 -0.45593999997E+02  0.45594000000E+02  0.51100000000E-03 0. -1.
    9900012    2    1    2    0    0  0.32197076917E+02  0.24653748662E+02 -0.29503463013E+01  0.50528885051E+02  0.30000076602E+02 0.  0.
         12    1    1    2    0    0 -0.32197076917E+02 -0.24653748662E+02  0.29503463013E+01  0.40659114949E+02  0.00000000000E+00 0. -1.
         11    1    3    3    0    0  0.60411279758E+01 -0.20830742465E+01 -0.88587462365E+01  0.10922994584E+02  0.51100000000E-03 0. -1.
        -11    1    3    3    0    0  0.11266971265E+02  0.78468865699E+01 -0.28237911560E+01  0.14017562808E+02  0.51100000000E-03 0.  1.
         12    1    3    3    0    0  0.14888977676E+02  0.18889936339E+02  0.87321910912E+01  0.25588327659E+02  0.00000000000E+00 0. -1.
</event>
<event>
 7    1  0.2891523E-011  0.5052885E+02  0.7816164E-02  0.1300439E+00
        -11   -1    0    0    0    0  0.00000000000E+00  0.00000000000E+00  0.45593999997E+02  0.45594000000E+02  0.51100000000E-03 0.  1.
         11   -1    0    0    0    0 -0.00000000000E+00 -0.00000000000E+00 -0.45593999997E+02  0.45594000000E+02  0.51100000000E-03 0. -1.
    9900012    2    1    2    0    0 -0.20098000497E+02 -0.11919905290E+02  0.33273899622E+02  0.50528853893E+02  0.29999981894E+02 0.  0.
         12    1    1    2    0    0  0.20098000497E+02  0.11919905290E+02 -0.33273899622E+02  0.40659146107E+02  0.00000000000E+00 0. -1.
         11    1    3    3    0    0  0.11765484202E+01 -0.19172730128E+00  0.24728475578E+02  0.24757191485E+02  0.51100000000E-03 0.  1.
        -11    1    3    3    0    0 -0.16829905466E+02 -0.92532984934E+01  0.71821227375E+01  0.20504929609E+02  0.51100000000E-03 0. -1.
        -12    1    3    3    0    0 -0.44446434512E+01 -0.24748794949E+01  0.13633013058E+01  0.52667327987E+01  0.00000000000E+00 0.  1.
</event>
<event>
 7    1  0.2891523E-011  0.5052884E+02  0.7816164E-02  0.1300439E+00
        -11   -1    0    0    0    0  0.00000000000E+00  0.00000000000E+00  0.45593999997E+02  0.45594000000E+02  0.51100000000E-03 0.  1.
         11   -1    0    0    0    0 -0.00000000000E+00 -0.00000000000E+00 -0.45593999997E+02  0.45594000000E+02  0.51100000000E-03 0. -1.
    9900012    2    1    2    0    0 -0.67351290530E+01 -0.18617527964E+02  0.35513278068E+02  0.50528840761E+02  0.29999941978E+02 0.  0.
         12    1    1    2    0    0  0.67351290530E+01  0.18617527964E+02 -0.35513278068E+02  0.40659159239E+02  0.00000000000E+00 0. -1.
         11    1    3    3    0    0 -0.52198641232E-01  0.56508380822E+01 -0.41726456880E+00  0.56664632453E+01  0.51100000000E-03 0. -1.
        -11    1    3    3    0    0  0.64543180828E-01 -0.13306334623E+02  0.13217794556E+02  0.18755607165E+02  0.51100000000E-03 0.  1.
         12    1    3    3    0    0 -0.67474735926E+01 -0.10962031423E+02  0.22712748081E+02  0.26106770351E+02  0.00000000000E+00 0. -1.
</event>
<event>
 7    1  0.2891523E-011  0.5052886E+02  0.7816164E-02  0.1300439E+00
        -11   -1    0    0    0    0  0.00000000000E+00  0.00000000000E+00  0.45593999997E+02  0.45594000000E+02  0.51100000000E-03 0.  1.
         11   -1    0    0    0    0 -0.00000000000E+00 -0.00000000000E+00 -0.45593999997E+02  0.45594000000E+02  0.51100000000E-03 0. -1.
    9900012    2    1    2    0    0 -0.89474220146E+01 -0.38010721715E+02  0.11326712571E+02  0.50528859039E+02  0.29999997535E+02 0.  0.
         12    1    1    2    0    0  0.89474220146E+01  0.38010721715E+02 -0.11326712571E+02  0.40659140961E+02  0.00000000000E+00 0. -1.
         11    1    3    3    0    0 -0.47949962593E+01 -0.11950787348E+02  0.15056250370E+02  0.19811713273E+02  0.51100000000E-03 0. -1.
        -11    1    3    3    0    0 -0.99192969610E+01 -0.14613390324E+02 -0.25642408594E+01  0.17847099496E+02  0.51100000000E-03 0.  1.
         12    1    3    3    0    0  0.57668712057E+01 -0.11446544043E+02 -0.11652969393E+01  0.12870046270E+02  0.00000000000E+00 0. -1.
</event>
<event>
 7    1  0.2891523E-011  0.5052887E+02  0.7816164E-02  0.1300439E+00
        -11   -1    0    0    0    0  0.00000000000E+00  0.00000000000E+00  0.45593999997E+02  0.45594000000E+02  0.51100000000E-03 0. -1.
         11   -1    0    0    0    0 -0.00000000000E+00 -0.00000000000E+00 -0.45593999997E+02  0.45594000000E+02  0.51100000000E-03 0.  1.
    9900012    2    1    2    0    0  0.34967568307E+02  0.15817976849E+02 -0.13424828477E+02  0.50528865177E+02  0.30000016192E+02 0.  0.
         12    1    1    2    0    0 -0.34967568307E+02 -0.15817976849E+02  0.13424828477E+02  0.40659134823E+02  0.00000000000E+00 0. -1.
         11    1    3    3    0    0  0.54796118583E+01 -0.37708648685E+01 -0.11371819828E+02  0.13174363530E+02  0.51100000000E-03 0. -1.
        -11    1    3    3    0    0  0.37391929581E+01  0.79437099675E+01  0.13783465607E+01  0.88872904492E+01  0.51100000000E-03 0.  1.
         12    1    3    3    0    0  0.25748763491E+02  0.11645131750E+02 -0.34313552106E+01  0.28467211197E+02  0.00000000000E+00 0. -1.
</event>
<event>
 7    1  0.2891523E-011  0.5052886E+02  0.7816164E-02  0.1300439E+00
        -11   -1    0    0    0    0  0.00000000000E+00  0.00000000000E+00  0.45593999997E+02  0.45594000000E+02  0.51100000000E-03 0. -1.
         11   -1    0    0    0    0 -0.00000000000E+00 -0.00000000000E+00 -0.45593999997E+02  0.45594000000E+02  0.51100000000E-03 0.  1.
    9900012    2    1    2    0    0 -0.26598478566E+02  0.29031365382E+02 -0.10142323070E+02  0.50528856438E+02  0.29999989628E+02 0.  0.
         12    1    1    2    0    0  0.26598478566E+02 -0.29031365382E+02  0.10142323070E+02  0.40659143562E+02  0.00000000000E+00 0. -1.
         11    1    3    3    0    0 -0.17709497505E+01  0.19051160752E+02 -0.11275840851E+02  0.22208727477E+02  0.51100000000E-03 0. -1.
        -11    1    3    3    0    0 -0.14846785426E+02  0.62372051907E+01 -0.38433665747E+01  0.16556002928E+02  0.51100000000E-03 0.  1.
        -12    1    3    3    0    0 -0.99807433899E+01  0.37429994390E+01  0.49768843553E+01  0.11764126032E+02  0.00000000000E+00 0.  1.
</event>
<event>
 7    1  0.2891523E-011  0.5052877E+02  0.7816164E-02  0.1300439E+00
        -11   -1    0    0    0    0  0.00000000000E+00  0.00000000000E+00  0.45593999997E+02  0.45594000000E+02  0.51100000000E-03 0.  1.
         11   -1    0    0    0    0 -0.00000000000E+00 -0.00000000000E+00 -0.45593999997E+02  0.45594000000E+02  0.51100000000E-03 0. -1.
    9900012    2    1    2    0    0 -0.33368401555E+02  0.22808412498E+02  0.44158162123E+01  0.50528765675E+02  0.29999713745E+02 0.  0.
         12    1    1    2    0    0  0.33368401555E+02 -0.22808412498E+02 -0.44158162123E+01  0.40659234325E+02  0.00000000000E+00 0. -1.
         11    1    3    3    0    0 -0.20466834173E+02  0.17476630461E+02  0.45614444722E+01  0.27297082065E+02  0.51100000000E-03 0. -1.
        -11    1    3    3    0    0 -0.75371750727E+01 -0.66431982786E+01 -0.90830859458E+00  0.10087919320E+02  0.51100000000E-03 0.  1.
        -12    1    3    3    0    0 -0.53643923093E+01  0.11974980316E+02  0.76268033463E+00  0.13143764290E+02  0.00000000000E+00 0.  1.
</event>
<event>
 7    1  0.2891523E-011  0.5052885E+02  0.7816164E-02  0.1300439E+00
        -11   -1    0    0    0    0  0.00000000000E+00  0.00000000000E+00  0.45593999997E+02  0.45594000000E+02  0.51100000000E-03 0.  1.
         11   -1    0    0    0    0 -0.00000000000E+00 -0.00000000000E+00 -0.45593999997E+02  0.45594000000E+02  0.51100000000E-03 0. -1.
    9900012    2    1    2    0    0  0.14843564832E+02 -0.25529910674E+02  0.27947426660E+02  0.50528850810E+02  0.29999972523E+02 0.  0.
         12    1    1    2    0    0 -0.14843564832E+02  0.25529910674E+02 -0.27947426660E+02  0.40659149190E+02  0.00000000000E+00 0. -1.
         11    1    3    3    0    0  0.13195075212E+02 -0.14911349785E+01  0.15466317323E+01  0.13368828047E+02  0.51100000000E-03 0. -1.
        -11    1    3    3    0    0 -0.38748936757E+00 -0.23925304819E+02  0.25373577930E+02  0.34876766134E+02  0.51100000000E-03 0.  1.
        -12    1    3    3    0    0  0.20359789871E+01 -0.11347087616E+00  0.10272169976E+01  0.22832566294E+01  0.00000000000E+00 0.  1.
</event>
<event>
 7    1  0.2891523E-011  0.5052897E+02  0.7816164E-02  0.1300438E+00
        -11   -1    0    0    0    0  0.00000000000E+00  0.00000000000E+00  0.45593999997E+02  0.45594000000E+02  0.51100000000E-03 0. -1.
         11   -1    0    0    0    0 -0.00000000000E+00 -0.00000000000E+00 -0.45593999997E+02  0.45594000000E+02  0.51100000000E-03 0.  1.
    9900012    2    1    2    0    0  0.33980058658E+02  0.10330318072E+02 -0.19793862692E+02  0.50528968308E+02  0.30000329667E+02 0.  0.
         12    1    1    2    0    0 -0.33980058658E+02 -0.10330318072E+02  0.19793862692E+02  0.40659031692E+02  0.00000000000E+00 0. -1.
         11    1    3    3    0    0 -0.58407152113E+00  0.39915580500E+01 -0.54948825490E+01  0.68167007927E+01  0.51100000000E-03 0. -1.
        -11    1    3    3    0    0  0.29297075798E+02  0.13572613211E+02 -0.12238264271E+02  0.34529836262E+02  0.51100000000E-03 0.  1.
        -12    1    3    3    0    0  0.52670543811E+01 -0.72338531886E+01 -0.20607158720E+01  0.91824312529E+01  0.00000000000E+00 0.  1.
</event>
<event>
 7    1  0.2891523E-011  0.5052886E+02  0.7816164E-02  0.1300439E+00
        -11   -1    0    0    0    0  0.00000000000E+00  0.00000000000E+00  0.45593999997E+02  0.45594000000E+02  0.51100000000E-03 0.  1.
         11   -1    0    0    0    0 -0.00000000000E+00 -0.00000000000E+00 -0.45593999997E+02  0.45594000000E+02  0.51100000000E-03 0. -1.
    9900012    2    1    2    0    0 -0.23582752552E+02 -0.18718198460E+02  0.27324869487E+02  0.50528860018E+02  0.30000000512E+02 0.  0.
         12    1    1    2    0    0  0.23582752552E+02  0.18718198460E+02 -0.27324869487E+02  0.40659139982E+02  0.00000000000E+00 0. -1.
         11    1    3    3    0    0  0.31186801836E+01  0.24153603382E+01 -0.86832393489E-01  0.39455889011E+01  0.51100000000E-03 0. -1.
        -11    1    3    3    0    0 -0.84559259034E+01 -0.16739653824E+02  0.11673337220E+02  0.22090393730E+02  0.51100000000E-03 0.  1.
         12    1    3    3    0    0 -0.18245506833E+02 -0.43939049743E+01  0.15738364661E+02  0.24492877387E+02  0.00000000000E+00 0. -1.
</event>
<event>
 7    1  0.2891523E-011  0.5052886E+02  0.7816164E-02  0.1300439E+00
        -11   -1    0    0    0    0  0.00000000000E+00  0.00000000000E+00  0.45593999997E+02  0.45594000000E+02  0.51100000000E-03 0. -1.
         11   -1    0    0    0    0 -0.00000000000E+00 -0.00000000000E+00 -0.45593999997E+02  0.45594000000E+02  0.51100000000E-03 0.  1.
    9900012    2    1    2    0    0 -0.24529760951E+02 -0.13786953173E+02 -0.29349212232E+02  0.50528861928E+02  0.30000006317E+02 0.  0.
         12    1    1    2    0    0  0.24529760951E+02  0.13786953173E+02  0.29349212232E+02  0.40659138072E+02  0.00000000000E+00 0. -1.
         11    1    3    3    0    0 -0.15052748307E+02  0.97917650246E+00 -0.27043879495E+02  0.30966359757E+02  0.51100000000E-03 0.  1.
        -11    1    3    3    0    0 -0.81173587528E+01 -0.66316031912E+01  0.12987448338E+01  0.10562026908E+02  0.51100000000E-03 0. -1.
        -12    1    3    3    0    0 -0.13596538916E+01 -0.81345264839E+01 -0.36040775708E+01  0.90004752629E+01  0.00000000000E+00 0.  1.
</event>
<event>
 7    1  0.2891523E-011  0.5052886E+02  0.7816164E-02  0.1300439E+00
        -11   -1    0    0    0    0  0.00000000000E+00  0.00000000000E+00  0.45593999997E+02  0.45594000000E+02  0.51100000000E-03 0.  1.
         11   -1    0    0    0    0 -0.00000000000E+00 -0.00000000000E+00 -0.45593999997E+02  0.45594000000E+02  0.51100000000E-03 0. -1.
    9900012    2    1    2    0    0  0.29087539581E+02  0.24116329522E+02 -0.15016115812E+02  0.50528855364E+02  0.29999986364E+02 0.  0.
         12    1    1    2    0    0 -0.29087539581E+02 -0.24116329522E+02  0.15016115812E+02  0.40659144636E+02  0.00000000000E+00 0. -1.
         11    1    3    3    0    0  0.68936479977E+01  0.58958784729E+00 -0.14031432056E+02  0.15644522439E+02  0.51100000000E-03 0. -1.
        -11    1    3    3    0    0  0.17426222107E+02  0.97721027483E+01  0.18100582850E+01  0.20060994998E+02  0.51100000000E-03 0.  1.
         12    1    3    3    0    0  0.47676694762E+01  0.13754638926E+02 -0.27947420409E+01  0.14823337927E+02  0.00000000000E+00 0. -1.
</event>
