<event>
 8    1  0.2994958E-010  0.9118800E+02  0.7816164E-02  0.1184000E+00
        -11   -1    0    0    0    0  0.00000000000E+00  0.00000000000E+00  0.45593999997E+02  0.45594000000E+02  0.51100000000E-03 0. -1.
         11   -1    0    0    0    0 -0.00000000000E+00 -0.00000000000E+00 -0.45593999997E+02  0.45594000000E+02  0.51100000000E-03 0.  1.
         23    2    1    2    0    0 -0.35527136788E-14  0.00000000000E+00  0.00000000000E+00  0.91188000000E+02  0.91188000000E+02 0.  0.
    9900012    2    3    3    0    0 -0.20058580886E+02  0.29653277729E+01 -0.38372952941E+02  0.47787270129E+02  0.19999995825E+02 0.  0.
         12    1    3    3    0    0  0.20058580886E+02 -0.29653277729E+01  0.38372952941E+02  0.43400729871E+02  0.00000000000E+00 0. -1.
         11    1    4    4    0    0  0.62599948168E-01  0.36462943547E+01 -0.42887467935E+01  0.56296297031E+01  0.51100000000E-03 0. -1.
        -11    1    4    4    0    0 -0.14227199916E+02  0.29070333144E+01 -0.11442080549E+02  0.18487435401E+02  0.51100000000E-03 0.  1.
        -12    1    4    4    0    0 -0.58939809177E+01 -0.35879998962E+01 -0.22642125598E+02  0.23670205025E+02  0.00000000000E+00 0.  1.
</event>
<event>
 8    1  0.2994958E-010  0.9118800E+02  0.7816164E-02  0.1184000E+00
        -11   -1    0    0    0    0  0.00000000000E+00  0.00000000000E+00  0.45593999997E+02  0.45594000000E+02  0.51100000000E-03 0. -1.
         11   -1    0    0    0    0 -0.00000000000E+00 -0.00000000000E+00 -0.45593999997E+02  0.45594000000E+02  0.51100000000E-03 0.  1.
         23    2    1    2    0    0 -0.17763568394E-14  0.35527136788E-14  0.00000000000E+00  0.91188000000E+02  0.91188000000E+02 0.  0.
    9900012    2    3    3    0    0  0.15887538671E+02  0.25117721097E+02 -0.31627670528E+02  0.47787270269E+02  0.19999996463E+02 0.  0.
         12    1    3    3    0    0 -0.15887538671E+02 -0.25117721097E+02  0.31627670528E+02  0.43400729731E+02  0.00000000000E+00 0. -1.
         11    1    4    4    0    0  0.80897416321E+00  0.44543394024E+01 -0.14664107938E+01  0.47587750089E+01  0.51100000000E-03 0. -1.
        -11    1    4    4    0    0  0.54797750405E+01 -0.20170222690E+01 -0.38772163056E+01  0.70092167801E+01  0.51100000000E-03 0.  1.
        -12    1    4    4    0    0  0.95987894676E+01  0.22680403964E+02 -0.26284043429E+02  0.36019278480E+02  0.00000000000E+00 0.  1.
</event>
<event>
 8    1  0.2994958E-010  0.9118800E+02  0.7816164E-02  0.1184000E+00
        -11   -1    0    0    0    0  0.00000000000E+00  0.00000000000E+00  0.45593999997E+02  0.45594000000E+02  0.51100000000E-03 0. -1.
         11   -1    0    0    0    0 -0.00000000000E+00 -0.00000000000E+00 -0.45593999997E+02  0.45594000000E+02  0.51100000000E-03 0.  1.
         23    2    1    2    0    0 -0.44408920985E-15  0.00000000000E+00  0.00000000000E+00  0.91188000000E+02  0.91188000000E+02 0.  0.
    9900012    2    3    3    0    0  0.52372285082E+00  0.14659236306E+02 -0.40846734755E+02  0.47787271494E+02  0.20000002050E+02 0.  0.
         12    1    3    3    0    0 -0.52372285082E+00 -0.14659236306E+02  0.40846734755E+02  0.43400728506E+02  0.00000000000E+00 0. -1.
         11    1    4    4    0    0 -0.73288127952E+00  0.10438894907E+00  0.13489954665E+01  0.15387660811E+01  0.51100000000E-03 0. -1.
        -11    1    4    4    0    0 -0.22464477437E+01  0.41623696807E+01 -0.31279965562E+01  0.56706447200E+01  0.51100000000E-03 0.  1.
        -12    1    4    4    0    0  0.35030518741E+01  0.10392477677E+02 -0.39067733665E+02  0.40577860693E+02  0.00000000000E+00 0.  1.
</event>
<event>
 8    1  0.2994958E-010  0.9118800E+02  0.7816164E-02  0.1184000E+00
        -11   -1    0    0    0    0  0.00000000000E+00  0.00000000000E+00  0.45593999997E+02  0.45594000000E+02  0.51100000000E-03 0.  1.
         11   -1    0    0    0    0 -0.00000000000E+00 -0.00000000000E+00 -0.45593999997E+02  0.45594000000E+02  0.51100000000E-03 0. -1.
         23    2    1    2    0    0  0.00000000000E+00 -0.35527136788E-14  0.00000000000E+00  0.91188000000E+02  0.91188000000E+02 0.  0.
    9900012    2    3    3    0    0 -0.54353294356E+01 -0.29521130355E+02  0.31346174505E+02  0.47787278813E+02  0.20000035418E+02 0.  0.
        -12    1    3    3    0    0  0.54353294356E+01  0.29521130355E+02 -0.31346174505E+02  0.43400721187E+02  0.00000000000E+00 0.  1.
         11    1    4    4    0    0 -0.14282945619E+01 -0.11498553931E+00  0.61977710088E-01  0.14342553913E+01  0.51100000000E-03 0. -1.
        -11    1    4    4    0    0  0.39913133805E+00 -0.49709872709E+01  0.16982111424E+02  0.17699212665E+02  0.51100000000E-03 0.  1.
         12    1    4    4    0    0 -0.44061662118E+01 -0.24435157544E+02  0.14302085371E+02  0.28653810756E+02  0.00000000000E+00 0. -1.
</event>
<event>
 8    1  0.2994958E-010  0.9118800E+02  0.7816164E-02  0.1184000E+00
        -11   -1    0    0    0    0  0.00000000000E+00  0.00000000000E+00  0.45593999997E+02  0.45594000000E+02  0.51100000000E-03 0. -1.
         11   -1    0    0    0    0 -0.00000000000E+00 -0.00000000000E+00 -0.45593999997E+02  0.45594000000E+02  0.51100000000E-03 0.  1.
         23    2    1    2    0    0  0.00000000000E+00 -0.71054273576E-14 -0.22204460493E-15  0.91188000000E+02  0.91188000000E+02 0.  0.
    9900012    2    3    3    0    0  0.13694704124E+02 -0.41140958512E+02  0.18707394456E+01  0.47787273573E+02  0.20000011529E+02 0.  0.
        -12    1    3    3    0    0 -0.13694704124E+02  0.41140958512E+02 -0.18707394456E+01  0.43400726427E+02  0.00000000000E+00 0.  1.
         11    1    4    4    0    0 -0.33612129199E+00 -0.23749997148E+00  0.63043334704E+00  0.75288128252E+00  0.51100000000E-03 0.  1.
        -11    1    4    4    0    0  0.15717621671E+02 -0.41378221084E+02 -0.89525244151E+00  0.44271913086E+02  0.51100000000E-03 0. -1.
         12    1    4    4    0    0 -0.16867962550E+01  0.47476254394E+00  0.21355585400E+01  0.27624792048E+01  0.00000000000E+00 0. -1.
</event>
<event>
 8    1  0.2994958E-010  0.9118800E+02  0.7816164E-02  0.1184000E+00
        -11   -1    0    0    0    0  0.00000000000E+00  0.00000000000E+00  0.45593999997E+02  0.45594000000E+02  0.51100000000E-03 0. -1.
         11   -1    0    0    0    0 -0.00000000000E+00 -0.00000000000E+00 -0.45593999997E+02  0.45594000000E+02  0.51100000000E-03 0.  1.
         23    2    1    2    0    0  0.00000000000E+00  0.88817841970E-15  0.00000000000E+00  0.91188000000E+02  0.91188000000E+02 0.  0.
    9900012    2    3    3    0    0  0.19184490143E+02 -0.74334685425E+01 -0.38214175308E+02  0.47787259095E+02  0.19999945519E+02 0.  0.
         12    1    3    3    0    0 -0.19184490143E+02  0.74334685425E+01  0.38214175308E+02  0.43400740905E+02  0.00000000000E+00 0. -1.
         11    1    4    4    0    0  0.50500725135E+01  0.16154360160E+01 -0.20069408977E+01  0.56692749044E+01  0.51100000000E-03 0. -1.
        -11    1    4    4    0    0  0.61974591369E+00 -0.34134789783E+01 -0.47460063218E+00  0.35015953156E+01  0.51100000000E-03 0.  1.
        -12    1    4    4    0    0  0.13514671715E+02 -0.56354255802E+01 -0.35732633778E+02  0.38616388875E+02  0.00000000000E+00 0.  1.
</event>
<event>
 8    1  0.2994958E-010  0.9118800E+02  0.7816164E-02  0.1184000E+00
        -11   -1    0    0    0    0  0.00000000000E+00  0.00000000000E+00  0.45593999997E+02  0.45594000000E+02  0.51100000000E-03 0. -1.
         11   -1    0    0    0    0 -0.00000000000E+00 -0.00000000000E+00 -0.45593999997E+02  0.45594000000E+02  0.51100000000E-03 0.  1.
         23    2    1    2    0    0  0.35527136788E-14  0.17763568394E-14  0.35527136788E-14  0.91188000000E+02  0.91188000000E+02 0.  0.
    9900012    2    3    3    0    0 -0.31065493500E+02 -0.92275527906E+01 -0.28868853694E+02  0.47787270392E+02  0.19999997026E+02 0.  0.
         12    1    3    3    0    0  0.31065493500E+02  0.92275527906E+01  0.28868853694E+02  0.43400729608E+02  0.00000000000E+00 0. -1.
         11    1    4    4    0    0 -0.60397238483E+01 -0.56393910636E+01 -0.84319073790E+00  0.83061402958E+01  0.51100000000E-03 0. -1.
        -11    1    4    4    0    0 -0.10793449157E+02 -0.69081953777E+01 -0.16361046229E+02  0.20782337261E+02  0.51100000000E-03 0.  1.
        -12    1    4    4    0    0 -0.14232320495E+02  0.33200336507E+01 -0.11664616727E+02  0.18698792835E+02  0.00000000000E+00 0.  1.
</event>
<event>
 8    1  0.2994958E-010  0.9118800E+02  0.7816164E-02  0.1184000E+00
        -11   -1    0    0    0    0  0.00000000000E+00  0.00000000000E+00  0.45593999997E+02  0.45594000000E+02  0.51100000000E-03 0. -1.
         11   -1    0    0    0    0 -0.00000000000E+00 -0.00000000000E+00 -0.45593999997E+02  0.45594000000E+02  0.51100000000E-03 0.  1.
         23    2    1    2    0    0 -0.35527136788E-14  0.00000000000E+00  0.00000000000E+00  0.91188000000E+02  0.91188000000E+02 0.  0.
    9900012    2    3    3    0    0 -0.31659413717E+02  0.24522305851E+02  0.16732058964E+02  0.47787265463E+02  0.19999974553E+02 0.  0.
        -12    1    3    3    0    0  0.31659413717E+02 -0.24522305851E+02 -0.16732058964E+02  0.43400734537E+02  0.00000000000E+00 0.  1.
         11    1    4    4    0    0 -0.67697306622E+01  0.13738825590E+02  0.41323930298E+01  0.15863834790E+02  0.51100000000E-03 0. -1.
        -11    1    4    4    0    0 -0.40971384412E+01  0.64412187565E+01  0.59086325414E+01  0.96533818554E+01  0.51100000000E-03 0.  1.
        -12    1    4    4    0    0 -0.20792544614E+02  0.43422615046E+01  0.66910333927E+01  0.22270048818E+02  0.00000000000E+00 0.  1.
</event>
<event>
 8    1  0.2994958E-010  0.9118800E+02  0.7816164E-02  0.1184000E+00
        -11   -1    0    0    0    0  0.00000000000E+00  0.00000000000E+00  0.45593999997E+02  0.45594000000E+02  0.51100000000E-03 0. -1.
         11   -1    0    0    0    0 -0.00000000000E+00 -0.00000000000E+00 -0.45593999997E+02  0.45594000000E+02  0.51100000000E-03 0.  1.
         23    2    1    2    0    0  0.00000000000E+00  0.00000000000E+00  0.00000000000E+00  0.91188000000E+02  0.91188000000E+02 0.  0.
    9900012    2    3    3    0    0 -0.53890304733E+01  0.36071869392E+01 -0.42913516008E+02  0.47787270706E+02  0.19999998458E+02 0.  0.
         12    1    3    3    0    0  0.53890304733E+01 -0.36071869392E+01  0.42913516008E+02  0.43400729294E+02  0.00000000000E+00 0. -1.
         11    1    4    4    0    0 -0.44373034593E+01 -0.42338590466E+01 -0.22053892792E+02  0.22890815013E+02  0.51100000000E-03 0. -1.
        -11    1    4    4    0    0 -0.48126411329E+01  0.63891056102E+01 -0.18474085067E+02  0.20131418343E+02  0.51100000000E-03 0.  1.
         12    1    4    4    0    0  0.38609141189E+01  0.14519403756E+01 -0.23855381485E+01  0.47650373499E+01  0.00000000000E+00 0. -1.
</event>
<event>
 8    1  0.2994958E-010  0.9118800E+02  0.7816164E-02  0.1184000E+00
        -11   -1    0    0    0    0  0.00000000000E+00  0.00000000000E+00  0.45593999997E+02  0.45594000000E+02  0.51100000000E-03 0. -1.
         11   -1    0    0    0    0 -0.00000000000E+00 -0.00000000000E+00 -0.45593999997E+02  0.45594000000E+02  0.51100000000E-03 0.  1.
         23    2    1    2    0    0  0.00000000000E+00 -0.44408920985E-15  0.00000000000E+00  0.91188000000E+02  0.91188000000E+02 0.  0.
    9900012    2    3    3    0    0 -0.39092190857E+01 -0.28488905646E+01 -0.43130329030E+02  0.47787268975E+02  0.19999990563E+02 0.  0.
         12    1    3    3    0    0  0.39092190857E+01  0.28488905646E+01  0.43130329030E+02  0.43400731025E+02  0.00000000000E+00 0. -1.
         11    1    4    4    0    0 -0.12306508346E+01 -0.17629831623E+01 -0.23524789246E+02  0.23622834725E+02  0.51100000000E-03 0. -1.
        -11    1    4    4    0    0 -0.15052918786E+00 -0.47809871367E+01 -0.19063699151E+02  0.19654646337E+02  0.51100000000E-03 0.  1.
         12    1    4    4    0    0 -0.25280390633E+01  0.36950797344E+01 -0.54184063269E+00  0.45097879130E+01  0.00000000000E+00 0. -1.
</event>
<event>
 8    1  0.2994958E-010  0.9118800E+02  0.7816164E-02  0.1184000E+00
        -11   -1    0    0    0    0  0.00000000000E+00  0.00000000000E+00  0.45593999997E+02  0.45594000000E+02  0.51100000000E-03 0. -1.
         11   -1    0    0    0    0 -0.00000000000E+00 -0.00000000000E+00 -0.45593999997E+02  0.45594000000E+02  0.51100000000E-03 0.  1.
         23    2    1    2    0    0  0.00000000000E+00  0.00000000000E+00 -0.35527136788E-14  0.91188000000E+02  0.91188000000E+02 0.  0.
    9900012    2    3    3    0    0  0.79169626739E+01 -0.28575693639E+02 -0.31691873128E+02  0.47787269738E+02  0.19999994043E+02 0.  0.
         12    1    3    3    0    0 -0.79169626739E+01  0.28575693639E+02  0.31691873128E+02  0.43400730262E+02  0.00000000000E+00 0. -1.
         11    1    4    4    0    0  0.78019772050E+01 -0.86855002163E+01 -0.71683388832E+01  0.13700140325E+02  0.51100000000E-03 0. -1.
        -11    1    4    4    0    0  0.62208763679E+01 -0.76366896550E+01 -0.12078590691E+02  0.15585592225E+02  0.51100000000E-03 0.  1.
         12    1    4    4    0    0 -0.61058908990E+01 -0.12253503767E+02 -0.12444943555E+02  0.18501537188E+02  0.00000000000E+00 0. -1.
</event>
<event>
 8    1  0.2994958E-010  0.9118800E+02  0.7816164E-02  0.1184000E+00
        -11   -1    0    0    0    0  0.00000000000E+00  0.00000000000E+00  0.45593999997E+02  0.45594000000E+02  0.51100000000E-03 0.  1.
         11   -1    0    0    0    0 -0.00000000000E+00 -0.00000000000E+00 -0.45593999997E+02  0.45594000000E+02  0.51100000000E-03 0. -1.
         23    2    1    2    0    0  0.00000000000E+00  0.00000000000E+00  0.00000000000E+00  0.91188000000E+02  0.91188000000E+02 0.  0.
    9900012    2    3    3    0    0  0.32971661294E+02 -0.19439730358E+02  0.20459450697E+02  0.47787277797E+02  0.20000030788E+02 0.  0.
         12    1    3    3    0    0 -0.32971661294E+02  0.19439730358E+02 -0.20459450697E+02  0.43400722203E+02  0.00000000000E+00 0. -1.
         11    1    4    4    0    0  0.15839248902E+02 -0.66469487663E+01  0.74869759476E+01  0.18738157401E+02  0.51100000000E-03 0.  1.
        -11    1    4    4    0    0  0.99573329595E+01 -0.12535380919E+02  0.22809153624E+01  0.16170554400E+02  0.51100000000E-03 0. -1.
        -12    1    4    4    0    0  0.71750794324E+01 -0.25740067242E+00  0.10691559387E+02  0.12878565996E+02  0.00000000000E+00 0.  1.
</event>
<event>
 8    1  0.2994958E-010  0.9118800E+02  0.7816164E-02  0.1184000E+00
        -11   -1    0    0    0    0  0.00000000000E+00  0.00000000000E+00  0.45593999997E+02  0.45594000000E+02  0.51100000000E-03 0. -1.
         11   -1    0    0    0    0 -0.00000000000E+00 -0.00000000000E+00 -0.45593999997E+02  0.45594000000E+02  0.51100000000E-03 0.  1.
         23    2    1    2    0    0  0.88817841970E-15 -0.35527136788E-14  0.00000000000E+00  0.91188000000E+02  0.91188000000E+02 0.  0.
    9900012    2    3    3    0    0 -0.65377039487E+01  0.29668128630E+02  0.30994903397E+02  0.47787268832E+02  0.19999989912E+02 0.  0.
        -12    1    3    3    0    0  0.65377039487E+01 -0.29668128630E+02 -0.30994903397E+02  0.43400731168E+02  0.00000000000E+00 0.  1.
         11    1    4    4    0    0 -0.67870609288E+01  0.20310742355E+02  0.25357426098E+02  0.33190202012E+02  0.51100000000E-03 0. -1.
        -11    1    4    4    0    0  0.10704804337E+01  0.26301634884E+01  0.71149878643E+01  0.76607271786E+01  0.51100000000E-03 0.  1.
        -12    1    4    4    0    0 -0.82112345359E+00  0.67272227869E+01 -0.14775105647E+01  0.69363396413E+01  0.00000000000E+00 0.  1.
</event>
<event>
 8    1  0.2994958E-010  0.9118800E+02  0.7816164E-02  0.1184000E+00
        -11   -1    0    0    0    0  0.00000000000E+00  0.00000000000E+00  0.45593999997E+02  0.45594000000E+02  0.51100000000E-03 0. -1.
         11   -1    0    0    0    0 -0.00000000000E+00 -0.00000000000E+00 -0.45593999997E+02  0.45594000000E+02  0.51100000000E-03 0.  1.
         23    2    1    2    0    0 -0.71054273576E-14  0.00000000000E+00  0.00000000000E+00  0.91188000000E+02  0.91188000000E+02 0.  0.
    9900012    2    3    3    0    0  0.41112140007E+02  0.75282564604E+01 -0.11693625149E+02  0.47787267628E+02  0.19999984424E+02 0.  0.
         12    1    3    3    0    0 -0.41112140007E+02 -0.75282564604E+01  0.11693625149E+02  0.43400732372E+02  0.00000000000E+00 0. -1.
         11    1    4    4    0    0  0.22135293855E+00  0.15938542599E+01  0.15451705154E+01  0.22309013219E+01  0.51100000000E-03 0. -1.
        -11    1    4    4    0    0 -0.25197591514E+00 -0.11923888179E+01  0.85250688847E+00  0.14872966116E+01  0.51100000000E-03 0.  1.
        -12    1    4    4    0    0  0.41142762984E+02  0.71267910184E+01 -0.14091302552E+02  0.44069069695E+02  0.00000000000E+00 0.  1.
</event>
<event>
 8    1  0.2994958E-010  0.9118800E+02  0.7816164E-02  0.1184000E+00
        -11   -1    0    0    0    0  0.00000000000E+00  0.00000000000E+00  0.45593999997E+02  0.45594000000E+02  0.51100000000E-03 0. -1.
         11   -1    0    0    0    0 -0.00000000000E+00 -0.00000000000E+00 -0.45593999997E+02  0.45594000000E+02  0.51100000000E-03 0.  1.
         23    2    1    2    0    0  0.17763568394E-14  0.00000000000E+00  0.00000000000E+00  0.91188000000E+02  0.91188000000E+02 0.  0.
    9900012    2    3    3    0    0 -0.11079207949E+02  0.96549589730E+01 -0.40836969003E+02  0.47787249789E+02  0.19999903088E+02 0.  0.
         12    1    3    3    0    0  0.11079207949E+02 -0.96549589730E+01  0.40836969003E+02  0.43400750211E+02  0.00000000000E+00 0. -1.
         11    1    4    4    0    0 -0.29341811487E+01 -0.15614572934E+01 -0.64452631378E+01  0.72518263264E+01  0.51100000000E-03 0. -1.
        -11    1    4    4    0    0 -0.23271360521E+01 -0.28276974270E+01 -0.17205435815E+02  0.17590862878E+02  0.51100000000E-03 0.  1.
         12    1    4    4    0    0 -0.58178907481E+01  0.14044113693E+02 -0.17186270050E+02  0.22944560585E+02  0.00000000000E+00 0. -1.
</event>
<event>
 8    1  0.2994958E-010  0.9118800E+02  0.7816164E-02  0.1184000E+00
        -11   -1    0    0    0    0  0.00000000000E+00  0.00000000000E+00  0.45593999997E+02  0.45594000000E+02  0.51100000000E-03 0. -1.
         11   -1    0    0    0    0 -0.00000000000E+00 -0.00000000000E+00 -0.45593999997E+02  0.45594000000E+02  0.51100000000E-03 0.  1.
         23    2    1    2    0    0  0.00000000000E+00 -0.88817841970E-15  0.00000000000E+00  0.91188000000E+02  0.91188000000E+02 0.  0.
    9900012    2    3    3    0    0  0.16026010667E+02  0.32328327125E+01  0.40203721907E+02  0.47787268665E+02  0.19999989152E+02 0.  0.
        -12    1    3    3    0    0 -0.16026010667E+02 -0.32328327125E+01 -0.40203721907E+02  0.43400731335E+02  0.00000000000E+00 0.  1.
         11    1    4    4    0    0  0.61893579222E+01  0.55929186067E+01  0.32533817860E+02  0.33586279860E+02  0.51100000000E-03 0. -1.
        -11    1    4    4    0    0  0.24374773497E+01 -0.21428222921E+01  0.56701428522E+01  0.65332613166E+01  0.51100000000E-03 0.  1.
        -12    1    4    4    0    0  0.73991753954E+01 -0.21726360199E+00  0.19997611946E+01  0.76677274886E+01  0.00000000000E+00 0.  1.
</event>
<event>
 8    1  0.2994958E-010  0.9118800E+02  0.7816164E-02  0.1184000E+00
        -11   -1    0    0    0    0  0.00000000000E+00  0.00000000000E+00  0.45593999997E+02  0.45594000000E+02  0.51100000000E-03 0. -1.
         11   -1    0    0    0    0 -0.00000000000E+00 -0.00000000000E+00 -0.45593999997E+02  0.45594000000E+02  0.51100000000E-03 0.  1.
         23    2    1    2    0    0  0.00000000000E+00 -0.17763568394E-14  0.00000000000E+00  0.91188000000E+02  0.91188000000E+02 0.  0.
    9900012    2    3    3    0    0 -0.37153914920E+02 -0.14125797807E+02  0.17426178215E+02  0.47787271380E+02  0.20000001528E+02 0.  0.
        -12    1    3    3    0    0  0.37153914920E+02  0.14125797807E+02 -0.17426178215E+02  0.43400728620E+02  0.00000000000E+00 0.  1.
         11    1    4    4    0    0 -0.10643714098E+02 -0.89694221863E+01  0.90181338176E+01  0.16585111455E+02  0.51100000000E-03 0. -1.
        -11    1    4    4    0    0 -0.85999507210E+01  0.44891454261E+01  0.29663577114E+01  0.10144498873E+02  0.51100000000E-03 0.  1.
         12    1    4    4    0    0 -0.17910250101E+02 -0.96455210466E+01  0.54416866863E+01  0.21057661051E+02  0.00000000000E+00 0. -1.
</event>
<event>
 8    1  0.2994958E-010  0.9118800E+02  0.7816164E-02  0.1184000E+00
        -11   -1    0    0    0    0  0.00000000000E+00  0.00000000000E+00  0.45593999997E+02  0.45594000000E+02  0.51100000000E-03 0. -1.
         11   -1    0    0    0    0 -0.00000000000E+00 -0.00000000000E+00 -0.45593999997E+02  0.45594000000E+02  0.51100000000E-03 0.  1.
         23    2    1    2    0    0  0.00000000000E+00  0.00000000000E+00  0.71054273576E-14  0.91188000000E+02  0.91188000000E+02 0.  0.
    9900012    2    3    3    0    0 -0.63098915410E+01  0.81339215456E+01 -0.42162164535E+02  0.47787268103E+02  0.19999986588E+02 0.  0.
         12    1    3    3    0    0  0.63098915410E+01 -0.81339215456E+01  0.42162164535E+02  0.43400731897E+02  0.00000000000E+00 0. -1.
         11    1    4    4    0    0 -0.78337639513E+00  0.50580958652E+01 -0.14448153314E+02  0.15327985739E+02  0.51100000000E-03 0.  1.
        -11    1    4    4    0    0 -0.54221399389E+01  0.43255422869E+01 -0.27461980116E+01  0.74599947301E+01  0.51100000000E-03 0. -1.
         12    1    4    4    0    0 -0.10437520700E+00 -0.12497166065E+01 -0.24967813209E+02  0.24999287634E+02  0.00000000000E+00 0. -1.
</event>
<event>
 8    1  0.2994958E-010  0.9118800E+02  0.7816164E-02  0.1184000E+00
        -11   -1    0    0    0    0  0.00000000000E+00  0.00000000000E+00  0.45593999997E+02  0.45594000000E+02  0.51100000000E-03 0. -1.
         11   -1    0    0    0    0 -0.00000000000E+00 -0.00000000000E+00 -0.45593999997E+02  0.45594000000E+02  0.51100000000E-03 0.  1.
         23    2    1    2    0    0  0.35527136788E-14 -0.17763568394E-14 -0.71054273576E-14  0.91188000000E+02  0.91188000000E+02 0.  0.
    9900012    2    3    3    0    0 -0.24387153767E+02  0.84199047698E+01  0.34899791447E+02  0.47787268345E+02  0.19999987691E+02 0.  0.
        -12    1    3    3    0    0  0.24387153767E+02 -0.84199047698E+01 -0.34899791447E+02  0.43400731655E+02  0.00000000000E+00 0.  1.
         11    1    4    4    0    0 -0.15246586309E+02  0.14084277497E+02  0.17312573018E+02  0.27028696814E+02  0.51100000000E-03 0. -1.
        -11    1    4    4    0    0 -0.37241864634E+01 -0.11199406895E+01  0.51675203234E+01  0.64673873022E+01  0.51100000000E-03 0.  1.
         12    1    4    4    0    0 -0.54163809941E+01 -0.45444320376E+01  0.12419698106E+02  0.14291184229E+02  0.00000000000E+00 0. -1.
</event>
<event>
 8    1  0.3065102E-010  0.9118800E+02  0.7816164E-02  0.1184000E+00
        -11   -1    0    0    0    0  0.00000000000E+00  0.00000000000E+00  0.45593999997E+02  0.45594000000E+02  0.51100000000E-03 0. -1.
         11   -1    0    0    0    0 -0.00000000000E+00 -0.00000000000E+00 -0.45593999997E+02  0.45594000000E+02  0.51100000000E-03 0.  1.
         23    2    1    2    0    0  0.00000000000E+00  0.00000000000E+00  0.00000000000E+00  0.91188000000E+02  0.91188000000E+02 0.  0.
    9900012    2    3    3    0    0  0.26984812439E+01  0.18651823888E+02  0.39095398087E+02  0.47787280110E+02  0.20000041333E+02 0.  0.
        -12    1    3    3    0    0 -0.26984812439E+01 -0.18651823888E+02 -0.39095398087E+02  0.43400719890E+02  0.00000000000E+00 0.  1.
         11    1    4    4    0    0  0.37752917519E+01 -0.13774883718E+01  0.52743327485E+01  0.66309040281E+01  0.51100000000E-03 0. -1.
        -11    1    4    4    0    0  0.27426590610E+01  0.13599634504E+01  0.10293510672E+01  0.32297435180E+01  0.51100000000E-03 0.  1.
         12    1    4    4    0    0 -0.38194695690E+01  0.18669348810E+02  0.32791714272E+02  0.37926632564E+02  0.00000000000E+00 0. -1.
</event>
<event>
 8    1  0.2994958E-010  0.9118800E+02  0.7816164E-02  0.1184000E+00
        -11   -1    0    0    0    0  0.00000000000E+00  0.00000000000E+00  0.45593999997E+02  0.45594000000E+02  0.51100000000E-03 0. -1.
         11   -1    0    0    0    0 -0.00000000000E+00 -0.00000000000E+00 -0.45593999997E+02  0.45594000000E+02  0.51100000000E-03 0.  1.
         23    2    1    2    0    0 -0.16653345369E-15 -0.35527136788E-14  0.00000000000E+00  0.91188000000E+02  0.91188000000E+02 0.  0.
    9900012    2    3    3    0    0  0.34045165961E+00 -0.28866593064E+02 -0.32407210199E+02  0.47787269875E+02  0.19999994669E+02 0.  0.
         12    1    3    3    0    0 -0.34045165961E+00  0.28866593064E+02  0.32407210199E+02  0.43400730125E+02  0.00000000000E+00 0. -1.
         11    1    4    4    0    0 -0.33661437796E+00 -0.35359463077E+01 -0.71316384705E+01  0.79672136324E+01  0.51100000000E-03 0. -1.
        -11    1    4    4    0    0 -0.27332250765E+01 -0.20479665735E+02 -0.26661830354E+02  0.33730408032E+02  0.51100000000E-03 0.  1.
         12    1    4    4    0    0  0.34102911141E+01 -0.48509810220E+01  0.13862586251E+01  0.60896482111E+01  0.00000000000E+00 0. -1.
</event>
<event>
 8    1  0.2994958E-010  0.9118800E+02  0.7816164E-02  0.1184000E+00
        -11   -1    0    0    0    0  0.00000000000E+00  0.00000000000E+00  0.45593999997E+02  0.45594000000E+02  0.51100000000E-03 0. -1.
         11   -1    0    0    0    0 -0.00000000000E+00 -0.00000000000E+00 -0.45593999997E+02  0.45594000000E+02  0.51100000000E-03 0.  1.
         23    2    1    2    0    0  0.00000000000E+00 -0.17763568394E-14  0.00000000000E+00  0.91188000000E+02  0.91188000000E+02 0.  0.
    9900012    2    3    3    0    0  0.35013020039E+02 -0.84429918407E+01 -0.24216251615E+02  0.47787279663E+02  0.20000039297E+02 0.  0.
         12    1    3    3    0    0 -0.35013020039E+02  0.84429918407E+01  0.24216251615E+02  0.43400720337E+02  0.00000000000E+00 0. -1.
         11    1    4    4    0    0  0.13910801048E+02  0.15468229751E+01 -0.53796835428E+01  0.14994800512E+02  0.51100000000E-03 0. -1.
        -11    1    4    4    0    0  0.14890741255E+02 -0.42619160126E+00 -0.73684332241E+01  0.16619555435E+02  0.51100000000E-03 0.  1.
         12    1    4    4    0    0  0.62114777356E+01 -0.95636232146E+01 -0.11468134848E+02  0.16172923717E+02  0.00000000000E+00 0. -1.
</event>
<event>
 8    1  0.2994958E-010  0.9118800E+02  0.7816164E-02  0.1184000E+00
        -11   -1    0    0    0    0  0.00000000000E+00  0.00000000000E+00  0.45593999997E+02  0.45594000000E+02  0.51100000000E-03 0. -1.
         11   -1    0    0    0    0 -0.00000000000E+00 -0.00000000000E+00 -0.45593999997E+02  0.45594000000E+02  0.51100000000E-03 0.  1.
         23    2    1    2    0    0  0.00000000000E+00  0.00000000000E+00 -0.35527136788E-14  0.91188000000E+02  0.91188000000E+02 0.  0.
    9900012    2    3    3    0    0  0.16874376195E+02 -0.26538191321E+02  0.29909920555E+02  0.47787268229E+02  0.19999987165E+02 0.  0.
        -12    1    3    3    0    0 -0.16874376195E+02  0.26538191321E+02 -0.29909920555E+02  0.43400731771E+02  0.00000000000E+00 0.  1.
         11    1    4    4    0    0  0.11066299410E+01 -0.87619111941E+01  0.12581124822E+02  0.15371415668E+02  0.51100000000E-03 0. -1.
        -11    1    4    4    0    0  0.60255464817E+01 -0.15650241249E+02  0.73540114067E+01  0.18311710613E+02  0.51100000000E-03 0.  1.
        -12    1    4    4    0    0  0.97421997725E+01 -0.21260388784E+01  0.99747843267E+01  0.14104141948E+02  0.00000000000E+00 0.  1.
</event>
<event>
 8    1  0.2994958E-010  0.9118800E+02  0.7816164E-02  0.1184000E+00
        -11   -1    0    0    0    0  0.00000000000E+00  0.00000000000E+00  0.45593999997E+02  0.45594000000E+02  0.51100000000E-03 0. -1.
         11   -1    0    0    0    0 -0.00000000000E+00 -0.00000000000E+00 -0.45593999997E+02  0.45594000000E+02  0.51100000000E-03 0.  1.
         23    2    1    2    0    0  0.00000000000E+00  0.00000000000E+00  0.00000000000E+00  0.91188000000E+02  0.91188000000E+02 0.  0.
    9900012    2    3    3    0    0 -0.11126661538E+02  0.30165980541E+02 -0.29151920279E+02  0.47787269189E+02  0.19999991539E+02 0.  0.
         12    1    3    3    0    0  0.11126661538E+02 -0.30165980541E+02  0.29151920279E+02  0.43400730811E+02  0.00000000000E+00 0. -1.
         11    1    4    4    0    0  0.21475083286E+01  0.61577157301E+01 -0.82545420708E+01  0.10519825098E+02  0.51100000000E-03 0. -1.
        -11    1    4    4    0    0  0.23995069977E+01  0.36346875626E+01 -0.36839053305E+00  0.43708465262E+01  0.51100000000E-03 0.  1.
        -12    1    4    4    0    0 -0.15673676864E+02  0.20373577248E+02 -0.20528987675E+02  0.32896597564E+02  0.00000000000E+00 0.  1.
</event>
<event>
 8    1  0.2994958E-010  0.9118800E+02  0.7816164E-02  0.1184000E+00
        -11   -1    0    0    0    0  0.00000000000E+00  0.00000000000E+00  0.45593999997E+02  0.45594000000E+02  0.51100000000E-03 0. -1.
         11   -1    0    0    0    0 -0.00000000000E+00 -0.00000000000E+00 -0.45593999997E+02  0.45594000000E+02  0.51100000000E-03 0.  1.
         23    2    1    2    0    0 -0.22204460493E-15  0.00000000000E+00  0.14210854715E-13  0.91188000000E+02  0.91188000000E+02 0.  0.
    9900012    2    3    3    0    0  0.16793431839E+01  0.59622293305E+01  0.42956430431E+02  0.47787270888E+02  0.19999999287E+02 0.  0.
        -12    1    3    3    0    0 -0.16793431839E+01 -0.59622293305E+01 -0.42956430431E+02  0.43400729112E+02  0.00000000000E+00 0.  1.
         11    1    4    4    0    0  0.36168223746E+01  0.53707070125E+01  0.10120670222E+02  0.12014735283E+02  0.51100000000E-03 0. -1.
        -11    1    4    4    0    0 -0.46622651561E+01  0.49525970434E+01  0.27631129500E+02  0.28456005545E+02  0.51100000000E-03 0.  1.
        -12    1    4    4    0    0  0.27247859654E+01 -0.43610747255E+01  0.52046307084E+01  0.73165300607E+01  0.00000000000E+00 0.  1.
</event>
<event>
 8    1  0.2994958E-010  0.9118800E+02  0.7816164E-02  0.1184000E+00
        -11   -1    0    0    0    0  0.00000000000E+00  0.00000000000E+00  0.45593999997E+02  0.45594000000E+02  0.51100000000E-03 0. -1.
         11   -1    0    0    0    0 -0.00000000000E+00 -0.00000000000E+00 -0.45593999997E+02  0.45594000000E+02  0.51100000000E-03 0.  1.
         23    2    1    2    0    0  0.00000000000E+00  0.17763568394E-14  0.00000000000E+00  0.91188000000E+02  0.91188000000E+02 0.  0.
    9900012    2    3    3    0    0 -0.19432077152E+02  0.15722201668E+02  0.35479995796E+02  0.47787270174E+02  0.19999996033E+02 0.  0.
        -12    1    3    3    0    0  0.19432077152E+02 -0.15722201668E+02 -0.35479995796E+02  0.43400729826E+02  0.00000000000E+00 0.  1.
         11    1    4    4    0    0  0.74712843363E+00  0.15791457222E+01  0.28422775663E+01  0.33362320263E+01  0.51100000000E-03 0. -1.
        -11    1    4    4    0    0 -0.28003226456E+01  0.87006959965E+01  0.29165240913E+01  0.95942707268E+01  0.51100000000E-03 0.  1.
         12    1    4    4    0    0 -0.17378882940E+02  0.54423599495E+01  0.29721194138E+02  0.34856767421E+02  0.00000000000E+00 0. -1.
</event>
<event>
 8    1  0.2994958E-010  0.9118800E+02  0.7816164E-02  0.1184000E+00
        -11   -1    0    0    0    0  0.00000000000E+00  0.00000000000E+00  0.45593999997E+02  0.45594000000E+02  0.51100000000E-03 0. -1.
         11   -1    0    0    0    0 -0.00000000000E+00 -0.00000000000E+00 -0.45593999997E+02  0.45594000000E+02  0.51100000000E-03 0.  1.
         23    2    1    2    0    0  0.00000000000E+00  0.00000000000E+00  0.00000000000E+00  0.91188000000E+02  0.91188000000E+02 0.  0.
    9900012    2    3    3    0    0  0.93901872149E+01 -0.31010039278E+02 -0.28876027646E+02  0.47787272764E+02  0.20000007841E+02 0.  0.
         12    1    3    3    0    0 -0.93901872149E+01  0.31010039278E+02  0.28876027646E+02  0.43400727236E+02  0.00000000000E+00 0. -1.
         11    1    4    4    0    0  0.71415644408E+00  0.11228658740E+01 -0.29169392910E+01  0.32061475771E+01  0.51100000000E-03 0. -1.
        -11    1    4    4    0    0 -0.37279665730E+01 -0.12194967252E+02 -0.86354924741E+01  0.15400866585E+02  0.51100000000E-03 0.  1.
        -12    1    4    4    0    0  0.12403997344E+02 -0.19937937900E+02 -0.17323595881E+02  0.29180258602E+02  0.00000000000E+00 0.  1.
</event>
<event>
 8    1  0.2994958E-010  0.9118800E+02  0.7816164E-02  0.1184000E+00
        -11   -1    0    0    0    0  0.00000000000E+00  0.00000000000E+00  0.45593999997E+02  0.45594000000E+02  0.51100000000E-03 0. -1.
         11   -1    0    0    0    0 -0.00000000000E+00 -0.00000000000E+00 -0.45593999997E+02  0.45594000000E+02  0.51100000000E-03 0.  1.
         23    2    1    2    0    0  0.00000000000E+00  0.66613381478E-15  0.00000000000E+00  0.91188000000E+02  0.91188000000E+02 0.  0.
    9900012    2    3    3    0    0 -0.84804750388E+01 -0.13499450273E+01 -0.42542713575E+02  0.47787270896E+02  0.19999999323E+02 0.  0.
         12    1    3    3    0    0  0.84804750388E+01  0.13499450273E+01  0.42542713575E+02  0.43400729104E+02  0.00000000000E+00 0. -1.
         11    1    4    4    0    0  0.86597757281E+00  0.24527948520E+01 -0.47936139712E+01  0.54538843872E+01  0.51100000000E-03 0. -1.
        -11    1    4    4    0    0 -0.42869057645E+01  0.43656055763E+01 -0.27941266365E+02  0.28603329167E+02  0.51100000000E-03 0.  1.
         12    1    4    4    0    0 -0.50595468472E+01 -0.81683454556E+01 -0.98078332384E+01  0.13730057342E+02  0.00000000000E+00 0. -1.
</event>
<event>
 8    1  0.2994958E-010  0.9118800E+02  0.7816164E-02  0.1184000E+00
        -11   -1    0    0    0    0  0.00000000000E+00  0.00000000000E+00  0.45593999997E+02  0.45594000000E+02  0.51100000000E-03 0.  1.
         11   -1    0    0    0    0 -0.00000000000E+00 -0.00000000000E+00 -0.45593999997E+02  0.45594000000E+02  0.51100000000E-03 0. -1.
         23    2    1    2    0    0  0.00000000000E+00  0.00000000000E+00  0.17763568394E-14  0.91188000000E+02  0.91188000000E+02 0.  0.
    9900012    2    3    3    0    0  0.39681366690E+02  0.11185949979E+02 -0.13560489951E+02  0.47787271584E+02  0.20000002461E+02 0.  0.
         12    1    3    3    0    0 -0.39681366690E+02 -0.11185949979E+02  0.13560489951E+02  0.43400728416E+02  0.00000000000E+00 0. -1.
         11    1    4    4    0    0  0.15554122774E+02  0.32094295639E+01 -0.79536686699E+01  0.17762095005E+02  0.51100000000E-03 0. -1.
        -11    1    4    4    0    0  0.15556593157E+02 -0.24186602390E+01 -0.50774200186E+01  0.16541998135E+02  0.51100000000E-03 0.  1.
        -12    1    4    4    0    0  0.85706507591E+01  0.10395180654E+02 -0.52940126292E+00  0.13483178444E+02  0.00000000000E+00 0.  1.
</event>
<event>
 8    1  0.2994958E-010  0.9118800E+02  0.7816164E-02  0.1184000E+00
        -11   -1    0    0    0    0  0.00000000000E+00  0.00000000000E+00  0.45593999997E+02  0.45594000000E+02  0.51100000000E-03 0. -1.
         11   -1    0    0    0    0 -0.00000000000E+00 -0.00000000000E+00 -0.45593999997E+02  0.45594000000E+02  0.51100000000E-03 0.  1.
         23    2    1    2    0    0  0.35527136788E-14  0.00000000000E+00  0.00000000000E+00  0.91188000000E+02  0.91188000000E+02 0.  0.
    9900012    2    3    3    0    0 -0.28912147114E+02  0.17557703390E+02 -0.27192613758E+02  0.47787269107E+02  0.19999991165E+02 0.  0.
         12    1    3    3    0    0  0.28912147114E+02 -0.17557703390E+02  0.27192613758E+02  0.43400730893E+02  0.00000000000E+00 0. -1.
         11    1    4    4    0    0 -0.99514441165E+01  0.60207714288E+01 -0.44022338259E+01  0.12436261155E+02  0.51100000000E-03 0. -1.
        -11    1    4    4    0    0 -0.13256208239E+02  0.14315939502E+02 -0.21195232228E+02  0.28808176793E+02  0.51100000000E-03 0.  1.
        -12    1    4    4    0    0 -0.57044947589E+01 -0.27790075407E+01 -0.15951477038E+01  0.65428311580E+01  0.00000000000E+00 0.  1.
</event>
<event>
 8    1  0.2994958E-010  0.9118800E+02  0.7816164E-02  0.1184000E+00
        -11   -1    0    0    0    0  0.00000000000E+00  0.00000000000E+00  0.45593999997E+02  0.45594000000E+02  0.51100000000E-03 0. -1.
         11   -1    0    0    0    0 -0.00000000000E+00 -0.00000000000E+00 -0.45593999997E+02  0.45594000000E+02  0.51100000000E-03 0.  1.
         23    2    1    2    0    0  0.00000000000E+00  0.00000000000E+00 -0.71054273576E-14  0.91188000000E+02  0.91188000000E+02 0.  0.
    9900012    2    3    3    0    0 -0.28718818725E+02  0.22446716861E+02 -0.23558394523E+02  0.47787267296E+02  0.19999982908E+02 0.  0.
         12    1    3    3    0    0  0.28718818725E+02 -0.22446716861E+02  0.23558394523E+02  0.43400732704E+02  0.00000000000E+00 0. -1.
         11    1    4    4    0    0  0.49229407822E+00 -0.32522637616E+00  0.97063813414E+00  0.11358980164E+01  0.51100000000E-03 0. -1.
        -11    1    4    4    0    0 -0.78542578919E+01  0.13734655437E+02 -0.14220002895E+02  0.21272954886E+02  0.51100000000E-03 0.  1.
        -12    1    4    4    0    0 -0.21356854911E+02  0.90372878007E+01 -0.10309029762E+02  0.25378414393E+02  0.00000000000E+00 0.  1.
</event>
<event>
 8    1  0.2994958E-010  0.9118800E+02  0.7816164E-02  0.1184000E+00
        -11   -1    0    0    0    0  0.00000000000E+00  0.00000000000E+00  0.45593999997E+02  0.45594000000E+02  0.51100000000E-03 0. -1.
         11   -1    0    0    0    0 -0.00000000000E+00 -0.00000000000E+00 -0.45593999997E+02  0.45594000000E+02  0.51100000000E-03 0.  1.
         23    2    1    2    0    0  0.00000000000E+00  0.00000000000E+00 -0.17763568394E-14  0.91188000000E+02  0.91188000000E+02 0.  0.
    9900012    2    3    3    0    0 -0.39058699603E+02  0.14299128170E+02  0.12392614322E+02  0.47787263015E+02  0.19999963390E+02 0.  0.
        -12    1    3    3    0    0  0.39058699603E+02 -0.14299128170E+02 -0.12392614322E+02  0.43400736985E+02  0.00000000000E+00 0.  1.
         11    1    4    4    0    0 -0.11832096939E+02  0.11015681517E+01  0.21677439800E+01  0.12079366067E+02  0.51100000000E-03 0. -1.
        -11    1    4    4    0    0 -0.19889285921E+02  0.18841781888E+01  0.97116703668E+01  0.22213742672E+02  0.51100000000E-03 0.  1.
        -12    1    4    4    0    0 -0.73373167431E+01  0.11313381830E+02  0.51319997483E+00  0.13494154276E+02  0.00000000000E+00 0.  1.
</event>
<event>
 8    1  0.2994958E-010  0.9118800E+02  0.7816164E-02  0.1184000E+00
        -11   -1    0    0    0    0  0.00000000000E+00  0.00000000000E+00  0.45593999997E+02  0.45594000000E+02  0.51100000000E-03 0. -1.
         11   -1    0    0    0    0 -0.00000000000E+00 -0.00000000000E+00 -0.45593999997E+02  0.45594000000E+02  0.51100000000E-03 0.  1.
         23    2    1    2    0    0  0.00000000000E+00 -0.17763568394E-14  0.00000000000E+00  0.91188000000E+02  0.91188000000E+02 0.  0.
    9900012    2    3    3    0    0  0.37853979734E+02  0.13556573754E+02 -0.16337641009E+02  0.47787274345E+02  0.20000015047E+02 0.  0.
         12    1    3    3    0    0 -0.37853979734E+02 -0.13556573754E+02  0.16337641009E+02  0.43400725655E+02  0.00000000000E+00 0. -1.
         11    1    4    4    0    0  0.59646622915E+01 -0.16034001978E+01  0.15284331914E+01  0.63627192871E+01  0.51100000000E-03 0. -1.
        -11    1    4    4    0    0  0.25359644045E+02  0.87751024871E+01 -0.80482276134E+01  0.28015851544E+02  0.51100000000E-03 0.  1.
        -12    1    4    4    0    0  0.65296733974E+01  0.63848714645E+01 -0.98178465873E+01  0.13408703513E+02  0.00000000000E+00 0.  1.
</event>
<event>
 8    1  0.2994958E-010  0.9118800E+02  0.7816164E-02  0.1184000E+00
        -11   -1    0    0    0    0  0.00000000000E+00  0.00000000000E+00  0.45593999997E+02  0.45594000000E+02  0.51100000000E-03 0. -1.
         11   -1    0    0    0    0 -0.00000000000E+00 -0.00000000000E+00 -0.45593999997E+02  0.45594000000E+02  0.51100000000E-03 0.  1.
         23    2    1    2    0    0  0.00000000000E+00 -0.35527136788E-14  0.35527136788E-14  0.91188000000E+02  0.91188000000E+02 0.  0.
    9900012    2    3    3    0    0 -0.63724548788E+01 -0.29560122214E+02  0.31132203601E+02  0.47787272961E+02  0.20000008737E+02 0.  0.
        -12    1    3    3    0    0  0.63724548788E+01  0.29560122214E+02 -0.31132203601E+02  0.43400727039E+02  0.00000000000E+00 0.  1.
         11    1    4    4    0    0 -0.15752129990E+01 -0.29261597950E+01  0.82524716136E+01  0.88964596965E+01  0.51100000000E-03 0. -1.
        -11    1    4    4    0    0 -0.29823197242E+01  0.89708005070E-01 -0.85391972369E+00  0.31034589765E+01  0.51100000000E-03 0.  1.
         12    1    4    4    0    0 -0.18149221557E+01 -0.26723670424E+02  0.23733651712E+02  0.35787354288E+02  0.00000000000E+00 0. -1.
</event>
<event>
 8    1  0.2994958E-010  0.9118800E+02  0.7816164E-02  0.1184000E+00
        -11   -1    0    0    0    0  0.00000000000E+00  0.00000000000E+00  0.45593999997E+02  0.45594000000E+02  0.51100000000E-03 0. -1.
         11   -1    0    0    0    0 -0.00000000000E+00 -0.00000000000E+00 -0.45593999997E+02  0.45594000000E+02  0.51100000000E-03 0.  1.
         23    2    1    2    0    0  0.00000000000E+00  0.00000000000E+00  0.00000000000E+00  0.91188000000E+02  0.91188000000E+02 0.  0.
    9900012    2    3    3    0    0  0.12107595275E+02  0.26761917384E+02 -0.31950424627E+02  0.47787265913E+02  0.19999976605E+02 0.  0.
         12    1    3    3    0    0 -0.12107595275E+02 -0.26761917384E+02  0.31950424627E+02  0.43400734087E+02  0.00000000000E+00 0. -1.
         11    1    4    4    0    0 -0.14329999907E+01  0.24680652811E+01 -0.34728409272E+01  0.44950483392E+01  0.51100000000E-03 0. -1.
        -11    1    4    4    0    0  0.13780620126E-02  0.56600909572E+01 -0.16264894093E+02  0.17221597245E+02  0.51100000000E-03 0.  1.
         12    1    4    4    0    0  0.13539217203E+02  0.18633761146E+02 -0.12212689607E+02  0.26070620329E+02  0.00000000000E+00 0. -1.
</event>
<event>
 8    1  0.4785254E-010  0.9118800E+02  0.7816164E-02  0.1184000E+00
        -11   -1    0    0    0    0  0.00000000000E+00  0.00000000000E+00  0.45593999997E+02  0.45594000000E+02  0.51100000000E-03 0. -1.
         11   -1    0    0    0    0 -0.00000000000E+00 -0.00000000000E+00 -0.45593999997E+02  0.45594000000E+02  0.51100000000E-03 0.  1.
         23    2    1    2    0    0  0.00000000000E+00  0.00000000000E+00  0.00000000000E+00  0.91188000000E+02  0.91188000000E+02 0.  0.
    9900012    2    3    3    0    0 -0.13163495997E+02 -0.17333226975E+02  0.37548692586E+02  0.47787277666E+02  0.20000030189E+02 0.  0.
        -12    1    3    3    0    0  0.13163495997E+02  0.17333226975E+02 -0.37548692586E+02  0.43400722334E+02  0.00000000000E+00 0.  1.
         11    1    4    4    0    0 -0.23937365904E+01 -0.19593032806E+01 -0.41087979821E-01  0.30936277560E+01  0.51100000000E-03 0. -1.
        -11    1    4    4    0    0  0.28517425957E+00  0.22476219874E+01  0.93418181945E+01  0.96126321263E+01  0.51100000000E-03 0.  1.
         12    1    4    4    0    0 -0.11054933667E+02 -0.17621545682E+02  0.28247962371E+02  0.35081017783E+02  0.00000000000E+00 0. -1.
</event>
<event>
 8    1  0.2994958E-010  0.9118800E+02  0.7816164E-02  0.1184000E+00
        -11   -1    0    0    0    0  0.00000000000E+00  0.00000000000E+00  0.45593999997E+02  0.45594000000E+02  0.51100000000E-03 0. -1.
         11   -1    0    0    0    0 -0.00000000000E+00 -0.00000000000E+00 -0.45593999997E+02  0.45594000000E+02  0.51100000000E-03 0.  1.
         23    2    1    2    0    0 -0.17763568394E-14  0.00000000000E+00  0.00000000000E+00  0.91188000000E+02  0.91188000000E+02 0.  0.
    9900012    2    3    3    0    0  0.15873260956E+02  0.19813978312E+02 -0.35200414686E+02  0.47787270237E+02  0.19999996317E+02 0.  0.
         12    1    3    3    0    0 -0.15873260956E+02 -0.19813978312E+02  0.35200414686E+02  0.43400729763E+02  0.00000000000E+00 0. -1.
         11    1    4    4    0    0 -0.35980872326E+01  0.53190656306E+01 -0.74417810011E+01  0.98294860316E+01  0.51100000000E-03 0. -1.
        -11    1    4    4    0    0  0.44044077748E+01  0.82907307577E+01 -0.78986677683E+01  0.12268821342E+02  0.51100000000E-03 0.  1.
         12    1    4    4    0    0  0.15066940414E+02  0.62041819233E+01 -0.19859965917E+02  0.25688962863E+02  0.00000000000E+00 0. -1.
</event>
<event>
 8    1  0.2994958E-010  0.9118800E+02  0.7816164E-02  0.1184000E+00
        -11   -1    0    0    0    0  0.00000000000E+00  0.00000000000E+00  0.45593999997E+02  0.45594000000E+02  0.51100000000E-03 0. -1.
         11   -1    0    0    0    0 -0.00000000000E+00 -0.00000000000E+00 -0.45593999997E+02  0.45594000000E+02  0.51100000000E-03 0.  1.
         23    2    1    2    0    0  0.35527136788E-14 -0.88817841970E-15  0.00000000000E+00  0.91188000000E+02  0.91188000000E+02 0.  0.
    9900012    2    3    3    0    0  0.18981459305E+02  0.77174653546E+01  0.38259222450E+02  0.47787272226E+02  0.20000005389E+02 0.  0.
        -12    1    3    3    0    0 -0.18981459305E+02 -0.77174653546E+01 -0.38259222450E+02  0.43400727774E+02  0.00000000000E+00 0.  1.
         11    1    4    4    0    0  0.11209572100E+02 -0.18874459740E+00  0.80662216903E+01  0.13811374436E+02  0.51100000000E-03 0.  1.
        -11    1    4    4    0    0  0.13057007992E+01 -0.25655813154E+01  0.31688124247E+01  0.42811720950E+01  0.51100000000E-03 0. -1.
         12    1    4    4    0    0  0.64661864050E+01  0.10471791267E+02  0.27024188335E+02  0.29694725695E+02  0.00000000000E+00 0. -1.
</event>
<event>
 8    1  0.3019282E-010  0.9118800E+02  0.7816164E-02  0.1184000E+00
        -11   -1    0    0    0    0  0.00000000000E+00  0.00000000000E+00  0.45593999997E+02  0.45594000000E+02  0.51100000000E-03 0. -1.
         11   -1    0    0    0    0 -0.00000000000E+00 -0.00000000000E+00 -0.45593999997E+02  0.45594000000E+02  0.51100000000E-03 0.  1.
         23    2    1    2    0    0  0.00000000000E+00 -0.88817841970E-15  0.00000000000E+00  0.91188000000E+02  0.91188000000E+02 0.  0.
    9900012    2    3    3    0    0  0.23446173444E+02  0.69799148365E+01  0.35849399164E+02  0.47787289399E+02  0.20000083684E+02 0.  0.
        -12    1    3    3    0    0 -0.23446173444E+02 -0.69799148365E+01 -0.35849399164E+02  0.43400710601E+02  0.00000000000E+00 0.  1.
         11    1    4    4    0    0  0.86561090132E+01  0.49075292247E+01  0.19439873837E+02  0.21838515549E+02  0.51100000000E-03 0. -1.
        -11    1    4    4    0    0  0.20737281338E+01 -0.43790895927E+01  0.81180353373E+01  0.94540611397E+01  0.51100000000E-03 0.  1.
         12    1    4    4    0    0  0.12716336297E+02  0.64514752044E+01  0.82914899902E+01  0.16494712710E+02  0.00000000000E+00 0. -1.
</event>
<event>
 8    1  0.2994958E-010  0.9118800E+02  0.7816164E-02  0.1184000E+00
        -11   -1    0    0    0    0  0.00000000000E+00  0.00000000000E+00  0.45593999997E+02  0.45594000000E+02  0.51100000000E-03 0. -1.
         11   -1    0    0    0    0 -0.00000000000E+00 -0.00000000000E+00 -0.45593999997E+02  0.45594000000E+02  0.51100000000E-03 0.  1.
         23    2    1    2    0    0  0.00000000000E+00 -0.17763568394E-14  0.00000000000E+00  0.91188000000E+02  0.91188000000E+02 0.  0.
    9900012    2    3    3    0    0  0.23694996795E+02 -0.34984137227E+01  0.36192975047E+02  0.47787271729E+02  0.20000003122E+02 0.  0.
        -12    1    3    3    0    0 -0.23694996795E+02  0.34984137227E+01 -0.36192975047E+02  0.43400728271E+02  0.00000000000E+00 0.  1.
         11    1    4    4    0    0  0.39524165972E+01  0.21708209812E+01  0.52643211376E+01  0.69316042870E+01  0.51100000000E-03 0. -1.
        -11    1    4    4    0    0  0.11767716330E+02 -0.10570105156E+02  0.25577961593E+02  0.30073882193E+02  0.51100000000E-03 0.  1.
        -12    1    4    4    0    0  0.79748638679E+01  0.49008704518E+01  0.53506923157E+01  0.10781785249E+02  0.00000000000E+00 0.  1.
</event>
<event>
 8    1  0.2994958E-010  0.9118800E+02  0.7816164E-02  0.1184000E+00
        -11   -1    0    0    0    0  0.00000000000E+00  0.00000000000E+00  0.45593999997E+02  0.45594000000E+02  0.51100000000E-03 0.  1.
         11   -1    0    0    0    0 -0.00000000000E+00 -0.00000000000E+00 -0.45593999997E+02  0.45594000000E+02  0.51100000000E-03 0. -1.
         23    2    1    2    0    0  0.00000000000E+00 -0.35527136788E-14  0.00000000000E+00  0.91188000000E+02  0.91188000000E+02 0.  0.
    9900012    2    3    3    0    0 -0.37550259695E+02 -0.19957703214E+02  0.86770869506E+01  0.47787265459E+02  0.19999974534E+02 0.  0.
        -12    1    3    3    0    0  0.37550259695E+02  0.19957703214E+02 -0.86770869506E+01  0.43400734541E+02  0.00000000000E+00 0.  1.
         11    1    4    4    0    0 -0.20411885743E+02 -0.10019175290E+02 -0.29673952567E+01  0.22931079083E+02  0.51100000000E-03 0. -1.
        -11    1    4    4    0    0 -0.93503511231E+01 -0.40897633358E+01  0.73569250039E+00  0.10232129494E+02  0.51100000000E-03 0.  1.
        -12    1    4    4    0    0 -0.77880228293E+01 -0.58487645884E+01  0.10908789707E+02  0.14624056881E+02  0.00000000000E+00 0.  1.
</event>
<event>
 8    1  0.2994958E-010  0.9118800E+02  0.7816164E-02  0.1184000E+00
        -11   -1    0    0    0    0  0.00000000000E+00  0.00000000000E+00  0.45593999997E+02  0.45594000000E+02  0.51100000000E-03 0. -1.
         11   -1    0    0    0    0 -0.00000000000E+00 -0.00000000000E+00 -0.45593999997E+02  0.45594000000E+02  0.51100000000E-03 0.  1.
         23    2    1    2    0    0 -0.35527136788E-14  0.35527136788E-14  0.00000000000E+00  0.91188000000E+02  0.91188000000E+02 0.  0.
    9900012    2    3    3    0    0 -0.29934483778E+02  0.26152139203E+02  0.17424563202E+02  0.47787272970E+02  0.20000008781E+02 0.  0.
        -12    1    3    3    0    0  0.29934483778E+02 -0.26152139203E+02 -0.17424563202E+02  0.43400727030E+02  0.00000000000E+00 0.  1.
         11    1    4    4    0    0 -0.11330279695E+02  0.64678683806E+01  0.92674335162E+00  0.13079274172E+02  0.51100000000E-03 0. -1.
        -11    1    4    4    0    0 -0.24676193061E+01  0.76306605623E+00 -0.23600074198E+01  0.34987212134E+01  0.51100000000E-03 0.  1.
        -12    1    4    4    0    0 -0.16136584776E+02  0.18921204766E+02  0.18857827270E+02  0.31209277585E+02  0.00000000000E+00 0.  1.
</event>
<event>
 8    1  0.2994958E-010  0.9118800E+02  0.7816164E-02  0.1184000E+00
        -11   -1    0    0    0    0  0.00000000000E+00  0.00000000000E+00  0.45593999997E+02  0.45594000000E+02  0.51100000000E-03 0.  1.
         11   -1    0    0    0    0 -0.00000000000E+00 -0.00000000000E+00 -0.45593999997E+02  0.45594000000E+02  0.51100000000E-03 0. -1.
         23    2    1    2    0    0  0.00000000000E+00  0.00000000000E+00  0.00000000000E+00  0.91188000000E+02  0.91188000000E+02 0.  0.
    9900012    2    3    3    0    0 -0.21445110449E+02 -0.21844895459E+02 -0.30765744497E+02  0.47787271271E+02  0.20000001034E+02 0.  0.
         12    1    3    3    0    0  0.21445110449E+02  0.21844895459E+02  0.30765744497E+02  0.43400728729E+02  0.00000000000E+00 0. -1.
         11    1    4    4    0    0 -0.23727405096E+01 -0.74628065319E+01 -0.14048524679E+02  0.16083669506E+02  0.51100000000E-03 0. -1.
        -11    1    4    4    0    0 -0.90580949953E+01 -0.13201336062E+02 -0.13980734250E+02  0.21255241452E+02  0.51100000000E-03 0.  1.
         12    1    4    4    0    0 -0.10014274944E+02 -0.11807528647E+01 -0.27364855685E+01  0.10448360313E+02  0.00000000000E+00 0. -1.
</event>
<event>
 8    1  0.2994958E-010  0.9118800E+02  0.7816164E-02  0.1184000E+00
        -11   -1    0    0    0    0  0.00000000000E+00  0.00000000000E+00  0.45593999997E+02  0.45594000000E+02  0.51100000000E-03 0. -1.
         11   -1    0    0    0    0 -0.00000000000E+00 -0.00000000000E+00 -0.45593999997E+02  0.45594000000E+02  0.51100000000E-03 0.  1.
         23    2    1    2    0    0  0.00000000000E+00 -0.35527136788E-14  0.00000000000E+00  0.91188000000E+02  0.91188000000E+02 0.  0.
    9900012    2    3    3    0    0  0.21791902221E+02  0.28116572942E+02 -0.24863491206E+02  0.47787287202E+02  0.20000073669E+02 0.  0.
         12    1    3    3    0    0 -0.21791902221E+02 -0.28116572942E+02  0.24863491206E+02  0.43400712798E+02  0.00000000000E+00 0. -1.
         11    1    4    4    0    0  0.28259685120E+01  0.30351268323E+01  0.74879940361E+00  0.42141183808E+01  0.51100000000E-03 0. -1.
        -11    1    4    4    0    0  0.95778615167E+01  0.14051089709E+01 -0.85594116271E+01  0.12921814506E+02  0.51100000000E-03 0.  1.
         12    1    4    4    0    0  0.93880721928E+01  0.23676337138E+02 -0.17052878983E+02  0.30651354316E+02  0.00000000000E+00 0. -1.
</event>
<event>
 8    1  0.2994958E-010  0.9118800E+02  0.7816164E-02  0.1184000E+00
        -11   -1    0    0    0    0  0.00000000000E+00  0.00000000000E+00  0.45593999997E+02  0.45594000000E+02  0.51100000000E-03 0. -1.
         11   -1    0    0    0    0 -0.00000000000E+00 -0.00000000000E+00 -0.45593999997E+02  0.45594000000E+02  0.51100000000E-03 0.  1.
         23    2    1    2    0    0  0.35527136788E-14 -0.17763568394E-14 -0.35527136788E-14  0.91188000000E+02  0.91188000000E+02 0.  0.
    9900012    2    3    3    0    0 -0.30890023526E+02  0.12892578020E+02  0.27626280434E+02  0.47787268531E+02  0.19999988539E+02 0.  0.
        -12    1    3    3    0    0  0.30890023526E+02 -0.12892578020E+02 -0.27626280434E+02  0.43400731469E+02  0.00000000000E+00 0.  1.
         11    1    4    4    0    0 -0.24759141053E+02  0.93895044891E+01  0.20326073479E+02  0.33381538664E+02  0.51100000000E-03 0. -1.
        -11    1    4    4    0    0 -0.62731208085E+01  0.56008568815E+01  0.85229836621E+01  0.11973424458E+02  0.51100000000E-03 0.  1.
        -12    1    4    4    0    0  0.14223833565E+00 -0.20977833504E+01 -0.12227767065E+01  0.24323054091E+01  0.00000000000E+00 0.  1.
</event>
<event>
 8    1  0.2994958E-010  0.9118800E+02  0.7816164E-02  0.1184000E+00
        -11   -1    0    0    0    0  0.00000000000E+00  0.00000000000E+00  0.45593999997E+02  0.45594000000E+02  0.51100000000E-03 0. -1.
         11   -1    0    0    0    0 -0.00000000000E+00 -0.00000000000E+00 -0.45593999997E+02  0.45594000000E+02  0.51100000000E-03 0.  1.
         23    2    1    2    0    0 -0.55511151231E-15 -0.44408920985E-15 -0.71054273576E-14  0.91188000000E+02  0.91188000000E+02 0.  0.
    9900012    2    3    3    0    0 -0.73357547654E+00 -0.36014627760E+01 -0.43244816601E+02  0.47787276158E+02  0.20000023317E+02 0.  0.
         12    1    3    3    0    0  0.73357547654E+00  0.36014627760E+01  0.43244816601E+02  0.43400723842E+02  0.00000000000E+00 0. -1.
         11    1    4    4    0    0  0.37908892472E+01 -0.77242010931E+00 -0.13155762936E+02  0.13712825121E+02  0.51100000000E-03 0. -1.
        -11    1    4    4    0    0  0.38920739638E+01  0.31314152059E+01 -0.14898572146E+02  0.15713734540E+02  0.51100000000E-03 0.  1.
         12    1    4    4    0    0 -0.84165386875E+01 -0.59604578726E+01 -0.15190481519E+02  0.18360716498E+02  0.00000000000E+00 0. -1.
</event>
<event>
 8    1  0.2994958E-010  0.9118800E+02  0.7816164E-02  0.1184000E+00
        -11   -1    0    0    0    0  0.00000000000E+00  0.00000000000E+00  0.45593999997E+02  0.45594000000E+02  0.51100000000E-03 0. -1.
         11   -1    0    0    0    0 -0.00000000000E+00 -0.00000000000E+00 -0.45593999997E+02  0.45594000000E+02  0.51100000000E-03 0.  1.
         23    2    1    2    0    0  0.00000000000E+00  0.35527136788E-14  0.00000000000E+00  0.91188000000E+02  0.91188000000E+02 0.  0.
    9900012    2    3    3    0    0 -0.20957244966E+02  0.28797792220E+02  0.24801296828E+02  0.47787271001E+02  0.19999999801E+02 0.  0.
        -12    1    3    3    0    0  0.20957244966E+02 -0.28797792220E+02 -0.24801296828E+02  0.43400728999E+02  0.00000000000E+00 0.  1.
         11    1    4    4    0    0  0.37121165816E-01  0.12527170535E+02  0.10318727869E+02  0.16229834401E+02  0.51100000000E-03 0. -1.
        -11    1    4    4    0    0  0.76269585929E+00  0.89092624750E+00  0.15414381444E+01  0.19368754132E+01  0.51100000000E-03 0.  1.
        -12    1    4    4    0    0 -0.21757061992E+02  0.15379695437E+02  0.12941130814E+02  0.29620561187E+02  0.00000000000E+00 0.  1.
</event>
<event>
 8    1  0.2994958E-010  0.9118800E+02  0.7816164E-02  0.1184000E+00
        -11   -1    0    0    0    0  0.00000000000E+00  0.00000000000E+00  0.45593999997E+02  0.45594000000E+02  0.51100000000E-03 0. -1.
         11   -1    0    0    0    0 -0.00000000000E+00 -0.00000000000E+00 -0.45593999997E+02  0.45594000000E+02  0.51100000000E-03 0.  1.
         23    2    1    2    0    0  0.00000000000E+00 -0.35527136788E-14  0.00000000000E+00  0.91188000000E+02  0.91188000000E+02 0.  0.
    9900012    2    3    3    0    0 -0.16384871303E+02  0.25472965973E+02 -0.31085162318E+02  0.47787270520E+02  0.19999997610E+02 0.  0.
         12    1    3    3    0    0  0.16384871303E+02 -0.25472965973E+02  0.31085162318E+02  0.43400729480E+02  0.00000000000E+00 0. -1.
         11    1    4    4    0    0 -0.14716687009E+02  0.14969971927E+02 -0.18270502603E+02  0.27829699992E+02  0.51100000000E-03 0. -1.
        -11    1    4    4    0    0 -0.42371506565E+01  0.11691364856E+02 -0.99035065337E+01  0.15897197860E+02  0.51100000000E-03 0.  1.
         12    1    4    4    0    0  0.25689663633E+01 -0.11883708102E+01 -0.29111531815E+01  0.40603726681E+01  0.00000000000E+00 0. -1.
</event>
<event>
 8    1  0.2994958E-010  0.9118800E+02  0.7816164E-02  0.1184000E+00
        -11   -1    0    0    0    0  0.00000000000E+00  0.00000000000E+00  0.45593999997E+02  0.45594000000E+02  0.51100000000E-03 0. -1.
         11   -1    0    0    0    0 -0.00000000000E+00 -0.00000000000E+00 -0.45593999997E+02  0.45594000000E+02  0.51100000000E-03 0.  1.
         23    2    1    2    0    0  0.00000000000E+00  0.00000000000E+00  0.00000000000E+00  0.91188000000E+02  0.91188000000E+02 0.  0.
    9900012    2    3    3    0    0 -0.25423721880E+02  0.18026393477E+02 -0.30204417192E+02  0.47787270583E+02  0.19999997896E+02 0.  0.
         12    1    3    3    0    0  0.25423721880E+02 -0.18026393477E+02  0.30204417192E+02  0.43400729417E+02  0.00000000000E+00 0. -1.
         11    1    4    4    0    0  0.11832386008E+01  0.53521429425E+00 -0.90718594316E+01  0.91643407693E+01  0.51100000000E-03 0. -1.
        -11    1    4    4    0    0 -0.38187117533E+01  0.28210435905E+01 -0.57609436708E+01  0.74652072063E+01  0.51100000000E-03 0.  1.
         12    1    4    4    0    0 -0.22788248727E+02  0.14670135593E+02 -0.15371614089E+02  0.31157722607E+02  0.00000000000E+00 0. -1.
</event>
<event>
 8    1  0.2994958E-010  0.9118800E+02  0.7816164E-02  0.1184000E+00
        -11   -1    0    0    0    0  0.00000000000E+00  0.00000000000E+00  0.45593999997E+02  0.45594000000E+02  0.51100000000E-03 0. -1.
         11   -1    0    0    0    0 -0.00000000000E+00 -0.00000000000E+00 -0.45593999997E+02  0.45594000000E+02  0.51100000000E-03 0.  1.
         23    2    1    2    0    0 -0.11102230246E-14  0.00000000000E+00  0.00000000000E+00  0.91188000000E+02  0.91188000000E+02 0.  0.
    9900012    2    3    3    0    0 -0.65416679386E+00  0.22335934679E+02  0.37206193135E+02  0.47787277428E+02  0.20000029106E+02 0.  0.
        -12    1    3    3    0    0  0.65416679386E+00 -0.22335934679E+02 -0.37206193135E+02  0.43400722572E+02  0.00000000000E+00 0.  1.
         11    1    4    4    0    0 -0.54419422901E+01  0.23288689530E+02  0.29913690836E+02  0.38298912460E+02  0.51100000000E-03 0. -1.
        -11    1    4    4    0    0 -0.84723160332E-01 -0.10951388368E+01  0.20767914155E+01  0.23493764982E+01  0.51100000000E-03 0.  1.
         12    1    4    4    0    0  0.48724986566E+01  0.14238398594E+00  0.52157108836E+01  0.71389884704E+01  0.00000000000E+00 0. -1.
</event>
<event>
 8    1  0.2994958E-010  0.9118800E+02  0.7816164E-02  0.1184000E+00
        -11   -1    0    0    0    0  0.00000000000E+00  0.00000000000E+00  0.45593999997E+02  0.45594000000E+02  0.51100000000E-03 0.  1.
         11   -1    0    0    0    0 -0.00000000000E+00 -0.00000000000E+00 -0.45593999997E+02  0.45594000000E+02  0.51100000000E-03 0. -1.
         23    2    1    2    0    0 -0.44408920985E-15  0.00000000000E+00  0.35527136788E-14  0.91188000000E+02  0.91188000000E+02 0.  0.
    9900012    2    3    3    0    0 -0.22376582246E+01 -0.31907942149E+02 -0.29334275725E+02  0.47787267070E+02  0.19999981879E+02 0.  0.
         12    1    3    3    0    0  0.22376582246E+01  0.31907942149E+02  0.29334275725E+02  0.43400732930E+02  0.00000000000E+00 0. -1.
         11    1    4    4    0    0 -0.17730027059E+01 -0.12347540683E+02 -0.71628519622E+01  0.14384427274E+02  0.51100000000E-03 0. -1.
        -11    1    4    4    0    0  0.47676547448E+01 -0.95780843402E+01 -0.29123580792E+01  0.11088375049E+02  0.51100000000E-03 0.  1.
         12    1    4    4    0    0 -0.52323102635E+01 -0.99823171263E+01 -0.19259065684E+02  0.22314464746E+02  0.00000000000E+00 0. -1.
</event>
<event>
 8    1  0.2994958E-010  0.9118800E+02  0.7816164E-02  0.1184000E+00
        -11   -1    0    0    0    0  0.00000000000E+00  0.00000000000E+00  0.45593999997E+02  0.45594000000E+02  0.51100000000E-03 0. -1.
         11   -1    0    0    0    0 -0.00000000000E+00 -0.00000000000E+00 -0.45593999997E+02  0.45594000000E+02  0.51100000000E-03 0.  1.
         23    2    1    2    0    0  0.00000000000E+00  0.00000000000E+00  0.00000000000E+00  0.91188000000E+02  0.91188000000E+02 0.  0.
    9900012    2    3    3    0    0 -0.38139955793E+02  0.14695959171E+02 -0.14594343824E+02  0.47787282085E+02  0.20000050339E+02 0.  0.
         12    1    3    3    0    0  0.38139955793E+02 -0.14695959171E+02  0.14594343824E+02  0.43400717915E+02  0.00000000000E+00 0. -1.
         11    1    4    4    0    0 -0.25309954527E+01  0.58639408795E+01 -0.37145532348E+01  0.73884806703E+01  0.51100000000E-03 0. -1.
        -11    1    4    4    0    0 -0.22755814476E+02  0.11856603956E+02 -0.80743670613E+01  0.26899843002E+02  0.51100000000E-03 0.  1.
         12    1    4    4    0    0 -0.12853145865E+02 -0.30245856646E+01 -0.28054235279E+01  0.13498958413E+02  0.00000000000E+00 0. -1.
</event>
<event>
 8    1  0.2994958E-010  0.9118800E+02  0.7816164E-02  0.1184000E+00
        -11   -1    0    0    0    0  0.00000000000E+00  0.00000000000E+00  0.45593999997E+02  0.45594000000E+02  0.51100000000E-03 0. -1.
         11   -1    0    0    0    0 -0.00000000000E+00 -0.00000000000E+00 -0.45593999997E+02  0.45594000000E+02  0.51100000000E-03 0.  1.
         23    2    1    2    0    0  0.00000000000E+00  0.00000000000E+00  0.00000000000E+00  0.91188000000E+02  0.91188000000E+02 0.  0.
    9900012    2    3    3    0    0  0.20330971888E+02 -0.31891400743E+02 -0.21288850611E+02  0.47787250933E+02  0.19999908305E+02 0.  0.
         12    1    3    3    0    0 -0.20330971888E+02  0.31891400743E+02  0.21288850611E+02  0.43400749067E+02  0.00000000000E+00 0. -1.
         11    1    4    4    0    0  0.47035918094E+01 -0.56014454716E+01 -0.10125403395E+01  0.73841184634E+01  0.51100000000E-03 0. -1.
        -11    1    4    4    0    0  0.11260721527E+02 -0.60917168276E+01 -0.13619978234E+02  0.18692690298E+02  0.51100000000E-03 0.  1.
        -12    1    4    4    0    0  0.43666585518E+01 -0.20198238443E+02 -0.66563320369E+01  0.21710442172E+02  0.00000000000E+00 0.  1.
</event>
<event>
 8    1  0.2994958E-010  0.9118800E+02  0.7816164E-02  0.1184000E+00
        -11   -1    0    0    0    0  0.00000000000E+00  0.00000000000E+00  0.45593999997E+02  0.45594000000E+02  0.51100000000E-03 0. -1.
         11   -1    0    0    0    0 -0.00000000000E+00 -0.00000000000E+00 -0.45593999997E+02  0.45594000000E+02  0.51100000000E-03 0.  1.
         23    2    1    2    0    0  0.00000000000E+00 -0.13322676296E-14  0.00000000000E+00  0.91188000000E+02  0.91188000000E+02 0.  0.
    9900012    2    3    3    0    0 -0.61113484385E+01  0.30837350273E+01  0.42857502465E+02  0.47787268221E+02  0.19999987126E+02 0.  0.
        -12    1    3    3    0    0  0.61113484385E+01 -0.30837350273E+01 -0.42857502465E+02  0.43400731779E+02  0.00000000000E+00 0.  1.
         11    1    4    4    0    0 -0.58673324347E+01 -0.42464175535E+01  0.61993719993E+01  0.95336176441E+01  0.51100000000E-03 0. -1.
        -11    1    4    4    0    0  0.21351763256E+01 -0.73480164849E+00  0.11735524362E+02  0.11950792598E+02  0.51100000000E-03 0.  1.
         12    1    4    4    0    0 -0.23791923294E+01  0.80649542293E+01  0.24922606103E+02  0.26302857978E+02  0.00000000000E+00 0. -1.
</event>
<event>
 8    1  0.2994958E-010  0.9118800E+02  0.7816164E-02  0.1184000E+00
        -11   -1    0    0    0    0  0.00000000000E+00  0.00000000000E+00  0.45593999997E+02  0.45594000000E+02  0.51100000000E-03 0. -1.
         11   -1    0    0    0    0 -0.00000000000E+00 -0.00000000000E+00 -0.45593999997E+02  0.45594000000E+02  0.51100000000E-03 0.  1.
         23    2    1    2    0    0 -0.17763568394E-14  0.00000000000E+00  0.00000000000E+00  0.91188000000E+02  0.91188000000E+02 0.  0.
    9900012    2    3    3    0    0  0.15561725250E+02  0.33840938121E+02  0.22276599500E+02  0.47787271078E+02  0.20000000154E+02 0.  0.
        -12    1    3    3    0    0 -0.15561725250E+02 -0.33840938121E+02 -0.22276599500E+02  0.43400728922E+02  0.00000000000E+00 0.  1.
         11    1    4    4    0    0  0.96871121686E+01  0.13414213276E+02  0.63539440703E+01  0.17724386181E+02  0.51100000000E-03 0. -1.
        -11    1    4    4    0    0  0.15609372374E+01  0.13483769161E+02  0.17284980483E+01  0.13683430185E+02  0.51100000000E-03 0.  1.
         12    1    4    4    0    0  0.43136758438E+01  0.69429556836E+01  0.14194157381E+02  0.16379454712E+02  0.00000000000E+00 0. -1.
</event>
<event>
 8    1  0.2994958E-010  0.9118800E+02  0.7816164E-02  0.1184000E+00
        -11   -1    0    0    0    0  0.00000000000E+00  0.00000000000E+00  0.45593999997E+02  0.45594000000E+02  0.51100000000E-03 0. -1.
         11   -1    0    0    0    0 -0.00000000000E+00 -0.00000000000E+00 -0.45593999997E+02  0.45594000000E+02  0.51100000000E-03 0.  1.
         23    2    1    2    0    0  0.00000000000E+00  0.88817841970E-15  0.00000000000E+00  0.91188000000E+02  0.91188000000E+02 0.  0.
    9900012    2    3    3    0    0 -0.32674303027E+02  0.76593017343E+01 -0.27519961038E+02  0.47787271470E+02  0.20000001942E+02 0.  0.
         12    1    3    3    0    0  0.32674303027E+02 -0.76593017343E+01  0.27519961038E+02  0.43400728530E+02  0.00000000000E+00 0. -1.
         11    1    4    4    0    0 -0.28493746166E+01  0.44256059305E+01 -0.60509883958E+01  0.80199366821E+01  0.51100000000E-03 0. -1.
        -11    1    4    4    0    0 -0.87131280144E+01 -0.54610677216E+01 -0.94458616312E+01  0.13963028421E+02  0.51100000000E-03 0.  1.
         12    1    4    4    0    0 -0.21111800396E+02  0.86947635254E+01 -0.12023111011E+02  0.25804306368E+02  0.00000000000E+00 0. -1.
</event>
<event>
 8    1  0.2994958E-010  0.9118800E+02  0.7816164E-02  0.1184000E+00
        -11   -1    0    0    0    0  0.00000000000E+00  0.00000000000E+00  0.45593999997E+02  0.45594000000E+02  0.51100000000E-03 0. -1.
         11   -1    0    0    0    0 -0.00000000000E+00 -0.00000000000E+00 -0.45593999997E+02  0.45594000000E+02  0.51100000000E-03 0.  1.
         23    2    1    2    0    0  0.00000000000E+00  0.00000000000E+00 -0.71054273576E-14  0.91188000000E+02  0.91188000000E+02 0.  0.
    9900012    2    3    3    0    0 -0.19522952084E+02  0.11400491626E+02 -0.37047354351E+02  0.47787270377E+02  0.19999996958E+02 0.  0.
         12    1    3    3    0    0  0.19522952084E+02 -0.11400491626E+02  0.37047354351E+02  0.43400729623E+02  0.00000000000E+00 0. -1.
         11    1    4    4    0    0 -0.21426528457E+01 -0.33364012263E+01 -0.86930174259E+01  0.95546369155E+01  0.51100000000E-03 0. -1.
        -11    1    4    4    0    0 -0.12737372874E+02  0.49984427292E+01 -0.21387912215E+02  0.25390310881E+02  0.51100000000E-03 0.  1.
         12    1    4    4    0    0 -0.46429263644E+01  0.97384501234E+01 -0.69664247097E+01  0.12842322581E+02  0.00000000000E+00 0. -1.
</event>
<event>
 8    1  0.2994958E-010  0.9118800E+02  0.7816164E-02  0.1184000E+00
        -11   -1    0    0    0    0  0.00000000000E+00  0.00000000000E+00  0.45593999997E+02  0.45594000000E+02  0.51100000000E-03 0. -1.
         11   -1    0    0    0    0 -0.00000000000E+00 -0.00000000000E+00 -0.45593999997E+02  0.45594000000E+02  0.51100000000E-03 0.  1.
         23    2    1    2    0    0  0.00000000000E+00  0.35527136788E-14  0.00000000000E+00  0.91188000000E+02  0.91188000000E+02 0.  0.
    9900012    2    3    3    0    0 -0.27946042260E+02 -0.26986740567E+02  0.19348339513E+02  0.47787266293E+02  0.19999978336E+02 0.  0.
        -12    1    3    3    0    0  0.27946042260E+02  0.26986740567E+02 -0.19348339513E+02  0.43400733707E+02  0.00000000000E+00 0.  1.
         11    1    4    4    0    0 -0.28072644866E+00 -0.28572991828E+01  0.48753717000E+01  0.56579338484E+01  0.51100000000E-03 0. -1.
        -11    1    4    4    0    0 -0.16280219743E+02 -0.77124785505E+01  0.12763476847E+02  0.22077912532E+02  0.51100000000E-03 0.  1.
         12    1    4    4    0    0 -0.11385096068E+02 -0.16416962833E+02  0.17094909664E+01  0.20051419913E+02  0.00000000000E+00 0. -1.
</event>
<event>
 8    1  0.2994958E-010  0.9118800E+02  0.7816164E-02  0.1184000E+00
        -11   -1    0    0    0    0  0.00000000000E+00  0.00000000000E+00  0.45593999997E+02  0.45594000000E+02  0.51100000000E-03 0. -1.
         11   -1    0    0    0    0 -0.00000000000E+00 -0.00000000000E+00 -0.45593999997E+02  0.45594000000E+02  0.51100000000E-03 0.  1.
         23    2    1    2    0    0  0.00000000000E+00  0.00000000000E+00  0.00000000000E+00  0.91188000000E+02  0.91188000000E+02 0.  0.
    9900012    2    3    3    0    0 -0.16309333287E+02  0.33735323711E+02  0.21898786756E+02  0.47787270979E+02  0.19999999703E+02 0.  0.
        -12    1    3    3    0    0  0.16309333287E+02 -0.33735323711E+02 -0.21898786756E+02  0.43400729021E+02  0.00000000000E+00 0.  1.
         11    1    4    4    0    0 -0.29612947204E+01  0.20157761792E+01  0.57261817757E+01  0.67543895368E+01  0.51100000000E-03 0. -1.
        -11    1    4    4    0    0  0.16949557540E+01 -0.63156142960E+00 -0.11687110706E+00  0.18125683336E+01  0.51100000000E-03 0.  1.
        -12    1    4    4    0    0 -0.15042994321E+02  0.32351108961E+02  0.16289476088E+02  0.39220313109E+02  0.00000000000E+00 0.  1.
</event>
<event>
 8    1  0.2994958E-010  0.9118800E+02  0.7816164E-02  0.1184000E+00
        -11   -1    0    0    0    0  0.00000000000E+00  0.00000000000E+00  0.45593999997E+02  0.45594000000E+02  0.51100000000E-03 0.  1.
         11   -1    0    0    0    0 -0.00000000000E+00 -0.00000000000E+00 -0.45593999997E+02  0.45594000000E+02  0.51100000000E-03 0. -1.
         23    2    1    2    0    0  0.00000000000E+00  0.88817841970E-15  0.00000000000E+00  0.91188000000E+02  0.91188000000E+02 0.  0.
    9900012    2    3    3    0    0  0.41136798335E+02  0.55581404166E+01 -0.12668635571E+02  0.47787269253E+02  0.19999991831E+02 0.  0.
         12    1    3    3    0    0 -0.41136798335E+02 -0.55581404166E+01  0.12668635571E+02  0.43400730747E+02  0.00000000000E+00 0. -1.
         11    1    4    4    0    0  0.72423109345E+01  0.28103582660E+01 -0.30436089062E+00  0.77744335529E+01  0.51100000000E-03 0.  1.
        -11    1    4    4    0    0  0.11815045164E+02 -0.48420379993E+01  0.15040829015E+01  0.12857017145E+02  0.51100000000E-03 0. -1.
         12    1    4    4    0    0  0.22079442236E+02  0.75898201499E+01 -0.13868357582E+02  0.27155818555E+02  0.00000000000E+00 0. -1.
</event>
<event>
 8    1  0.2994958E-010  0.9118800E+02  0.7816164E-02  0.1184000E+00
        -11   -1    0    0    0    0  0.00000000000E+00  0.00000000000E+00  0.45593999997E+02  0.45594000000E+02  0.51100000000E-03 0.  1.
         11   -1    0    0    0    0 -0.00000000000E+00 -0.00000000000E+00 -0.45593999997E+02  0.45594000000E+02  0.51100000000E-03 0. -1.
         23    2    1    2    0    0 -0.35527136788E-14  0.00000000000E+00 -0.35527136788E-14  0.91188000000E+02  0.91188000000E+02 0.  0.
    9900012    2    3    3    0    0  0.30998695174E+02  0.10688334052E+02 -0.28433498240E+02  0.47787269482E+02  0.19999992877E+02 0.  0.
         12    1    3    3    0    0 -0.30998695174E+02 -0.10688334052E+02  0.28433498240E+02  0.43400730518E+02  0.00000000000E+00 0. -1.
         11    1    4    4    0    0  0.20374531112E+02  0.75694762403E+01 -0.17417382829E+02  0.27852894166E+02  0.51100000000E-03 0. -1.
        -11    1    4    4    0    0  0.98622584196E+01 -0.91976891007E+00 -0.21122725167E+01  0.10127774258E+02  0.51100000000E-03 0.  1.
         12    1    4    4    0    0  0.76190564282E+00  0.40386267221E+01 -0.89038428944E+01  0.98066010573E+01  0.00000000000E+00 0. -1.
</event>
<event>
 8    1  0.3869378E-010  0.9118800E+02  0.7816164E-02  0.1184000E+00
        -11   -1    0    0    0    0  0.00000000000E+00  0.00000000000E+00  0.45593999997E+02  0.45594000000E+02  0.51100000000E-03 0. -1.
         11   -1    0    0    0    0 -0.00000000000E+00 -0.00000000000E+00 -0.45593999997E+02  0.45594000000E+02  0.51100000000E-03 0.  1.
         23    2    1    2    0    0  0.00000000000E+00  0.00000000000E+00  0.00000000000E+00  0.91188000000E+02  0.91188000000E+02 0.  0.
    9900012    2    3    3    0    0 -0.13971497130E+02  0.23623889321E+01  0.41022429944E+02  0.47787269913E+02  0.19999994843E+02 0.  0.
        -12    1    3    3    0    0  0.13971497130E+02 -0.23623889321E+01 -0.41022429944E+02  0.43400730087E+02  0.00000000000E+00 0.  1.
         11    1    4    4    0    0  0.56571897032E+00  0.30789823048E+01  0.53659573700E+01  0.62123802801E+01  0.51100000000E-03 0. -1.
        -11    1    4    4    0    0 -0.11193201412E+01  0.12421781384E+01 -0.13584247604E+01  0.21543449577E+01  0.51100000000E-03 0.  1.
         12    1    4    4    0    0 -0.13417895959E+02 -0.19587715112E+01  0.37014897335E+02  0.39420544675E+02  0.00000000000E+00 0. -1.
</event>
<event>
 8    1  0.2994958E-010  0.9118800E+02  0.7816164E-02  0.1184000E+00
        -11   -1    0    0    0    0  0.00000000000E+00  0.00000000000E+00  0.45593999997E+02  0.45594000000E+02  0.51100000000E-03 0. -1.
         11   -1    0    0    0    0 -0.00000000000E+00 -0.00000000000E+00 -0.45593999997E+02  0.45594000000E+02  0.51100000000E-03 0.  1.
         23    2    1    2    0    0  0.00000000000E+00 -0.71054273576E-14  0.00000000000E+00  0.91188000000E+02  0.91188000000E+02 0.  0.
    9900012    2    3    3    0    0 -0.33132220100E+02  0.26313185776E+02 -0.96693270772E+01  0.47787266820E+02  0.19999980737E+02 0.  0.
         12    1    3    3    0    0  0.33132220100E+02 -0.26313185776E+02  0.96693270772E+01  0.43400733180E+02  0.00000000000E+00 0. -1.
         11    1    4    4    0    0 -0.28758696092E+01 -0.59765899068E-01  0.12722586309E+00  0.28793028068E+01  0.51100000000E-03 0. -1.
        -11    1    4    4    0    0 -0.26451895973E+02  0.24203302177E+02 -0.14323554398E+02  0.38609154972E+02  0.51100000000E-03 0.  1.
        -12    1    4    4    0    0 -0.38044545183E+01  0.21696494986E+01  0.45270014580E+01  0.62988090406E+01  0.00000000000E+00 0.  1.
</event>
<event>
 8    1  0.2994958E-010  0.9118800E+02  0.7816164E-02  0.1184000E+00
        -11   -1    0    0    0    0  0.00000000000E+00  0.00000000000E+00  0.45593999997E+02  0.45594000000E+02  0.51100000000E-03 0. -1.
         11   -1    0    0    0    0 -0.00000000000E+00 -0.00000000000E+00 -0.45593999997E+02  0.45594000000E+02  0.51100000000E-03 0.  1.
         23    2    1    2    0    0  0.00000000000E+00  0.00000000000E+00 -0.72164496601E-15  0.91188000000E+02  0.91188000000E+02 0.  0.
    9900012    2    3    3    0    0  0.20654008901E+02 -0.38170911435E+02  0.12891927926E+00  0.47787272084E+02  0.20000004740E+02 0.  0.
        -12    1    3    3    0    0 -0.20654008901E+02  0.38170911435E+02 -0.12891927926E+00  0.43400727916E+02  0.00000000000E+00 0.  1.
         11    1    4    4    0    0  0.12278232170E+02 -0.25808911038E+02 -0.47941401372E+01  0.28979969877E+02  0.51100000000E-03 0. -1.
        -11    1    4    4    0    0  0.25541293860E+01 -0.20448631300E+01 -0.30940604927E+01  0.45031380986E+01  0.51100000000E-03 0.  1.
         12    1    4    4    0    0  0.58216473446E+01 -0.10317137267E+02  0.80171199092E+01  0.14304164108E+02  0.00000000000E+00 0. -1.
</event>
<event>
 8    1  0.2994958E-010  0.9118800E+02  0.7816164E-02  0.1184000E+00
        -11   -1    0    0    0    0  0.00000000000E+00  0.00000000000E+00  0.45593999997E+02  0.45594000000E+02  0.51100000000E-03 0. -1.
         11   -1    0    0    0    0 -0.00000000000E+00 -0.00000000000E+00 -0.45593999997E+02  0.45594000000E+02  0.51100000000E-03 0.  1.
         23    2    1    2    0    0 -0.88817841970E-15  0.00000000000E+00 -0.35527136788E-14  0.91188000000E+02  0.91188000000E+02 0.  0.
    9900012    2    3    3    0    0 -0.65458978629E+01 -0.32812890764E+02 -0.27642154897E+02  0.47787270669E+02  0.19999998289E+02 0.  0.
         12    1    3    3    0    0  0.65458978629E+01  0.32812890764E+02  0.27642154897E+02  0.43400729331E+02  0.00000000000E+00 0. -1.
         11    1    4    4    0    0 -0.44412726159E+01 -0.18811972515E+01 -0.64764529260E+01  0.80751624325E+01  0.51100000000E-03 0. -1.
        -11    1    4    4    0    0 -0.11593785183E+00 -0.55617724202E+01 -0.10966098369E+02  0.12296424999E+02  0.51100000000E-03 0.  1.
         12    1    4    4    0    0 -0.19886873952E+01 -0.25369921092E+02 -0.10199603602E+02  0.27415683238E+02  0.00000000000E+00 0. -1.
</event>
<event>
 8    1  0.2994958E-010  0.9118800E+02  0.7816164E-02  0.1184000E+00
        -11   -1    0    0    0    0  0.00000000000E+00  0.00000000000E+00  0.45593999997E+02  0.45594000000E+02  0.51100000000E-03 0. -1.
         11   -1    0    0    0    0 -0.00000000000E+00 -0.00000000000E+00 -0.45593999997E+02  0.45594000000E+02  0.51100000000E-03 0.  1.
         23    2    1    2    0    0  0.00000000000E+00  0.71054273576E-14  0.00000000000E+00  0.91188000000E+02  0.91188000000E+02 0.  0.
    9900012    2    3    3    0    0  0.64570039489E+01 -0.38664065749E+02 -0.18628489273E+02  0.47787268522E+02  0.19999988499E+02 0.  0.
         12    1    3    3    0    0 -0.64570039489E+01  0.38664065749E+02  0.18628489273E+02  0.43400731478E+02  0.00000000000E+00 0. -1.
         11    1    4    4    0    0  0.37244099588E+01 -0.16900848491E+02 -0.67634433903E+01  0.18581013859E+02  0.51100000000E-03 0.  1.
        -11    1    4    4    0    0 -0.43493363999E+01 -0.10840004018E+02 -0.13162092471E+00  0.11680742209E+02  0.51100000000E-03 0. -1.
        -12    1    4    4    0    0  0.70819303899E+01 -0.10923213240E+02 -0.11733424958E+02  0.17525512454E+02  0.00000000000E+00 0.  1.
</event>
<event>
 8    1  0.2994958E-010  0.9118800E+02  0.7816164E-02  0.1184000E+00
        -11   -1    0    0    0    0  0.00000000000E+00  0.00000000000E+00  0.45593999997E+02  0.45594000000E+02  0.51100000000E-03 0. -1.
         11   -1    0    0    0    0 -0.00000000000E+00 -0.00000000000E+00 -0.45593999997E+02  0.45594000000E+02  0.51100000000E-03 0.  1.
         23    2    1    2    0    0  0.71054273576E-14  0.00000000000E+00  0.00000000000E+00  0.91188000000E+02  0.91188000000E+02 0.  0.
    9900012    2    3    3    0    0  0.42711932020E+02 -0.29852078233E+01 -0.70994710339E+01  0.47787273145E+02  0.20000009577E+02 0.  0.
         12    1    3    3    0    0 -0.42711932020E+02  0.29852078233E+01  0.70994710339E+01  0.43400726855E+02  0.00000000000E+00 0. -1.
         11    1    4    4    0    0  0.74109408793E+01  0.37413679511E+01  0.17314367099E+01  0.84804334915E+01  0.51100000000E-03 0.  1.
        -11    1    4    4    0    0  0.65100960474E+00  0.15521560708E+01 -0.26648765928E+01  0.31519152097E+01  0.51100000000E-03 0. -1.
        -12    1    4    4    0    0  0.34649981536E+02 -0.82787318452E+01 -0.61660311510E+01  0.36154924444E+02  0.00000000000E+00 0.  1.
</event>
<event>
 8    1  0.2994958E-010  0.9118800E+02  0.7816164E-02  0.1184000E+00
        -11   -1    0    0    0    0  0.00000000000E+00  0.00000000000E+00  0.45593999997E+02  0.45594000000E+02  0.51100000000E-03 0. -1.
         11   -1    0    0    0    0 -0.00000000000E+00 -0.00000000000E+00 -0.45593999997E+02  0.45594000000E+02  0.51100000000E-03 0.  1.
         23    2    1    2    0    0  0.35527136788E-14  0.00000000000E+00  0.00000000000E+00  0.91188000000E+02  0.91188000000E+02 0.  0.
    9900012    2    3    3    0    0 -0.22140485330E+02 -0.80265535134E+01  0.36455408327E+02  0.47787269036E+02  0.19999990841E+02 0.  0.
        -12    1    3    3    0    0  0.22140485330E+02  0.80265535134E+01 -0.36455408327E+02  0.43400730964E+02  0.00000000000E+00 0.  1.
         11    1    4    4    0    0 -0.99992054673E+01  0.30077825553E+01  0.14469672088E+02  0.17843830207E+02  0.51100000000E-03 0. -1.
        -11    1    4    4    0    0 -0.85873617075E+01  0.15351521751E+00  0.91631345976E+01  0.12559035948E+02  0.51100000000E-03 0.  1.
         12    1    4    4    0    0 -0.35539181552E+01 -0.11187851286E+02  0.12822601642E+02  0.17384402881E+02  0.00000000000E+00 0. -1.
</event>
<event>
 8    1  0.2994958E-010  0.9118800E+02  0.7816164E-02  0.1184000E+00
        -11   -1    0    0    0    0  0.00000000000E+00  0.00000000000E+00  0.45593999997E+02  0.45594000000E+02  0.51100000000E-03 0. -1.
         11   -1    0    0    0    0 -0.00000000000E+00 -0.00000000000E+00 -0.45593999997E+02  0.45594000000E+02  0.51100000000E-03 0.  1.
         23    2    1    2    0    0  0.00000000000E+00  0.00000000000E+00  0.00000000000E+00  0.91188000000E+02  0.91188000000E+02 0.  0.
    9900012    2    3    3    0    0 -0.19214931566E+02 -0.33893656003E+02 -0.19121448397E+02  0.47787270730E+02  0.19999998567E+02 0.  0.
         12    1    3    3    0    0  0.19214931566E+02  0.33893656003E+02  0.19121448397E+02  0.43400729270E+02  0.00000000000E+00 0. -1.
         11    1    4    4    0    0  0.36511496843E+00 -0.14460364195E+00  0.84960377292E+00  0.93597328248E+00  0.51100000000E-03 0. -1.
        -11    1    4    4    0    0 -0.52232607063E+01 -0.74208539346E+01  0.24597587958E+01  0.94022305396E+01  0.51100000000E-03 0.  1.
         12    1    4    4    0    0 -0.14356785828E+02 -0.26328198427E+02 -0.22430810965E+02  0.37449066908E+02  0.00000000000E+00 0. -1.
</event>
<event>
 8    1  0.2994958E-010  0.9118800E+02  0.7816164E-02  0.1184000E+00
        -11   -1    0    0    0    0  0.00000000000E+00  0.00000000000E+00  0.45593999997E+02  0.45594000000E+02  0.51100000000E-03 0. -1.
         11   -1    0    0    0    0 -0.00000000000E+00 -0.00000000000E+00 -0.45593999997E+02  0.45594000000E+02  0.51100000000E-03 0.  1.
         23    2    1    2    0    0  0.00000000000E+00  0.00000000000E+00  0.00000000000E+00  0.91188000000E+02  0.91188000000E+02 0.  0.
    9900012    2    3    3    0    0  0.11478089751E+02  0.23242471389E+02  0.34809029797E+02  0.47787221482E+02  0.19999774023E+02 0.  0.
        -12    1    3    3    0    0 -0.11478089751E+02 -0.23242471389E+02 -0.34809029797E+02  0.43400778518E+02  0.00000000000E+00 0.  1.
         11    1    4    4    0    0  0.19200121708E+01  0.87398250762E+01  0.14817451328E+02  0.17309761790E+02  0.51100000000E-03 0. -1.
        -11    1    4    4    0    0  0.39298947694E+01 -0.18260056280E+01  0.38788345891E+00  0.43507267543E+01  0.51100000000E-03 0.  1.
         12    1    4    4    0    0  0.56281828103E+01  0.16328651941E+02  0.19603695010E+02  0.26126732937E+02  0.00000000000E+00 0. -1.
</event>
<event>
 8    1  0.2994958E-010  0.9118800E+02  0.7816164E-02  0.1184000E+00
        -11   -1    0    0    0    0  0.00000000000E+00  0.00000000000E+00  0.45593999997E+02  0.45594000000E+02  0.51100000000E-03 0. -1.
         11   -1    0    0    0    0 -0.00000000000E+00 -0.00000000000E+00 -0.45593999997E+02  0.45594000000E+02  0.51100000000E-03 0.  1.
         23    2    1    2    0    0  0.00000000000E+00  0.00000000000E+00  0.00000000000E+00  0.91188000000E+02  0.91188000000E+02 0.  0.
    9900012    2    3    3    0    0  0.17445326451E+02  0.16731411418E+02  0.36046410928E+02  0.47787270930E+02  0.19999999480E+02 0.  0.
        -12    1    3    3    0    0 -0.17445326451E+02 -0.16731411418E+02 -0.36046410928E+02  0.43400729070E+02  0.00000000000E+00 0.  1.
         11    1    4    4    0    0  0.48308135135E+01  0.37268616429E+01 -0.16841750054E+00  0.61036564142E+01  0.51100000000E-03 0. -1.
        -11    1    4    4    0    0  0.19560564440E+01 -0.16223048363E+01  0.45517431605E+01  0.52130984888E+01  0.51100000000E-03 0.  1.
         12    1    4    4    0    0  0.10658456493E+02  0.14626854611E+02  0.31663085268E+02  0.36470516027E+02  0.00000000000E+00 0. -1.
</event>
<event>
 8    1  0.2994958E-010  0.9118800E+02  0.7816164E-02  0.1184000E+00
        -11   -1    0    0    0    0  0.00000000000E+00  0.00000000000E+00  0.45593999997E+02  0.45594000000E+02  0.51100000000E-03 0. -1.
         11   -1    0    0    0    0 -0.00000000000E+00 -0.00000000000E+00 -0.45593999997E+02  0.45594000000E+02  0.51100000000E-03 0.  1.
         23    2    1    2    0    0  0.35527136788E-14  0.00000000000E+00  0.00000000000E+00  0.91188000000E+02  0.91188000000E+02 0.  0.
    9900012    2    3    3    0    0 -0.21127617136E+02  0.25428509532E+01  0.37825658069E+02  0.47787277596E+02  0.20000029872E+02 0.  0.
        -12    1    3    3    0    0  0.21127617136E+02 -0.25428509532E+01 -0.37825658069E+02  0.43400722404E+02  0.00000000000E+00 0.  1.
         11    1    4    4    0    0 -0.25547119055E+01 -0.61315749236E+01  0.15548796846E+02  0.16908218344E+02  0.51100000000E-03 0. -1.
        -11    1    4    4    0    0 -0.69417563456E+01  0.77350018803E+00  0.10091018353E+02  0.12272527669E+02  0.51100000000E-03 0.  1.
        -12    1    4    4    0    0 -0.11631148885E+02  0.79009256888E+01  0.12185842870E+02  0.18606531584E+02  0.00000000000E+00 0.  1.
</event>
<event>
 8    1  0.2994958E-010  0.9118800E+02  0.7816164E-02  0.1184000E+00
        -11   -1    0    0    0    0  0.00000000000E+00  0.00000000000E+00  0.45593999997E+02  0.45594000000E+02  0.51100000000E-03 0. -1.
         11   -1    0    0    0    0 -0.00000000000E+00 -0.00000000000E+00 -0.45593999997E+02  0.45594000000E+02  0.51100000000E-03 0.  1.
         23    2    1    2    0    0  0.00000000000E+00  0.00000000000E+00  0.00000000000E+00  0.91188000000E+02  0.91188000000E+02 0.  0.
    9900012    2    3    3    0    0  0.21624158139E+02  0.20902629350E+02  0.31290562852E+02  0.47787268986E+02  0.19999990617E+02 0.  0.
        -12    1    3    3    0    0 -0.21624158139E+02 -0.20902629350E+02 -0.31290562852E+02  0.43400731014E+02  0.00000000000E+00 0.  1.
         11    1    4    4    0    0  0.72677101110E+01  0.11484437893E+02  0.20383446321E+01  0.13742880814E+02  0.51100000000E-03 0.  1.
        -11    1    4    4    0    0  0.45919211565E+01  0.19478294994E+01  0.66246616965E+01  0.82925220844E+01  0.51100000000E-03 0. -1.
        -12    1    4    4    0    0  0.97645268712E+01  0.74703619572E+01  0.22627556523E+02  0.25751866088E+02  0.00000000000E+00 0.  1.
</event>
<event>
 8    1  0.2994958E-010  0.9118800E+02  0.7816164E-02  0.1184000E+00
        -11   -1    0    0    0    0  0.00000000000E+00  0.00000000000E+00  0.45593999997E+02  0.45594000000E+02  0.51100000000E-03 0. -1.
         11   -1    0    0    0    0 -0.00000000000E+00 -0.00000000000E+00 -0.45593999997E+02  0.45594000000E+02  0.51100000000E-03 0.  1.
         23    2    1    2    0    0  0.00000000000E+00 -0.35527136788E-14 -0.35527136788E-14  0.91188000000E+02  0.91188000000E+02 0.  0.
    9900012    2    3    3    0    0 -0.21185786059E+02 -0.22745770581E+02  0.30288899548E+02  0.47787250628E+02  0.19999906911E+02 0.  0.
        -12    1    3    3    0    0  0.21185786059E+02  0.22745770581E+02 -0.30288899548E+02  0.43400749372E+02  0.00000000000E+00 0.  1.
         11    1    4    4    0    0 -0.96706935781E+01 -0.19735563591E+02  0.11552552820E+02  0.24828939999E+02  0.51100000000E-03 0.  1.
        -11    1    4    4    0    0 -0.45847845182E+01 -0.41971253164E+01  0.81528101768E+01  0.10252044871E+02  0.51100000000E-03 0. -1.
        -12    1    4    4    0    0 -0.69303079632E+01  0.11869183269E+01  0.10583536551E+02  0.12706265758E+02  0.00000000000E+00 0.  1.
</event>
<event>
 8    1  0.2994958E-010  0.9118800E+02  0.7816164E-02  0.1184000E+00
        -11   -1    0    0    0    0  0.00000000000E+00  0.00000000000E+00  0.45593999997E+02  0.45594000000E+02  0.51100000000E-03 0. -1.
         11   -1    0    0    0    0 -0.00000000000E+00 -0.00000000000E+00 -0.45593999997E+02  0.45594000000E+02  0.51100000000E-03 0.  1.
         23    2    1    2    0    0  0.00000000000E+00  0.00000000000E+00 -0.35527136788E-14  0.91188000000E+02  0.91188000000E+02 0.  0.
    9900012    2    3    3    0    0  0.25169010525E+02  0.19086708457E+02  0.29763095416E+02  0.47787269830E+02  0.19999994464E+02 0.  0.
        -12    1    3    3    0    0 -0.25169010525E+02 -0.19086708457E+02 -0.29763095416E+02  0.43400730170E+02  0.00000000000E+00 0.  1.
         11    1    4    4    0    0  0.45930432780E+01  0.11001712990E+02  0.13216623809E+02  0.17799238198E+02  0.51100000000E-03 0. -1.
        -11    1    4    4    0    0  0.51477585422E+01  0.80632213712E+01  0.58246227511E+01  0.11200053006E+02  0.51100000000E-03 0.  1.
        -12    1    4    4    0    0  0.15428208705E+02  0.21774095738E-01  0.10721848856E+02  0.18787978626E+02  0.00000000000E+00 0.  1.
</event>
<event>
 8    1  0.2994958E-010  0.9118800E+02  0.7816164E-02  0.1184000E+00
        -11   -1    0    0    0    0  0.00000000000E+00  0.00000000000E+00  0.45593999997E+02  0.45594000000E+02  0.51100000000E-03 0. -1.
         11   -1    0    0    0    0 -0.00000000000E+00 -0.00000000000E+00 -0.45593999997E+02  0.45594000000E+02  0.51100000000E-03 0.  1.
         23    2    1    2    0    0  0.00000000000E+00  0.44408920985E-15  0.00000000000E+00  0.91188000000E+02  0.91188000000E+02 0.  0.
    9900012    2    3    3    0    0  0.37948626818E+02  0.15961464710E+01 -0.20999465532E+02  0.47787268283E+02  0.19999987409E+02 0.  0.
         12    1    3    3    0    0 -0.37948626818E+02 -0.15961464710E+01  0.20999465532E+02  0.43400731717E+02  0.00000000000E+00 0. -1.
         11    1    4    4    0    0  0.57654976439E+00  0.94237947928E+00  0.97291854927E+00  0.14720935699E+01  0.51100000000E-03 0. -1.
        -11    1    4    4    0    0  0.31700555283E+02 -0.50044135694E+01 -0.14002900795E+02  0.35015005231E+02  0.51100000000E-03 0.  1.
        -12    1    4    4    0    0  0.56715217712E+01  0.56581805611E+01 -0.79694832864E+01  0.11300169482E+02  0.00000000000E+00 0.  1.
</event>
<event>
 8    1  0.2994958E-010  0.9118800E+02  0.7816164E-02  0.1184000E+00
        -11   -1    0    0    0    0  0.00000000000E+00  0.00000000000E+00  0.45593999997E+02  0.45594000000E+02  0.51100000000E-03 0. -1.
         11   -1    0    0    0    0 -0.00000000000E+00 -0.00000000000E+00 -0.45593999997E+02  0.45594000000E+02  0.51100000000E-03 0.  1.
         23    2    1    2    0    0  0.35527136788E-14  0.45796699766E-15  0.00000000000E+00  0.91188000000E+02  0.91188000000E+02 0.  0.
    9900012    2    3    3    0    0 -0.18477851324E+02  0.11501812156E+00  0.39270589416E+02  0.47787269455E+02  0.19999992754E+02 0.  0.
        -12    1    3    3    0    0  0.18477851324E+02 -0.11501812156E+00 -0.39270589416E+02  0.43400730545E+02  0.00000000000E+00 0.  1.
         11    1    4    4    0    0 -0.35576376887E+01  0.65667740400E+01  0.66009177430E+01  0.99675183735E+01  0.51100000000E-03 0. -1.
        -11    1    4    4    0    0  0.77566839993E-01 -0.25548712074E+01  0.13836748287E+01  0.29065339829E+01  0.51100000000E-03 0.  1.
         12    1    4    4    0    0 -0.14997780475E+02 -0.38968847110E+01  0.31285996845E+02  0.34913217099E+02  0.00000000000E+00 0. -1.
</event>
<event>
 8    1  0.2994958E-010  0.9118800E+02  0.7816164E-02  0.1184000E+00
        -11   -1    0    0    0    0  0.00000000000E+00  0.00000000000E+00  0.45593999997E+02  0.45594000000E+02  0.51100000000E-03 0. -1.
         11   -1    0    0    0    0 -0.00000000000E+00 -0.00000000000E+00 -0.45593999997E+02  0.45594000000E+02  0.51100000000E-03 0.  1.
         23    2    1    2    0    0  0.00000000000E+00  0.00000000000E+00 -0.35527136788E-14  0.91188000000E+02  0.91188000000E+02 0.  0.
    9900012    2    3    3    0    0 -0.33059409236E+02 -0.58698054065E+01  0.27499834289E+02  0.47787308295E+02  0.20000169837E+02 0.  0.
        -12    1    3    3    0    0  0.33059409236E+02  0.58698054065E+01 -0.27499834289E+02  0.43400691705E+02  0.00000000000E+00 0.  1.
         11    1    4    4    0    0 -0.18922081316E+02 -0.22427763724E+01  0.99896892176E+01  0.21514392813E+02  0.51100000000E-03 0. -1.
        -11    1    4    4    0    0 -0.29042958480E+01 -0.98575141679E+00 -0.19602118010E+01  0.36399273062E+01  0.51100000000E-03 0.  1.
        -12    1    4    4    0    0 -0.11233032072E+02 -0.26412776173E+01  0.19470356873E+02  0.22632988175E+02  0.00000000000E+00 0.  1.
</event>
<event>
 8    1  0.2994958E-010  0.9118800E+02  0.7816164E-02  0.1184000E+00
        -11   -1    0    0    0    0  0.00000000000E+00  0.00000000000E+00  0.45593999997E+02  0.45594000000E+02  0.51100000000E-03 0. -1.
         11   -1    0    0    0    0 -0.00000000000E+00 -0.00000000000E+00 -0.45593999997E+02  0.45594000000E+02  0.51100000000E-03 0.  1.
         23    2    1    2    0    0  0.00000000000E+00  0.00000000000E+00 -0.44408920985E-15  0.91188000000E+02  0.91188000000E+02 0.  0.
    9900012    2    3    3    0    0 -0.28571557470E+02  0.32426550931E+02  0.39759627107E+01  0.47787269810E+02  0.19999994373E+02 0.  0.
        -12    1    3    3    0    0  0.28571557470E+02 -0.32426550931E+02 -0.39759627107E+01  0.43400730190E+02  0.00000000000E+00 0.  1.
         11    1    4    4    0    0 -0.16868192728E+01 -0.43997759964E+00  0.19607081690E+01  0.26236075035E+01  0.51100000000E-03 0. -1.
        -11    1    4    4    0    0 -0.12046924770E+00  0.32762678914E+01  0.40529136071E+01  0.52129217435E+01  0.51100000000E-03 0.  1.
         12    1    4    4    0    0 -0.26764268949E+02  0.29590260639E+02 -0.20376590654E+01  0.39950740563E+02  0.00000000000E+00 0. -1.
</event>
<event>
 8    1  0.2994958E-010  0.9118800E+02  0.7816164E-02  0.1184000E+00
        -11   -1    0    0    0    0  0.00000000000E+00  0.00000000000E+00  0.45593999997E+02  0.45594000000E+02  0.51100000000E-03 0. -1.
         11   -1    0    0    0    0 -0.00000000000E+00 -0.00000000000E+00 -0.45593999997E+02  0.45594000000E+02  0.51100000000E-03 0.  1.
         23    2    1    2    0    0  0.00000000000E+00  0.00000000000E+00  0.00000000000E+00  0.91188000000E+02  0.91188000000E+02 0.  0.
    9900012    2    3    3    0    0 -0.32815576768E+02  0.86357408080E+01  0.27058918918E+02  0.47787272000E+02  0.20000004355E+02 0.  0.
        -12    1    3    3    0    0  0.32815576768E+02 -0.86357408080E+01 -0.27058918918E+02  0.43400728000E+02  0.00000000000E+00 0.  1.
         11    1    4    4    0    0  0.11184598390E+01  0.79617971427E-01  0.66271207956E+01  0.67213110130E+01  0.51100000000E-03 0. -1.
        -11    1    4    4    0    0 -0.11162575607E+02  0.85723436152E+00  0.37497297337E+01  0.11806710730E+02  0.51100000000E-03 0.  1.
         12    1    4    4    0    0 -0.22771461001E+02  0.76988884750E+01  0.16682068389E+02  0.29259250257E+02  0.00000000000E+00 0. -1.
</event>
<event>
 8    1  0.2994958E-010  0.9118800E+02  0.7816164E-02  0.1184000E+00
        -11   -1    0    0    0    0  0.00000000000E+00  0.00000000000E+00  0.45593999997E+02  0.45594000000E+02  0.51100000000E-03 0. -1.
         11   -1    0    0    0    0 -0.00000000000E+00 -0.00000000000E+00 -0.45593999997E+02  0.45594000000E+02  0.51100000000E-03 0.  1.
         23    2    1    2    0    0  0.88817841970E-15  0.00000000000E+00  0.00000000000E+00  0.91188000000E+02  0.91188000000E+02 0.  0.
    9900012    2    3    3    0    0  0.76016527685E+01 -0.18453275841E+02 -0.38539781891E+02  0.47787270717E+02  0.19999998506E+02 0.  0.
         12    1    3    3    0    0 -0.76016527685E+01  0.18453275841E+02  0.38539781891E+02  0.43400729283E+02  0.00000000000E+00 0. -1.
         11    1    4    4    0    0  0.43195005444E+00  0.34346163727E+00  0.15783336605E+01  0.16720299491E+01  0.51100000000E-03 0. -1.
        -11    1    4    4    0    0  0.41000340613E+01 -0.46794848199E+00 -0.64056628871E+01  0.76198275814E+01  0.51100000000E-03 0.  1.
        -12    1    4    4    0    0  0.30696686528E+01 -0.18328788997E+02 -0.33712452665E+02  0.38495413186E+02  0.00000000000E+00 0.  1.
</event>
<event>
 8    1  0.2994958E-010  0.9118800E+02  0.7816164E-02  0.1184000E+00
        -11   -1    0    0    0    0  0.00000000000E+00  0.00000000000E+00  0.45593999997E+02  0.45594000000E+02  0.51100000000E-03 0. -1.
         11   -1    0    0    0    0 -0.00000000000E+00 -0.00000000000E+00 -0.45593999997E+02  0.45594000000E+02  0.51100000000E-03 0.  1.
         23    2    1    2    0    0  0.00000000000E+00  0.00000000000E+00  0.00000000000E+00  0.91188000000E+02  0.91188000000E+02 0.  0.
    9900012    2    3    3    0    0  0.15925171648E+02 -0.18280085560E+02  0.35997927980E+02  0.47787269143E+02  0.19999991330E+02 0.  0.
        -12    1    3    3    0    0 -0.15925171648E+02  0.18280085560E+02 -0.35997927980E+02  0.43400730857E+02  0.00000000000E+00 0.  1.
         11    1    4    4    0    0  0.15200338892E+02 -0.51127540348E+01  0.13097459488E+02  0.20705892918E+02  0.51100000000E-03 0. -1.
        -11    1    4    4    0    0 -0.23949560688E+00 -0.19805717491E+01  0.55061461277E+00  0.20695891650E+01  0.51100000000E-03 0.  1.
         12    1    4    4    0    0  0.96432836309E+00 -0.11186759776E+02  0.22349853879E+02  0.25011787059E+02  0.00000000000E+00 0. -1.
</event>
<event>
 8    1  0.2994958E-010  0.9118800E+02  0.7816164E-02  0.1184000E+00
        -11   -1    0    0    0    0  0.00000000000E+00  0.00000000000E+00  0.45593999997E+02  0.45594000000E+02  0.51100000000E-03 0. -1.
         11   -1    0    0    0    0 -0.00000000000E+00 -0.00000000000E+00 -0.45593999997E+02  0.45594000000E+02  0.51100000000E-03 0.  1.
         23    2    1    2    0    0  0.35527136788E-14  0.00000000000E+00  0.00000000000E+00  0.91188000000E+02  0.91188000000E+02 0.  0.
    9900012    2    3    3    0    0  0.27468524858E+02  0.12222601211E+02 -0.31300344428E+02  0.47787269597E+02  0.19999993399E+02 0.  0.
         12    1    3    3    0    0 -0.27468524858E+02 -0.12222601211E+02  0.31300344428E+02  0.43400730403E+02  0.00000000000E+00 0. -1.
         11    1    4    4    0    0  0.78580570437E+00  0.33182563123E+00  0.17253157367E+01  0.19246593223E+01  0.51100000000E-03 0. -1.
        -11    1    4    4    0    0  0.67387670656E+01  0.96254956418E+01 -0.12327956444E+02  0.17030550732E+02  0.51100000000E-03 0.  1.
        -12    1    4    4    0    0  0.19943952088E+02  0.22652799378E+01 -0.20697703721E+02  0.28832059542E+02  0.00000000000E+00 0.  1.
</event>
<event>
 8    1  0.2994958E-010  0.9118800E+02  0.7816164E-02  0.1184000E+00
        -11   -1    0    0    0    0  0.00000000000E+00  0.00000000000E+00  0.45593999997E+02  0.45594000000E+02  0.51100000000E-03 0. -1.
         11   -1    0    0    0    0 -0.00000000000E+00 -0.00000000000E+00 -0.45593999997E+02  0.45594000000E+02  0.51100000000E-03 0.  1.
         23    2    1    2    0    0  0.00000000000E+00  0.35527136788E-14  0.00000000000E+00  0.91188000000E+02  0.91188000000E+02 0.  0.
    9900012    2    3    3    0    0 -0.12887959798E+02 -0.16875704345E+02  0.37851475562E+02  0.47787272965E+02  0.20000008759E+02 0.  0.
        -12    1    3    3    0    0  0.12887959798E+02  0.16875704345E+02 -0.37851475562E+02  0.43400727035E+02  0.00000000000E+00 0.  1.
         11    1    4    4    0    0 -0.74193303599E+01 -0.15336727417E+01  0.10753295796E+02  0.13154162299E+02  0.51100000000E-03 0. -1.
        -11    1    4    4    0    0 -0.80402445024E+01 -0.31303722638E+01  0.76828040773E+01  0.11552932135E+02  0.51100000000E-03 0.  1.
        -12    1    4    4    0    0  0.25716150643E+01 -0.12211659340E+02  0.19415375689E+02  0.23080178531E+02  0.00000000000E+00 0.  1.
</event>
<event>
 8    1  0.2994958E-010  0.9118800E+02  0.7816164E-02  0.1184000E+00
        -11   -1    0    0    0    0  0.00000000000E+00  0.00000000000E+00  0.45593999997E+02  0.45594000000E+02  0.51100000000E-03 0. -1.
         11   -1    0    0    0    0 -0.00000000000E+00 -0.00000000000E+00 -0.45593999997E+02  0.45594000000E+02  0.51100000000E-03 0.  1.
         23    2    1    2    0    0  0.00000000000E+00 -0.88817841970E-15  0.14210854715E-13  0.91188000000E+02  0.91188000000E+02 0.  0.
    9900012    2    3    3    0    0  0.29780265034E+01  0.76833232675E+01 -0.42611277406E+02  0.47787273503E+02  0.20000011210E+02 0.  0.
         12    1    3    3    0    0 -0.29780265034E+01 -0.76833232675E+01  0.42611277406E+02  0.43400726497E+02  0.00000000000E+00 0. -1.
         11    1    4    4    0    0  0.44088774787E+01  0.72568331850E+01 -0.24776544314E+02  0.26191162191E+02  0.51100000000E-03 0. -1.
        -11    1    4    4    0    0  0.10298126982E+01  0.59778683709E+01 -0.97896479476E+01  0.11516624143E+02  0.51100000000E-03 0.  1.
        -12    1    4    4    0    0 -0.24606636735E+01 -0.55513782884E+01 -0.80450851440E+01  0.10079487169E+02  0.00000000000E+00 0.  1.
</event>
<event>
 8    1  0.2994958E-010  0.9118800E+02  0.7816164E-02  0.1184000E+00
        -11   -1    0    0    0    0  0.00000000000E+00  0.00000000000E+00  0.45593999997E+02  0.45594000000E+02  0.51100000000E-03 0. -1.
         11   -1    0    0    0    0 -0.00000000000E+00 -0.00000000000E+00 -0.45593999997E+02  0.45594000000E+02  0.51100000000E-03 0.  1.
         23    2    1    2    0    0 -0.35527136788E-14  0.00000000000E+00  0.00000000000E+00  0.91188000000E+02  0.91188000000E+02 0.  0.
    9900012    2    3    3    0    0 -0.28657248328E+02  0.71966110714E+01  0.31789833849E+02  0.47787278476E+02  0.20000033885E+02 0.  0.
        -12    1    3    3    0    0  0.28657248328E+02 -0.71966110714E+01 -0.31789833849E+02  0.43400721524E+02  0.00000000000E+00 0.  1.
         11    1    4    4    0    0 -0.72697908303E+01  0.45743648573E+01  0.25029606600E+01  0.89464789102E+01  0.51100000000E-03 0. -1.
        -11    1    4    4    0    0 -0.90319394245E+01 -0.54993955967E+01  0.14329885649E+02  0.17809124197E+02  0.51100000000E-03 0.  1.
         12    1    4    4    0    0 -0.12355518073E+02  0.81216418108E+01  0.14956987540E+02  0.21031675369E+02  0.00000000000E+00 0. -1.
</event>
<event>
 8    1  0.2994958E-010  0.9118800E+02  0.7816164E-02  0.1184000E+00
        -11   -1    0    0    0    0  0.00000000000E+00  0.00000000000E+00  0.45593999997E+02  0.45594000000E+02  0.51100000000E-03 0. -1.
         11   -1    0    0    0    0 -0.00000000000E+00 -0.00000000000E+00 -0.45593999997E+02  0.45594000000E+02  0.51100000000E-03 0.  1.
         23    2    1    2    0    0  0.35527136788E-14  0.00000000000E+00  0.35527136788E-14  0.91188000000E+02  0.91188000000E+02 0.  0.
    9900012    2    3    3    0    0 -0.29827892752E+02  0.16274160419E+02  0.27001328858E+02  0.47787271395E+02  0.20000001597E+02 0.  0.
        -12    1    3    3    0    0  0.29827892752E+02 -0.16274160419E+02 -0.27001328858E+02  0.43400728605E+02  0.00000000000E+00 0.  1.
         11    1    4    4    0    0 -0.25809481249E+01 -0.47726183016E+00  0.20743269203E+01  0.33454303925E+01  0.51100000000E-03 0. -1.
        -11    1    4    4    0    0  0.42424961239E+00  0.76451388430E+01  0.54871848956E+01  0.94200495753E+01  0.51100000000E-03 0.  1.
         12    1    4    4    0    0 -0.27671194240E+02  0.91062834062E+01  0.19439817042E+02  0.35021791427E+02  0.00000000000E+00 0. -1.
</event>
<event>
 8    1  0.2994958E-010  0.9118800E+02  0.7816164E-02  0.1184000E+00
        -11   -1    0    0    0    0  0.00000000000E+00  0.00000000000E+00  0.45593999997E+02  0.45594000000E+02  0.51100000000E-03 0. -1.
         11   -1    0    0    0    0 -0.00000000000E+00 -0.00000000000E+00 -0.45593999997E+02  0.45594000000E+02  0.51100000000E-03 0.  1.
         23    2    1    2    0    0  0.55511151231E-15 -0.35527136788E-14  0.00000000000E+00  0.91188000000E+02  0.91188000000E+02 0.  0.
    9900012    2    3    3    0    0  0.82153815679E+00 -0.25063717176E+02 -0.35422571863E+02  0.47787269119E+02  0.19999991221E+02 0.  0.
         12    1    3    3    0    0 -0.82153815679E+00  0.25063717176E+02  0.35422571863E+02  0.43400730881E+02  0.00000000000E+00 0. -1.
         11    1    4    4    0    0  0.20538202436E+01 -0.84269995490E+00 -0.11611544224E+02  0.11821856044E+02  0.51100000000E-03 0. -1.
        -11    1    4    4    0    0  0.78688110222E+00  0.12100583769E+01 -0.12733246745E+01  0.19247802816E+01  0.51100000000E-03 0.  1.
        -12    1    4    4    0    0 -0.20191631890E+01 -0.25431075598E+02 -0.22537702965E+02  0.34040632793E+02  0.00000000000E+00 0.  1.
</event>
<event>
 8    1  0.2994958E-010  0.9118800E+02  0.7816164E-02  0.1184000E+00
        -11   -1    0    0    0    0  0.00000000000E+00  0.00000000000E+00  0.45593999997E+02  0.45594000000E+02  0.51100000000E-03 0. -1.
         11   -1    0    0    0    0 -0.00000000000E+00 -0.00000000000E+00 -0.45593999997E+02  0.45594000000E+02  0.51100000000E-03 0.  1.
         23    2    1    2    0    0  0.35527136788E-14  0.88817841970E-15  0.00000000000E+00  0.91188000000E+02  0.91188000000E+02 0.  0.
    9900012    2    3    3    0    0 -0.16679213220E+02  0.76202339101E+01 -0.39336485637E+02  0.47787271657E+02  0.20000002793E+02 0.  0.
         12    1    3    3    0    0  0.16679213220E+02 -0.76202339101E+01  0.39336485637E+02  0.43400728343E+02  0.00000000000E+00 0. -1.
         11    1    4    4    0    0 -0.10102925662E+02  0.23685076459E+01 -0.14575301771E+02  0.17891851703E+02  0.51100000000E-03 0. -1.
        -11    1    4    4    0    0 -0.62664295014E+01 -0.36220082286E+01 -0.15269480276E+02  0.16898050493E+02  0.51100000000E-03 0.  1.
         12    1    4    4    0    0 -0.30985805652E+00  0.88737344928E+01 -0.94917035893E+01  0.12997369460E+02  0.00000000000E+00 0. -1.
</event>
<event>
 8    1  0.2994958E-010  0.9118800E+02  0.7816164E-02  0.1184000E+00
        -11   -1    0    0    0    0  0.00000000000E+00  0.00000000000E+00  0.45593999997E+02  0.45594000000E+02  0.51100000000E-03 0. -1.
         11   -1    0    0    0    0 -0.00000000000E+00 -0.00000000000E+00 -0.45593999997E+02  0.45594000000E+02  0.51100000000E-03 0.  1.
         23    2    1    2    0    0  0.00000000000E+00  0.00000000000E+00  0.35527136788E-14  0.91188000000E+02  0.91188000000E+02 0.  0.
    9900012    2    3    3    0    0  0.13944768202E+02  0.31858145753E+02  0.25965848382E+02  0.47787270822E+02  0.19999998984E+02 0.  0.
        -12    1    3    3    0    0 -0.13944768202E+02 -0.31858145753E+02 -0.25965848382E+02  0.43400729178E+02  0.00000000000E+00 0.  1.
         11    1    4    4    0    0  0.96053039744E-01  0.38113363759E+01  0.71202017447E+01  0.80766815155E+01  0.51100000000E-03 0. -1.
        -11    1    4    4    0    0  0.35427011844E+01 -0.10153383577E+01  0.23188782534E+00  0.36926164013E+01  0.51100000000E-03 0.  1.
         12    1    4    4    0    0  0.10306013978E+02  0.29062147735E+02  0.18613758812E+02  0.36017972905E+02  0.00000000000E+00 0. -1.
</event>
<event>
 8    1  0.2994958E-010  0.9118800E+02  0.7816164E-02  0.1184000E+00
        -11   -1    0    0    0    0  0.00000000000E+00  0.00000000000E+00  0.45593999997E+02  0.45594000000E+02  0.51100000000E-03 0. -1.
         11   -1    0    0    0    0 -0.00000000000E+00 -0.00000000000E+00 -0.45593999997E+02  0.45594000000E+02  0.51100000000E-03 0.  1.
         23    2    1    2    0    0  0.44408920985E-15 -0.71054273576E-14  0.35527136788E-14  0.91188000000E+02  0.91188000000E+02 0.  0.
    9900012    2    3    3    0    0  0.39797015342E+01  0.39055574734E+02 -0.18505323374E+02  0.47787274945E+02  0.20000017783E+02 0.  0.
         12    1    3    3    0    0 -0.39797015342E+01 -0.39055574734E+02  0.18505323374E+02  0.43400725055E+02  0.00000000000E+00 0. -1.
         11    1    4    4    0    0 -0.50642562337E+01  0.24427094572E+01 -0.20675065107E+01  0.59906680868E+01  0.51100000000E-03 0. -1.
        -11    1    4    4    0    0  0.19520371704E+01  0.78512436986E+01 -0.37529937238E+00  0.80989707130E+01  0.51100000000E-03 0.  1.
        -12    1    4    4    0    0  0.70919205975E+01  0.28761621579E+02 -0.16062517491E+02  0.33697636145E+02  0.00000000000E+00 0.  1.
</event>
<event>
 8    1  0.2994958E-010  0.9118800E+02  0.7816164E-02  0.1184000E+00
        -11   -1    0    0    0    0  0.00000000000E+00  0.00000000000E+00  0.45593999997E+02  0.45594000000E+02  0.51100000000E-03 0. -1.
         11   -1    0    0    0    0 -0.00000000000E+00 -0.00000000000E+00 -0.45593999997E+02  0.45594000000E+02  0.51100000000E-03 0.  1.
         23    2    1    2    0    0  0.00000000000E+00 -0.71054273576E-14  0.00000000000E+00  0.91188000000E+02  0.91188000000E+02 0.  0.
    9900012    2    3    3    0    0 -0.17980903101E+02  0.37370420162E+02  0.12796966492E+02  0.47787268085E+02  0.19999986505E+02 0.  0.
        -12    1    3    3    0    0  0.17980903101E+02 -0.37370420162E+02 -0.12796966492E+02  0.43400731915E+02  0.00000000000E+00 0.  1.
         11    1    4    4    0    0  0.17467994692E+00  0.33062328721E+01 -0.34828395863E+01  0.48053991232E+01  0.51100000000E-03 0. -1.
        -11    1    4    4    0    0 -0.36364100693E+01  0.38820239399E+01  0.58408589800E+01  0.78999507560E+01  0.51100000000E-03 0.  1.
         12    1    4    4    0    0 -0.14519172979E+02  0.30182163350E+02  0.10438947098E+02  0.35081918205E+02  0.00000000000E+00 0. -1.
</event>
<event>
 8    1  0.2994958E-010  0.9118800E+02  0.7816164E-02  0.1184000E+00
        -11   -1    0    0    0    0  0.00000000000E+00  0.00000000000E+00  0.45593999997E+02  0.45594000000E+02  0.51100000000E-03 0. -1.
         11   -1    0    0    0    0 -0.00000000000E+00 -0.00000000000E+00 -0.45593999997E+02  0.45594000000E+02  0.51100000000E-03 0.  1.
         23    2    1    2    0    0 -0.17763568394E-14 -0.88817841970E-15  0.71054273576E-14  0.91188000000E+02  0.91188000000E+02 0.  0.
    9900012    2    3    3    0    0 -0.94141460361E+01 -0.43761682599E+01  0.42140773666E+02  0.47787288031E+02  0.20000077449E+02 0.  0.
        -12    1    3    3    0    0  0.94141460361E+01  0.43761682599E+01 -0.42140773666E+02  0.43400711969E+02  0.00000000000E+00 0.  1.
         11    1    4    4    0    0 -0.19363072385E+01 -0.41122848112E+01  0.92726218251E+01  0.10326746238E+02  0.51100000000E-03 0. -1.
        -11    1    4    4    0    0 -0.99463750733E+00 -0.73605921786E+01  0.20448577684E+02  0.21755733739E+02  0.51100000000E-03 0.  1.
         12    1    4    4    0    0 -0.64832012902E+01  0.70967087299E+01  0.12419574157E+02  0.15704808054E+02  0.00000000000E+00 0. -1.
</event>
<event>
 8    1  0.2994958E-010  0.9118800E+02  0.7816164E-02  0.1184000E+00
        -11   -1    0    0    0    0  0.00000000000E+00  0.00000000000E+00  0.45593999997E+02  0.45594000000E+02  0.51100000000E-03 0. -1.
         11   -1    0    0    0    0 -0.00000000000E+00 -0.00000000000E+00 -0.45593999997E+02  0.45594000000E+02  0.51100000000E-03 0.  1.
         23    2    1    2    0    0 -0.35527136788E-14  0.00000000000E+00 -0.35527136788E-14  0.91188000000E+02  0.91188000000E+02 0.  0.
    9900012    2    3    3    0    0 -0.19531477011E+02  0.25358350383E+02  0.29310383675E+02  0.47787272822E+02  0.20000008106E+02 0.  0.
        -12    1    3    3    0    0  0.19531477011E+02 -0.25358350383E+02 -0.29310383675E+02  0.43400727178E+02  0.00000000000E+00 0.  1.
         11    1    4    4    0    0 -0.25860217673E+01  0.30989877378E+01  0.12748359748E+00  0.40382528287E+01  0.51100000000E-03 0.  1.
        -11    1    4    4    0    0 -0.10406986097E+02  0.87642978254E+01  0.35653047791E+01  0.14065193721E+02  0.51100000000E-03 0. -1.
        -12    1    4    4    0    0 -0.65384691472E+01  0.13495064819E+02  0.25617595299E+02  0.29683826272E+02  0.00000000000E+00 0.  1.
</event>
<event>
 8    1  0.2994958E-010  0.9118800E+02  0.7816164E-02  0.1184000E+00
        -11   -1    0    0    0    0  0.00000000000E+00  0.00000000000E+00  0.45593999997E+02  0.45594000000E+02  0.51100000000E-03 0. -1.
         11   -1    0    0    0    0 -0.00000000000E+00 -0.00000000000E+00 -0.45593999997E+02  0.45594000000E+02  0.51100000000E-03 0.  1.
         23    2    1    2    0    0 -0.17763568394E-14 -0.35527136788E-14  0.00000000000E+00  0.91188000000E+02  0.91188000000E+02 0.  0.
    9900012    2    3    3    0    0 -0.15663232184E+02 -0.21512565968E+02 -0.34285504462E+02  0.47787272435E+02  0.20000006340E+02 0.  0.
         12    1    3    3    0    0  0.15663232184E+02  0.21512565968E+02  0.34285504462E+02  0.43400727565E+02  0.00000000000E+00 0. -1.
         11    1    4    4    0    0  0.76918520598E+00 -0.69614219603E+01 -0.10343385724E+02  0.12491543943E+02  0.51100000000E-03 0. -1.
        -11    1    4    4    0    0 -0.70727055449E+01 -0.13778219773E+02 -0.19512748203E+02  0.24912042199E+02  0.51100000000E-03 0.  1.
         12    1    4    4    0    0 -0.93597118452E+01 -0.77292423478E+00 -0.44293705355E+01  0.10383686293E+02  0.00000000000E+00 0. -1.
</event>
<event>
 8    1  0.2994958E-010  0.9118800E+02  0.7816164E-02  0.1184000E+00
        -11   -1    0    0    0    0  0.00000000000E+00  0.00000000000E+00  0.45593999997E+02  0.45594000000E+02  0.51100000000E-03 0. -1.
         11   -1    0    0    0    0 -0.00000000000E+00 -0.00000000000E+00 -0.45593999997E+02  0.45594000000E+02  0.51100000000E-03 0.  1.
         23    2    1    2    0    0  0.35527136788E-14 -0.35527136788E-14  0.00000000000E+00  0.91188000000E+02  0.91188000000E+02 0.  0.
    9900012    2    3    3    0    0  0.26247844693E+02 -0.30676412741E+02 -0.15925797859E+02  0.47787277804E+02  0.20000030819E+02 0.  0.
         12    1    3    3    0    0 -0.26247844693E+02  0.30676412741E+02  0.15925797859E+02  0.43400722196E+02  0.00000000000E+00 0. -1.
         11    1    4    4    0    0  0.72917842581E+00 -0.57377920287E+01 -0.25885283558E+01  0.63367529423E+01  0.51100000000E-03 0. -1.
        -11    1    4    4    0    0  0.20577757981E+02 -0.22241170424E+02 -0.40216008927E+01  0.30566109654E+02  0.51100000000E-03 0.  1.
        -12    1    4    4    0    0  0.49409082860E+01 -0.26974502881E+01 -0.93156686106E+01  0.10884415208E+02  0.00000000000E+00 0.  1.
</event>
<event>
 8    1  0.2994958E-010  0.9118800E+02  0.7816164E-02  0.1184000E+00
        -11   -1    0    0    0    0  0.00000000000E+00  0.00000000000E+00  0.45593999997E+02  0.45594000000E+02  0.51100000000E-03 0.  1.
         11   -1    0    0    0    0 -0.00000000000E+00 -0.00000000000E+00 -0.45593999997E+02  0.45594000000E+02  0.51100000000E-03 0. -1.
         23    2    1    2    0    0  0.00000000000E+00  0.44408920985E-15  0.00000000000E+00  0.91188000000E+02  0.91188000000E+02 0.  0.
    9900012    2    3    3    0    0 -0.35225963180E+02 -0.21748908050E+01 -0.25259156738E+02  0.47787266929E+02  0.19999981235E+02 0.  0.
         12    1    3    3    0    0  0.35225963180E+02  0.21748908050E+01  0.25259156738E+02  0.43400733071E+02  0.00000000000E+00 0. -1.
         11    1    4    4    0    0 -0.28431513226E+01  0.39098480589E+01 -0.82753180065E+01  0.95839088924E+01  0.51100000000E-03 0. -1.
        -11    1    4    4    0    0 -0.90469108447E+01  0.18785734772E+01 -0.23631725070E+01  0.95373066796E+01  0.51100000000E-03 0.  1.
         12    1    4    4    0    0 -0.23335901013E+02 -0.79633123412E+01 -0.14620666225E+02  0.28666051357E+02  0.00000000000E+00 0. -1.
</event>
<event>
 8    1  0.2994958E-010  0.9118800E+02  0.7816164E-02  0.1184000E+00
        -11   -1    0    0    0    0  0.00000000000E+00  0.00000000000E+00  0.45593999997E+02  0.45594000000E+02  0.51100000000E-03 0. -1.
         11   -1    0    0    0    0 -0.00000000000E+00 -0.00000000000E+00 -0.45593999997E+02  0.45594000000E+02  0.51100000000E-03 0.  1.
         23    2    1    2    0    0  0.00000000000E+00  0.00000000000E+00  0.00000000000E+00  0.91188000000E+02  0.91188000000E+02 0.  0.
    9900012    2    3    3    0    0  0.97632211947E+01  0.23767186621E+02 -0.34977473251E+02  0.47787270939E+02  0.19999999520E+02 0.  0.
         12    1    3    3    0    0 -0.97632211947E+01 -0.23767186621E+02  0.34977473251E+02  0.43400729061E+02  0.00000000000E+00 0. -1.
         11    1    4    4    0    0 -0.14989983410E+01  0.27411477277E+01 -0.50188766453E+01  0.59118533417E+01  0.51100000000E-03 0. -1.
        -11    1    4    4    0    0  0.70815411295E+00  0.11702595489E+02 -0.23747945848E+02  0.26484281295E+02  0.51100000000E-03 0.  1.
         12    1    4    4    0    0  0.10554065423E+02  0.93234434039E+01 -0.62106507576E+01  0.15391136303E+02  0.00000000000E+00 0. -1.
</event>
<event>
 8    1  0.2994958E-010  0.9118800E+02  0.7816164E-02  0.1184000E+00
        -11   -1    0    0    0    0  0.00000000000E+00  0.00000000000E+00  0.45593999997E+02  0.45594000000E+02  0.51100000000E-03 0.  1.
         11   -1    0    0    0    0 -0.00000000000E+00 -0.00000000000E+00 -0.45593999997E+02  0.45594000000E+02  0.51100000000E-03 0. -1.
         23    2    1    2    0    0  0.44408920985E-15  0.00000000000E+00  0.88817841970E-15  0.91188000000E+02  0.91188000000E+02 0.  0.
    9900012    2    3    3    0    0 -0.17230138022E+01  0.43009419460E+02  0.55538936766E+01  0.47787254916E+02  0.19999926465E+02 0.  0.
        -12    1    3    3    0    0  0.17230138022E+01 -0.43009419460E+02 -0.55538936766E+01  0.43400745084E+02  0.00000000000E+00 0.  1.
         11    1    4    4    0    0  0.70056581266E+00  0.27447821295E+02  0.20527983312E+01  0.27533391864E+02  0.51100000000E-03 0. -1.
        -11    1    4    4    0    0  0.43507355508E+01  0.27698580758E+01  0.25347900653E+01  0.57468403953E+01  0.51100000000E-03 0.  1.
        -12    1    4    4    0    0 -0.67743151656E+01  0.12791740090E+02  0.96630528008E+00  0.14507022657E+02  0.00000000000E+00 0.  1.
</event>
<event>
 8    1  0.2994958E-010  0.9118800E+02  0.7816164E-02  0.1184000E+00
        -11   -1    0    0    0    0  0.00000000000E+00  0.00000000000E+00  0.45593999997E+02  0.45594000000E+02  0.51100000000E-03 0. -1.
         11   -1    0    0    0    0 -0.00000000000E+00 -0.00000000000E+00 -0.45593999997E+02  0.45594000000E+02  0.51100000000E-03 0.  1.
         23    2    1    2    0    0  0.00000000000E+00 -0.17763568394E-14  0.00000000000E+00  0.91188000000E+02  0.91188000000E+02 0.  0.
    9900012    2    3    3    0    0 -0.33176432517E+02  0.83655257909E+01  0.26701410513E+02  0.47787273973E+02  0.20000013353E+02 0.  0.
        -12    1    3    3    0    0  0.33176432517E+02 -0.83655257909E+01 -0.26701410513E+02  0.43400726027E+02  0.00000000000E+00 0.  1.
         11    1    4    4    0    0 -0.47491321381E+01  0.53883854269E+01  0.67566840561E+01  0.98611223129E+01  0.51100000000E-03 0. -1.
        -11    1    4    4    0    0 -0.67232324643E+01 -0.32461391608E+01  0.11720343173E+02  0.13896248363E+02  0.51100000000E-03 0.  1.
         12    1    4    4    0    0 -0.21704067914E+02  0.62232795248E+01  0.82243832840E+01  0.24029903297E+02  0.00000000000E+00 0. -1.
</event>
<event>
 8    1  0.2994958E-010  0.9118800E+02  0.7816164E-02  0.1184000E+00
        -11   -1    0    0    0    0  0.00000000000E+00  0.00000000000E+00  0.45593999997E+02  0.45594000000E+02  0.51100000000E-03 0. -1.
         11   -1    0    0    0    0 -0.00000000000E+00 -0.00000000000E+00 -0.45593999997E+02  0.45594000000E+02  0.51100000000E-03 0.  1.
         23    2    1    2    0    0  0.00000000000E+00  0.00000000000E+00  0.00000000000E+00  0.91188000000E+02  0.91188000000E+02 0.  0.
    9900012    2    3    3    0    0 -0.35449089672E+02  0.13002169293E+02 -0.21399260323E+02  0.47787277572E+02  0.20000029760E+02 0.  0.
         12    1    3    3    0    0  0.35449089672E+02 -0.13002169293E+02  0.21399260323E+02  0.43400722428E+02  0.00000000000E+00 0. -1.
         11    1    4    4    0    0 -0.44992625068E+01 -0.26248551712E+01 -0.23600715869E+00  0.52143002805E+01  0.51100000000E-03 0. -1.
        -11    1    4    4    0    0 -0.61460272552E+00  0.45947256100E+01 -0.31925911543E+01  0.56286657817E+01  0.51100000000E-03 0.  1.
        -12    1    4    4    0    0 -0.30335224440E+02  0.11032298855E+02 -0.17970662010E+02  0.36944311510E+02  0.00000000000E+00 0.  1.
</event>
<event>
 8    1  0.2994958E-010  0.9118800E+02  0.7816164E-02  0.1184000E+00
        -11   -1    0    0    0    0  0.00000000000E+00  0.00000000000E+00  0.45593999997E+02  0.45594000000E+02  0.51100000000E-03 0. -1.
         11   -1    0    0    0    0 -0.00000000000E+00 -0.00000000000E+00 -0.45593999997E+02  0.45594000000E+02  0.51100000000E-03 0.  1.
         23    2    1    2    0    0 -0.17763568394E-14  0.00000000000E+00  0.71054273576E-14  0.91188000000E+02  0.91188000000E+02 0.  0.
    9900012    2    3    3    0    0 -0.77341670273E+01 -0.27980314956E+02 -0.32263106962E+02  0.47787269183E+02  0.19999991511E+02 0.  0.
         12    1    3    3    0    0  0.77341670273E+01  0.27980314956E+02  0.32263106962E+02  0.43400730817E+02  0.00000000000E+00 0. -1.
         11    1    4    4    0    0 -0.30775749463E+01 -0.45761125457E+01 -0.16984380194E+02  0.17857251871E+02  0.51100000000E-03 0. -1.
        -11    1    4    4    0    0 -0.59186328293E+01 -0.65994532963E+01 -0.58268468667E+01  0.10608258248E+02  0.51100000000E-03 0.  1.
         12    1    4    4    0    0  0.12620407483E+01 -0.16804749114E+02 -0.94518799020E+01  0.19321759064E+02  0.00000000000E+00 0. -1.
</event>
<event>
 8    1  0.2994958E-010  0.9118800E+02  0.7816164E-02  0.1184000E+00
        -11   -1    0    0    0    0  0.00000000000E+00  0.00000000000E+00  0.45593999997E+02  0.45594000000E+02  0.51100000000E-03 0. -1.
         11   -1    0    0    0    0 -0.00000000000E+00 -0.00000000000E+00 -0.45593999997E+02  0.45594000000E+02  0.51100000000E-03 0.  1.
         23    2    1    2    0    0  0.00000000000E+00  0.00000000000E+00  0.00000000000E+00  0.91188000000E+02  0.91188000000E+02 0.  0.
    9900012    2    3    3    0    0  0.89392619125E+01  0.19543935726E+02  0.37706065289E+02  0.47787272048E+02  0.20000004575E+02 0.  0.
        -12    1    3    3    0    0 -0.89392619125E+01 -0.19543935726E+02 -0.37706065289E+02  0.43400727952E+02  0.00000000000E+00 0.  1.
         11    1    4    4    0    0  0.91501994294E+01  0.42605906041E+01  0.21687516788E+02  0.23921270171E+02  0.51100000000E-03 0. -1.
        -11    1    4    4    0    0 -0.22796959370E+01  0.22696898847E-01  0.23624370893E+01  0.32830836079E+01  0.51100000000E-03 0.  1.
        -12    1    4    4    0    0  0.20687584202E+01  0.15260648223E+02  0.13656111412E+02  0.20582918269E+02  0.00000000000E+00 0.  1.
</event>
<event>
 8    1  0.2994958E-010  0.9118800E+02  0.7816164E-02  0.1184000E+00
        -11   -1    0    0    0    0  0.00000000000E+00  0.00000000000E+00  0.45593999997E+02  0.45594000000E+02  0.51100000000E-03 0. -1.
         11   -1    0    0    0    0 -0.00000000000E+00 -0.00000000000E+00 -0.45593999997E+02  0.45594000000E+02  0.51100000000E-03 0.  1.
         23    2    1    2    0    0 -0.35527136788E-14 -0.35527136788E-14  0.71054273576E-14  0.91188000000E+02  0.91188000000E+02 0.  0.
    9900012    2    3    3    0    0  0.17702767331E+02  0.21609946051E+02 -0.33215153274E+02  0.47787260991E+02  0.19999954163E+02 0.  0.
         12    1    3    3    0    0 -0.17702767331E+02 -0.21609946051E+02  0.33215153274E+02  0.43400739009E+02  0.00000000000E+00 0. -1.
         11    1    4    4    0    0  0.20913567571E+02  0.22413640941E+02 -0.27646024378E+02  0.41280155922E+02  0.51100000000E-03 0.  1.
        -11    1    4    4    0    0 -0.24125870636E+00 -0.52091137079E-01 -0.17047698630E+00  0.29996985505E+00  0.51100000000E-03 0. -1.
        -12    1    4    4    0    0 -0.29695415336E+01 -0.75160375326E+00 -0.53986519100E+01  0.62071352142E+01  0.00000000000E+00 0.  1.
</event>
<event>
 8    1  0.2994958E-010  0.9118800E+02  0.7816164E-02  0.1184000E+00
        -11   -1    0    0    0    0  0.00000000000E+00  0.00000000000E+00  0.45593999997E+02  0.45594000000E+02  0.51100000000E-03 0. -1.
         11   -1    0    0    0    0 -0.00000000000E+00 -0.00000000000E+00 -0.45593999997E+02  0.45594000000E+02  0.51100000000E-03 0.  1.
         23    2    1    2    0    0  0.00000000000E+00  0.00000000000E+00  0.00000000000E+00  0.91188000000E+02  0.91188000000E+02 0.  0.
    9900012    2    3    3    0    0 -0.12772528608E+02  0.17719317446E+02 -0.37503485456E+02  0.47787272827E+02  0.20000008130E+02 0.  0.
         12    1    3    3    0    0  0.12772528608E+02 -0.17719317446E+02  0.37503485456E+02  0.43400727173E+02  0.00000000000E+00 0. -1.
         11    1    4    4    0    0  0.75326535559E+00  0.96361821317E+01 -0.18568300536E+02  0.20933351376E+02  0.51100000000E-03 0. -1.
        -11    1    4    4    0    0  0.12836352502E+01 -0.75401370864E+00 -0.31089258608E+01  0.34469807654E+01  0.51100000000E-03 0.  1.
         12    1    4    4    0    0 -0.14809429214E+02  0.88371490225E+01 -0.15826259059E+02  0.23406940686E+02  0.00000000000E+00 0. -1.
</event>
<event>
 8    1  0.2994958E-010  0.9118800E+02  0.7816164E-02  0.1184000E+00
        -11   -1    0    0    0    0  0.00000000000E+00  0.00000000000E+00  0.45593999997E+02  0.45594000000E+02  0.51100000000E-03 0. -1.
         11   -1    0    0    0    0 -0.00000000000E+00 -0.00000000000E+00 -0.45593999997E+02  0.45594000000E+02  0.51100000000E-03 0.  1.
         23    2    1    2    0    0  0.17763568394E-14 -0.88817841970E-15  0.71054273576E-14  0.91188000000E+02  0.91188000000E+02 0.  0.
    9900012    2    3    3    0    0 -0.10774027219E+02  0.69465427383E+01 -0.41464313296E+02  0.47787269642E+02  0.19999993603E+02 0.  0.
         12    1    3    3    0    0  0.10774027219E+02 -0.69465427383E+01  0.41464313296E+02  0.43400730358E+02  0.00000000000E+00 0. -1.
         11    1    4    4    0    0 -0.73266650390E+01  0.65662768595E+00 -0.15185969657E+02  0.16873791963E+02  0.51100000000E-03 0. -1.
        -11    1    4    4    0    0 -0.90759089233E+01  0.47627349939E+01 -0.18984547138E+02  0.21574725901E+02  0.51100000000E-03 0.  1.
         12    1    4    4    0    0  0.56285467432E+01  0.15271800584E+01 -0.72937965010E+01  0.93387517779E+01  0.00000000000E+00 0. -1.
</event>
<event>
 8    1  0.2994958E-010  0.9118800E+02  0.7816164E-02  0.1184000E+00
        -11   -1    0    0    0    0  0.00000000000E+00  0.00000000000E+00  0.45593999997E+02  0.45594000000E+02  0.51100000000E-03 0. -1.
         11   -1    0    0    0    0 -0.00000000000E+00 -0.00000000000E+00 -0.45593999997E+02  0.45594000000E+02  0.51100000000E-03 0.  1.
         23    2    1    2    0    0  0.00000000000E+00  0.00000000000E+00  0.00000000000E+00  0.91188000000E+02  0.91188000000E+02 0.  0.
    9900012    2    3    3    0    0  0.13779626227E+02  0.40362070804E+02  0.80404299152E+01  0.47787269916E+02  0.19999994856E+02 0.  0.
        -12    1    3    3    0    0 -0.13779626227E+02 -0.40362070804E+02 -0.80404299152E+01  0.43400730084E+02  0.00000000000E+00 0.  1.
         11    1    4    4    0    0  0.92827927248E+01  0.21820591373E+02  0.10604987210E+02  0.25976416277E+02  0.51100000000E-03 0. -1.
        -11    1    4    4    0    0  0.67516807041E+01  0.69385260815E+01  0.15262271935E+00  0.96825425622E+01  0.51100000000E-03 0.  1.
        -12    1    4    4    0    0 -0.22548472015E+01  0.11602953350E+02 -0.27171800141E+01  0.12128311077E+02  0.00000000000E+00 0.  1.
</event>
<event>
 8    1  0.2994958E-010  0.9118800E+02  0.7816164E-02  0.1184000E+00
        -11   -1    0    0    0    0  0.00000000000E+00  0.00000000000E+00  0.45593999997E+02  0.45594000000E+02  0.51100000000E-03 0. -1.
         11   -1    0    0    0    0 -0.00000000000E+00 -0.00000000000E+00 -0.45593999997E+02  0.45594000000E+02  0.51100000000E-03 0.  1.
         23    2    1    2    0    0  0.00000000000E+00 -0.88817841970E-15  0.00000000000E+00  0.91188000000E+02  0.91188000000E+02 0.  0.
    9900012    2    3    3    0    0  0.20364096268E+02  0.45326131120E+01  0.38057620197E+02  0.47787268975E+02  0.19999990566E+02 0.  0.
        -12    1    3    3    0    0 -0.20364096268E+02 -0.45326131120E+01 -0.38057620197E+02  0.43400731025E+02  0.00000000000E+00 0.  1.
         11    1    4    4    0    0  0.11219835925E+02 -0.63329290577E+01  0.21435529727E+02  0.25009451085E+02  0.51100000000E-03 0.  1.
        -11    1    4    4    0    0  0.45398681426E+01  0.43798788171E+01  0.29579773440E+01  0.69673073302E+01  0.51100000000E-03 0. -1.
        -12    1    4    4    0    0  0.46043921995E+01  0.64856633526E+01  0.13664113126E+02  0.15810510560E+02  0.00000000000E+00 0.  1.
</event>
<event>
 8    1  0.2994958E-010  0.9118800E+02  0.7816164E-02  0.1184000E+00
        -11   -1    0    0    0    0  0.00000000000E+00  0.00000000000E+00  0.45593999997E+02  0.45594000000E+02  0.51100000000E-03 0. -1.
         11   -1    0    0    0    0 -0.00000000000E+00 -0.00000000000E+00 -0.45593999997E+02  0.45594000000E+02  0.51100000000E-03 0.  1.
         23    2    1    2    0    0 -0.62450045135E-15  0.00000000000E+00  0.00000000000E+00  0.91188000000E+02  0.91188000000E+02 0.  0.
    9900012    2    3    3    0    0 -0.10491563077E+00  0.39577495885E+02  0.17811007764E+02  0.47787295105E+02  0.20000109700E+02 0.  0.
        -12    1    3    3    0    0  0.10491563077E+00 -0.39577495885E+02 -0.17811007764E+02  0.43400704895E+02  0.00000000000E+00 0.  1.
         11    1    4    4    0    0  0.24249736280E+00  0.61283045785E+01  0.62334921067E+01  0.87447896534E+01  0.51100000000E-03 0. -1.
        -11    1    4    4    0    0 -0.80187454272E+01  0.11414712353E+02  0.46413399368E+01  0.14701631644E+02  0.51100000000E-03 0.  1.
        -12    1    4    4    0    0  0.76713324336E+01  0.22034478954E+02  0.69361757210E+01  0.24340873807E+02  0.00000000000E+00 0.  1.
</event>
<event>
 8    1  0.2994958E-010  0.9118800E+02  0.7816164E-02  0.1184000E+00
        -11   -1    0    0    0    0  0.00000000000E+00  0.00000000000E+00  0.45593999997E+02  0.45594000000E+02  0.51100000000E-03 0. -1.
         11   -1    0    0    0    0 -0.00000000000E+00 -0.00000000000E+00 -0.45593999997E+02  0.45594000000E+02  0.51100000000E-03 0.  1.
         23    2    1    2    0    0  0.33306690739E-15  0.00000000000E+00 -0.44408920985E-15  0.91188000000E+02  0.91188000000E+02 0.  0.
    9900012    2    3    3    0    0  0.79898077462E+00 -0.43253789770E+02 -0.34777198527E+01  0.47787271491E+02  0.20000002035E+02 0.  0.
         12    1    3    3    0    0 -0.79898077462E+00  0.43253789770E+02  0.34777198527E+01  0.43400728509E+02  0.00000000000E+00 0. -1.
         11    1    4    4    0    0 -0.52863972799E+00 -0.18501002206E+01  0.84743806657E-01  0.19260094917E+01  0.51100000000E-03 0. -1.
        -11    1    4    4    0    0  0.33093644045E+01 -0.39976118404E+02  0.16057540757E+01  0.40144991989E+02  0.51100000000E-03 0.  1.
         12    1    4    4    0    0 -0.19817439019E+01 -0.14275711456E+01 -0.51682177351E+01  0.57162700099E+01  0.00000000000E+00 0. -1.
</event>
<event>
 8    1  0.2994958E-010  0.9118800E+02  0.7816164E-02  0.1184000E+00
        -11   -1    0    0    0    0  0.00000000000E+00  0.00000000000E+00  0.45593999997E+02  0.45594000000E+02  0.51100000000E-03 0. -1.
         11   -1    0    0    0    0 -0.00000000000E+00 -0.00000000000E+00 -0.45593999997E+02  0.45594000000E+02  0.51100000000E-03 0.  1.
         23    2    1    2    0    0  0.00000000000E+00  0.00000000000E+00  0.00000000000E+00  0.91188000000E+02  0.91188000000E+02 0.  0.
    9900012    2    3    3    0    0  0.42218528127E+02 -0.98638500477E+01 -0.19808073081E+01  0.47787271290E+02  0.20000001118E+02 0.  0.
         12    1    3    3    0    0 -0.42218528127E+02  0.98638500477E+01  0.19808073081E+01  0.43400728710E+02  0.00000000000E+00 0. -1.
         11    1    4    4    0    0  0.17798172279E+02 -0.50193228112E+01  0.40056771709E+01  0.18921257564E+02  0.51100000000E-03 0. -1.
        -11    1    4    4    0    0  0.13225194775E+02 -0.14627113825E+00  0.32398766558E+01  0.13617047150E+02  0.51100000000E-03 0.  1.
         12    1    4    4    0    0  0.11195161073E+02 -0.46982560983E+01 -0.92263611348E+01  0.15248966575E+02  0.00000000000E+00 0. -1.
</event>
<event>
 8    1  0.2994958E-010  0.9118800E+02  0.7816164E-02  0.1184000E+00
        -11   -1    0    0    0    0  0.00000000000E+00  0.00000000000E+00  0.45593999997E+02  0.45594000000E+02  0.51100000000E-03 0. -1.
         11   -1    0    0    0    0 -0.00000000000E+00 -0.00000000000E+00 -0.45593999997E+02  0.45594000000E+02  0.51100000000E-03 0.  1.
         23    2    1    2    0    0  0.00000000000E+00  0.00000000000E+00  0.00000000000E+00  0.91188000000E+02  0.91188000000E+02 0.  0.
    9900012    2    3    3    0    0 -0.20586353196E+02  0.13818830680E+02  0.35621138731E+02  0.47787267935E+02  0.19999985822E+02 0.  0.
        -12    1    3    3    0    0  0.20586353196E+02 -0.13818830680E+02 -0.35621138731E+02  0.43400732065E+02  0.00000000000E+00 0.  1.
         11    1    4    4    0    0 -0.41058252584E+00  0.20818462268E+00 -0.14851913156E+01  0.15548994671E+01  0.51100000000E-03 0.  1.
        -11    1    4    4    0    0  0.88926500888E+00 -0.11358853527E+01  0.43868033128E+01  0.46179076817E+01  0.51100000000E-03 0. -1.
        -12    1    4    4    0    0 -0.21065035679E+02  0.14746531410E+02  0.32719526734E+02  0.41614460786E+02  0.00000000000E+00 0.  1.
</event>
<event>
 8    1  0.2994958E-010  0.9118800E+02  0.7816164E-02  0.1184000E+00
        -11   -1    0    0    0    0  0.00000000000E+00  0.00000000000E+00  0.45593999997E+02  0.45594000000E+02  0.51100000000E-03 0. -1.
         11   -1    0    0    0    0 -0.00000000000E+00 -0.00000000000E+00 -0.45593999997E+02  0.45594000000E+02  0.51100000000E-03 0.  1.
         23    2    1    2    0    0  0.17763568394E-14  0.00000000000E+00  0.71054273576E-14  0.91188000000E+02  0.91188000000E+02 0.  0.
    9900012    2    3    3    0    0  0.13626399711E+02 -0.14888584966E+02  0.38422304620E+02  0.47787283143E+02  0.20000055163E+02 0.  0.
        -12    1    3    3    0    0 -0.13626399711E+02  0.14888584966E+02 -0.38422304620E+02  0.43400716857E+02  0.00000000000E+00 0.  1.
         11    1    4    4    0    0  0.17192273516E+01 -0.81319543319E+01  0.11613137194E+02  0.14281084682E+02  0.51100000000E-03 0. -1.
        -11    1    4    4    0    0  0.26891707312E+01 -0.99054720080E+01  0.15361986778E+02  0.18475406706E+02  0.51100000000E-03 0.  1.
        -12    1    4    4    0    0  0.92180016280E+01  0.31488413738E+01  0.11447180648E+02  0.15030791756E+02  0.00000000000E+00 0.  1.
</event>
<event>
 8    1  0.2994958E-010  0.9118800E+02  0.7816164E-02  0.1184000E+00
        -11   -1    0    0    0    0  0.00000000000E+00  0.00000000000E+00  0.45593999997E+02  0.45594000000E+02  0.51100000000E-03 0. -1.
         11   -1    0    0    0    0 -0.00000000000E+00 -0.00000000000E+00 -0.45593999997E+02  0.45594000000E+02  0.51100000000E-03 0.  1.
         23    2    1    2    0    0  0.00000000000E+00  0.88817841970E-15  0.00000000000E+00  0.91188000000E+02  0.91188000000E+02 0.  0.
    9900012    2    3    3    0    0 -0.25997919340E+02 -0.76127232552E+01  0.33908391813E+02  0.47787258062E+02  0.19999940809E+02 0.  0.
        -12    1    3    3    0    0  0.25997919340E+02  0.76127232552E+01 -0.33908391813E+02  0.43400741938E+02  0.00000000000E+00 0.  1.
         11    1    4    4    0    0  0.19865959730E+00 -0.29108510328E+01  0.60748180169E+01  0.67391344823E+01  0.51100000000E-03 0. -1.
        -11    1    4    4    0    0 -0.47496430473E+01  0.47632835849E+01  0.63331246754E+01  0.92388553404E+01  0.51100000000E-03 0.  1.
         12    1    4    4    0    0 -0.21446935890E+02 -0.94651558073E+01  0.21500449121E+02  0.31809268240E+02  0.00000000000E+00 0. -1.
</event>
<event>
 8    1  0.2994958E-010  0.9118800E+02  0.7816164E-02  0.1184000E+00
        -11   -1    0    0    0    0  0.00000000000E+00  0.00000000000E+00  0.45593999997E+02  0.45594000000E+02  0.51100000000E-03 0. -1.
         11   -1    0    0    0    0 -0.00000000000E+00 -0.00000000000E+00 -0.45593999997E+02  0.45594000000E+02  0.51100000000E-03 0.  1.
         23    2    1    2    0    0  0.00000000000E+00  0.00000000000E+00  0.88817841970E-15  0.91188000000E+02  0.91188000000E+02 0.  0.
    9900012    2    3    3    0    0 -0.85323746175E+01 -0.42291398481E+02  0.47180085208E+01  0.47787269516E+02  0.19999993033E+02 0.  0.
        -12    1    3    3    0    0  0.85323746175E+01  0.42291398481E+02 -0.47180085208E+01  0.43400730484E+02  0.00000000000E+00 0.  1.
         11    1    4    4    0    0  0.21101435485E+00 -0.98927849656E+01 -0.52977268386E+01  0.11223975737E+02  0.51100000000E-03 0. -1.
        -11    1    4    4    0    0  0.19664951374E+01 -0.42364596862E+01  0.32301677916E+01  0.56787919508E+01  0.51100000000E-03 0.  1.
        -12    1    4    4    0    0 -0.10709884110E+02 -0.28162153829E+02  0.67855675679E+01  0.30884501828E+02  0.00000000000E+00 0.  1.
</event>
<event>
 8    1  0.2994958E-010  0.9118800E+02  0.7816164E-02  0.1184000E+00
        -11   -1    0    0    0    0  0.00000000000E+00  0.00000000000E+00  0.45593999997E+02  0.45594000000E+02  0.51100000000E-03 0.  1.
         11   -1    0    0    0    0 -0.00000000000E+00 -0.00000000000E+00 -0.45593999997E+02  0.45594000000E+02  0.51100000000E-03 0. -1.
         23    2    1    2    0    0 -0.35527136788E-14  0.00000000000E+00  0.35527136788E-14  0.91188000000E+02  0.91188000000E+02 0.  0.
    9900012    2    3    3    0    0  0.25703318151E+02  0.17566494574E+02  0.30238736894E+02  0.47787268387E+02  0.19999987884E+02 0.  0.
        -12    1    3    3    0    0 -0.25703318151E+02 -0.17566494574E+02 -0.30238736894E+02  0.43400731613E+02  0.00000000000E+00 0.  1.
         11    1    4    4    0    0  0.77334626111E+01  0.67994568871E+01  0.12368370105E+02  0.16093962757E+02  0.51100000000E-03 0. -1.
        -11    1    4    4    0    0  0.15664908734E+02  0.45918708414E+01  0.18952841999E+02  0.25013693521E+02  0.51100000000E-03 0.  1.
         12    1    4    4    0    0  0.23049468056E+01  0.61751668452E+01 -0.10824752096E+01  0.66796121087E+01  0.00000000000E+00 0. -1.
</event>
<event>
 8    1  0.2994958E-010  0.9118800E+02  0.7816164E-02  0.1184000E+00
        -11   -1    0    0    0    0  0.00000000000E+00  0.00000000000E+00  0.45593999997E+02  0.45594000000E+02  0.51100000000E-03 0. -1.
         11   -1    0    0    0    0 -0.00000000000E+00 -0.00000000000E+00 -0.45593999997E+02  0.45594000000E+02  0.51100000000E-03 0.  1.
         23    2    1    2    0    0  0.94368957093E-15  0.00000000000E+00  0.00000000000E+00  0.91188000000E+02  0.91188000000E+02 0.  0.
    9900012    2    3    3    0    0 -0.33523258651E+00 -0.10123756978E+02 -0.42202140697E+02  0.47787268260E+02  0.19999987303E+02 0.  0.
         12    1    3    3    0    0  0.33523258651E+00  0.10123756978E+02  0.42202140697E+02  0.43400731740E+02  0.00000000000E+00 0. -1.
         11    1    4    4    0    0  0.29841255938E+01 -0.12409623548E+02 -0.23727652390E+02  0.26942628869E+02  0.51100000000E-03 0. -1.
        -11    1    4    4    0    0  0.24750668465E+01  0.76117534302E+00 -0.10811533308E+02  0.11117310670E+02  0.51100000000E-03 0.  1.
        -12    1    4    4    0    0 -0.57944250269E+01  0.15246912277E+01 -0.76629549984E+01  0.97273287207E+01  0.00000000000E+00 0.  1.
</event>
<event>
 8    1  0.2994958E-010  0.9118800E+02  0.7816164E-02  0.1184000E+00
        -11   -1    0    0    0    0  0.00000000000E+00  0.00000000000E+00  0.45593999997E+02  0.45594000000E+02  0.51100000000E-03 0. -1.
         11   -1    0    0    0    0 -0.00000000000E+00 -0.00000000000E+00 -0.45593999997E+02  0.45594000000E+02  0.51100000000E-03 0.  1.
         23    2    1    2    0    0  0.00000000000E+00 -0.71054273576E-14 -0.35527136788E-14  0.91188000000E+02  0.91188000000E+02 0.  0.
    9900012    2    3    3    0    0 -0.61879941694E+01  0.36421622679E+02  0.22777123502E+02  0.47787271603E+02  0.20000002545E+02 0.  0.
        -12    1    3    3    0    0  0.61879941694E+01 -0.36421622679E+02 -0.22777123502E+02  0.43400728397E+02  0.00000000000E+00 0.  1.
         11    1    4    4    0    0  0.17768742038E+00  0.65294793652E+00 -0.99548607047E+00  0.12037053646E+01  0.51100000000E-03 0. -1.
        -11    1    4    4    0    0 -0.51201934681E+01  0.94305319603E+00  0.28023039798E+01  0.59125830513E+01  0.51100000000E-03 0.  1.
         12    1    4    4    0    0 -0.12454881216E+01  0.34825621546E+02  0.20970305593E+02  0.40670983187E+02  0.00000000000E+00 0. -1.
</event>
<event>
 8    1  0.2994958E-010  0.9118800E+02  0.7816164E-02  0.1184000E+00
        -11   -1    0    0    0    0  0.00000000000E+00  0.00000000000E+00  0.45593999997E+02  0.45594000000E+02  0.51100000000E-03 0. -1.
         11   -1    0    0    0    0 -0.00000000000E+00 -0.00000000000E+00 -0.45593999997E+02  0.45594000000E+02  0.51100000000E-03 0.  1.
         23    2    1    2    0    0  0.00000000000E+00  0.00000000000E+00  0.71054273576E-14  0.91188000000E+02  0.91188000000E+02 0.  0.
    9900012    2    3    3    0    0  0.19909581059E+02 -0.18717588173E+02  0.33717708947E+02  0.47787269342E+02  0.19999992240E+02 0.  0.
        -12    1    3    3    0    0 -0.19909581059E+02  0.18717588173E+02 -0.33717708947E+02  0.43400730658E+02  0.00000000000E+00 0.  1.
         11    1    4    4    0    0  0.12147737139E+02 -0.51179412922E+01  0.21241621754E+02  0.24999346705E+02  0.51100000000E-03 0. -1.
        -11    1    4    4    0    0  0.41597396450E+01  0.56538023466E+00  0.44324838463E+01  0.61049162183E+01  0.51100000000E-03 0.  1.
         12    1    4    4    0    0  0.36021042756E+01 -0.14165027115E+02  0.80436033470E+01  0.16683006419E+02  0.00000000000E+00 0. -1.
</event>
<event>
 8    1  0.2994958E-010  0.9118800E+02  0.7816164E-02  0.1184000E+00
        -11   -1    0    0    0    0  0.00000000000E+00  0.00000000000E+00  0.45593999997E+02  0.45594000000E+02  0.51100000000E-03 0. -1.
         11   -1    0    0    0    0 -0.00000000000E+00 -0.00000000000E+00 -0.45593999997E+02  0.45594000000E+02  0.51100000000E-03 0.  1.
         23    2    1    2    0    0  0.00000000000E+00 -0.17763568394E-14 -0.35527136788E-14  0.91188000000E+02  0.91188000000E+02 0.  0.
    9900012    2    3    3    0    0  0.25161470296E+02 -0.15915037268E+02  0.31579034046E+02  0.47787269707E+02  0.19999993902E+02 0.  0.
        -12    1    3    3    0    0 -0.25161470296E+02  0.15915037268E+02 -0.31579034046E+02  0.43400730293E+02  0.00000000000E+00 0.  1.
         11    1    4    4    0    0  0.21699577834E+01  0.66978099008E+00  0.17011372157E+01  0.28374621485E+01  0.51100000000E-03 0. -1.
        -11    1    4    4    0    0  0.13177239656E+02 -0.16544207802E+02  0.11400137430E+02  0.24027350882E+02  0.51100000000E-03 0.  1.
        -12    1    4    4    0    0  0.98142728568E+01 -0.40610456424E-01  0.18477759400E+02  0.20922456676E+02  0.00000000000E+00 0.  1.
</event>
<event>
 8    1  0.2994958E-010  0.9118800E+02  0.7816164E-02  0.1184000E+00
        -11   -1    0    0    0    0  0.00000000000E+00  0.00000000000E+00  0.45593999997E+02  0.45594000000E+02  0.51100000000E-03 0. -1.
         11   -1    0    0    0    0 -0.00000000000E+00 -0.00000000000E+00 -0.45593999997E+02  0.45594000000E+02  0.51100000000E-03 0.  1.
         23    2    1    2    0    0  0.00000000000E+00  0.00000000000E+00  0.00000000000E+00  0.91188000000E+02  0.91188000000E+02 0.  0.
    9900012    2    3    3    0    0 -0.27845605738E+02 -0.18531960649E+02  0.27655238572E+02  0.47787267923E+02  0.19999985767E+02 0.  0.
        -12    1    3    3    0    0  0.27845605738E+02  0.18531960649E+02 -0.27655238572E+02  0.43400732077E+02  0.00000000000E+00 0.  1.
         11    1    4    4    0    0  0.52566012762E+00  0.19990175192E+00 -0.28871711911E+00  0.63216858208E+00  0.51100000000E-03 0. -1.
        -11    1    4    4    0    0 -0.33947041942E+00 -0.11600853290E+01 -0.21273708482E+01  0.24467826064E+01  0.51100000000E-03 0.  1.
         12    1    4    4    0    0 -0.28031795446E+02 -0.17571777072E+02  0.30071326539E+02  0.44708316734E+02  0.00000000000E+00 0. -1.
</event>
<event>
 8    1  0.2994958E-010  0.9118800E+02  0.7816164E-02  0.1184000E+00
        -11   -1    0    0    0    0  0.00000000000E+00  0.00000000000E+00  0.45593999997E+02  0.45594000000E+02  0.51100000000E-03 0. -1.
         11   -1    0    0    0    0 -0.00000000000E+00 -0.00000000000E+00 -0.45593999997E+02  0.45594000000E+02  0.51100000000E-03 0.  1.
         23    2    1    2    0    0  0.00000000000E+00  0.00000000000E+00  0.00000000000E+00  0.91188000000E+02  0.91188000000E+02 0.  0.
    9900012    2    3    3    0    0 -0.11355073278E+02  0.31169564459E+02 -0.27984710902E+02  0.47787268647E+02  0.19999989068E+02 0.  0.
         12    1    3    3    0    0  0.11355073278E+02 -0.31169564459E+02  0.27984710902E+02  0.43400731353E+02  0.00000000000E+00 0. -1.
         11    1    4    4    0    0 -0.37041644784E+01  0.21233832658E+02 -0.13610819456E+02  0.25492173120E+02  0.51100000000E-03 0. -1.
        -11    1    4    4    0    0 -0.91271551907E+01  0.11579078191E+02 -0.13220482367E+02  0.19803059559E+02  0.51100000000E-03 0.  1.
        -12    1    4    4    0    0  0.14762463909E+01 -0.16433463896E+01 -0.11534090785E+01  0.24920359679E+01  0.00000000000E+00 0.  1.
</event>
<event>
 8    1  0.2994958E-010  0.9118800E+02  0.7816164E-02  0.1184000E+00
        -11   -1    0    0    0    0  0.00000000000E+00  0.00000000000E+00  0.45593999997E+02  0.45594000000E+02  0.51100000000E-03 0. -1.
         11   -1    0    0    0    0 -0.00000000000E+00 -0.00000000000E+00 -0.45593999997E+02  0.45594000000E+02  0.51100000000E-03 0.  1.
         23    2    1    2    0    0  0.00000000000E+00  0.00000000000E+00  0.00000000000E+00  0.91188000000E+02  0.91188000000E+02 0.  0.
    9900012    2    3    3    0    0  0.36938116910E+02 -0.10203740695E+02 -0.20373509078E+02  0.47787300960E+02  0.20000136395E+02 0.  0.
         12    1    3    3    0    0 -0.36938116910E+02  0.10203740695E+02  0.20373509078E+02  0.43400699040E+02  0.00000000000E+00 0. -1.
         11    1    4    4    0    0  0.46490647516E+01 -0.12349709472E+01 -0.79102397911E+01  0.92580154526E+01  0.51100000000E-03 0. -1.
        -11    1    4    4    0    0  0.29870833802E+01 -0.19115549224E+01 -0.70715643854E+01  0.79109880837E+01  0.51100000000E-03 0.  1.
        -12    1    4    4    0    0  0.29301968778E+02 -0.70572148251E+01 -0.53917049016E+01  0.30618297423E+02  0.00000000000E+00 0.  1.
</event>
<event>
 8    1  0.2994958E-010  0.9118800E+02  0.7816164E-02  0.1184000E+00
        -11   -1    0    0    0    0  0.00000000000E+00  0.00000000000E+00  0.45593999997E+02  0.45594000000E+02  0.51100000000E-03 0. -1.
         11   -1    0    0    0    0 -0.00000000000E+00 -0.00000000000E+00 -0.45593999997E+02  0.45594000000E+02  0.51100000000E-03 0.  1.
         23    2    1    2    0    0  0.00000000000E+00  0.00000000000E+00  0.00000000000E+00  0.91188000000E+02  0.91188000000E+02 0.  0.
    9900012    2    3    3    0    0 -0.70165810207E+01 -0.24836599026E+02  0.34893177502E+02  0.47787275391E+02  0.20000019819E+02 0.  0.
        -12    1    3    3    0    0  0.70165810207E+01  0.24836599026E+02 -0.34893177502E+02  0.43400724609E+02  0.00000000000E+00 0.  1.
         11    1    4    4    0    0 -0.40254613843E+01  0.37604297312E+00  0.34584861983E+01  0.53204205397E+01  0.51100000000E-03 0. -1.
        -11    1    4    4    0    0  0.21209466472E+01 -0.32235150570E+01  0.12241398318E+02  0.12835158630E+02  0.51100000000E-03 0.  1.
        -12    1    4    4    0    0 -0.51120662836E+01 -0.21989126942E+02  0.19193292985E+02  0.29631696222E+02  0.00000000000E+00 0.  1.
</event>
<event>
 8    1  0.2994958E-010  0.9118800E+02  0.7816164E-02  0.1184000E+00
        -11   -1    0    0    0    0  0.00000000000E+00  0.00000000000E+00  0.45593999997E+02  0.45594000000E+02  0.51100000000E-03 0. -1.
         11   -1    0    0    0    0 -0.00000000000E+00 -0.00000000000E+00 -0.45593999997E+02  0.45594000000E+02  0.51100000000E-03 0.  1.
         23    2    1    2    0    0 -0.35527136788E-14  0.44408920985E-15  0.00000000000E+00  0.91188000000E+02  0.91188000000E+02 0.  0.
    9900012    2    3    3    0    0  0.17817467092E+02 -0.31581644758E+01  0.39448563327E+02  0.47787247875E+02  0.19999894360E+02 0.  0.
        -12    1    3    3    0    0 -0.17817467092E+02  0.31581644758E+01 -0.39448563327E+02  0.43400752125E+02  0.00000000000E+00 0.  1.
         11    1    4    4    0    0  0.14720721531E+02  0.13236018485E+01  0.22595513700E+02  0.27000163034E+02  0.51100000000E-03 0. -1.
        -11    1    4    4    0    0  0.60206550146E+01 -0.92568442751E+00  0.44115002528E+01  0.75210712804E+01  0.51100000000E-03 0.  1.
        -12    1    4    4    0    0 -0.29239094530E+01 -0.35560818968E+01  0.12441549375E+02  0.13266013561E+02  0.00000000000E+00 0.  1.
</event>
<event>
 8    1  0.2994958E-010  0.9118800E+02  0.7816164E-02  0.1184000E+00
        -11   -1    0    0    0    0  0.00000000000E+00  0.00000000000E+00  0.45593999997E+02  0.45594000000E+02  0.51100000000E-03 0. -1.
         11   -1    0    0    0    0 -0.00000000000E+00 -0.00000000000E+00 -0.45593999997E+02  0.45594000000E+02  0.51100000000E-03 0.  1.
         23    2    1    2    0    0 -0.71054273576E-14  0.00000000000E+00  0.00000000000E+00  0.91188000000E+02  0.91188000000E+02 0.  0.
    9900012    2    3    3    0    0  0.33470515467E+02 -0.13190732037E+02 -0.24276581261E+02  0.47787271723E+02  0.20000003093E+02 0.  0.
         12    1    3    3    0    0 -0.33470515467E+02  0.13190732037E+02  0.24276581261E+02  0.43400728277E+02  0.00000000000E+00 0. -1.
         11    1    4    4    0    0  0.10123091075E+02 -0.39545530238E+01 -0.52751542915E+01  0.12080675295E+02  0.51100000000E-03 0. -1.
        -11    1    4    4    0    0  0.62720061527E+01  0.46238007392E+01 -0.78019713746E+01  0.11026710844E+02  0.51100000000E-03 0.  1.
         12    1    4    4    0    0  0.17075418239E+02 -0.13859979752E+02 -0.11199455594E+02  0.24679885583E+02  0.00000000000E+00 0. -1.
</event>
<event>
 8    1  0.2994958E-010  0.9118800E+02  0.7816164E-02  0.1184000E+00
        -11   -1    0    0    0    0  0.00000000000E+00  0.00000000000E+00  0.45593999997E+02  0.45594000000E+02  0.51100000000E-03 0. -1.
         11   -1    0    0    0    0 -0.00000000000E+00 -0.00000000000E+00 -0.45593999997E+02  0.45594000000E+02  0.51100000000E-03 0.  1.
         23    2    1    2    0    0  0.00000000000E+00  0.71054273576E-14 -0.35527136788E-14  0.91188000000E+02  0.91188000000E+02 0.  0.
    9900012    2    3    3    0    0 -0.87498342790E+01 -0.34356800975E+02  0.25033454544E+02  0.47787271671E+02  0.20000002856E+02 0.  0.
        -12    1    3    3    0    0  0.87498342790E+01  0.34356800975E+02 -0.25033454544E+02  0.43400728329E+02  0.00000000000E+00 0.  1.
         11    1    4    4    0    0 -0.29565443761E+01 -0.92804586476E+01  0.26683806307E+01  0.10098926815E+02  0.51100000000E-03 0.  1.
        -11    1    4    4    0    0 -0.61427525302E+01 -0.26483123775E+02  0.23430160794E+02  0.35889576323E+02  0.51100000000E-03 0. -1.
        -12    1    4    4    0    0  0.34946262730E+00  0.14067814480E+01 -0.10650868816E+01  0.17987685331E+01  0.00000000000E+00 0.  1.
</event>
<event>
 8    1  0.2994958E-010  0.9118800E+02  0.7816164E-02  0.1184000E+00
        -11   -1    0    0    0    0  0.00000000000E+00  0.00000000000E+00  0.45593999997E+02  0.45594000000E+02  0.51100000000E-03 0. -1.
         11   -1    0    0    0    0 -0.00000000000E+00 -0.00000000000E+00 -0.45593999997E+02  0.45594000000E+02  0.51100000000E-03 0.  1.
         23    2    1    2    0    0  0.00000000000E+00  0.00000000000E+00  0.00000000000E+00  0.91188000000E+02  0.91188000000E+02 0.  0.
    9900012    2    3    3    0    0  0.13845030533E+02  0.36285510449E+02  0.19372675281E+02  0.47787266290E+02  0.19999978324E+02 0.  0.
        -12    1    3    3    0    0 -0.13845030533E+02 -0.36285510449E+02 -0.19372675281E+02  0.43400733710E+02  0.00000000000E+00 0.  1.
         11    1    4    4    0    0  0.65895088444E+01  0.21423478545E+02  0.93068521629E+01  0.24269416088E+02  0.51100000000E-03 0. -1.
        -11    1    4    4    0    0  0.49102158092E+00  0.13386375168E+02  0.32108573798E+01  0.13774822964E+02  0.51100000000E-03 0.  1.
         12    1    4    4    0    0  0.67645001072E+01  0.14756567366E+01  0.68549657379E+01  0.97430272386E+01  0.00000000000E+00 0. -1.
</event>
<event>
 8    1  0.2994958E-010  0.9118800E+02  0.7816164E-02  0.1184000E+00
        -11   -1    0    0    0    0  0.00000000000E+00  0.00000000000E+00  0.45593999997E+02  0.45594000000E+02  0.51100000000E-03 0.  1.
         11   -1    0    0    0    0 -0.00000000000E+00 -0.00000000000E+00 -0.45593999997E+02  0.45594000000E+02  0.51100000000E-03 0. -1.
         23    2    1    2    0    0 -0.35527136788E-14 -0.35527136788E-14  0.00000000000E+00  0.91188000000E+02  0.91188000000E+02 0.  0.
    9900012    2    3    3    0    0  0.22095814551E+02  0.30611740483E+02  0.21408382049E+02  0.47787279983E+02  0.20000040754E+02 0.  0.
        -12    1    3    3    0    0 -0.22095814551E+02 -0.30611740483E+02 -0.21408382049E+02  0.43400720017E+02  0.00000000000E+00 0.  1.
         11    1    4    4    0    0  0.10164836672E+02  0.26032904077E+02  0.18717129500E+02  0.33635798433E+02  0.51100000000E-03 0. -1.
        -11    1    4    4    0    0  0.62219222555E+01  0.45361382825E+01  0.33641283693E+01  0.84027511577E+01  0.51100000000E-03 0.  1.
         12    1    4    4    0    0  0.57090556241E+01  0.42698123163E-01 -0.67287582093E+00  0.57487303920E+01  0.00000000000E+00 0. -1.
</event>
<event>
 8    1  0.2994958E-010  0.9118800E+02  0.7816164E-02  0.1184000E+00
        -11   -1    0    0    0    0  0.00000000000E+00  0.00000000000E+00  0.45593999997E+02  0.45594000000E+02  0.51100000000E-03 0.  1.
         11   -1    0    0    0    0 -0.00000000000E+00 -0.00000000000E+00 -0.45593999997E+02  0.45594000000E+02  0.51100000000E-03 0. -1.
         23    2    1    2    0    0  0.00000000000E+00  0.00000000000E+00  0.35527136788E-14  0.91188000000E+02  0.91188000000E+02 0.  0.
    9900012    2    3    3    0    0  0.26032597825E+02  0.20141012129E+02 -0.28288986071E+02  0.47787271296E+02  0.20000001148E+02 0.  0.
         12    1    3    3    0    0 -0.26032597825E+02 -0.20141012129E+02  0.28288986071E+02  0.43400728704E+02  0.00000000000E+00 0. -1.
         11    1    4    4    0    0  0.33304907404E+01 -0.15666593085E+01 -0.75099849147E+01  0.83634002439E+01  0.51100000000E-03 0. -1.
        -11    1    4    4    0    0  0.59082470967E+01  0.38007005667E+01 -0.10885346312E+02  0.12955441835E+02  0.51100000000E-03 0.  1.
        -12    1    4    4    0    0  0.16793859988E+02  0.17906970870E+02 -0.98936548449E+01  0.26468429217E+02  0.00000000000E+00 0.  1.
</event>
<event>
 8    1  0.2994958E-010  0.9118800E+02  0.7816164E-02  0.1184000E+00
        -11   -1    0    0    0    0  0.00000000000E+00  0.00000000000E+00  0.45593999997E+02  0.45594000000E+02  0.51100000000E-03 0. -1.
         11   -1    0    0    0    0 -0.00000000000E+00 -0.00000000000E+00 -0.45593999997E+02  0.45594000000E+02  0.51100000000E-03 0.  1.
         23    2    1    2    0    0 -0.17763568394E-14  0.00000000000E+00  0.17763568394E-14  0.91188000000E+02  0.91188000000E+02 0.  0.
    9900012    2    3    3    0    0 -0.69539379521E+01  0.40208711160E+02  0.14782623826E+02  0.47787266442E+02  0.19999979014E+02 0.  0.
        -12    1    3    3    0    0  0.69539379521E+01 -0.40208711160E+02 -0.14782623826E+02  0.43400733558E+02  0.00000000000E+00 0.  1.
         11    1    4    4    0    0  0.15258853704E+01 -0.13941804493E+00 -0.22170572114E+00  0.15481980631E+01  0.51100000000E-03 0. -1.
        -11    1    4    4    0    0 -0.51752384090E+01  0.25436388984E+01  0.14910073027E+01  0.59561979881E+01  0.51100000000E-03 0.  1.
        -12    1    4    4    0    0 -0.33045849135E+01  0.37804490307E+02  0.13513322245E+02  0.40282870390E+02  0.00000000000E+00 0.  1.
</event>
<event>
 8    1  0.2994958E-010  0.9118800E+02  0.7816164E-02  0.1184000E+00
        -11   -1    0    0    0    0  0.00000000000E+00  0.00000000000E+00  0.45593999997E+02  0.45594000000E+02  0.51100000000E-03 0. -1.
         11   -1    0    0    0    0 -0.00000000000E+00 -0.00000000000E+00 -0.45593999997E+02  0.45594000000E+02  0.51100000000E-03 0.  1.
         23    2    1    2    0    0  0.17763568394E-14  0.17763568394E-14  0.00000000000E+00  0.91188000000E+02  0.91188000000E+02 0.  0.
    9900012    2    3    3    0    0  0.12898346183E+02 -0.13899826409E+02 -0.39039091313E+02  0.47787272368E+02  0.20000006034E+02 0.  0.
         12    1    3    3    0    0 -0.12898346183E+02  0.13899826409E+02  0.39039091313E+02  0.43400727632E+02  0.00000000000E+00 0. -1.
         11    1    4    4    0    0  0.72615879616E+00 -0.39137242867E+01 -0.80352935755E+01  0.89671894981E+01  0.51100000000E-03 0.  1.
        -11    1    4    4    0    0  0.35792776017E+01 -0.40299600710E+01  0.70143554169E+00  0.54354225598E+01  0.51100000000E-03 0. -1.
         12    1    4    4    0    0  0.85929097856E+01 -0.59561420509E+01 -0.31705233279E+02  0.33384660310E+02  0.00000000000E+00 0. -1.
</event>
<event>
 8    1  0.2994958E-010  0.9118800E+02  0.7816164E-02  0.1184000E+00
        -11   -1    0    0    0    0  0.00000000000E+00  0.00000000000E+00  0.45593999997E+02  0.45594000000E+02  0.51100000000E-03 0. -1.
         11   -1    0    0    0    0 -0.00000000000E+00 -0.00000000000E+00 -0.45593999997E+02  0.45594000000E+02  0.51100000000E-03 0.  1.
         23    2    1    2    0    0  0.00000000000E+00 -0.88817841970E-15  0.00000000000E+00  0.91188000000E+02  0.91188000000E+02 0.  0.
    9900012    2    3    3    0    0 -0.67121258862E+01  0.66673306464E+01 -0.42357025881E+02  0.47787267594E+02  0.19999984268E+02 0.  0.
         12    1    3    3    0    0  0.67121258862E+01 -0.66673306464E+01  0.42357025881E+02  0.43400732406E+02  0.00000000000E+00 0. -1.
         11    1    4    4    0    0 -0.22233444349E+01  0.12531307703E+01  0.47847048620E+00  0.25966384945E+01  0.51100000000E-03 0. -1.
        -11    1    4    4    0    0  0.28414302673E+01 -0.23576191984E+01 -0.99213616320E+01  0.10586099902E+02  0.51100000000E-03 0.  1.
        -12    1    4    4    0    0 -0.73302117187E+01  0.77718190745E+01 -0.32914134736E+02  0.34604529197E+02  0.00000000000E+00 0.  1.
</event>
<event>
 8    1  0.2994958E-010  0.9118800E+02  0.7816164E-02  0.1184000E+00
        -11   -1    0    0    0    0  0.00000000000E+00  0.00000000000E+00  0.45593999997E+02  0.45594000000E+02  0.51100000000E-03 0. -1.
         11   -1    0    0    0    0 -0.00000000000E+00 -0.00000000000E+00 -0.45593999997E+02  0.45594000000E+02  0.51100000000E-03 0.  1.
         23    2    1    2    0    0  0.00000000000E+00  0.00000000000E+00  0.00000000000E+00  0.91188000000E+02  0.91188000000E+02 0.  0.
    9900012    2    3    3    0    0  0.27461755047E+02 -0.61165938842E+01 -0.33046376895E+02  0.47787265710E+02  0.19999975677E+02 0.  0.
         12    1    3    3    0    0 -0.27461755047E+02  0.61165938842E+01  0.33046376895E+02  0.43400734290E+02  0.00000000000E+00 0. -1.
         11    1    4    4    0    0  0.98258485377E+01 -0.30402004620E+01 -0.10913805106E+02  0.14996708322E+02  0.51100000000E-03 0. -1.
        -11    1    4    4    0    0  0.19500304247E+02 -0.38951529203E+01 -0.23146788138E+02  0.30515698966E+02  0.51100000000E-03 0.  1.
         12    1    4    4    0    0 -0.18643977380E+01  0.81875949808E+00  0.10142163481E+01  0.22748584224E+01  0.00000000000E+00 0. -1.
</event>
<event>
 8    1  0.2994958E-010  0.9118800E+02  0.7816164E-02  0.1184000E+00
        -11   -1    0    0    0    0  0.00000000000E+00  0.00000000000E+00  0.45593999997E+02  0.45594000000E+02  0.51100000000E-03 0.  1.
         11   -1    0    0    0    0 -0.00000000000E+00 -0.00000000000E+00 -0.45593999997E+02  0.45594000000E+02  0.51100000000E-03 0. -1.
         23    2    1    2    0    0  0.00000000000E+00  0.00000000000E+00 -0.71054273576E-14  0.91188000000E+02  0.91188000000E+02 0.  0.
    9900012    2    3    3    0    0  0.17876198085E+02  0.21079733688E+02 -0.33462060437E+02  0.47787272828E+02  0.20000008133E+02 0.  0.
         12    1    3    3    0    0 -0.17876198085E+02 -0.21079733688E+02  0.33462060437E+02  0.43400727172E+02  0.00000000000E+00 0. -1.
         11    1    4    4    0    0  0.91185225279E+01  0.12580791386E+02 -0.17015883410E+02  0.23042657257E+02  0.51100000000E-03 0. -1.
        -11    1    4    4    0    0  0.76145969407E+01  0.74218318554E+01 -0.27829079598E+01  0.10991371690E+02  0.51100000000E-03 0.  1.
         12    1    4    4    0    0  0.11430786159E+01  0.10771104467E+01 -0.13663269067E+02  0.13753243881E+02  0.00000000000E+00 0. -1.
</event>
<event>
 8    1  0.2994958E-010  0.9118800E+02  0.7816164E-02  0.1184000E+00
        -11   -1    0    0    0    0  0.00000000000E+00  0.00000000000E+00  0.45593999997E+02  0.45594000000E+02  0.51100000000E-03 0.  1.
         11   -1    0    0    0    0 -0.00000000000E+00 -0.00000000000E+00 -0.45593999997E+02  0.45594000000E+02  0.51100000000E-03 0. -1.
         23    2    1    2    0    0  0.35527136788E-14  0.35527136788E-14 -0.71054273576E-14  0.91188000000E+02  0.91188000000E+02 0.  0.
    9900012    2    3    3    0    0 -0.24793702766E+02 -0.16557011088E+02  0.31539822348E+02  0.47787277578E+02  0.20000029790E+02 0.  0.
        -12    1    3    3    0    0  0.24793702766E+02  0.16557011088E+02 -0.31539822348E+02  0.43400722422E+02  0.00000000000E+00 0.  1.
         11    1    4    4    0    0 -0.68822737185E+01 -0.52532257467E+01  0.13809839325E+02  0.16299501058E+02  0.51100000000E-03 0. -1.
        -11    1    4    4    0    0 -0.44671364892E+01 -0.28267866022E+01  0.14275714007E+02  0.15223075956E+02  0.51100000000E-03 0.  1.
        -12    1    4    4    0    0 -0.13444292558E+02 -0.84769987388E+01  0.34542690161E+01  0.16264700564E+02  0.00000000000E+00 0.  1.
</event>
<event>
 8    1  0.2994958E-010  0.9118800E+02  0.7816164E-02  0.1184000E+00
        -11   -1    0    0    0    0  0.00000000000E+00  0.00000000000E+00  0.45593999997E+02  0.45594000000E+02  0.51100000000E-03 0. -1.
         11   -1    0    0    0    0 -0.00000000000E+00 -0.00000000000E+00 -0.45593999997E+02  0.45594000000E+02  0.51100000000E-03 0.  1.
         23    2    1    2    0    0  0.35527136788E-14  0.00000000000E+00  0.00000000000E+00  0.91188000000E+02  0.91188000000E+02 0.  0.
    9900012    2    3    3    0    0 -0.26509725433E+02 -0.45767953457E+01 -0.34057448548E+02  0.47787281115E+02  0.20000045914E+02 0.  0.
         12    1    3    3    0    0  0.26509725433E+02  0.45767953457E+01  0.34057448548E+02  0.43400718885E+02  0.00000000000E+00 0. -1.
         11    1    4    4    0    0  0.12274868069E+01  0.21247592175E+01 -0.63259017920E+01  0.67851572816E+01  0.51100000000E-03 0. -1.
        -11    1    4    4    0    0 -0.19786128176E+01 -0.29491620517E+01 -0.65165386201E+01  0.74214379562E+01  0.51100000000E-03 0.  1.
        -12    1    4    4    0    0 -0.25758599422E+02 -0.37523925116E+01 -0.21215008136E+02  0.33580685877E+02  0.00000000000E+00 0.  1.
</event>
<event>
 8    1  0.2994958E-010  0.9118800E+02  0.7816164E-02  0.1184000E+00
        -11   -1    0    0    0    0  0.00000000000E+00  0.00000000000E+00  0.45593999997E+02  0.45594000000E+02  0.51100000000E-03 0. -1.
         11   -1    0    0    0    0 -0.00000000000E+00 -0.00000000000E+00 -0.45593999997E+02  0.45594000000E+02  0.51100000000E-03 0.  1.
         23    2    1    2    0    0  0.35527136788E-14  0.00000000000E+00  0.00000000000E+00  0.91188000000E+02  0.91188000000E+02 0.  0.
    9900012    2    3    3    0    0 -0.27914002837E+02  0.51935283428E+01 -0.32824677549E+02  0.47787265592E+02  0.19999975139E+02 0.  0.
         12    1    3    3    0    0  0.27914002837E+02 -0.51935283428E+01  0.32824677549E+02  0.43400734408E+02  0.00000000000E+00 0. -1.
         11    1    4    4    0    0 -0.28180744114E+01  0.46673361332E+01 -0.29791722893E+01  0.62129733428E+01  0.51100000000E-03 0. -1.
        -11    1    4    4    0    0 -0.20546013195E+02  0.55484313911E+01 -0.17762201842E+02  0.27720381737E+02  0.51100000000E-03 0.  1.
         12    1    4    4    0    0 -0.45499152302E+01 -0.50222391815E+01 -0.12083303417E+02  0.13853910512E+02  0.00000000000E+00 0. -1.
</event>
<event>
 8    1  0.3109664E-010  0.9118800E+02  0.7816164E-02  0.1184000E+00
        -11   -1    0    0    0    0  0.00000000000E+00  0.00000000000E+00  0.45593999997E+02  0.45594000000E+02  0.51100000000E-03 0. -1.
         11   -1    0    0    0    0 -0.00000000000E+00 -0.00000000000E+00 -0.45593999997E+02  0.45594000000E+02  0.51100000000E-03 0.  1.
         23    2    1    2    0    0 -0.17763568394E-14  0.00000000000E+00  0.00000000000E+00  0.91188000000E+02  0.91188000000E+02 0.  0.
    9900012    2    3    3    0    0 -0.13516551192E+02 -0.45734890210E+01  0.40987918099E+02  0.47787269729E+02  0.19999994002E+02 0.  0.
        -12    1    3    3    0    0  0.13516551192E+02  0.45734890210E+01 -0.40987918099E+02  0.43400730271E+02  0.00000000000E+00 0.  1.
         11    1    4    4    0    0  0.26793761285E+00  0.17413963396E+01  0.16212082502E+02  0.16307540314E+02  0.51100000000E-03 0. -1.
        -11    1    4    4    0    0 -0.51702667690E+01  0.35137076646E+01  0.65719519961E+01  0.90701903681E+01  0.51100000000E-03 0.  1.
         12    1    4    4    0    0 -0.86142220359E+01 -0.98285930252E+01  0.18203883601E+02  0.22409539047E+02  0.00000000000E+00 0. -1.
</event>
<event>
 8    1  0.2994958E-010  0.9118800E+02  0.7816164E-02  0.1184000E+00
        -11   -1    0    0    0    0  0.00000000000E+00  0.00000000000E+00  0.45593999997E+02  0.45594000000E+02  0.51100000000E-03 0. -1.
         11   -1    0    0    0    0 -0.00000000000E+00 -0.00000000000E+00 -0.45593999997E+02  0.45594000000E+02  0.51100000000E-03 0.  1.
         23    2    1    2    0    0  0.00000000000E+00  0.00000000000E+00  0.00000000000E+00  0.91188000000E+02  0.91188000000E+02 0.  0.
    9900012    2    3    3    0    0 -0.34444422154E+02  0.73860844730E+01 -0.25350561678E+02  0.47787269145E+02  0.19999991338E+02 0.  0.
         12    1    3    3    0    0  0.34444422154E+02 -0.73860844730E+01  0.25350561678E+02  0.43400730855E+02  0.00000000000E+00 0. -1.
         11    1    4    4    0    0 -0.11139845129E+02 -0.21309876925E+01 -0.59496153956E+01  0.12807622014E+02  0.51100000000E-03 0. -1.
        -11    1    4    4    0    0 -0.46574860535E-01 -0.19185513044E+01  0.84003736669E+00  0.20949155983E+01  0.51100000000E-03 0.  1.
        -12    1    4    4    0    0 -0.23258002165E+02  0.11435623470E+02 -0.20240983649E+02  0.32884731532E+02  0.00000000000E+00 0.  1.
</event>
<event>
 8    1  0.2994958E-010  0.9118800E+02  0.7816164E-02  0.1184000E+00
        -11   -1    0    0    0    0  0.00000000000E+00  0.00000000000E+00  0.45593999997E+02  0.45594000000E+02  0.51100000000E-03 0. -1.
         11   -1    0    0    0    0 -0.00000000000E+00 -0.00000000000E+00 -0.45593999997E+02  0.45594000000E+02  0.51100000000E-03 0.  1.
         23    2    1    2    0    0  0.00000000000E+00  0.00000000000E+00  0.00000000000E+00  0.91188000000E+02  0.91188000000E+02 0.  0.
    9900012    2    3    3    0    0 -0.17358551577E+02  0.18883295138E+02  0.35010351890E+02  0.47787275494E+02  0.20000020289E+02 0.  0.
        -12    1    3    3    0    0  0.17358551577E+02 -0.18883295138E+02 -0.35010351890E+02  0.43400724506E+02  0.00000000000E+00 0.  1.
         11    1    4    4    0    0 -0.10934976255E+02  0.24879475040E+01  0.17066488130E+02  0.20421278262E+02  0.51100000000E-03 0. -1.
        -11    1    4    4    0    0 -0.87111923712E+01  0.97254729814E+01  0.84974485975E+01  0.15578072094E+02  0.51100000000E-03 0.  1.
        -12    1    4    4    0    0  0.22876170494E+01  0.66698746529E+01  0.94464151624E+01  0.11787925138E+02  0.00000000000E+00 0.  1.
</event>
<event>
 8    1  0.2994958E-010  0.9118800E+02  0.7816164E-02  0.1184000E+00
        -11   -1    0    0    0    0  0.00000000000E+00  0.00000000000E+00  0.45593999997E+02  0.45594000000E+02  0.51100000000E-03 0. -1.
         11   -1    0    0    0    0 -0.00000000000E+00 -0.00000000000E+00 -0.45593999997E+02  0.45594000000E+02  0.51100000000E-03 0.  1.
         23    2    1    2    0    0  0.00000000000E+00  0.00000000000E+00  0.00000000000E+00  0.91188000000E+02  0.91188000000E+02 0.  0.
    9900012    2    3    3    0    0 -0.85756413786E+01  0.32141350992E+02 -0.27874986585E+02  0.47787274825E+02  0.20000017235E+02 0.  0.
         12    1    3    3    0    0  0.85756413786E+01 -0.32141350992E+02  0.27874986585E+02  0.43400725175E+02  0.00000000000E+00 0. -1.
         11    1    4    4    0    0 -0.48695027333E+01  0.12429514297E+02 -0.11666863245E+02  0.17729088548E+02  0.51100000000E-03 0.  1.
        -11    1    4    4    0    0 -0.90484802021E+01  0.15279857261E+02 -0.85074102220E+01  0.19690735406E+02  0.51100000000E-03 0. -1.
         12    1    4    4    0    0  0.53423415568E+01  0.44319794342E+01 -0.77007131178E+01  0.10367450870E+02  0.00000000000E+00 0. -1.
</event>
<event>
 8    1  0.2994958E-010  0.9118800E+02  0.7816164E-02  0.1184000E+00
        -11   -1    0    0    0    0  0.00000000000E+00  0.00000000000E+00  0.45593999997E+02  0.45594000000E+02  0.51100000000E-03 0. -1.
         11   -1    0    0    0    0 -0.00000000000E+00 -0.00000000000E+00 -0.45593999997E+02  0.45594000000E+02  0.51100000000E-03 0.  1.
         23    2    1    2    0    0  0.00000000000E+00  0.00000000000E+00  0.00000000000E+00  0.91188000000E+02  0.91188000000E+02 0.  0.
    9900012    2    3    3    0    0  0.20680443257E+01 -0.12467370338E+02  0.41520011279E+02  0.47787268819E+02  0.19999989852E+02 0.  0.
        -12    1    3    3    0    0 -0.20680443257E+01  0.12467370338E+02 -0.41520011279E+02  0.43400731181E+02  0.00000000000E+00 0.  1.
         11    1    4    4    0    0 -0.56863991887E+01  0.10874708954E+01  0.10508652994E+02  0.11997896345E+02  0.51100000000E-03 0. -1.
        -11    1    4    4    0    0 -0.91361012480E+00 -0.92677677888E+00  0.82645303770E+01  0.83663648780E+01  0.51100000000E-03 0.  1.
        -12    1    4    4    0    0  0.86680536392E+01 -0.12628064454E+02  0.22746827908E+02  0.27423007596E+02  0.00000000000E+00 0.  1.
</event>
<event>
 8    1  0.2994958E-010  0.9118800E+02  0.7816164E-02  0.1184000E+00
        -11   -1    0    0    0    0  0.00000000000E+00  0.00000000000E+00  0.45593999997E+02  0.45594000000E+02  0.51100000000E-03 0. -1.
         11   -1    0    0    0    0 -0.00000000000E+00 -0.00000000000E+00 -0.45593999997E+02  0.45594000000E+02  0.51100000000E-03 0.  1.
         23    2    1    2    0    0 -0.35527136788E-14  0.35527136788E-14  0.71054273576E-14  0.91188000000E+02  0.91188000000E+02 0.  0.
    9900012    2    3    3    0    0 -0.26853735285E+02  0.26260911710E+02  0.21745451509E+02  0.47787271389E+02  0.20000001572E+02 0.  0.
        -12    1    3    3    0    0  0.26853735285E+02 -0.26260911710E+02 -0.21745451509E+02  0.43400728611E+02  0.00000000000E+00 0.  1.
         11    1    4    4    0    0 -0.14607644167E+02  0.22321891301E+02  0.17500413976E+02  0.31904773764E+02  0.51100000000E-03 0. -1.
        -11    1    4    4    0    0 -0.62825329065E+01  0.41508547299E+01  0.60378214636E+01  0.96516891266E+01  0.51100000000E-03 0.  1.
        -12    1    4    4    0    0 -0.59635582121E+01 -0.21183432083E+00 -0.17927839300E+01  0.62308084988E+01  0.00000000000E+00 0.  1.
</event>
<event>
 8    1  0.2994958E-010  0.9118800E+02  0.7816164E-02  0.1184000E+00
        -11   -1    0    0    0    0  0.00000000000E+00  0.00000000000E+00  0.45593999997E+02  0.45594000000E+02  0.51100000000E-03 0. -1.
         11   -1    0    0    0    0 -0.00000000000E+00 -0.00000000000E+00 -0.45593999997E+02  0.45594000000E+02  0.51100000000E-03 0.  1.
         23    2    1    2    0    0  0.00000000000E+00  0.73205330686E-15  0.00000000000E+00  0.91188000000E+02  0.91188000000E+02 0.  0.
    9900012    2    3    3    0    0 -0.35989307166E+02  0.17828838064E-01  0.24256805957E+02  0.47787272087E+02  0.20000004755E+02 0.  0.
        -12    1    3    3    0    0  0.35989307166E+02 -0.17828838064E-01 -0.24256805957E+02  0.43400727913E+02  0.00000000000E+00 0.  1.
         11    1    4    4    0    0 -0.22911665922E+02 -0.44621612036E+01  0.89344216230E+01  0.24993583335E+02  0.51100000000E-03 0. -1.
        -11    1    4    4    0    0 -0.13266826708E+01 -0.25288411321E+01  0.11053655495E+01  0.30621818430E+01  0.51100000000E-03 0.  1.
        -12    1    4    4    0    0 -0.11750958573E+02  0.70088311738E+01  0.14217018784E+02  0.19731506910E+02  0.00000000000E+00 0.  1.
</event>
<event>
 8    1  0.2994958E-010  0.9118800E+02  0.7816164E-02  0.1184000E+00
        -11   -1    0    0    0    0  0.00000000000E+00  0.00000000000E+00  0.45593999997E+02  0.45594000000E+02  0.51100000000E-03 0. -1.
         11   -1    0    0    0    0 -0.00000000000E+00 -0.00000000000E+00 -0.45593999997E+02  0.45594000000E+02  0.51100000000E-03 0.  1.
         23    2    1    2    0    0  0.00000000000E+00  0.00000000000E+00  0.00000000000E+00  0.91188000000E+02  0.91188000000E+02 0.  0.
    9900012    2    3    3    0    0  0.17326619144E+02  0.34519849505E+01 -0.39642091367E+02  0.47787270294E+02  0.19999996579E+02 0.  0.
         12    1    3    3    0    0 -0.17326619144E+02 -0.34519849505E+01  0.39642091367E+02  0.43400729706E+02  0.00000000000E+00 0. -1.
         11    1    4    4    0    0  0.20623977644E+01  0.42833518486E+01 -0.36075076309E+01  0.59678052219E+01  0.51100000000E-03 0. -1.
        -11    1    4    4    0    0  0.63814428148E+01  0.26148318972E+01 -0.31487546062E+01  0.75812145518E+01  0.51100000000E-03 0.  1.
        -12    1    4    4    0    0  0.88827785653E+01 -0.34461987954E+01 -0.32885829130E+02  0.34238250521E+02  0.00000000000E+00 0.  1.
</event>
<event>
 8    1  0.2994958E-010  0.9118800E+02  0.7816164E-02  0.1184000E+00
        -11   -1    0    0    0    0  0.00000000000E+00  0.00000000000E+00  0.45593999997E+02  0.45594000000E+02  0.51100000000E-03 0. -1.
         11   -1    0    0    0    0 -0.00000000000E+00 -0.00000000000E+00 -0.45593999997E+02  0.45594000000E+02  0.51100000000E-03 0.  1.
         23    2    1    2    0    0  0.35527136788E-14  0.00000000000E+00  0.00000000000E+00  0.91188000000E+02  0.91188000000E+02 0.  0.
    9900012    2    3    3    0    0  0.24650655786E+02  0.29889762500E+02  0.19559306567E+02  0.47787317904E+02  0.20000213652E+02 0.  0.
        -12    1    3    3    0    0 -0.24650655786E+02 -0.29889762500E+02 -0.19559306567E+02  0.43400682096E+02  0.00000000000E+00 0.  1.
         11    1    4    4    0    0  0.13933088613E+02  0.14407542079E+02  0.16603517640E+02  0.26026621474E+02  0.51100000000E-03 0. -1.
        -11    1    4    4    0    0  0.11551201645E+01 -0.10443033355E+01  0.21439920566E+01  0.26498253246E+01  0.51100000000E-03 0.  1.
         12    1    4    4    0    0  0.95624470087E+01  0.16526523757E+02  0.81179687023E+00  0.19110871106E+02  0.00000000000E+00 0. -1.
</event>
<event>
 8    1  0.2994958E-010  0.9118800E+02  0.7816164E-02  0.1184000E+00
        -11   -1    0    0    0    0  0.00000000000E+00  0.00000000000E+00  0.45593999997E+02  0.45594000000E+02  0.51100000000E-03 0.  1.
         11   -1    0    0    0    0 -0.00000000000E+00 -0.00000000000E+00 -0.45593999997E+02  0.45594000000E+02  0.51100000000E-03 0. -1.
         23    2    1    2    0    0 -0.71054273576E-14 -0.44408920985E-15 -0.11102230246E-14  0.91188000000E+02  0.91188000000E+02 0.  0.
    9900012    2    3    3    0    0 -0.43265156363E+02 -0.30376852737E+01 -0.15880777416E+01  0.47787270998E+02  0.19999999789E+02 0.  0.
         12    1    3    3    0    0  0.43265156363E+02  0.30376852737E+01  0.15880777416E+01  0.43400729002E+02  0.00000000000E+00 0. -1.
         11    1    4    4    0    0 -0.11702246885E+00  0.25150343377E+01  0.20618949799E+01  0.32543053248E+01  0.51100000000E-03 0. -1.
        -11    1    4    4    0    0 -0.14885198502E+02 -0.29679217346E-01  0.24795505457E+01  0.15090334207E+02  0.51100000000E-03 0.  1.
        -12    1    4    4    0    0 -0.28262935393E+02 -0.55230403940E+01 -0.61295232672E+01  0.29442631467E+02  0.00000000000E+00 0.  1.
</event>
<event>
 8    1  0.2994958E-010  0.9118800E+02  0.7816164E-02  0.1184000E+00
        -11   -1    0    0    0    0  0.00000000000E+00  0.00000000000E+00  0.45593999997E+02  0.45594000000E+02  0.51100000000E-03 0. -1.
         11   -1    0    0    0    0 -0.00000000000E+00 -0.00000000000E+00 -0.45593999997E+02  0.45594000000E+02  0.51100000000E-03 0.  1.
         23    2    1    2    0    0  0.00000000000E+00  0.00000000000E+00  0.00000000000E+00  0.91188000000E+02  0.91188000000E+02 0.  0.
    9900012    2    3    3    0    0  0.25487333398E+02  0.32611587841E+02 -0.13057695330E+02  0.47787271520E+02  0.20000002170E+02 0.  0.
         12    1    3    3    0    0 -0.25487333398E+02 -0.32611587841E+02  0.13057695330E+02  0.43400728480E+02  0.00000000000E+00 0. -1.
         11    1    4    4    0    0  0.31232095387E+01  0.11298801280E+02  0.37581429124E+01  0.12310198479E+02  0.51100000000E-03 0. -1.
        -11    1    4    4    0    0  0.69946777314E+01  0.52238164149E+01 -0.27469617979E+01  0.91520256710E+01  0.51100000000E-03 0.  1.
         12    1    4    4    0    0  0.15369446128E+02  0.16088970146E+02 -0.14068876445E+02  0.26325047370E+02  0.00000000000E+00 0. -1.
</event>
<event>
 8    1  0.2994958E-010  0.9118800E+02  0.7816164E-02  0.1184000E+00
        -11   -1    0    0    0    0  0.00000000000E+00  0.00000000000E+00  0.45593999997E+02  0.45594000000E+02  0.51100000000E-03 0. -1.
         11   -1    0    0    0    0 -0.00000000000E+00 -0.00000000000E+00 -0.45593999997E+02  0.45594000000E+02  0.51100000000E-03 0.  1.
         23    2    1    2    0    0  0.00000000000E+00  0.00000000000E+00  0.00000000000E+00  0.91188000000E+02  0.91188000000E+02 0.  0.
    9900012    2    3    3    0    0 -0.28230244467E+02 -0.39869611230E+01 -0.32722785532E+02  0.47787271266E+02  0.20000001008E+02 0.  0.
         12    1    3    3    0    0  0.28230244467E+02  0.39869611230E+01  0.32722785532E+02  0.43400728734E+02  0.00000000000E+00 0. -1.
         11    1    4    4    0    0 -0.88592366481E+01 -0.24796069302E+01 -0.10527267710E+01  0.92597385725E+01  0.51100000000E-03 0. -1.
        -11    1    4    4    0    0  0.88872631003E+00 -0.35562974251E+00 -0.53083348916E-01  0.95871010788E+00  0.51100000000E-03 0.  1.
        -12    1    4    4    0    0 -0.20259734129E+02 -0.11517244503E+01 -0.31616975412E+02  0.37568822585E+02  0.00000000000E+00 0.  1.
</event>
<event>
 8    1  0.2994958E-010  0.9118800E+02  0.7816164E-02  0.1184000E+00
        -11   -1    0    0    0    0  0.00000000000E+00  0.00000000000E+00  0.45593999997E+02  0.45594000000E+02  0.51100000000E-03 0. -1.
         11   -1    0    0    0    0 -0.00000000000E+00 -0.00000000000E+00 -0.45593999997E+02  0.45594000000E+02  0.51100000000E-03 0.  1.
         23    2    1    2    0    0  0.35527136788E-14  0.00000000000E+00  0.00000000000E+00  0.91188000000E+02  0.91188000000E+02 0.  0.
    9900012    2    3    3    0    0  0.17927058694E+02  0.75942042132E+01 -0.38788807996E+02  0.47787274236E+02  0.20000014552E+02 0.  0.
         12    1    3    3    0    0 -0.17927058694E+02 -0.75942042132E+01  0.38788807996E+02  0.43400725764E+02  0.00000000000E+00 0. -1.
         11    1    4    4    0    0  0.74812964994E+01  0.28481369944E+01 -0.24385073285E+02  0.25665414102E+02  0.51100000000E-03 0. -1.
        -11    1    4    4    0    0  0.40834144839E+01  0.51199397068E+01 -0.14321722621E+02  0.15748009256E+02  0.51100000000E-03 0.  1.
         12    1    4    4    0    0  0.63623477105E+01 -0.37387248805E+00 -0.82012090440E-01  0.63738508776E+01  0.00000000000E+00 0. -1.
</event>
<event>
 8    1  0.2994958E-010  0.9118800E+02  0.7816164E-02  0.1184000E+00
        -11   -1    0    0    0    0  0.00000000000E+00  0.00000000000E+00  0.45593999997E+02  0.45594000000E+02  0.51100000000E-03 0. -1.
         11   -1    0    0    0    0 -0.00000000000E+00 -0.00000000000E+00 -0.45593999997E+02  0.45594000000E+02  0.51100000000E-03 0.  1.
         23    2    1    2    0    0  0.35527136788E-14  0.00000000000E+00  0.88817841970E-15  0.91188000000E+02  0.91188000000E+02 0.  0.
    9900012    2    3    3    0    0  0.19045561803E+02 -0.38957256470E+02  0.17949619252E+01  0.47787272537E+02  0.20000006803E+02 0.  0.
         12    1    3    3    0    0 -0.19045561803E+02  0.38957256470E+02 -0.17949619252E+01  0.43400727463E+02  0.00000000000E+00 0. -1.
         11    1    4    4    0    0  0.96746528404E+01 -0.17958263769E+02 -0.54815443209E+01  0.21122155988E+02  0.51100000000E-03 0. -1.
        -11    1    4    4    0    0  0.57393517019E+01 -0.47571675914E+01 -0.18547237459E+01  0.76818488586E+01  0.51100000000E-03 0.  1.
        -12    1    4    4    0    0  0.36315572607E+01 -0.16241825109E+02  0.91312299921E+01  0.18983267690E+02  0.00000000000E+00 0.  1.
</event>
<event>
 8    1  0.2994958E-010  0.9118800E+02  0.7816164E-02  0.1184000E+00
        -11   -1    0    0    0    0  0.00000000000E+00  0.00000000000E+00  0.45593999997E+02  0.45594000000E+02  0.51100000000E-03 0.  1.
         11   -1    0    0    0    0 -0.00000000000E+00 -0.00000000000E+00 -0.45593999997E+02  0.45594000000E+02  0.51100000000E-03 0. -1.
         23    2    1    2    0    0  0.00000000000E+00  0.00000000000E+00  0.00000000000E+00  0.91188000000E+02  0.91188000000E+02 0.  0.
    9900012    2    3    3    0    0 -0.36231970251E+02 -0.21663122156E+02  0.10078566818E+02  0.47787262231E+02  0.19999959817E+02 0.  0.
         12    1    3    3    0    0  0.36231970251E+02  0.21663122156E+02 -0.10078566818E+02  0.43400737769E+02  0.00000000000E+00 0. -1.
         11    1    4    4    0    0 -0.49227445489E+01 -0.11114265813E+02  0.69730095448E+00  0.12175653877E+02  0.51100000000E-03 0. -1.
        -11    1    4    4    0    0 -0.27041168308E+01 -0.27925378102E+01  0.38321769509E+01  0.54585800077E+01  0.51100000000E-03 0.  1.
        -12    1    4    4    0    0 -0.28605108871E+02 -0.77563185324E+01  0.55490889126E+01  0.30153028346E+02  0.00000000000E+00 0.  1.
</event>
<event>
 8    1  0.2994958E-010  0.9118800E+02  0.7816164E-02  0.1184000E+00
        -11   -1    0    0    0    0  0.00000000000E+00  0.00000000000E+00  0.45593999997E+02  0.45594000000E+02  0.51100000000E-03 0.  1.
         11   -1    0    0    0    0 -0.00000000000E+00 -0.00000000000E+00 -0.45593999997E+02  0.45594000000E+02  0.51100000000E-03 0. -1.
         23    2    1    2    0    0  0.00000000000E+00  0.00000000000E+00 -0.17763568394E-14  0.91188000000E+02  0.91188000000E+02 0.  0.
    9900012    2    3    3    0    0  0.41231086135E+02  0.36776468174E+01 -0.13042084041E+02  0.47787268369E+02  0.19999987802E+02 0.  0.
         12    1    3    3    0    0 -0.41231086135E+02 -0.36776468174E+01  0.13042084041E+02  0.43400731631E+02  0.00000000000E+00 0. -1.
         11    1    4    4    0    0  0.16260815308E+02 -0.30398630231E+01 -0.10804007716E+02  0.19758073405E+02  0.51100000000E-03 0. -1.
        -11    1    4    4    0    0  0.18017595665E+02  0.26984243500E+01 -0.59726392948E+01  0.19172575933E+02  0.51100000000E-03 0.  1.
        -12    1    4    4    0    0  0.69526751616E+01  0.40190854905E+01  0.37345629697E+01  0.88566190308E+01  0.00000000000E+00 0.  1.
</event>
<event>
 8    1  0.2994958E-010  0.9118800E+02  0.7816164E-02  0.1184000E+00
        -11   -1    0    0    0    0  0.00000000000E+00  0.00000000000E+00  0.45593999997E+02  0.45594000000E+02  0.51100000000E-03 0. -1.
         11   -1    0    0    0    0 -0.00000000000E+00 -0.00000000000E+00 -0.45593999997E+02  0.45594000000E+02  0.51100000000E-03 0.  1.
         23    2    1    2    0    0  0.00000000000E+00  0.00000000000E+00  0.00000000000E+00  0.91188000000E+02  0.91188000000E+02 0.  0.
    9900012    2    3    3    0    0 -0.24641663770E+02  0.16282648621E+02  0.31800742631E+02  0.47787268769E+02  0.19999989625E+02 0.  0.
        -12    1    3    3    0    0  0.24641663770E+02 -0.16282648621E+02 -0.31800742631E+02  0.43400731231E+02  0.00000000000E+00 0.  1.
         11    1    4    4    0    0 -0.41798565950E+01 -0.11387799074E+01  0.47323261372E+01  0.64158344557E+01  0.51100000000E-03 0.  1.
        -11    1    4    4    0    0 -0.55356077114E+01 -0.20359970028E+01  0.18168217926E+01  0.61716349712E+01  0.51100000000E-03 0. -1.
         12    1    4    4    0    0 -0.14926199464E+02  0.19457425531E+02  0.25251594702E+02  0.35199799342E+02  0.00000000000E+00 0. -1.
</event>
<event>
 8    1  0.2994958E-010  0.9118800E+02  0.7816164E-02  0.1184000E+00
        -11   -1    0    0    0    0  0.00000000000E+00  0.00000000000E+00  0.45593999997E+02  0.45594000000E+02  0.51100000000E-03 0. -1.
         11   -1    0    0    0    0 -0.00000000000E+00 -0.00000000000E+00 -0.45593999997E+02  0.45594000000E+02  0.51100000000E-03 0.  1.
         23    2    1    2    0    0  0.00000000000E+00 -0.35527136788E-14  0.00000000000E+00  0.91188000000E+02  0.91188000000E+02 0.  0.
    9900012    2    3    3    0    0  0.60615221736E+01  0.22377525068E+02 -0.36689606654E+02  0.47787275171E+02  0.20000018816E+02 0.  0.
         12    1    3    3    0    0 -0.60615221736E+01 -0.22377525068E+02  0.36689606654E+02  0.43400724829E+02  0.00000000000E+00 0. -1.
         11    1    4    4    0    0 -0.39055173467E+01  0.45969624193E+01 -0.77304426376E+01  0.98053491964E+01  0.51100000000E-03 0. -1.
        -11    1    4    4    0    0  0.77703025155E+01  0.56257080493E+01 -0.21524019718E+02  0.23565008325E+02  0.51100000000E-03 0.  1.
        -12    1    4    4    0    0  0.21967370048E+01  0.12154854600E+02 -0.74351442977E+01  0.14416917650E+02  0.00000000000E+00 0.  1.
</event>
<event>
 8    1  0.3487077E-010  0.9118800E+02  0.7816164E-02  0.1184000E+00
        -11   -1    0    0    0    0  0.00000000000E+00  0.00000000000E+00  0.45593999997E+02  0.45594000000E+02  0.51100000000E-03 0.  1.
         11   -1    0    0    0    0 -0.00000000000E+00 -0.00000000000E+00 -0.45593999997E+02  0.45594000000E+02  0.51100000000E-03 0. -1.
         23    2    1    2    0    0  0.00000000000E+00 -0.17763568394E-14  0.00000000000E+00  0.91188000000E+02  0.91188000000E+02 0.  0.
    9900012    2    3    3    0    0 -0.38943752846E+02  0.15802818122E+02  0.10829522570E+02  0.47787268376E+02  0.19999987836E+02 0.  0.
        -12    1    3    3    0    0  0.38943752846E+02 -0.15802818122E+02 -0.10829522570E+02  0.43400731624E+02  0.00000000000E+00 0.  1.
         11    1    4    4    0    0 -0.70362071354E+01 -0.62563140204E+00 -0.14069899566E+01  0.72027249359E+01  0.51100000000E-03 0. -1.
        -11    1    4    4    0    0 -0.30873662597E+01 -0.76450071652E+00  0.55040844168E+01  0.63569833487E+01  0.51100000000E-03 0.  1.
         12    1    4    4    0    0 -0.28820179451E+02  0.17192950241E+02  0.67324281101E+01  0.34227560092E+02  0.00000000000E+00 0. -1.
</event>
<event>
 8    1  0.2994958E-010  0.9118800E+02  0.7816164E-02  0.1184000E+00
        -11   -1    0    0    0    0  0.00000000000E+00  0.00000000000E+00  0.45593999997E+02  0.45594000000E+02  0.51100000000E-03 0. -1.
         11   -1    0    0    0    0 -0.00000000000E+00 -0.00000000000E+00 -0.45593999997E+02  0.45594000000E+02  0.51100000000E-03 0.  1.
         23    2    1    2    0    0  0.17763568394E-14 -0.22204460493E-15  0.00000000000E+00  0.91188000000E+02  0.91188000000E+02 0.  0.
    9900012    2    3    3    0    0 -0.12063728395E+02 -0.15333985475E+01  0.41662191638E+02  0.47787273439E+02  0.20000010920E+02 0.  0.
        -12    1    3    3    0    0  0.12063728395E+02  0.15333985475E+01 -0.41662191638E+02  0.43400726561E+02  0.00000000000E+00 0.  1.
         11    1    4    4    0    0  0.33061344622E+01 -0.27806224969E+00  0.10498767259E+02  0.11010538494E+02  0.51100000000E-03 0. -1.
        -11    1    4    4    0    0 -0.27380996062E+01  0.47476788798E+01  0.10139511473E+02  0.11525941930E+02  0.51100000000E-03 0.  1.
        -12    1    4    4    0    0 -0.12631763251E+02 -0.60030151776E+01  0.21023912906E+02  0.25250793016E+02  0.00000000000E+00 0.  1.
</event>
<event>
 8    1  0.2994958E-010  0.9118800E+02  0.7816164E-02  0.1184000E+00
        -11   -1    0    0    0    0  0.00000000000E+00  0.00000000000E+00  0.45593999997E+02  0.45594000000E+02  0.51100000000E-03 0. -1.
         11   -1    0    0    0    0 -0.00000000000E+00 -0.00000000000E+00 -0.45593999997E+02  0.45594000000E+02  0.51100000000E-03 0.  1.
         23    2    1    2    0    0  0.00000000000E+00  0.00000000000E+00  0.00000000000E+00  0.91188000000E+02  0.91188000000E+02 0.  0.
    9900012    2    3    3    0    0  0.12905617581E+02 -0.17005247900E+02  0.37787429696E+02  0.47787271154E+02  0.20000000500E+02 0.  0.
        -12    1    3    3    0    0 -0.12905617581E+02  0.17005247900E+02 -0.37787429696E+02  0.43400728846E+02  0.00000000000E+00 0.  1.
         11    1    4    4    0    0  0.74549441081E+01 -0.57516643747E+01  0.99302729166E+01  0.13684595544E+02  0.51100000000E-03 0. -1.
        -11    1    4    4    0    0  0.25063994817E+00 -0.67278073028E+01  0.15517716855E+01  0.69089946528E+01  0.51100000000E-03 0.  1.
        -12    1    4    4    0    0  0.52000335251E+01 -0.45257762224E+01  0.26305385094E+02  0.27193680958E+02  0.00000000000E+00 0.  1.
</event>
<event>
 8    1  0.2994958E-010  0.9118800E+02  0.7816164E-02  0.1184000E+00
        -11   -1    0    0    0    0  0.00000000000E+00  0.00000000000E+00  0.45593999997E+02  0.45594000000E+02  0.51100000000E-03 0. -1.
         11   -1    0    0    0    0 -0.00000000000E+00 -0.00000000000E+00 -0.45593999997E+02  0.45594000000E+02  0.51100000000E-03 0.  1.
         23    2    1    2    0    0  0.17763568394E-14  0.00000000000E+00  0.00000000000E+00  0.91188000000E+02  0.91188000000E+02 0.  0.
    9900012    2    3    3    0    0  0.40445370796E+01 -0.64736624553E+01 -0.42724198244E+02  0.47787266119E+02  0.19999977544E+02 0.  0.
         12    1    3    3    0    0 -0.40445370796E+01  0.64736624553E+01  0.42724198244E+02  0.43400733881E+02  0.00000000000E+00 0. -1.
         11    1    4    4    0    0  0.85095881534E+01 -0.45910594720E+01 -0.11378876545E+02  0.14932171621E+02  0.51100000000E-03 0. -1.
        -11    1    4    4    0    0  0.67364535375E+00 -0.33388886961E+01 -0.55440573401E+01  0.65068078071E+01  0.51100000000E-03 0.  1.
        -12    1    4    4    0    0 -0.51386964276E+01  0.14562857128E+01 -0.25801264359E+02  0.26348286691E+02  0.00000000000E+00 0.  1.
</event>
<event>
 8    1  0.2994958E-010  0.9118800E+02  0.7816164E-02  0.1184000E+00
        -11   -1    0    0    0    0  0.00000000000E+00  0.00000000000E+00  0.45593999997E+02  0.45594000000E+02  0.51100000000E-03 0. -1.
         11   -1    0    0    0    0 -0.00000000000E+00 -0.00000000000E+00 -0.45593999997E+02  0.45594000000E+02  0.51100000000E-03 0.  1.
         23    2    1    2    0    0 -0.22204460493E-15  0.00000000000E+00  0.00000000000E+00  0.91188000000E+02  0.91188000000E+02 0.  0.
    9900012    2    3    3    0    0 -0.12763095404E+01 -0.32703873675E+02 -0.28503521110E+02  0.47787273795E+02  0.20000012543E+02 0.  0.
         12    1    3    3    0    0  0.12763095404E+01  0.32703873675E+02  0.28503521110E+02  0.43400726205E+02  0.00000000000E+00 0. -1.
         11    1    4    4    0    0  0.45907112062E+00  0.10518270155E+01 -0.33410104401E+01  0.35326247163E+01  0.51100000000E-03 0. -1.
        -11    1    4    4    0    0 -0.62098537716E+01 -0.74495764531E+01 -0.74051006857E+01  0.12202212489E+02  0.51100000000E-03 0.  1.
        -12    1    4    4    0    0  0.44744731105E+01 -0.26306124238E+02 -0.17757409985E+02  0.32052436590E+02  0.00000000000E+00 0.  1.
</event>
<event>
 8    1  0.2994958E-010  0.9118800E+02  0.7816164E-02  0.1184000E+00
        -11   -1    0    0    0    0  0.00000000000E+00  0.00000000000E+00  0.45593999997E+02  0.45594000000E+02  0.51100000000E-03 0.  1.
         11   -1    0    0    0    0 -0.00000000000E+00 -0.00000000000E+00 -0.45593999997E+02  0.45594000000E+02  0.51100000000E-03 0. -1.
         23    2    1    2    0    0  0.00000000000E+00  0.35527136788E-14 -0.35527136788E-14  0.91188000000E+02  0.91188000000E+02 0.  0.
    9900012    2    3    3    0    0  0.24604605800E+02 -0.28620875278E+02  0.21426207700E+02  0.47787268385E+02  0.19999987876E+02 0.  0.
        -12    1    3    3    0    0 -0.24604605800E+02  0.28620875278E+02 -0.21426207700E+02  0.43400731615E+02  0.00000000000E+00 0.  1.
         11    1    4    4    0    0  0.38992126869E+01 -0.59521898975E+01  0.28262966647E+01  0.76563945334E+01  0.51100000000E-03 0. -1.
        -11    1    4    4    0    0 -0.49766943276E-01 -0.28628221739E+01 -0.30547449130E+01  0.41868477752E+01  0.51100000000E-03 0.  1.
         12    1    4    4    0    0  0.20755160057E+02 -0.19805863207E+02  0.21654655948E+02  0.35944026077E+02  0.00000000000E+00 0. -1.
</event>
<event>
 8    1  0.2994958E-010  0.9118800E+02  0.7816164E-02  0.1184000E+00
        -11   -1    0    0    0    0  0.00000000000E+00  0.00000000000E+00  0.45593999997E+02  0.45594000000E+02  0.51100000000E-03 0. -1.
         11   -1    0    0    0    0 -0.00000000000E+00 -0.00000000000E+00 -0.45593999997E+02  0.45594000000E+02  0.51100000000E-03 0.  1.
         23    2    1    2    0    0  0.00000000000E+00  0.00000000000E+00  0.00000000000E+00  0.91188000000E+02  0.91188000000E+02 0.  0.
    9900012    2    3    3    0    0  0.29740208024E+02 -0.15144250381E+02 -0.27745164880E+02  0.47787280339E+02  0.20000042377E+02 0.  0.
         12    1    3    3    0    0 -0.29740208024E+02  0.15144250381E+02  0.27745164880E+02  0.43400719661E+02  0.00000000000E+00 0. -1.
         11    1    4    4    0    0  0.16113622813E+02 -0.49063585113E+01 -0.55920954918E+01  0.17748034434E+02  0.51100000000E-03 0. -1.
        -11    1    4    4    0    0  0.63539327148E+01 -0.57079986349E+01 -0.29927010751E+01  0.90504126617E+01  0.51100000000E-03 0.  1.
        -12    1    4    4    0    0  0.72726524962E+01 -0.45298932348E+01 -0.19160368313E+02  0.20988833244E+02  0.00000000000E+00 0.  1.
</event>
<event>
 8    1  0.2994958E-010  0.9118800E+02  0.7816164E-02  0.1184000E+00
        -11   -1    0    0    0    0  0.00000000000E+00  0.00000000000E+00  0.45593999997E+02  0.45594000000E+02  0.51100000000E-03 0. -1.
         11   -1    0    0    0    0 -0.00000000000E+00 -0.00000000000E+00 -0.45593999997E+02  0.45594000000E+02  0.51100000000E-03 0.  1.
         23    2    1    2    0    0  0.00000000000E+00  0.00000000000E+00 -0.35527136788E-14  0.91188000000E+02  0.91188000000E+02 0.  0.
    9900012    2    3    3    0    0  0.30920638714E+01 -0.35245085802E+02 -0.25136554953E+02  0.47787270431E+02  0.19999997203E+02 0.  0.
         12    1    3    3    0    0 -0.30920638714E+01  0.35245085802E+02  0.25136554953E+02  0.43400729569E+02  0.00000000000E+00 0. -1.
         11    1    4    4    0    0  0.57682778221E+01 -0.16424839799E+02 -0.13590992743E+02  0.22085367904E+02  0.51100000000E-03 0. -1.
        -11    1    4    4    0    0  0.47152967762E+01 -0.11363004744E+02 -0.77347835591E+01  0.14531991518E+02  0.51100000000E-03 0.  1.
        -12    1    4    4    0    0 -0.73915107268E+01 -0.74572412588E+01 -0.38107786516E+01  0.11169911009E+02  0.00000000000E+00 0.  1.
</event>
<event>
 8    1  0.2994958E-010  0.9118800E+02  0.7816164E-02  0.1184000E+00
        -11   -1    0    0    0    0  0.00000000000E+00  0.00000000000E+00  0.45593999997E+02  0.45594000000E+02  0.51100000000E-03 0. -1.
         11   -1    0    0    0    0 -0.00000000000E+00 -0.00000000000E+00 -0.45593999997E+02  0.45594000000E+02  0.51100000000E-03 0.  1.
         23    2    1    2    0    0  0.35527136788E-14  0.00000000000E+00  0.00000000000E+00  0.91188000000E+02  0.91188000000E+02 0.  0.
    9900012    2    3    3    0    0  0.18678521273E+02 -0.34656222082E+02  0.18266972370E+02  0.47787272293E+02  0.20000005693E+02 0.  0.
        -12    1    3    3    0    0 -0.18678521273E+02  0.34656222082E+02 -0.18266972370E+02  0.43400727707E+02  0.00000000000E+00 0.  1.
         11    1    4    4    0    0  0.92860197003E+01 -0.10842648181E+02  0.10436369669E+02  0.17683636322E+02  0.51100000000E-03 0. -1.
        -11    1    4    4    0    0  0.91247769219E+01 -0.14508507653E+02  0.10888178212E+02  0.20305437036E+02  0.51100000000E-03 0.  1.
        -12    1    4    4    0    0  0.26772465092E+00 -0.93050662478E+01 -0.30575755107E+01  0.97981989349E+01  0.00000000000E+00 0.  1.
</event>
<event>
 8    1  0.2994958E-010  0.9118800E+02  0.7816164E-02  0.1184000E+00
        -11   -1    0    0    0    0  0.00000000000E+00  0.00000000000E+00  0.45593999997E+02  0.45594000000E+02  0.51100000000E-03 0. -1.
         11   -1    0    0    0    0 -0.00000000000E+00 -0.00000000000E+00 -0.45593999997E+02  0.45594000000E+02  0.51100000000E-03 0.  1.
         23    2    1    2    0    0  0.00000000000E+00 -0.17763568394E-14  0.35527136788E-14  0.91188000000E+02  0.91188000000E+02 0.  0.
    9900012    2    3    3    0    0 -0.26700163165E+02  0.14348811919E+02  0.31061814110E+02  0.47787269449E+02  0.19999992728E+02 0.  0.
        -12    1    3    3    0    0  0.26700163165E+02 -0.14348811919E+02 -0.31061814110E+02  0.43400730551E+02  0.00000000000E+00 0.  1.
         11    1    4    4    0    0 -0.35185921016E+01 -0.11781627701E+01  0.70884834500E+00  0.37777009050E+01  0.51100000000E-03 0. -1.
        -11    1    4    4    0    0 -0.19477449390E+02  0.72631558753E+01  0.13233631710E+02  0.24642513600E+02  0.51100000000E-03 0.  1.
         12    1    4    4    0    0 -0.37041216732E+01  0.82638188139E+01  0.17119334055E+02  0.19367054945E+02  0.00000000000E+00 0. -1.
</event>
<event>
 8    1  0.2994958E-010  0.9118800E+02  0.7816164E-02  0.1184000E+00
        -11   -1    0    0    0    0  0.00000000000E+00  0.00000000000E+00  0.45593999997E+02  0.45594000000E+02  0.51100000000E-03 0. -1.
         11   -1    0    0    0    0 -0.00000000000E+00 -0.00000000000E+00 -0.45593999997E+02  0.45594000000E+02  0.51100000000E-03 0.  1.
         23    2    1    2    0    0  0.00000000000E+00  0.00000000000E+00 -0.35527136788E-14  0.91188000000E+02  0.91188000000E+02 0.  0.
    9900012    2    3    3    0    0  0.14418681156E+01 -0.34184832460E+02  0.26700980562E+02  0.47787261332E+02  0.19999955717E+02 0.  0.
        -12    1    3    3    0    0 -0.14418681156E+01  0.34184832460E+02 -0.26700980562E+02  0.43400738668E+02  0.00000000000E+00 0.  1.
         11    1    4    4    0    0  0.17332484440E+00 -0.60089960278E+01  0.11009954608E+02  0.12544208843E+02  0.51100000000E-03 0. -1.
        -11    1    4    4    0    0  0.10006654511E+01 -0.25635236043E+02  0.18360615116E+02  0.31548040288E+02  0.51100000000E-03 0.  1.
        -12    1    4    4    0    0  0.26787782009E+00 -0.25406003890E+01 -0.26695891627E+01  0.36950122004E+01  0.00000000000E+00 0.  1.
</event>
<event>
 8    1  0.2994958E-010  0.9118800E+02  0.7816164E-02  0.1184000E+00
        -11   -1    0    0    0    0  0.00000000000E+00  0.00000000000E+00  0.45593999997E+02  0.45594000000E+02  0.51100000000E-03 0. -1.
         11   -1    0    0    0    0 -0.00000000000E+00 -0.00000000000E+00 -0.45593999997E+02  0.45594000000E+02  0.51100000000E-03 0.  1.
         23    2    1    2    0    0 -0.17763568394E-14 -0.17763568394E-14  0.71054273576E-14  0.91188000000E+02  0.91188000000E+02 0.  0.
    9900012    2    3    3    0    0 -0.13046338999E+02 -0.11281642982E+02  0.39826386798E+02  0.47787268266E+02  0.19999987333E+02 0.  0.
        -12    1    3    3    0    0  0.13046338999E+02  0.11281642982E+02 -0.39826386798E+02  0.43400731734E+02  0.00000000000E+00 0.  1.
         11    1    4    4    0    0 -0.87558563755E+00 -0.25229371430E+01  0.20369760042E+01  0.33587398737E+01  0.51100000000E-03 0. -1.
        -11    1    4    4    0    0 -0.34015488318E+01  0.52592877809E+01  0.64267732293E+01  0.89740769341E+01  0.51100000000E-03 0.  1.
         12    1    4    4    0    0 -0.87692045297E+01 -0.14017993620E+02  0.31362637564E+02  0.35454451458E+02  0.00000000000E+00 0. -1.
</event>
<event>
 8    1  0.2994958E-010  0.9118800E+02  0.7816164E-02  0.1184000E+00
        -11   -1    0    0    0    0  0.00000000000E+00  0.00000000000E+00  0.45593999997E+02  0.45594000000E+02  0.51100000000E-03 0. -1.
         11   -1    0    0    0    0 -0.00000000000E+00 -0.00000000000E+00 -0.45593999997E+02  0.45594000000E+02  0.51100000000E-03 0.  1.
         23    2    1    2    0    0  0.88817841970E-15 -0.17763568394E-14  0.00000000000E+00  0.91188000000E+02  0.91188000000E+02 0.  0.
    9900012    2    3    3    0    0 -0.66318667438E+01  0.12878910941E+02  0.40911805936E+02  0.47787264194E+02  0.19999968766E+02 0.  0.
        -12    1    3    3    0    0  0.66318667438E+01 -0.12878910941E+02 -0.40911805936E+02  0.43400735806E+02  0.00000000000E+00 0.  1.
         11    1    4    4    0    0  0.20844439040E+00 -0.22339157038E+01  0.24622262041E+01  0.33311239209E+01  0.51100000000E-03 0.  1.
        -11    1    4    4    0    0 -0.46482337409E+01  0.17682183206E+02  0.35667761741E+02  0.40080605132E+02  0.51100000000E-03 0. -1.
         12    1    4    4    0    0 -0.21920773933E+01 -0.25693565613E+01  0.27818179912E+01  0.43755351414E+01  0.00000000000E+00 0. -1.
</event>
<event>
 8    1  0.2994958E-010  0.9118800E+02  0.7816164E-02  0.1184000E+00
        -11   -1    0    0    0    0  0.00000000000E+00  0.00000000000E+00  0.45593999997E+02  0.45594000000E+02  0.51100000000E-03 0. -1.
         11   -1    0    0    0    0 -0.00000000000E+00 -0.00000000000E+00 -0.45593999997E+02  0.45594000000E+02  0.51100000000E-03 0.  1.
         23    2    1    2    0    0  0.00000000000E+00  0.00000000000E+00  0.00000000000E+00  0.91188000000E+02  0.91188000000E+02 0.  0.
    9900012    2    3    3    0    0  0.11198939407E+02  0.73271132836E+01 -0.41285837021E+02  0.47787272225E+02  0.20000005382E+02 0.  0.
         12    1    3    3    0    0 -0.11198939407E+02 -0.73271132836E+01  0.41285837021E+02  0.43400727775E+02  0.00000000000E+00 0. -1.
         11    1    4    4    0    0  0.46035328090E+01 -0.32055488682E+01 -0.11260041768E+02  0.12580007900E+02  0.51100000000E-03 0. -1.
        -11    1    4    4    0    0  0.10548290753E+02  0.61356463993E+01 -0.22894950908E+02  0.25944004546E+02  0.51100000000E-03 0.  1.
         12    1    4    4    0    0 -0.39528841550E+01  0.43970157525E+01 -0.71308443445E+01  0.92632597791E+01  0.00000000000E+00 0. -1.
</event>
<event>
 8    1  0.2994958E-010  0.9118800E+02  0.7816164E-02  0.1184000E+00
        -11   -1    0    0    0    0  0.00000000000E+00  0.00000000000E+00  0.45593999997E+02  0.45594000000E+02  0.51100000000E-03 0. -1.
         11   -1    0    0    0    0 -0.00000000000E+00 -0.00000000000E+00 -0.45593999997E+02  0.45594000000E+02  0.51100000000E-03 0.  1.
         23    2    1    2    0    0  0.00000000000E+00  0.00000000000E+00  0.00000000000E+00  0.91188000000E+02  0.91188000000E+02 0.  0.
    9900012    2    3    3    0    0 -0.68319337062E+01  0.15640161647E+02  0.39904051610E+02  0.47787270635E+02  0.19999998135E+02 0.  0.
        -12    1    3    3    0    0  0.68319337062E+01 -0.15640161647E+02 -0.39904051610E+02  0.43400729365E+02  0.00000000000E+00 0.  1.
         11    1    4    4    0    0 -0.85414518363E+01  0.33077840141E+01  0.26964951029E+02  0.28478174429E+02  0.51100000000E-03 0. -1.
        -11    1    4    4    0    0  0.21686925772E+01  0.17158840825E+01  0.60305004273E+01  0.66343365413E+01  0.51100000000E-03 0.  1.
        -12    1    4    4    0    0 -0.45917444708E+00  0.10616493551E+02  0.69086001529E+01  0.12674759665E+02  0.00000000000E+00 0.  1.
</event>
<event>
 8    1  0.2994958E-010  0.9118800E+02  0.7816164E-02  0.1184000E+00
        -11   -1    0    0    0    0  0.00000000000E+00  0.00000000000E+00  0.45593999997E+02  0.45594000000E+02  0.51100000000E-03 0. -1.
         11   -1    0    0    0    0 -0.00000000000E+00 -0.00000000000E+00 -0.45593999997E+02  0.45594000000E+02  0.51100000000E-03 0.  1.
         23    2    1    2    0    0  0.44408920985E-15 -0.35527136788E-14  0.00000000000E+00  0.91188000000E+02  0.91188000000E+02 0.  0.
    9900012    2    3    3    0    0  0.19648283737E+01 -0.23098985943E+02 -0.36690593254E+02  0.47787270334E+02  0.19999996763E+02 0.  0.
         12    1    3    3    0    0 -0.19648283737E+01  0.23098985943E+02  0.36690593254E+02  0.43400729666E+02  0.00000000000E+00 0. -1.
         11    1    4    4    0    0 -0.15324802246E+01 -0.43685940747E-01 -0.15634035584E+01  0.21896655105E+01  0.51100000000E-03 0. -1.
        -11    1    4    4    0    0 -0.39956245783E+00 -0.22906412238E+02 -0.21481824578E+02  0.31405925543E+02  0.51100000000E-03 0.  1.
         12    1    4    4    0    0  0.38968710561E+01 -0.14888776426E+00 -0.13645365118E+02  0.14191679281E+02  0.00000000000E+00 0. -1.
</event>
<event>
 8    1  0.2994958E-010  0.9118800E+02  0.7816164E-02  0.1184000E+00
        -11   -1    0    0    0    0  0.00000000000E+00  0.00000000000E+00  0.45593999997E+02  0.45594000000E+02  0.51100000000E-03 0. -1.
         11   -1    0    0    0    0 -0.00000000000E+00 -0.00000000000E+00 -0.45593999997E+02  0.45594000000E+02  0.51100000000E-03 0.  1.
         23    2    1    2    0    0  0.00000000000E+00  0.00000000000E+00  0.00000000000E+00  0.91188000000E+02  0.91188000000E+02 0.  0.
    9900012    2    3    3    0    0  0.13911738909E+02  0.36905092536E+02 -0.18113558662E+02  0.47787270260E+02  0.19999996424E+02 0.  0.
         12    1    3    3    0    0 -0.13911738909E+02 -0.36905092536E+02  0.18113558662E+02  0.43400729740E+02  0.00000000000E+00 0. -1.
         11    1    4    4    0    0 -0.37258669727E+01  0.13843251432E+02 -0.72856155663E+01  0.16080979117E+02  0.51100000000E-03 0. -1.
        -11    1    4    4    0    0  0.37736722054E+01  0.10177529341E+02 -0.34048086710E+01  0.11376090179E+02  0.51100000000E-03 0.  1.
         12    1    4    4    0    0  0.13863933676E+02  0.12884311763E+02 -0.74231344242E+01  0.20330200965E+02  0.00000000000E+00 0. -1.
</event>
<event>
 8    1  0.2994958E-010  0.9118800E+02  0.7816164E-02  0.1184000E+00
        -11   -1    0    0    0    0  0.00000000000E+00  0.00000000000E+00  0.45593999997E+02  0.45594000000E+02  0.51100000000E-03 0. -1.
         11   -1    0    0    0    0 -0.00000000000E+00 -0.00000000000E+00 -0.45593999997E+02  0.45594000000E+02  0.51100000000E-03 0.  1.
         23    2    1    2    0    0  0.00000000000E+00  0.00000000000E+00  0.35527136788E-14  0.91188000000E+02  0.91188000000E+02 0.  0.
    9900012    2    3    3    0    0 -0.30641629548E+02  0.99574334475E+01 -0.29078569376E+02  0.47787272596E+02  0.20000007073E+02 0.  0.
         12    1    3    3    0    0  0.30641629548E+02 -0.99574334475E+01  0.29078569376E+02  0.43400727404E+02  0.00000000000E+00 0. -1.
         11    1    4    4    0    0 -0.40776207106E+01  0.73981313446E+01 -0.57726694762E+01  0.10231473559E+02  0.51100000000E-03 0.  1.
        -11    1    4    4    0    0 -0.19211443026E+00 -0.15018253235E+01 -0.49308866531E+01  0.51581034018E+01  0.51100000000E-03 0. -1.
        -12    1    4    4    0    0 -0.26371894408E+02  0.40611274264E+01 -0.18375013247E+02  0.32397695635E+02  0.00000000000E+00 0.  1.
</event>
<event>
 8    1  0.2994958E-010  0.9118800E+02  0.7816164E-02  0.1184000E+00
        -11   -1    0    0    0    0  0.00000000000E+00  0.00000000000E+00  0.45593999997E+02  0.45594000000E+02  0.51100000000E-03 0. -1.
         11   -1    0    0    0    0 -0.00000000000E+00 -0.00000000000E+00 -0.45593999997E+02  0.45594000000E+02  0.51100000000E-03 0.  1.
         23    2    1    2    0    0  0.35527136788E-14  0.00000000000E+00 -0.71054273576E-14  0.91188000000E+02  0.91188000000E+02 0.  0.
    9900012    2    3    3    0    0 -0.21359103462E+02  0.10443903781E+02  0.36308940282E+02  0.47787244577E+02  0.19999879325E+02 0.  0.
        -12    1    3    3    0    0  0.21359103462E+02 -0.10443903781E+02 -0.36308940282E+02  0.43400755423E+02  0.00000000000E+00 0.  1.
         11    1    4    4    0    0 -0.54025965546E+01 -0.39818585009E+01  0.97816168103E+01  0.11862684112E+02  0.51100000000E-03 0.  1.
        -11    1    4    4    0    0 -0.10913257966E+02  0.64176362096E+01  0.22115355871E+02  0.25482822048E+02  0.51100000000E-03 0. -1.
        -12    1    4    4    0    0 -0.50432489416E+01  0.80081260723E+01  0.44119676001E+01  0.10441738418E+02  0.00000000000E+00 0.  1.
</event>
<event>
 8    1  0.2994958E-010  0.9118800E+02  0.7816164E-02  0.1184000E+00
        -11   -1    0    0    0    0  0.00000000000E+00  0.00000000000E+00  0.45593999997E+02  0.45594000000E+02  0.51100000000E-03 0.  1.
         11   -1    0    0    0    0 -0.00000000000E+00 -0.00000000000E+00 -0.45593999997E+02  0.45594000000E+02  0.51100000000E-03 0. -1.
         23    2    1    2    0    0  0.00000000000E+00  0.00000000000E+00  0.00000000000E+00  0.91188000000E+02  0.91188000000E+02 0.  0.
    9900012    2    3    3    0    0 -0.29764568293E+02  0.27885133363E+02 -0.14836202704E+02  0.47787273059E+02  0.20000009186E+02 0.  0.
         12    1    3    3    0    0  0.29764568293E+02 -0.27885133363E+02  0.14836202704E+02  0.43400726941E+02  0.00000000000E+00 0. -1.
         11    1    4    4    0    0 -0.47276403232E+01  0.93488480709E-01 -0.29882867127E+01  0.55936732886E+01  0.51100000000E-03 0. -1.
        -11    1    4    4    0    0 -0.27039654171E+02  0.23862088043E+02 -0.10113083511E+02  0.37454193381E+02  0.51100000000E-03 0.  1.
        -12    1    4    4    0    0  0.20027262014E+01  0.39295568390E+01 -0.17348324809E+01  0.47394063896E+01  0.00000000000E+00 0.  1.
</event>
<event>
 8    1  0.2994958E-010  0.9118800E+02  0.7816164E-02  0.1184000E+00
        -11   -1    0    0    0    0  0.00000000000E+00  0.00000000000E+00  0.45593999997E+02  0.45594000000E+02  0.51100000000E-03 0. -1.
         11   -1    0    0    0    0 -0.00000000000E+00 -0.00000000000E+00 -0.45593999997E+02  0.45594000000E+02  0.51100000000E-03 0.  1.
         23    2    1    2    0    0 -0.71054273576E-14 -0.35527136788E-14 -0.35527136788E-14  0.91188000000E+02  0.91188000000E+02 0.  0.
    9900012    2    3    3    0    0 -0.30966801007E+02 -0.12218666760E+02 -0.27845702529E+02  0.47787288816E+02  0.20000081027E+02 0.  0.
         12    1    3    3    0    0  0.30966801007E+02  0.12218666760E+02  0.27845702529E+02  0.43400711184E+02  0.00000000000E+00 0. -1.
         11    1    4    4    0    0 -0.12537903280E+02 -0.89430182998E+01 -0.73904669788E+01  0.17082025565E+02  0.51100000000E-03 0. -1.
        -11    1    4    4    0    0 -0.12483408261E+02  0.17543076239E+01 -0.53174176217E+01  0.13681666838E+02  0.51100000000E-03 0.  1.
        -12    1    4    4    0    0 -0.59454894653E+01 -0.50299560842E+01 -0.15137817928E+02  0.17023596413E+02  0.00000000000E+00 0.  1.
</event>
<event>
 8    1  0.2994958E-010  0.9118800E+02  0.7816164E-02  0.1184000E+00
        -11   -1    0    0    0    0  0.00000000000E+00  0.00000000000E+00  0.45593999997E+02  0.45594000000E+02  0.51100000000E-03 0.  1.
         11   -1    0    0    0    0 -0.00000000000E+00 -0.00000000000E+00 -0.45593999997E+02  0.45594000000E+02  0.51100000000E-03 0. -1.
         23    2    1    2    0    0  0.00000000000E+00 -0.35527136788E-14 -0.17763568394E-14  0.91188000000E+02  0.91188000000E+02 0.  0.
    9900012    2    3    3    0    0  0.30176247021E+02 -0.28198438454E+02 -0.13336623697E+02  0.47787270200E+02  0.19999996152E+02 0.  0.
        -12    1    3    3    0    0 -0.30176247021E+02  0.28198438454E+02  0.13336623697E+02  0.43400729800E+02  0.00000000000E+00 0.  1.
         11    1    4    4    0    0  0.16641895339E+01  0.17790526172E+01  0.69180542376E+00  0.25324197964E+01  0.51100000000E-03 0.  1.
        -11    1    4    4    0    0  0.10312944062E+02 -0.38312293756E+01 -0.18826054529E+01  0.11161511426E+02  0.51100000000E-03 0. -1.
        -12    1    4    4    0    0  0.18199113425E+02 -0.26146261696E+02 -0.12145823668E+02  0.34093338978E+02  0.00000000000E+00 0.  1.
</event>
<event>
 8    1  0.2994958E-010  0.9118800E+02  0.7816164E-02  0.1184000E+00
        -11   -1    0    0    0    0  0.00000000000E+00  0.00000000000E+00  0.45593999997E+02  0.45594000000E+02  0.51100000000E-03 0. -1.
         11   -1    0    0    0    0 -0.00000000000E+00 -0.00000000000E+00 -0.45593999997E+02  0.45594000000E+02  0.51100000000E-03 0.  1.
         23    2    1    2    0    0  0.17763568394E-14 -0.35527136788E-14  0.00000000000E+00  0.91188000000E+02  0.91188000000E+02 0.  0.
    9900012    2    3    3    0    0  0.12204345428E+02 -0.18403083351E+02 -0.37363133371E+02  0.47787271210E+02  0.20000000756E+02 0.  0.
         12    1    3    3    0    0 -0.12204345428E+02  0.18403083351E+02  0.37363133371E+02  0.43400728790E+02  0.00000000000E+00 0. -1.
         11    1    4    4    0    0  0.93851236545E-01 -0.47312254897E+01  0.83872419461E+00  0.48059089904E+01  0.51100000000E-03 0. -1.
        -11    1    4    4    0    0  0.64788696972E+01 -0.64402391575E+01 -0.11124162660E+02  0.14394423507E+02  0.51100000000E-03 0.  1.
         12    1    4    4    0    0  0.56316244944E+01 -0.72316187039E+01 -0.27077694907E+02  0.28586938713E+02  0.00000000000E+00 0. -1.
</event>
<event>
 8    1  0.2994958E-010  0.9118800E+02  0.7816164E-02  0.1184000E+00
        -11   -1    0    0    0    0  0.00000000000E+00  0.00000000000E+00  0.45593999997E+02  0.45594000000E+02  0.51100000000E-03 0. -1.
         11   -1    0    0    0    0 -0.00000000000E+00 -0.00000000000E+00 -0.45593999997E+02  0.45594000000E+02  0.51100000000E-03 0.  1.
         23    2    1    2    0    0 -0.44408920985E-15  0.00000000000E+00  0.00000000000E+00  0.91188000000E+02  0.91188000000E+02 0.  0.
    9900012    2    3    3    0    0  0.37401730366E+01  0.27520121972E+02  0.33350822166E+02  0.47787270204E+02  0.19999996167E+02 0.  0.
        -12    1    3    3    0    0 -0.37401730366E+01 -0.27520121972E+02 -0.33350822166E+02  0.43400729796E+02  0.00000000000E+00 0.  1.
         11    1    4    4    0    0  0.14568194425E+01  0.72117367971E+00  0.12151034421E+01  0.20295051122E+01  0.51100000000E-03 0. -1.
        -11    1    4    4    0    0  0.79868627406E+01  0.38646227163E+01  0.10123747200E+02  0.13461632249E+02  0.51100000000E-03 0.  1.
         12    1    4    4    0    0 -0.57035091465E+01  0.22934325576E+02  0.22011971524E+02  0.32296132842E+02  0.00000000000E+00 0. -1.
</event>
<event>
 8    1  0.2994958E-010  0.9118800E+02  0.7816164E-02  0.1184000E+00
        -11   -1    0    0    0    0  0.00000000000E+00  0.00000000000E+00  0.45593999997E+02  0.45594000000E+02  0.51100000000E-03 0. -1.
         11   -1    0    0    0    0 -0.00000000000E+00 -0.00000000000E+00 -0.45593999997E+02  0.45594000000E+02  0.51100000000E-03 0.  1.
         23    2    1    2    0    0  0.00000000000E+00  0.00000000000E+00  0.71054273576E-14  0.91188000000E+02  0.91188000000E+02 0.  0.
    9900012    2    3    3    0    0 -0.17443421281E+01  0.10918114525E+02 -0.41968743519E+02  0.47787269744E+02  0.19999994069E+02 0.  0.
         12    1    3    3    0    0  0.17443421281E+01 -0.10918114525E+02  0.41968743519E+02  0.43400730256E+02  0.00000000000E+00 0. -1.
         11    1    4    4    0    0  0.33921982282E+00  0.13342438932E+01 -0.67823980208E-01  0.13783603332E+01  0.51100000000E-03 0. -1.
        -11    1    4    4    0    0 -0.17554454032E+01 -0.30872676135E+01 -0.11512654633E+01  0.37333928683E+01  0.51100000000E-03 0.  1.
        -12    1    4    4    0    0 -0.32811654769E+00  0.12671138245E+02 -0.40749654075E+02  0.42675516542E+02  0.00000000000E+00 0.  1.
</event>
<event>
 8    1  0.2994958E-010  0.9118800E+02  0.7816164E-02  0.1184000E+00
        -11   -1    0    0    0    0  0.00000000000E+00  0.00000000000E+00  0.45593999997E+02  0.45594000000E+02  0.51100000000E-03 0. -1.
         11   -1    0    0    0    0 -0.00000000000E+00 -0.00000000000E+00 -0.45593999997E+02  0.45594000000E+02  0.51100000000E-03 0.  1.
         23    2    1    2    0    0  0.00000000000E+00  0.00000000000E+00 -0.71054273576E-14  0.91188000000E+02  0.91188000000E+02 0.  0.
    9900012    2    3    3    0    0  0.18635503512E+02  0.12257342449E+02  0.37230342769E+02  0.47787275839E+02  0.20000021859E+02 0.  0.
        -12    1    3    3    0    0 -0.18635503512E+02 -0.12257342449E+02 -0.37230342769E+02  0.43400724161E+02  0.00000000000E+00 0.  1.
         11    1    4    4    0    0  0.80470113378E+01 -0.44579390948E+01  0.13894549742E+02  0.16663916863E+02  0.51100000000E-03 0. -1.
        -11    1    4    4    0    0  0.11671874210E+01  0.63634166460E+01  0.90353976016E+01  0.11112776789E+02  0.51100000000E-03 0.  1.
        -12    1    4    4    0    0  0.94213047530E+01  0.10351864898E+02  0.14300395425E+02  0.20010582186E+02  0.00000000000E+00 0.  1.
</event>
<event>
 8    1  0.2994958E-010  0.9118800E+02  0.7816164E-02  0.1184000E+00
        -11   -1    0    0    0    0  0.00000000000E+00  0.00000000000E+00  0.45593999997E+02  0.45594000000E+02  0.51100000000E-03 0.  1.
         11   -1    0    0    0    0 -0.00000000000E+00 -0.00000000000E+00 -0.45593999997E+02  0.45594000000E+02  0.51100000000E-03 0. -1.
         23    2    1    2    0    0  0.71054273576E-14 -0.17763568394E-14  0.17763568394E-14  0.91188000000E+02  0.91188000000E+02 0.  0.
    9900012    2    3    3    0    0  0.41046793612E+02 -0.85128172012E+01 -0.11239035473E+02  0.47787271424E+02  0.20000001733E+02 0.  0.
         12    1    3    3    0    0 -0.41046793612E+02  0.85128172012E+01  0.11239035473E+02  0.43400728576E+02  0.00000000000E+00 0. -1.
         11    1    4    4    0    0  0.38731809843E+01 -0.19516288639E+01  0.28748996634E+01  0.52034060476E+01  0.51100000000E-03 0. -1.
        -11    1    4    4    0    0  0.24903976076E+02 -0.10623206696E+02 -0.76617124713E+01  0.28138272568E+02  0.51100000000E-03 0.  1.
         12    1    4    4    0    0  0.12269636552E+02  0.40620183590E+01 -0.64522226648E+01  0.14445592808E+02  0.00000000000E+00 0. -1.
</event>
<event>
 8    1  0.2994958E-010  0.9118800E+02  0.7816164E-02  0.1184000E+00
        -11   -1    0    0    0    0  0.00000000000E+00  0.00000000000E+00  0.45593999997E+02  0.45594000000E+02  0.51100000000E-03 0. -1.
         11   -1    0    0    0    0 -0.00000000000E+00 -0.00000000000E+00 -0.45593999997E+02  0.45594000000E+02  0.51100000000E-03 0.  1.
         23    2    1    2    0    0  0.35527136788E-14  0.00000000000E+00  0.00000000000E+00  0.91188000000E+02  0.91188000000E+02 0.  0.
    9900012    2    3    3    0    0 -0.22941556840E+02 -0.13436958283E+01 -0.36817154716E+02  0.47787269244E+02  0.19999991793E+02 0.  0.
         12    1    3    3    0    0  0.22941556840E+02  0.13436958283E+01  0.36817154716E+02  0.43400730756E+02  0.00000000000E+00 0. -1.
         11    1    4    4    0    0 -0.11063014379E+02  0.32091622478E+01 -0.12795950319E+02  0.17217007705E+02  0.51100000000E-03 0. -1.
        -11    1    4    4    0    0 -0.14460700514E+02 -0.98354420163E+00 -0.18022555769E+02  0.23127726548E+02  0.51100000000E-03 0.  1.
         12    1    4    4    0    0  0.25821580526E+01 -0.35693138745E+01 -0.59986486275E+01  0.74425349915E+01  0.00000000000E+00 0. -1.
</event>
<event>
 8    1  0.2994958E-010  0.9118800E+02  0.7816164E-02  0.1184000E+00
        -11   -1    0    0    0    0  0.00000000000E+00  0.00000000000E+00  0.45593999997E+02  0.45594000000E+02  0.51100000000E-03 0. -1.
         11   -1    0    0    0    0 -0.00000000000E+00 -0.00000000000E+00 -0.45593999997E+02  0.45594000000E+02  0.51100000000E-03 0.  1.
         23    2    1    2    0    0  0.00000000000E+00 -0.17763568394E-14 -0.71054273576E-14  0.91188000000E+02  0.91188000000E+02 0.  0.
    9900012    2    3    3    0    0 -0.10682016962E+02  0.15092791687E+02  0.39264809573E+02  0.47787272840E+02  0.20000008185E+02 0.  0.
        -12    1    3    3    0    0  0.10682016962E+02 -0.15092791687E+02 -0.39264809573E+02  0.43400727160E+02  0.00000000000E+00 0.  1.
         11    1    4    4    0    0  0.86198004243E+00  0.84758559450E+01  0.14302309693E+02  0.16647498503E+02  0.51100000000E-03 0. -1.
        -11    1    4    4    0    0 -0.26089942073E+01  0.21243793997E+01 -0.83928322279E+00  0.34675979001E+01  0.51100000000E-03 0.  1.
        -12    1    4    4    0    0 -0.89350027968E+01  0.44925563426E+01  0.25801783102E+02  0.27672176436E+02  0.00000000000E+00 0.  1.
</event>
<event>
 8    1  0.2994958E-010  0.9118800E+02  0.7816164E-02  0.1184000E+00
        -11   -1    0    0    0    0  0.00000000000E+00  0.00000000000E+00  0.45593999997E+02  0.45594000000E+02  0.51100000000E-03 0. -1.
         11   -1    0    0    0    0 -0.00000000000E+00 -0.00000000000E+00 -0.45593999997E+02  0.45594000000E+02  0.51100000000E-03 0.  1.
         23    2    1    2    0    0  0.00000000000E+00  0.00000000000E+00  0.00000000000E+00  0.91188000000E+02  0.91188000000E+02 0.  0.
    9900012    2    3    3    0    0 -0.49479573361E+01  0.11408458178E+01  0.43102661970E+02  0.47787270975E+02  0.19999999685E+02 0.  0.
        -12    1    3    3    0    0  0.49479573361E+01 -0.11408458178E+01 -0.43102661970E+02  0.43400729025E+02  0.00000000000E+00 0.  1.
         11    1    4    4    0    0 -0.92619143352E-01  0.49888917583E+01  0.32589453210E+02  0.32969229292E+02  0.51100000000E-03 0. -1.
        -11    1    4    4    0    0 -0.13326281563E+01  0.24148292049E+01  0.10852767550E+01  0.29639709492E+01  0.51100000000E-03 0.  1.
        -12    1    4    4    0    0 -0.35227100365E+01 -0.62628751454E+01  0.94279320048E+01  0.11854070734E+02  0.00000000000E+00 0.  1.
</event>
<event>
 8    1  0.2994958E-010  0.9118800E+02  0.7816164E-02  0.1184000E+00
        -11   -1    0    0    0    0  0.00000000000E+00  0.00000000000E+00  0.45593999997E+02  0.45594000000E+02  0.51100000000E-03 0. -1.
         11   -1    0    0    0    0 -0.00000000000E+00 -0.00000000000E+00 -0.45593999997E+02  0.45594000000E+02  0.51100000000E-03 0.  1.
         23    2    1    2    0    0 -0.35527136788E-14 -0.41633363423E-15  0.00000000000E+00  0.91188000000E+02  0.91188000000E+02 0.  0.
    9900012    2    3    3    0    0 -0.15990001567E+02 -0.23236595685E+00  0.40347104108E+02  0.47787274730E+02  0.20000016803E+02 0.  0.
        -12    1    3    3    0    0  0.15990001567E+02  0.23236595685E+00 -0.40347104108E+02  0.43400725270E+02  0.00000000000E+00 0.  1.
         11    1    4    4    0    0  0.14046797736E+01  0.38303072669E+01  0.88142994324E+01  0.97126851987E+01  0.51100000000E-03 0. -1.
        -11    1    4    4    0    0  0.89922674645E+00 -0.28304186658E+01  0.51758675201E+01  0.59673682149E+01  0.51100000000E-03 0.  1.
         12    1    4    4    0    0 -0.18293908087E+02 -0.12322545580E+01  0.26356937156E+02  0.32107221316E+02  0.00000000000E+00 0. -1.
</event>
<event>
 8    1  0.2994958E-010  0.9118800E+02  0.7816164E-02  0.1184000E+00
        -11   -1    0    0    0    0  0.00000000000E+00  0.00000000000E+00  0.45593999997E+02  0.45594000000E+02  0.51100000000E-03 0. -1.
         11   -1    0    0    0    0 -0.00000000000E+00 -0.00000000000E+00 -0.45593999997E+02  0.45594000000E+02  0.51100000000E-03 0.  1.
         23    2    1    2    0    0  0.00000000000E+00 -0.17763568394E-14  0.00000000000E+00  0.91188000000E+02  0.91188000000E+02 0.  0.
    9900012    2    3    3    0    0 -0.27697069471E+02 -0.14691694559E+02  0.30010820651E+02  0.47787275324E+02  0.20000019511E+02 0.  0.
        -12    1    3    3    0    0  0.27697069471E+02  0.14691694559E+02 -0.30010820651E+02  0.43400724676E+02  0.00000000000E+00 0.  1.
         11    1    4    4    0    0 -0.11067426936E+02 -0.53259345136E+00  0.57133154302E+01  0.12466497833E+02  0.51100000000E-03 0. -1.
        -11    1    4    4    0    0 -0.26369849137E+01  0.26149560723E+01  0.26102621175E+01  0.45392899531E+01  0.51100000000E-03 0.  1.
         12    1    4    4    0    0 -0.13992657621E+02 -0.16774057180E+02  0.21687243103E+02  0.30781487537E+02  0.00000000000E+00 0. -1.
</event>
<event>
 8    1  0.2994958E-010  0.9118800E+02  0.7816164E-02  0.1184000E+00
        -11   -1    0    0    0    0  0.00000000000E+00  0.00000000000E+00  0.45593999997E+02  0.45594000000E+02  0.51100000000E-03 0. -1.
         11   -1    0    0    0    0 -0.00000000000E+00 -0.00000000000E+00 -0.45593999997E+02  0.45594000000E+02  0.51100000000E-03 0.  1.
         23    2    1    2    0    0  0.00000000000E+00  0.00000000000E+00  0.00000000000E+00  0.91188000000E+02  0.91188000000E+02 0.  0.
    9900012    2    3    3    0    0  0.34757903780E+02  0.18105378514E+02  0.18646891347E+02  0.47787272319E+02  0.20000005812E+02 0.  0.
        -12    1    3    3    0    0 -0.34757903780E+02 -0.18105378514E+02 -0.18646891347E+02  0.43400727681E+02  0.00000000000E+00 0.  1.
         11    1    4    4    0    0  0.13613137673E+02  0.11627155819E+02  0.42743846561E+01  0.18405940188E+02  0.51100000000E-03 0. -1.
        -11    1    4    4    0    0 -0.11915294509E+01  0.16326324113E+01 -0.53840874141E+00  0.20916776178E+01  0.51100000000E-03 0.  1.
        -12    1    4    4    0    0  0.22336295558E+02  0.48455902830E+01  0.14910915432E+02  0.27289654514E+02  0.00000000000E+00 0.  1.
</event>
<event>
 8    1  0.2994958E-010  0.9118800E+02  0.7816164E-02  0.1184000E+00
        -11   -1    0    0    0    0  0.00000000000E+00  0.00000000000E+00  0.45593999997E+02  0.45594000000E+02  0.51100000000E-03 0. -1.
         11   -1    0    0    0    0 -0.00000000000E+00 -0.00000000000E+00 -0.45593999997E+02  0.45594000000E+02  0.51100000000E-03 0.  1.
         23    2    1    2    0    0  0.35527136788E-14  0.35527136788E-14  0.00000000000E+00  0.91188000000E+02  0.91188000000E+02 0.  0.
    9900012    2    3    3    0    0  0.20339747394E+02  0.19550977264E+02  0.32979951084E+02  0.47787271786E+02  0.20000003380E+02 0.  0.
        -12    1    3    3    0    0 -0.20339747394E+02 -0.19550977264E+02 -0.32979951084E+02  0.43400728214E+02  0.00000000000E+00 0.  1.
         11    1    4    4    0    0  0.20447644840E+02  0.21395308500E+02  0.25196660360E+02  0.38868201642E+02  0.51100000000E-03 0. -1.
        -11    1    4    4    0    0  0.34247702355E+00 -0.64848791252E+00 -0.25758722827E+00  0.77728921621E+00  0.51100000000E-03 0.  1.
        -12    1    4    4    0    0 -0.45037447020E+00 -0.11958433242E+01  0.80408779529E+01  0.81417809275E+01  0.00000000000E+00 0.  1.
</event>
<event>
 8    1  0.2994958E-010  0.9118800E+02  0.7816164E-02  0.1184000E+00
        -11   -1    0    0    0    0  0.00000000000E+00  0.00000000000E+00  0.45593999997E+02  0.45594000000E+02  0.51100000000E-03 0. -1.
         11   -1    0    0    0    0 -0.00000000000E+00 -0.00000000000E+00 -0.45593999997E+02  0.45594000000E+02  0.51100000000E-03 0.  1.
         23    2    1    2    0    0 -0.17763568394E-14 -0.11102230246E-15  0.00000000000E+00  0.91188000000E+02  0.91188000000E+02 0.  0.
    9900012    2    3    3    0    0 -0.90984206320E+01 -0.56895428052E+00 -0.42432513435E+02  0.47787272317E+02  0.20000005802E+02 0.  0.
         12    1    3    3    0    0  0.90984206320E+01  0.56895428052E+00  0.42432513435E+02  0.43400727683E+02  0.00000000000E+00 0. -1.
         11    1    4    4    0    0 -0.92454638187E+01  0.15975588545E+01 -0.18592771488E+02  0.20825992110E+02  0.51100000000E-03 0. -1.
        -11    1    4    4    0    0 -0.25118905089E+01 -0.26786396965E+01 -0.79401022735E+00  0.37570143804E+01  0.51100000000E-03 0.  1.
        -12    1    4    4    0    0  0.26589336956E+01  0.51212656147E+00 -0.23045731720E+02  0.23204265826E+02  0.00000000000E+00 0.  1.
</event>
<event>
 8    1  0.2994958E-010  0.9118800E+02  0.7816164E-02  0.1184000E+00
        -11   -1    0    0    0    0  0.00000000000E+00  0.00000000000E+00  0.45593999997E+02  0.45594000000E+02  0.51100000000E-03 0. -1.
         11   -1    0    0    0    0 -0.00000000000E+00 -0.00000000000E+00 -0.45593999997E+02  0.45594000000E+02  0.51100000000E-03 0.  1.
         23    2    1    2    0    0  0.00000000000E+00  0.00000000000E+00  0.00000000000E+00  0.91188000000E+02  0.91188000000E+02 0.  0.
    9900012    2    3    3    0    0 -0.37510367038E+02 -0.16764495859E+02 -0.13983832178E+02  0.47787268219E+02  0.19999987118E+02 0.  0.
         12    1    3    3    0    0  0.37510367038E+02  0.16764495859E+02  0.13983832178E+02  0.43400731781E+02  0.00000000000E+00 0. -1.
         11    1    4    4    0    0 -0.69959155135E+01 -0.55999464173E+01 -0.71941594141E+01  0.11491656264E+02  0.51100000000E-03 0. -1.
        -11    1    4    4    0    0 -0.99798376179E+01 -0.46659357443E+01 -0.95516091046E+01  0.14580855668E+02  0.51100000000E-03 0.  1.
         12    1    4    4    0    0 -0.20534613907E+02 -0.64986136973E+01  0.27619363407E+01  0.21714756288E+02  0.00000000000E+00 0. -1.
</event>
<event>
 8    1  0.2994958E-010  0.9118800E+02  0.7816164E-02  0.1184000E+00
        -11   -1    0    0    0    0  0.00000000000E+00  0.00000000000E+00  0.45593999997E+02  0.45594000000E+02  0.51100000000E-03 0. -1.
         11   -1    0    0    0    0 -0.00000000000E+00 -0.00000000000E+00 -0.45593999997E+02  0.45594000000E+02  0.51100000000E-03 0.  1.
         23    2    1    2    0    0  0.00000000000E+00 -0.35527136788E-14  0.00000000000E+00  0.91188000000E+02  0.91188000000E+02 0.  0.
    9900012    2    3    3    0    0 -0.10692496848E+02 -0.23650359586E+02 -0.34784398188E+02  0.47787270113E+02  0.19999995752E+02 0.  0.
         12    1    3    3    0    0  0.10692496848E+02  0.23650359586E+02  0.34784398188E+02  0.43400729887E+02  0.00000000000E+00 0. -1.
         11    1    4    4    0    0  0.59297260034E+00 -0.70419191629E+01 -0.17718105165E+02  0.19075415930E+02  0.51100000000E-03 0. -1.
        -11    1    4    4    0    0 -0.60671716060E+00 -0.10658524639E+02 -0.97943952054E+01  0.14488009901E+02  0.51100000000E-03 0.  1.
         12    1    4    4    0    0 -0.10678752288E+02 -0.59499157847E+01 -0.72718978174E+01  0.14223844281E+02  0.00000000000E+00 0. -1.
</event>
<event>
 8    1  0.2994958E-010  0.9118800E+02  0.7816164E-02  0.1184000E+00
        -11   -1    0    0    0    0  0.00000000000E+00  0.00000000000E+00  0.45593999997E+02  0.45594000000E+02  0.51100000000E-03 0. -1.
         11   -1    0    0    0    0 -0.00000000000E+00 -0.00000000000E+00 -0.45593999997E+02  0.45594000000E+02  0.51100000000E-03 0.  1.
         23    2    1    2    0    0  0.00000000000E+00  0.00000000000E+00  0.00000000000E+00  0.91188000000E+02  0.91188000000E+02 0.  0.
    9900012    2    3    3    0    0  0.26108441579E+01 -0.17177015408E+02 -0.39771305283E+02  0.47787273169E+02  0.20000009688E+02 0.  0.
         12    1    3    3    0    0 -0.26108441579E+01  0.17177015408E+02  0.39771305283E+02  0.43400726831E+02  0.00000000000E+00 0. -1.
         11    1    4    4    0    0  0.31633174827E+00 -0.12958196477E+01 -0.69451530133E+01  0.70720834959E+01  0.51100000000E-03 0. -1.
        -11    1    4    4    0    0  0.40036532251E+01 -0.12390998780E+02 -0.34198517422E+02  0.36593779308E+02  0.51100000000E-03 0.  1.
         12    1    4    4    0    0 -0.17091408155E+01 -0.34901969807E+01  0.13723651523E+01  0.41214103658E+01  0.00000000000E+00 0. -1.
</event>
<event>
 8    1  0.3504163E-010  0.9118800E+02  0.7816164E-02  0.1184000E+00
        -11   -1    0    0    0    0  0.00000000000E+00  0.00000000000E+00  0.45593999997E+02  0.45594000000E+02  0.51100000000E-03 0. -1.
         11   -1    0    0    0    0 -0.00000000000E+00 -0.00000000000E+00 -0.45593999997E+02  0.45594000000E+02  0.51100000000E-03 0.  1.
         23    2    1    2    0    0  0.35527136788E-14  0.00000000000E+00 -0.35527136788E-14  0.91188000000E+02  0.91188000000E+02 0.  0.
    9900012    2    3    3    0    0 -0.29106125612E+02 -0.11173025366E+02  0.30193077806E+02  0.47787251258E+02  0.19999909786E+02 0.  0.
        -12    1    3    3    0    0  0.29106125612E+02  0.11173025366E+02 -0.30193077806E+02  0.43400748742E+02  0.00000000000E+00 0.  1.
         11    1    4    4    0    0 -0.11777328804E+02 -0.23185116654E+01  0.39925777660E+01  0.12649966307E+02  0.51100000000E-03 0. -1.
        -11    1    4    4    0    0 -0.15326021589E+01 -0.34382628840E+01 -0.34075844021E+00  0.37797668728E+01  0.51100000000E-03 0.  1.
         12    1    4    4    0    0 -0.15796194649E+02 -0.54162508166E+01  0.26541258480E+02  0.31357518078E+02  0.00000000000E+00 0. -1.
</event>
<event>
 8    1  0.2994958E-010  0.9118800E+02  0.7816164E-02  0.1184000E+00
        -11   -1    0    0    0    0  0.00000000000E+00  0.00000000000E+00  0.45593999997E+02  0.45594000000E+02  0.51100000000E-03 0. -1.
         11   -1    0    0    0    0 -0.00000000000E+00 -0.00000000000E+00 -0.45593999997E+02  0.45594000000E+02  0.51100000000E-03 0.  1.
         23    2    1    2    0    0  0.00000000000E+00  0.00000000000E+00  0.00000000000E+00  0.91188000000E+02  0.91188000000E+02 0.  0.
    9900012    2    3    3    0    0 -0.20489952928E+02  0.18163528846E+02  0.33673004054E+02  0.47787272435E+02  0.20000006339E+02 0.  0.
        -12    1    3    3    0    0  0.20489952928E+02 -0.18163528846E+02 -0.33673004054E+02  0.43400727565E+02  0.00000000000E+00 0.  1.
         11    1    4    4    0    0 -0.79376209067E+01  0.33647547593E+01  0.17592682176E+02  0.19591576421E+02  0.51100000000E-03 0. -1.
        -11    1    4    4    0    0 -0.95826042959E+01  0.31866942502E+01  0.11649149716E+02  0.15417004076E+02  0.51100000000E-03 0.  1.
        -12    1    4    4    0    0 -0.29697277257E+01  0.11612079837E+02  0.44311721625E+01  0.12778691937E+02  0.00000000000E+00 0.  1.
</event>
<event>
 8    1  0.2994958E-010  0.9118800E+02  0.7816164E-02  0.1184000E+00
        -11   -1    0    0    0    0  0.00000000000E+00  0.00000000000E+00  0.45593999997E+02  0.45594000000E+02  0.51100000000E-03 0. -1.
         11   -1    0    0    0    0 -0.00000000000E+00 -0.00000000000E+00 -0.45593999997E+02  0.45594000000E+02  0.51100000000E-03 0.  1.
         23    2    1    2    0    0  0.00000000000E+00  0.00000000000E+00  0.00000000000E+00  0.91188000000E+02  0.91188000000E+02 0.  0.
    9900012    2    3    3    0    0  0.21473947477E+02  0.12117771773E+02 -0.35716276189E+02  0.47787271920E+02  0.20000003994E+02 0.  0.
         12    1    3    3    0    0 -0.21473947477E+02 -0.12117771773E+02  0.35716276189E+02  0.43400728080E+02  0.00000000000E+00 0. -1.
         11    1    4    4    0    0 -0.77684303182E+00 -0.12293166142E+00 -0.13356545569E+01  0.15500227889E+01  0.51100000000E-03 0. -1.
        -11    1    4    4    0    0  0.95936083967E+01  0.27967747285E+01 -0.27030262110E+02  0.28818298717E+02  0.51100000000E-03 0.  1.
         12    1    4    4    0    0  0.12657182112E+02  0.94439287062E+01 -0.73503595225E+01  0.17418950415E+02  0.00000000000E+00 0. -1.
</event>
<event>
 8    1  0.2994958E-010  0.9118800E+02  0.7816164E-02  0.1184000E+00
        -11   -1    0    0    0    0  0.00000000000E+00  0.00000000000E+00  0.45593999997E+02  0.45594000000E+02  0.51100000000E-03 0. -1.
         11   -1    0    0    0    0 -0.00000000000E+00 -0.00000000000E+00 -0.45593999997E+02  0.45594000000E+02  0.51100000000E-03 0.  1.
         23    2    1    2    0    0 -0.35527136788E-14  0.35527136788E-14  0.35527136788E-14  0.91188000000E+02  0.91188000000E+02 0.  0.
    9900012    2    3    3    0    0 -0.17151995821E+02  0.30815084771E+02 -0.25295557350E+02  0.47787243880E+02  0.19999876148E+02 0.  0.
         12    1    3    3    0    0  0.17151995821E+02 -0.30815084771E+02  0.25295557350E+02  0.43400756120E+02  0.00000000000E+00 0. -1.
         11    1    4    4    0    0 -0.77604961243E+01  0.12149959132E+02 -0.45740887133E+01  0.15125114704E+02  0.51100000000E-03 0. -1.
        -11    1    4    4    0    0 -0.47006304411E+01  0.19805495833E+02 -0.17635280636E+02  0.26932447255E+02  0.51100000000E-03 0.  1.
        -12    1    4    4    0    0 -0.46908692555E+01 -0.11403701934E+01 -0.30861880004E+01  0.57296819217E+01  0.00000000000E+00 0.  1.
</event>
<event>
 8    1  0.2994958E-010  0.9118800E+02  0.7816164E-02  0.1184000E+00
        -11   -1    0    0    0    0  0.00000000000E+00  0.00000000000E+00  0.45593999997E+02  0.45594000000E+02  0.51100000000E-03 0.  1.
         11   -1    0    0    0    0 -0.00000000000E+00 -0.00000000000E+00 -0.45593999997E+02  0.45594000000E+02  0.51100000000E-03 0. -1.
         23    2    1    2    0    0  0.00000000000E+00  0.00000000000E+00  0.00000000000E+00  0.91188000000E+02  0.91188000000E+02 0.  0.
    9900012    2    3    3    0    0  0.18783295547E+02  0.38630106506E+02 -0.62069313593E+01  0.47787270546E+02  0.19999997726E+02 0.  0.
        -12    1    3    3    0    0 -0.18783295547E+02 -0.38630106506E+02  0.62069313593E+01  0.43400729454E+02  0.00000000000E+00 0.  1.
         11    1    4    4    0    0  0.76330375703E+01  0.86407644419E+01 -0.48272016951E+01  0.12499117935E+02  0.51100000000E-03 0. -1.
        -11    1    4    4    0    0  0.31965199919E+01  0.20370948485E+01  0.42407318394E+01  0.56878205207E+01  0.51100000000E-03 0.  1.
         12    1    4    4    0    0  0.79537379850E+01  0.27952247215E+02 -0.56204615036E+01  0.29600332090E+02  0.00000000000E+00 0. -1.
</event>
<event>
 8    1  0.2994958E-010  0.9118800E+02  0.7816164E-02  0.1184000E+00
        -11   -1    0    0    0    0  0.00000000000E+00  0.00000000000E+00  0.45593999997E+02  0.45594000000E+02  0.51100000000E-03 0. -1.
         11   -1    0    0    0    0 -0.00000000000E+00 -0.00000000000E+00 -0.45593999997E+02  0.45594000000E+02  0.51100000000E-03 0.  1.
         23    2    1    2    0    0  0.35527136788E-14  0.00000000000E+00  0.00000000000E+00  0.91188000000E+02  0.91188000000E+02 0.  0.
    9900012    2    3    3    0    0 -0.15814423915E+02 -0.31762125165E+01  0.40291884620E+02  0.47787305352E+02  0.20000156422E+02 0.  0.
        -12    1    3    3    0    0  0.15814423915E+02  0.31762125165E+01 -0.40291884620E+02  0.43400694648E+02  0.00000000000E+00 0.  1.
         11    1    4    4    0    0 -0.80351403977E+01 -0.48020263698E+01  0.18845170031E+02  0.21041943167E+02  0.51100000000E-03 0. -1.
        -11    1    4    4    0    0 -0.60823609116E+01 -0.32869651880E+01  0.29229074064E+01  0.75061736173E+01  0.51100000000E-03 0.  1.
         12    1    4    4    0    0 -0.16969226059E+01  0.49127790412E+01  0.18523807182E+02  0.19239188568E+02  0.00000000000E+00 0. -1.
</event>
<event>
 8    1  0.2994958E-010  0.9118800E+02  0.7816164E-02  0.1184000E+00
        -11   -1    0    0    0    0  0.00000000000E+00  0.00000000000E+00  0.45593999997E+02  0.45594000000E+02  0.51100000000E-03 0. -1.
         11   -1    0    0    0    0 -0.00000000000E+00 -0.00000000000E+00 -0.45593999997E+02  0.45594000000E+02  0.51100000000E-03 0.  1.
         23    2    1    2    0    0  0.00000000000E+00  0.00000000000E+00 -0.71054273576E-14  0.91188000000E+02  0.91188000000E+02 0.  0.
    9900012    2    3    3    0    0 -0.17226978298E+02 -0.18700835731E+02 -0.35172921126E+02  0.47787257854E+02  0.19999939859E+02 0.  0.
         12    1    3    3    0    0  0.17226978298E+02  0.18700835731E+02  0.35172921126E+02  0.43400742146E+02  0.00000000000E+00 0. -1.
         11    1    4    4    0    0  0.15359529877E+01  0.45232842276E+00 -0.20013831155E+01  0.25630620786E+01  0.51100000000E-03 0. -1.
        -11    1    4    4    0    0 -0.54449695698E+01 -0.47420880599E+01 -0.66087238050E+00  0.72506444781E+01  0.51100000000E-03 0.  1.
        -12    1    4    4    0    0 -0.13317961716E+02 -0.14411076094E+02 -0.32510665630E+02  0.37973551297E+02  0.00000000000E+00 0.  1.
</event>
<event>
 8    1  0.2994958E-010  0.9118800E+02  0.7816164E-02  0.1184000E+00
        -11   -1    0    0    0    0  0.00000000000E+00  0.00000000000E+00  0.45593999997E+02  0.45594000000E+02  0.51100000000E-03 0. -1.
         11   -1    0    0    0    0 -0.00000000000E+00 -0.00000000000E+00 -0.45593999997E+02  0.45594000000E+02  0.51100000000E-03 0.  1.
         23    2    1    2    0    0  0.00000000000E+00 -0.35527136788E-14  0.35527136788E-14  0.91188000000E+02  0.91188000000E+02 0.  0.
    9900012    2    3    3    0    0 -0.13125751969E+02  0.30009296496E+02 -0.28474198803E+02  0.47787271453E+02  0.20000001863E+02 0.  0.
         12    1    3    3    0    0  0.13125751969E+02 -0.30009296496E+02  0.28474198803E+02  0.43400728547E+02  0.00000000000E+00 0. -1.
         11    1    4    4    0    0 -0.25913049668E+01  0.18631970645E+01 -0.21741074950E+00  0.31990049120E+01  0.51100000000E-03 0. -1.
        -11    1    4    4    0    0  0.25595656566E+01  0.17175884202E+02 -0.15368582698E+02  0.23189560342E+02  0.51100000000E-03 0.  1.
        -12    1    4    4    0    0 -0.13094012659E+02  0.10970215230E+02 -0.12888205355E+02  0.21398706199E+02  0.00000000000E+00 0.  1.
</event>
<event>
 8    1  0.2994958E-010  0.9118800E+02  0.7816164E-02  0.1184000E+00
        -11   -1    0    0    0    0  0.00000000000E+00  0.00000000000E+00  0.45593999997E+02  0.45594000000E+02  0.51100000000E-03 0. -1.
         11   -1    0    0    0    0 -0.00000000000E+00 -0.00000000000E+00 -0.45593999997E+02  0.45594000000E+02  0.51100000000E-03 0.  1.
         23    2    1    2    0    0 -0.35527136788E-14  0.00000000000E+00 -0.17763568394E-14  0.91188000000E+02  0.91188000000E+02 0.  0.
    9900012    2    3    3    0    0  0.28133697092E+02  0.30078855080E+02  0.13688727990E+02  0.47787266032E+02  0.19999977147E+02 0.  0.
        -12    1    3    3    0    0 -0.28133697092E+02 -0.30078855080E+02 -0.13688727990E+02  0.43400733968E+02  0.00000000000E+00 0.  1.
         11    1    4    4    0    0  0.82395139097E+01  0.69128812238E+01 -0.22232808574E+01  0.10982736194E+02  0.51100000000E-03 0. -1.
        -11    1    4    4    0    0  0.65678866061E+01  0.12743775799E+00  0.29592516548E+01  0.72048973254E+01  0.51100000000E-03 0.  1.
        -12    1    4    4    0    0  0.13326296576E+02  0.23038536098E+02  0.12952757193E+02  0.29599632512E+02  0.00000000000E+00 0.  1.
</event>
<event>
 8    1  0.2994958E-010  0.9118800E+02  0.7816164E-02  0.1184000E+00
        -11   -1    0    0    0    0  0.00000000000E+00  0.00000000000E+00  0.45593999997E+02  0.45594000000E+02  0.51100000000E-03 0. -1.
         11   -1    0    0    0    0 -0.00000000000E+00 -0.00000000000E+00 -0.45593999997E+02  0.45594000000E+02  0.51100000000E-03 0.  1.
         23    2    1    2    0    0  0.00000000000E+00  0.35527136788E-14  0.00000000000E+00  0.91188000000E+02  0.91188000000E+02 0.  0.
    9900012    2    3    3    0    0 -0.78558653659E+01  0.30644524108E+02  0.29712317524E+02  0.47787270846E+02  0.19999999094E+02 0.  0.
        -12    1    3    3    0    0  0.78558653659E+01 -0.30644524108E+02 -0.29712317524E+02  0.43400729154E+02  0.00000000000E+00 0.  1.
         11    1    4    4    0    0 -0.13776245557E+01 -0.54635307116E+00  0.16458850130E+01  0.22147886653E+01  0.51100000000E-03 0. -1.
        -11    1    4    4    0    0 -0.44555279213E+01  0.22840224699E+01  0.10638552895E+02  0.11757861015E+02  0.51100000000E-03 0.  1.
         12    1    4    4    0    0 -0.20227128889E+01  0.28906854710E+02  0.17427879616E+02  0.33814621165E+02  0.00000000000E+00 0. -1.
</event>
<event>
 8    1  0.2994958E-010  0.9118800E+02  0.7816164E-02  0.1184000E+00
        -11   -1    0    0    0    0  0.00000000000E+00  0.00000000000E+00  0.45593999997E+02  0.45594000000E+02  0.51100000000E-03 0.  1.
         11   -1    0    0    0    0 -0.00000000000E+00 -0.00000000000E+00 -0.45593999997E+02  0.45594000000E+02  0.51100000000E-03 0. -1.
         23    2    1    2    0    0  0.00000000000E+00  0.00000000000E+00 -0.88817841970E-15  0.91188000000E+02  0.91188000000E+02 0.  0.
    9900012    2    3    3    0    0 -0.15868667475E+01  0.43045887748E+02  0.53062921224E+01  0.47787270349E+02  0.19999996831E+02 0.  0.
         12    1    3    3    0    0  0.15868667475E+01 -0.43045887748E+02 -0.53062921224E+01  0.43400729651E+02  0.00000000000E+00 0. -1.
         11    1    4    4    0    0 -0.20068219683E+01  0.10188321958E+02  0.34476590149E+01  0.10941462044E+02  0.51100000000E-03 0. -1.
        -11    1    4    4    0    0 -0.70701825468E+01  0.24841485937E+02  0.13211904503E+01  0.25861795167E+02  0.51100000000E-03 0.  1.
         12    1    4    4    0    0  0.74901377677E+01  0.80160798538E+01  0.53744265716E+00  0.10984013138E+02  0.00000000000E+00 0. -1.
</event>
<event>
 8    1  0.2994958E-010  0.9118800E+02  0.7816164E-02  0.1184000E+00
        -11   -1    0    0    0    0  0.00000000000E+00  0.00000000000E+00  0.45593999997E+02  0.45594000000E+02  0.51100000000E-03 0. -1.
         11   -1    0    0    0    0 -0.00000000000E+00 -0.00000000000E+00 -0.45593999997E+02  0.45594000000E+02  0.51100000000E-03 0.  1.
         23    2    1    2    0    0  0.35527136788E-14 -0.71054273576E-14 -0.35527136788E-14  0.91188000000E+02  0.91188000000E+02 0.  0.
    9900012    2    3    3    0    0  0.22538360041E+02 -0.27516180932E+02 -0.24869759841E+02  0.47787276032E+02  0.20000022741E+02 0.  0.
         12    1    3    3    0    0 -0.22538360041E+02  0.27516180932E+02  0.24869759841E+02  0.43400723968E+02  0.00000000000E+00 0. -1.
         11    1    4    4    0    0  0.99112718436E+01 -0.16668876067E+02 -0.18588333498E+02  0.26862815961E+02  0.51100000000E-03 0. -1.
        -11    1    4    4    0    0  0.10290400444E+02 -0.12974051220E+02 -0.64232673659E+01  0.17761664063E+02  0.51100000000E-03 0.  1.
         12    1    4    4    0    0  0.23366877529E+01  0.21267463551E+01  0.14184102270E+00  0.31627960082E+01  0.00000000000E+00 0. -1.
</event>
<event>
 8    1  0.2994958E-010  0.9118800E+02  0.7816164E-02  0.1184000E+00
        -11   -1    0    0    0    0  0.00000000000E+00  0.00000000000E+00  0.45593999997E+02  0.45594000000E+02  0.51100000000E-03 0.  1.
         11   -1    0    0    0    0 -0.00000000000E+00 -0.00000000000E+00 -0.45593999997E+02  0.45594000000E+02  0.51100000000E-03 0. -1.
         23    2    1    2    0    0  0.00000000000E+00 -0.71054273576E-14  0.00000000000E+00  0.91188000000E+02  0.91188000000E+02 0.  0.
    9900012    2    3    3    0    0  0.14078191190E+02  0.37447024389E+02  0.16827033621E+02  0.47787260799E+02  0.19999953287E+02 0.  0.
         12    1    3    3    0    0 -0.14078191190E+02 -0.37447024389E+02 -0.16827033621E+02  0.43400739201E+02  0.00000000000E+00 0. -1.
         11    1    4    4    0    0  0.13719397313E+00  0.24445263235E+01  0.62842762860E+01  0.67443798702E+01  0.51100000000E-03 0. -1.
        -11    1    4    4    0    0  0.64474689141E+01  0.61332864059E+01  0.63311290758E+01  0.10921092123E+02  0.51100000000E-03 0.  1.
        -12    1    4    4    0    0  0.74935283026E+01  0.28869211659E+02  0.42116282588E+01  0.30121788805E+02  0.00000000000E+00 0.  1.
</event>
<event>
 8    1  0.2994958E-010  0.9118800E+02  0.7816164E-02  0.1184000E+00
        -11   -1    0    0    0    0  0.00000000000E+00  0.00000000000E+00  0.45593999997E+02  0.45594000000E+02  0.51100000000E-03 0.  1.
         11   -1    0    0    0    0 -0.00000000000E+00 -0.00000000000E+00 -0.45593999997E+02  0.45594000000E+02  0.51100000000E-03 0. -1.
         23    2    1    2    0    0  0.00000000000E+00  0.00000000000E+00 -0.88817841970E-15  0.91188000000E+02  0.91188000000E+02 0.  0.
    9900012    2    3    3    0    0 -0.40057494938E+02  0.15484354194E+02 -0.62653979636E+01  0.47787270316E+02  0.19999996678E+02 0.  0.
        -12    1    3    3    0    0  0.40057494938E+02 -0.15484354194E+02  0.62653979636E+01  0.43400729684E+02  0.00000000000E+00 0.  1.
         11    1    4    4    0    0 -0.75080017539E+01  0.61655851909E+01 -0.69040648882E-01  0.97154154803E+01  0.51100000000E-03 0. -1.
        -11    1    4    4    0    0 -0.11684861204E+01  0.23169978452E+00  0.37391193603E+01  0.39242908220E+01  0.51100000000E-03 0.  1.
         12    1    4    4    0    0 -0.31381007063E+02  0.90870692188E+01 -0.99354766751E+01  0.34147564013E+02  0.00000000000E+00 0. -1.
</event>
<event>
 8    1  0.3038046E-010  0.9118800E+02  0.7816164E-02  0.1184000E+00
        -11   -1    0    0    0    0  0.00000000000E+00  0.00000000000E+00  0.45593999997E+02  0.45594000000E+02  0.51100000000E-03 0. -1.
         11   -1    0    0    0    0 -0.00000000000E+00 -0.00000000000E+00 -0.45593999997E+02  0.45594000000E+02  0.51100000000E-03 0.  1.
         23    2    1    2    0    0  0.88817841970E-15  0.17763568394E-14  0.00000000000E+00  0.91188000000E+02  0.91188000000E+02 0.  0.
    9900012    2    3    3    0    0  0.76566469019E+01 -0.81250090253E+01  0.41940231247E+02  0.47787274079E+02  0.20000013836E+02 0.  0.
        -12    1    3    3    0    0 -0.76566469019E+01  0.81250090253E+01 -0.41940231247E+02  0.43400725921E+02  0.00000000000E+00 0.  1.
         11    1    4    4    0    0  0.30378055541E+01 -0.55557999518E+01  0.94821595760E+01  0.11402040439E+02  0.51100000000E-03 0. -1.
        -11    1    4    4    0    0  0.16333923525E+01 -0.31885256486E+01 -0.19715705036E+00  0.35879712308E+01  0.51100000000E-03 0.  1.
         12    1    4    4    0    0  0.29854489953E+01  0.61931657515E+00  0.32655228721E+02  0.32797262409E+02  0.00000000000E+00 0. -1.
</event>
<event>
 8    1  0.2994958E-010  0.9118800E+02  0.7816164E-02  0.1184000E+00
        -11   -1    0    0    0    0  0.00000000000E+00  0.00000000000E+00  0.45593999997E+02  0.45594000000E+02  0.51100000000E-03 0.  1.
         11   -1    0    0    0    0 -0.00000000000E+00 -0.00000000000E+00 -0.45593999997E+02  0.45594000000E+02  0.51100000000E-03 0. -1.
         23    2    1    2    0    0  0.00000000000E+00 -0.71054273576E-14  0.00000000000E+00  0.91188000000E+02  0.91188000000E+02 0.  0.
    9900012    2    3    3    0    0 -0.14824575640E+02  0.39546239659E+02 -0.99975308516E+01  0.47787265707E+02  0.19999975662E+02 0.  0.
         12    1    3    3    0    0  0.14824575640E+02 -0.39546239659E+02  0.99975308516E+01  0.43400734293E+02  0.00000000000E+00 0. -1.
         11    1    4    4    0    0 -0.33478493040E+01  0.88354595498E+01 -0.30804756301E+01  0.99379460044E+01  0.51100000000E-03 0. -1.
        -11    1    4    4    0    0 -0.32723613409E+01  0.17981723488E+02  0.45722164606E+01  0.18840273139E+02  0.51100000000E-03 0.  1.
        -12    1    4    4    0    0 -0.82043649951E+01  0.12729056622E+02 -0.11489271682E+02  0.19009046563E+02  0.00000000000E+00 0.  1.
</event>
<event>
 8    1  0.2994958E-010  0.9118800E+02  0.7816164E-02  0.1184000E+00
        -11   -1    0    0    0    0  0.00000000000E+00  0.00000000000E+00  0.45593999997E+02  0.45594000000E+02  0.51100000000E-03 0. -1.
         11   -1    0    0    0    0 -0.00000000000E+00 -0.00000000000E+00 -0.45593999997E+02  0.45594000000E+02  0.51100000000E-03 0.  1.
         23    2    1    2    0    0 -0.35527136788E-14  0.35527136788E-14  0.00000000000E+00  0.91188000000E+02  0.91188000000E+02 0.  0.
    9900012    2    3    3    0    0  0.29145287967E+02  0.22280981751E+02 -0.23189070582E+02  0.47787274742E+02  0.20000016859E+02 0.  0.
         12    1    3    3    0    0 -0.29145287967E+02 -0.22280981751E+02  0.23189070582E+02  0.43400725258E+02  0.00000000000E+00 0. -1.
         11    1    4    4    0    0  0.89782676335E+01  0.13012802501E+02 -0.97839069328E+01  0.18592126123E+02  0.51100000000E-03 0. -1.
        -11    1    4    4    0    0  0.19656616197E+02  0.11651684013E+02 -0.13845972371E+02  0.26718069762E+02  0.51100000000E-03 0.  1.
         12    1    4    4    0    0  0.51040413619E+00 -0.23835047625E+01  0.44080872237E+00  0.24770788572E+01  0.00000000000E+00 0. -1.
</event>
<event>
 8    1  0.2994958E-010  0.9118800E+02  0.7816164E-02  0.1184000E+00
        -11   -1    0    0    0    0  0.00000000000E+00  0.00000000000E+00  0.45593999997E+02  0.45594000000E+02  0.51100000000E-03 0. -1.
         11   -1    0    0    0    0 -0.00000000000E+00 -0.00000000000E+00 -0.45593999997E+02  0.45594000000E+02  0.51100000000E-03 0.  1.
         23    2    1    2    0    0 -0.35527136788E-14 -0.35527136788E-14  0.00000000000E+00  0.91188000000E+02  0.91188000000E+02 0.  0.
    9900012    2    3    3    0    0 -0.29433895153E+02 -0.23702388442E+02  0.21341647218E+02  0.47787270654E+02  0.19999998221E+02 0.  0.
        -12    1    3    3    0    0  0.29433895153E+02  0.23702388442E+02 -0.21341647218E+02  0.43400729346E+02  0.00000000000E+00 0.  1.
         11    1    4    4    0    0 -0.11528432345E+02 -0.52039214664E+01  0.30040945661E+01  0.13000389816E+02  0.51100000000E-03 0. -1.
        -11    1    4    4    0    0 -0.17491301241E+02 -0.95868820286E+01  0.15983696467E+02  0.25560369308E+02  0.51100000000E-03 0.  1.
        -12    1    4    4    0    0 -0.41416156768E+00 -0.89115849473E+01  0.23538561851E+01  0.92265115303E+01  0.00000000000E+00 0.  1.
</event>
<event>
 8    1  0.2994958E-010  0.9118800E+02  0.7816164E-02  0.1184000E+00
        -11   -1    0    0    0    0  0.00000000000E+00  0.00000000000E+00  0.45593999997E+02  0.45594000000E+02  0.51100000000E-03 0. -1.
         11   -1    0    0    0    0 -0.00000000000E+00 -0.00000000000E+00 -0.45593999997E+02  0.45594000000E+02  0.51100000000E-03 0.  1.
         23    2    1    2    0    0  0.00000000000E+00  0.00000000000E+00 -0.35527136788E-14  0.91188000000E+02  0.91188000000E+02 0.  0.
    9900012    2    3    3    0    0 -0.27197525250E+02  0.16213654187E+02 -0.29682238481E+02  0.47787271399E+02  0.20000001618E+02 0.  0.
         12    1    3    3    0    0  0.27197525250E+02 -0.16213654187E+02  0.29682238481E+02  0.43400728601E+02  0.00000000000E+00 0. -1.
         11    1    4    4    0    0 -0.52590298637E+01  0.38514600665E+01 -0.17576510158E+02  0.18746328957E+02  0.51100000000E-03 0. -1.
        -11    1    4    4    0    0 -0.11018057186E+02  0.40688870312E+01 -0.94466757461E+01  0.15072926349E+02  0.51100000000E-03 0.  1.
         12    1    4    4    0    0 -0.10920438201E+02  0.82933070892E+01 -0.26590525768E+01  0.13968016093E+02  0.00000000000E+00 0. -1.
</event>
<event>
 8    1  0.2994958E-010  0.9118800E+02  0.7816164E-02  0.1184000E+00
        -11   -1    0    0    0    0  0.00000000000E+00  0.00000000000E+00  0.45593999997E+02  0.45594000000E+02  0.51100000000E-03 0. -1.
         11   -1    0    0    0    0 -0.00000000000E+00 -0.00000000000E+00 -0.45593999997E+02  0.45594000000E+02  0.51100000000E-03 0.  1.
         23    2    1    2    0    0 -0.41633363423E-16  0.00000000000E+00  0.71054273576E-14  0.91188000000E+02  0.91188000000E+02 0.  0.
    9900012    2    3    3    0    0  0.61719222916E-01 -0.61351836235E+01  0.42964859940E+02  0.47787268704E+02  0.19999989331E+02 0.  0.
        -12    1    3    3    0    0 -0.61719222916E-01  0.61351836235E+01 -0.42964859940E+02  0.43400731296E+02  0.00000000000E+00 0.  1.
         11    1    4    4    0    0  0.34859316536E+00 -0.38625947315E+00 -0.56990664658E+00  0.77169127407E+00  0.51100000000E-03 0. -1.
        -11    1    4    4    0    0 -0.68962716564E+00 -0.24925359551E+01 -0.68410852122E+00  0.26751309958E+01  0.51100000000E-03 0.  1.
         12    1    4    4    0    0  0.40275322320E+00 -0.32563881953E+01  0.44218875107E+02  0.44340446434E+02  0.00000000000E+00 0. -1.
</event>
<event>
 8    1  0.2994958E-010  0.9118800E+02  0.7816164E-02  0.1184000E+00
        -11   -1    0    0    0    0  0.00000000000E+00  0.00000000000E+00  0.45593999997E+02  0.45594000000E+02  0.51100000000E-03 0. -1.
         11   -1    0    0    0    0 -0.00000000000E+00 -0.00000000000E+00 -0.45593999997E+02  0.45594000000E+02  0.51100000000E-03 0.  1.
         23    2    1    2    0    0  0.00000000000E+00  0.00000000000E+00  0.00000000000E+00  0.91188000000E+02  0.91188000000E+02 0.  0.
    9900012    2    3    3    0    0  0.13790884530E+02  0.21664306314E+02  0.34987036775E+02  0.47787269516E+02  0.19999993033E+02 0.  0.
        -12    1    3    3    0    0 -0.13790884530E+02 -0.21664306314E+02 -0.34987036775E+02  0.43400730484E+02  0.00000000000E+00 0.  1.
         11    1    4    4    0    0  0.52587938453E+01  0.78106245842E+01  0.64593133855E+01  0.11418559400E+02  0.51100000000E-03 0.  1.
        -11    1    4    4    0    0  0.41960971868E+01  0.16741280928E+02  0.23218024078E+02  0.28930163516E+02  0.51100000000E-03 0. -1.
         12    1    4    4    0    0  0.43359934981E+01 -0.28875991979E+01  0.53096993118E+01  0.74385466003E+01  0.00000000000E+00 0. -1.
</event>
<event>
 8    1  0.2994958E-010  0.9118800E+02  0.7816164E-02  0.1184000E+00
        -11   -1    0    0    0    0  0.00000000000E+00  0.00000000000E+00  0.45593999997E+02  0.45594000000E+02  0.51100000000E-03 0. -1.
         11   -1    0    0    0    0 -0.00000000000E+00 -0.00000000000E+00 -0.45593999997E+02  0.45594000000E+02  0.51100000000E-03 0.  1.
         23    2    1    2    0    0  0.00000000000E+00  0.13322676296E-14  0.00000000000E+00  0.91188000000E+02  0.91188000000E+02 0.  0.
    9900012    2    3    3    0    0  0.31915931751E+02 -0.25472032954E+01 -0.29300314253E+02  0.47787270058E+02  0.19999995502E+02 0.  0.
         12    1    3    3    0    0 -0.31915931751E+02  0.25472032954E+01  0.29300314253E+02  0.43400729942E+02  0.00000000000E+00 0. -1.
         11    1    4    4    0    0  0.21674626272E+02  0.39856596193E+01 -0.23008221899E+02  0.31859899276E+02  0.51100000000E-03 0. -1.
        -11    1    4    4    0    0  0.18712530484E+01  0.18680762041E+01 -0.36310141960E+00  0.26689210512E+01  0.51100000000E-03 0.  1.
        -12    1    4    4    0    0  0.83700524305E+01 -0.84009391188E+01 -0.59289909341E+01  0.13258449731E+02  0.00000000000E+00 0.  1.
</event>
<event>
 8    1  0.2994958E-010  0.9118800E+02  0.7816164E-02  0.1184000E+00
        -11   -1    0    0    0    0  0.00000000000E+00  0.00000000000E+00  0.45593999997E+02  0.45594000000E+02  0.51100000000E-03 0. -1.
         11   -1    0    0    0    0 -0.00000000000E+00 -0.00000000000E+00 -0.45593999997E+02  0.45594000000E+02  0.51100000000E-03 0.  1.
         23    2    1    2    0    0  0.00000000000E+00  0.35527136788E-14  0.35527136788E-14  0.91188000000E+02  0.91188000000E+02 0.  0.
    9900012    2    3    3    0    0 -0.13174717673E+02  0.30870078036E+02  0.27515240488E+02  0.47787270019E+02  0.19999995325E+02 0.  0.
        -12    1    3    3    0    0  0.13174717673E+02 -0.30870078036E+02 -0.27515240488E+02  0.43400729981E+02  0.00000000000E+00 0.  1.
         11    1    4    4    0    0 -0.36242414397E+01  0.73910563325E+01  0.99520132815E+01  0.12915316811E+02  0.51100000000E-03 0. -1.
        -11    1    4    4    0    0 -0.63854976847E+00  0.46975612436E+01  0.12652105927E+02  0.13511129194E+02  0.51100000000E-03 0.  1.
         12    1    4    4    0    0 -0.89119264647E+01  0.18781460460E+02  0.49111212802E+01  0.21360824014E+02  0.00000000000E+00 0. -1.
</event>
<event>
 8    1  0.3053218E-010  0.9118800E+02  0.7816164E-02  0.1184000E+00
        -11   -1    0    0    0    0  0.00000000000E+00  0.00000000000E+00  0.45593999997E+02  0.45594000000E+02  0.51100000000E-03 0. -1.
         11   -1    0    0    0    0 -0.00000000000E+00 -0.00000000000E+00 -0.45593999997E+02  0.45594000000E+02  0.51100000000E-03 0.  1.
         23    2    1    2    0    0 -0.35527136788E-14  0.17763568394E-14 -0.71054273576E-14  0.91188000000E+02  0.91188000000E+02 0.  0.
    9900012    2    3    3    0    0 -0.17737322973E+02 -0.12073340718E+02  0.37725925263E+02  0.47787267065E+02  0.19999981858E+02 0.  0.
        -12    1    3    3    0    0  0.17737322973E+02  0.12073340718E+02 -0.37725925263E+02  0.43400732935E+02  0.00000000000E+00 0.  1.
         11    1    4    4    0    0 -0.10581114297E+02 -0.87750737966E+01  0.15153452826E+02  0.20459448495E+02  0.51100000000E-03 0. -1.
        -11    1    4    4    0    0 -0.40386069099E+01 -0.43723542777E+01  0.16911086187E+01  0.61877036390E+01  0.51100000000E-03 0.  1.
         12    1    4    4    0    0 -0.31176017658E+01  0.10740873562E+01  0.20881363818E+02  0.21140114932E+02  0.00000000000E+00 0. -1.
</event>
<event>
 8    1  0.2994958E-010  0.9118800E+02  0.7816164E-02  0.1184000E+00
        -11   -1    0    0    0    0  0.00000000000E+00  0.00000000000E+00  0.45593999997E+02  0.45594000000E+02  0.51100000000E-03 0. -1.
         11   -1    0    0    0    0 -0.00000000000E+00 -0.00000000000E+00 -0.45593999997E+02  0.45594000000E+02  0.51100000000E-03 0.  1.
         23    2    1    2    0    0  0.00000000000E+00  0.00000000000E+00  0.00000000000E+00  0.91188000000E+02  0.91188000000E+02 0.  0.
    9900012    2    3    3    0    0 -0.68316811434E+01 -0.89000941965E+01 -0.41925405395E+02  0.47787272339E+02  0.20000005902E+02 0.  0.
         12    1    3    3    0    0  0.68316811434E+01  0.89000941965E+01  0.41925405395E+02  0.43400727661E+02  0.00000000000E+00 0. -1.
         11    1    4    4    0    0 -0.81393531432E+01 -0.65091398081E+01 -0.12616657541E+02  0.16364535386E+02  0.51100000000E-03 0. -1.
        -11    1    4    4    0    0 -0.24387002145E+01 -0.54759711989E+01 -0.20583622363E+02  0.21438727321E+02  0.51100000000E-03 0.  1.
         12    1    4    4    0    0  0.37463722143E+01  0.30850168106E+01 -0.87251254910E+01  0.99840096316E+01  0.00000000000E+00 0. -1.
</event>
<event>
 8    1  0.2994958E-010  0.9118800E+02  0.7816164E-02  0.1184000E+00
        -11   -1    0    0    0    0  0.00000000000E+00  0.00000000000E+00  0.45593999997E+02  0.45594000000E+02  0.51100000000E-03 0. -1.
         11   -1    0    0    0    0 -0.00000000000E+00 -0.00000000000E+00 -0.45593999997E+02  0.45594000000E+02  0.51100000000E-03 0.  1.
         23    2    1    2    0    0 -0.71054273576E-14  0.00000000000E+00 -0.35527136788E-14  0.91188000000E+02  0.91188000000E+02 0.  0.
    9900012    2    3    3    0    0 -0.35655197063E+02  0.17906830158E+02 -0.17078485493E+02  0.47787282141E+02  0.20000050594E+02 0.  0.
         12    1    3    3    0    0  0.35655197063E+02 -0.17906830158E+02  0.17078485493E+02  0.43400717859E+02  0.00000000000E+00 0. -1.
         11    1    4    4    0    0 -0.10219776284E+02 -0.20911293625E+01 -0.71881388713E+01  0.12668306517E+02  0.51100000000E-03 0.  1.
        -11    1    4    4    0    0 -0.10312366290E+02  0.41713322650E+01 -0.63963231779E-01  0.11124252915E+02  0.51100000000E-03 0. -1.
        -12    1    4    4    0    0 -0.15123054489E+02  0.15826627255E+02 -0.98263833903E+01  0.23994722709E+02  0.00000000000E+00 0.  1.
</event>
<event>
 8    1  0.2994958E-010  0.9118800E+02  0.7816164E-02  0.1184000E+00
        -11   -1    0    0    0    0  0.00000000000E+00  0.00000000000E+00  0.45593999997E+02  0.45594000000E+02  0.51100000000E-03 0. -1.
         11   -1    0    0    0    0 -0.00000000000E+00 -0.00000000000E+00 -0.45593999997E+02  0.45594000000E+02  0.51100000000E-03 0.  1.
         23    2    1    2    0    0  0.00000000000E+00 -0.88817841970E-15  0.71054273576E-14  0.91188000000E+02  0.91188000000E+02 0.  0.
    9900012    2    3    3    0    0  0.17728899946E+02  0.72827270086E+01 -0.38939327411E+02  0.47787271605E+02  0.20000002555E+02 0.  0.
         12    1    3    3    0    0 -0.17728899946E+02 -0.72827270086E+01  0.38939327411E+02  0.43400728395E+02  0.00000000000E+00 0. -1.
         11    1    4    4    0    0  0.12181244761E+01 -0.44092552948E+00 -0.11181312242E+02  0.11256108843E+02  0.51100000000E-03 0. -1.
        -11    1    4    4    0    0  0.74959710010E+01  0.21324348513E+01 -0.24070280548E+02  0.25300499315E+02  0.51100000000E-03 0.  1.
         12    1    4    4    0    0  0.90148044689E+01  0.55912176867E+01 -0.36877346208E+01  0.11230663447E+02  0.00000000000E+00 0. -1.
</event>
<event>
 8    1  0.2994958E-010  0.9118800E+02  0.7816164E-02  0.1184000E+00
        -11   -1    0    0    0    0  0.00000000000E+00  0.00000000000E+00  0.45593999997E+02  0.45594000000E+02  0.51100000000E-03 0. -1.
         11   -1    0    0    0    0 -0.00000000000E+00 -0.00000000000E+00 -0.45593999997E+02  0.45594000000E+02  0.51100000000E-03 0.  1.
         23    2    1    2    0    0  0.88817841970E-15  0.00000000000E+00 -0.35527136788E-14  0.91188000000E+02  0.91188000000E+02 0.  0.
    9900012    2    3    3    0    0 -0.40201571320E+01  0.38180575959E+02  0.20241172393E+02  0.47787273004E+02  0.20000008935E+02 0.  0.
        -12    1    3    3    0    0  0.40201571320E+01 -0.38180575959E+02 -0.20241172393E+02  0.43400726996E+02  0.00000000000E+00 0.  1.
         11    1    4    4    0    0 -0.35177302303E+01  0.12369094124E+02  0.15035265521E+02  0.19784542577E+02  0.51100000000E-03 0. -1.
        -11    1    4    4    0    0  0.23228234467E-01  0.42839395993E+00 -0.16499513602E+01  0.17048169075E+01  0.51100000000E-03 0.  1.
        -12    1    4    4    0    0 -0.52565513618E+00  0.25383087875E+02  0.68558582320E+01  0.26297913520E+02  0.00000000000E+00 0.  1.
</event>
<event>
 8    1  0.2994958E-010  0.9118800E+02  0.7816164E-02  0.1184000E+00
        -11   -1    0    0    0    0  0.00000000000E+00  0.00000000000E+00  0.45593999997E+02  0.45594000000E+02  0.51100000000E-03 0. -1.
         11   -1    0    0    0    0 -0.00000000000E+00 -0.00000000000E+00 -0.45593999997E+02  0.45594000000E+02  0.51100000000E-03 0.  1.
         23    2    1    2    0    0 -0.35527136788E-14  0.22204460493E-15  0.00000000000E+00  0.91188000000E+02  0.91188000000E+02 0.  0.
    9900012    2    3    3    0    0 -0.28631718935E+02 -0.87145892404E+00 -0.32605031894E+02  0.47787275644E+02  0.20000020970E+02 0.  0.
         12    1    3    3    0    0  0.28631718935E+02  0.87145892404E+00  0.32605031894E+02  0.43400724356E+02  0.00000000000E+00 0. -1.
         11    1    4    4    0    0 -0.54336902792E+01  0.34125486911E+01 -0.55395465185E-01  0.64166617129E+01  0.51100000000E-03 0. -1.
        -11    1    4    4    0    0 -0.33288311967E+01  0.57117917170E+00 -0.11641495859E+02  0.12121542347E+02  0.51100000000E-03 0.  1.
        -12    1    4    4    0    0 -0.19869197459E+02 -0.48551867869E+01 -0.20908140570E+02  0.29249071584E+02  0.00000000000E+00 0.  1.
</event>
<event>
 8    1  0.2994958E-010  0.9118800E+02  0.7816164E-02  0.1184000E+00
        -11   -1    0    0    0    0  0.00000000000E+00  0.00000000000E+00  0.45593999997E+02  0.45594000000E+02  0.51100000000E-03 0. -1.
         11   -1    0    0    0    0 -0.00000000000E+00 -0.00000000000E+00 -0.45593999997E+02  0.45594000000E+02  0.51100000000E-03 0.  1.
         23    2    1    2    0    0  0.00000000000E+00  0.00000000000E+00  0.00000000000E+00  0.91188000000E+02  0.91188000000E+02 0.  0.
    9900012    2    3    3    0    0 -0.13753935452E+02  0.23915395593E+02  0.33503829702E+02  0.47787268538E+02  0.19999988570E+02 0.  0.
        -12    1    3    3    0    0  0.13753935452E+02 -0.23915395593E+02 -0.33503829702E+02  0.43400731462E+02  0.00000000000E+00 0.  1.
         11    1    4    4    0    0 -0.11617665396E+02  0.50736127990E+01  0.15545000820E+02  0.20058881994E+02  0.51100000000E-03 0. -1.
        -11    1    4    4    0    0  0.18110087890E+01  0.17318745988E+01  0.59478187085E+01  0.64541219473E+01  0.51100000000E-03 0.  1.
         12    1    4    4    0    0 -0.39472788448E+01  0.17109908195E+02  0.12011010173E+02  0.21274264596E+02  0.00000000000E+00 0. -1.
</event>
<event>
 8    1  0.2994958E-010  0.9118800E+02  0.7816164E-02  0.1184000E+00
        -11   -1    0    0    0    0  0.00000000000E+00  0.00000000000E+00  0.45593999997E+02  0.45594000000E+02  0.51100000000E-03 0. -1.
         11   -1    0    0    0    0 -0.00000000000E+00 -0.00000000000E+00 -0.45593999997E+02  0.45594000000E+02  0.51100000000E-03 0.  1.
         23    2    1    2    0    0  0.00000000000E+00  0.17763568394E-14  0.00000000000E+00  0.91188000000E+02  0.91188000000E+02 0.  0.
    9900012    2    3    3    0    0  0.18971369019E+02  0.15242872910E+02  0.35935580555E+02  0.47787263061E+02  0.19999963601E+02 0.  0.
        -12    1    3    3    0    0 -0.18971369019E+02 -0.15242872910E+02 -0.35935580555E+02  0.43400736939E+02  0.00000000000E+00 0.  1.
         11    1    4    4    0    0  0.76108130643E+01  0.56665513200E+00  0.12793843140E+02  0.14897247937E+02  0.51100000000E-03 0. -1.
        -11    1    4    4    0    0  0.32510907873E+01 -0.20782795985E+01  0.10440091863E+01  0.39973482259E+01  0.51100000000E-03 0.  1.
        -12    1    4    4    0    0  0.81094651676E+01  0.16754497376E+02  0.22097728229E+02  0.28892666898E+02  0.00000000000E+00 0.  1.
</event>
<event>
 8    1  0.2994958E-010  0.9118800E+02  0.7816164E-02  0.1184000E+00
        -11   -1    0    0    0    0  0.00000000000E+00  0.00000000000E+00  0.45593999997E+02  0.45594000000E+02  0.51100000000E-03 0. -1.
         11   -1    0    0    0    0 -0.00000000000E+00 -0.00000000000E+00 -0.45593999997E+02  0.45594000000E+02  0.51100000000E-03 0.  1.
         23    2    1    2    0    0  0.00000000000E+00 -0.88817841970E-15  0.00000000000E+00  0.91188000000E+02  0.91188000000E+02 0.  0.
    9900012    2    3    3    0    0  0.23679935309E+02 -0.31017766750E+01 -0.36238969160E+02  0.47787271428E+02  0.20000001749E+02 0.  0.
         12    1    3    3    0    0 -0.23679935309E+02  0.31017766750E+01  0.36238969160E+02  0.43400728572E+02  0.00000000000E+00 0. -1.
         11    1    4    4    0    0 -0.12018385569E+01 -0.19882721867E+01 -0.37468526009E+01  0.44086899277E+01  0.51100000000E-03 0. -1.
        -11    1    4    4    0    0  0.10626476943E+02 -0.59131171693E+01 -0.77417773892E+01  0.14416035665E+02  0.51100000000E-03 0.  1.
        -12    1    4    4    0    0  0.14255296922E+02  0.47996126811E+01 -0.24750339170E+02  0.28962545835E+02  0.00000000000E+00 0.  1.
</event>
<event>
 8    1  0.2994958E-010  0.9118800E+02  0.7816164E-02  0.1184000E+00
        -11   -1    0    0    0    0  0.00000000000E+00  0.00000000000E+00  0.45593999997E+02  0.45594000000E+02  0.51100000000E-03 0.  1.
         11   -1    0    0    0    0 -0.00000000000E+00 -0.00000000000E+00 -0.45593999997E+02  0.45594000000E+02  0.51100000000E-03 0. -1.
         23    2    1    2    0    0  0.00000000000E+00  0.00000000000E+00 -0.17763568394E-14  0.91188000000E+02  0.91188000000E+02 0.  0.
    9900012    2    3    3    0    0 -0.17305674586E+02  0.37152686306E+02 -0.14276370285E+02  0.47787271651E+02  0.20000002768E+02 0.  0.
         12    1    3    3    0    0  0.17305674586E+02 -0.37152686306E+02  0.14276370285E+02  0.43400728349E+02  0.00000000000E+00 0. -1.
         11    1    4    4    0    0 -0.10594021217E+02  0.91480893982E+01 -0.50942059866E+01  0.14895360354E+02  0.51100000000E-03 0. -1.
        -11    1    4    4    0    0 -0.99505015253E+01  0.15240667436E+02 -0.34290248888E+01  0.18521572191E+02  0.51100000000E-03 0.  1.
         12    1    4    4    0    0  0.32388481560E+01  0.12763929472E+02 -0.57531394097E+01  0.14370339106E+02  0.00000000000E+00 0. -1.
</event>
<event>
 8    1  0.2994958E-010  0.9118800E+02  0.7816164E-02  0.1184000E+00
        -11   -1    0    0    0    0  0.00000000000E+00  0.00000000000E+00  0.45593999997E+02  0.45594000000E+02  0.51100000000E-03 0. -1.
         11   -1    0    0    0    0 -0.00000000000E+00 -0.00000000000E+00 -0.45593999997E+02  0.45594000000E+02  0.51100000000E-03 0.  1.
         23    2    1    2    0    0 -0.35527136788E-14  0.00000000000E+00  0.00000000000E+00  0.91188000000E+02  0.91188000000E+02 0.  0.
    9900012    2    3    3    0    0  0.26137041150E+02  0.19861204519E+02 -0.28390332279E+02  0.47787270376E+02  0.19999996951E+02 0.  0.
         12    1    3    3    0    0 -0.26137041150E+02 -0.19861204519E+02  0.28390332279E+02  0.43400729624E+02  0.00000000000E+00 0. -1.
         11    1    4    4    0    0  0.96814576015E+00  0.24224024832E+00 -0.10452107075E+00  0.10034497826E+01  0.51100000000E-03 0. -1.
        -11    1    4    4    0    0 -0.15461763771E+01 -0.21614592264E+01 -0.31633422046E+01  0.41315011244E+01  0.51100000000E-03 0.  1.
        -12    1    4    4    0    0  0.26715071766E+02  0.21780423497E+02 -0.25122469004E+02  0.42652319469E+02  0.00000000000E+00 0.  1.
</event>
<event>
 8    1  0.2994958E-010  0.9118800E+02  0.7816164E-02  0.1184000E+00
        -11   -1    0    0    0    0  0.00000000000E+00  0.00000000000E+00  0.45593999997E+02  0.45594000000E+02  0.51100000000E-03 0. -1.
         11   -1    0    0    0    0 -0.00000000000E+00 -0.00000000000E+00 -0.45593999997E+02  0.45594000000E+02  0.51100000000E-03 0.  1.
         23    2    1    2    0    0  0.00000000000E+00  0.88817841970E-15  0.00000000000E+00  0.91188000000E+02  0.91188000000E+02 0.  0.
    9900012    2    3    3    0    0 -0.25694453147E+02  0.58880879067E+01  0.34478239524E+02  0.47787268412E+02  0.19999987996E+02 0.  0.
        -12    1    3    3    0    0  0.25694453147E+02 -0.58880879067E+01 -0.34478239524E+02  0.43400731588E+02  0.00000000000E+00 0.  1.
         11    1    4    4    0    0 -0.18480435065E+02  0.62335405186E+01  0.28887024624E+02  0.34854608009E+02  0.51100000000E-03 0. -1.
        -11    1    4    4    0    0  0.85058885389E+00 -0.12461347545E+00  0.47433242265E+01  0.48205969439E+01  0.51100000000E-03 0.  1.
        -12    1    4    4    0    0 -0.80646069361E+01 -0.22083913644E+00  0.84789067361E+00  0.81120634583E+01  0.00000000000E+00 0.  1.
</event>
<event>
 8    1  0.2994958E-010  0.9118800E+02  0.7816164E-02  0.1184000E+00
        -11   -1    0    0    0    0  0.00000000000E+00  0.00000000000E+00  0.45593999997E+02  0.45594000000E+02  0.51100000000E-03 0. -1.
         11   -1    0    0    0    0 -0.00000000000E+00 -0.00000000000E+00 -0.45593999997E+02  0.45594000000E+02  0.51100000000E-03 0.  1.
         23    2    1    2    0    0  0.00000000000E+00  0.00000000000E+00  0.00000000000E+00  0.91188000000E+02  0.91188000000E+02 0.  0.
    9900012    2    3    3    0    0  0.34009085833E+02 -0.78855600810E+01  0.25784167645E+02  0.47787270995E+02  0.19999999777E+02 0.  0.
        -12    1    3    3    0    0 -0.34009085833E+02  0.78855600810E+01 -0.25784167645E+02  0.43400729005E+02  0.00000000000E+00 0.  1.
         11    1    4    4    0    0  0.16423989010E+02 -0.28430777733E+01  0.17466290957E+02  0.24143359880E+02  0.51100000000E-03 0. -1.
        -11    1    4    4    0    0  0.29485103377E+00  0.23683156047E+01  0.34809217957E+01  0.42205062190E+01  0.51100000000E-03 0.  1.
        -12    1    4    4    0    0  0.17290245789E+02 -0.74107979124E+01  0.48369548921E+01  0.19423404897E+02  0.00000000000E+00 0.  1.
</event>
<event>
 8    1  0.2994958E-010  0.9118800E+02  0.7816164E-02  0.1184000E+00
        -11   -1    0    0    0    0  0.00000000000E+00  0.00000000000E+00  0.45593999997E+02  0.45594000000E+02  0.51100000000E-03 0. -1.
         11   -1    0    0    0    0 -0.00000000000E+00 -0.00000000000E+00 -0.45593999997E+02  0.45594000000E+02  0.51100000000E-03 0.  1.
         23    2    1    2    0    0  0.00000000000E+00  0.00000000000E+00  0.00000000000E+00  0.91188000000E+02  0.91188000000E+02 0.  0.
    9900012    2    3    3    0    0 -0.77696900187E+01  0.82637770046E+01  0.41892309967E+02  0.47787265816E+02  0.19999976161E+02 0.  0.
        -12    1    3    3    0    0  0.77696900187E+01 -0.82637770046E+01 -0.41892309967E+02  0.43400734184E+02  0.00000000000E+00 0.  1.
         11    1    4    4    0    0  0.23057016500E+01  0.82838548725E+01  0.77854044864E+01  0.11599613568E+02  0.51100000000E-03 0. -1.
        -11    1    4    4    0    0 -0.49264431591E+01 -0.31055878519E+01  0.13020903257E+02  0.14263885866E+02  0.51100000000E-03 0.  1.
        -12    1    4    4    0    0 -0.51489485096E+01  0.30855099840E+01  0.21086002224E+02  0.21923766382E+02  0.00000000000E+00 0.  1.
</event>
<event>
 8    1  0.2994958E-010  0.9118800E+02  0.7816164E-02  0.1184000E+00
        -11   -1    0    0    0    0  0.00000000000E+00  0.00000000000E+00  0.45593999997E+02  0.45594000000E+02  0.51100000000E-03 0. -1.
         11   -1    0    0    0    0 -0.00000000000E+00 -0.00000000000E+00 -0.45593999997E+02  0.45594000000E+02  0.51100000000E-03 0.  1.
         23    2    1    2    0    0  0.00000000000E+00  0.44408920985E-15  0.71054273576E-14  0.91188000000E+02  0.91188000000E+02 0.  0.
    9900012    2    3    3    0    0 -0.53806980670E+01 -0.22361787612E+01 -0.43007799292E+02  0.47787271814E+02  0.20000003511E+02 0.  0.
         12    1    3    3    0    0  0.53806980670E+01  0.22361787612E+01  0.43007799292E+02  0.43400728186E+02  0.00000000000E+00 0. -1.
         11    1    4    4    0    0 -0.18880087351E+01  0.24978145586E+01 -0.55594695760E+01  0.63805451789E+01  0.51100000000E-03 0. -1.
        -11    1    4    4    0    0 -0.22732614014E+01 -0.55688213483E+01 -0.38883935648E+02  0.39346409498E+02  0.51100000000E-03 0.  1.
        -12    1    4    4    0    0 -0.12194279305E+01  0.83482802853E+00  0.14356059326E+01  0.20603171378E+01  0.00000000000E+00 0.  1.
</event>
<event>
 8    1  0.2994958E-010  0.9118800E+02  0.7816164E-02  0.1184000E+00
        -11   -1    0    0    0    0  0.00000000000E+00  0.00000000000E+00  0.45593999997E+02  0.45594000000E+02  0.51100000000E-03 0. -1.
         11   -1    0    0    0    0 -0.00000000000E+00 -0.00000000000E+00 -0.45593999997E+02  0.45594000000E+02  0.51100000000E-03 0.  1.
         23    2    1    2    0    0  0.00000000000E+00  0.00000000000E+00 -0.71054273576E-14  0.91188000000E+02  0.91188000000E+02 0.  0.
    9900012    2    3    3    0    0  0.62589952768E+01 -0.33722241266E+02 -0.26594335974E+02  0.47787270930E+02  0.19999999480E+02 0.  0.
         12    1    3    3    0    0 -0.62589952768E+01  0.33722241266E+02  0.26594335974E+02  0.43400729070E+02  0.00000000000E+00 0. -1.
         11    1    4    4    0    0  0.57815542422E+01 -0.16543257230E+02 -0.62037916744E+01  0.18590125353E+02  0.51100000000E-03 0. -1.
        -11    1    4    4    0    0 -0.23021074760E+00 -0.18769380830E+02 -0.16732137049E+02  0.25145716618E+02  0.51100000000E-03 0.  1.
         12    1    4    4    0    0  0.70765178228E+00  0.15903967940E+01 -0.36584072503E+01  0.40514289598E+01  0.00000000000E+00 0. -1.
</event>
<event>
 8    1  0.2994958E-010  0.9118800E+02  0.7816164E-02  0.1184000E+00
        -11   -1    0    0    0    0  0.00000000000E+00  0.00000000000E+00  0.45593999997E+02  0.45594000000E+02  0.51100000000E-03 0. -1.
         11   -1    0    0    0    0 -0.00000000000E+00 -0.00000000000E+00 -0.45593999997E+02  0.45594000000E+02  0.51100000000E-03 0.  1.
         23    2    1    2    0    0  0.00000000000E+00  0.17763568394E-14  0.00000000000E+00  0.91188000000E+02  0.91188000000E+02 0.  0.
    9900012    2    3    3    0    0 -0.20671783913E+02 -0.10442443140E+02  0.36704987118E+02  0.47787270188E+02  0.19999996095E+02 0.  0.
        -12    1    3    3    0    0  0.20671783913E+02  0.10442443140E+02 -0.36704987118E+02  0.43400729812E+02  0.00000000000E+00 0.  1.
         11    1    4    4    0    0  0.14455617250E+01 -0.11288773643E+01  0.51491807187E+00  0.19050337756E+01  0.51100000000E-03 0.  1.
        -11    1    4    4    0    0 -0.85139396765E+01 -0.10901466096E+02  0.13188132183E+02  0.19111670848E+02  0.51100000000E-03 0. -1.
        -12    1    4    4    0    0 -0.13603405961E+02  0.15879003201E+01  0.23001936863E+02  0.26770565564E+02  0.00000000000E+00 0.  1.
</event>
<event>
 8    1  0.2994958E-010  0.9118800E+02  0.7816164E-02  0.1184000E+00
        -11   -1    0    0    0    0  0.00000000000E+00  0.00000000000E+00  0.45593999997E+02  0.45594000000E+02  0.51100000000E-03 0. -1.
         11   -1    0    0    0    0 -0.00000000000E+00 -0.00000000000E+00 -0.45593999997E+02  0.45594000000E+02  0.51100000000E-03 0.  1.
         23    2    1    2    0    0  0.17763568394E-14  0.00000000000E+00  0.71054273576E-14  0.91188000000E+02  0.91188000000E+02 0.  0.
    9900012    2    3    3    0    0 -0.86913817629E+01  0.42558478510E+01 -0.42308080375E+02  0.47787239374E+02  0.19999855603E+02 0.  0.
         12    1    3    3    0    0  0.86913817629E+01 -0.42558478510E+01  0.42308080375E+02  0.43400760626E+02  0.00000000000E+00 0. -1.
         11    1    4    4    0    0 -0.24366451892E+01  0.10466837347E+01  0.12660112404E+01  0.29386342646E+01  0.51100000000E-03 0. -1.
        -11    1    4    4    0    0 -0.13993281915E+01 -0.22803312342E+01 -0.60444858541E+01  0.66101315740E+01  0.51100000000E-03 0.  1.
         12    1    4    4    0    0 -0.48554083822E+01  0.54894953504E+01 -0.37529605761E+02  0.38238473536E+02  0.00000000000E+00 0. -1.
</event>
<event>
 8    1  0.2994958E-010  0.9118800E+02  0.7816164E-02  0.1184000E+00
        -11   -1    0    0    0    0  0.00000000000E+00  0.00000000000E+00  0.45593999997E+02  0.45594000000E+02  0.51100000000E-03 0.  1.
         11   -1    0    0    0    0 -0.00000000000E+00 -0.00000000000E+00 -0.45593999997E+02  0.45594000000E+02  0.51100000000E-03 0. -1.
         23    2    1    2    0    0 -0.35527136788E-14  0.71054273576E-14  0.00000000000E+00  0.91188000000E+02  0.91188000000E+02 0.  0.
    9900012    2    3    3    0    0  0.20886375089E+02 -0.37761300976E+02 -0.46332308641E+01  0.47787270237E+02  0.19999996318E+02 0.  0.
         12    1    3    3    0    0 -0.20886375089E+02  0.37761300976E+02  0.46332308641E+01  0.43400729763E+02  0.00000000000E+00 0. -1.
         11    1    4    4    0    0  0.13641713405E+01 -0.52619683747E+00 -0.35526421143E+01  0.38417590777E+01  0.51100000000E-03 0. -1.
        -11    1    4    4    0    0  0.13133538841E+02 -0.13492031952E+02 -0.37985680301E+01  0.19208172428E+02  0.51100000000E-03 0.  1.
        -12    1    4    4    0    0  0.63886649073E+01 -0.23743072186E+02  0.27179792802E+01  0.24737338731E+02  0.00000000000E+00 0.  1.
</event>
<event>
 8    1  0.2994958E-010  0.9118800E+02  0.7816164E-02  0.1184000E+00
        -11   -1    0    0    0    0  0.00000000000E+00  0.00000000000E+00  0.45593999997E+02  0.45594000000E+02  0.51100000000E-03 0. -1.
         11   -1    0    0    0    0 -0.00000000000E+00 -0.00000000000E+00 -0.45593999997E+02  0.45594000000E+02  0.51100000000E-03 0.  1.
         23    2    1    2    0    0  0.00000000000E+00  0.00000000000E+00  0.00000000000E+00  0.91188000000E+02  0.91188000000E+02 0.  0.
    9900012    2    3    3    0    0 -0.27061066138E+02  0.86591498986E+01 -0.32807635430E+02  0.47787272817E+02  0.20000008083E+02 0.  0.
         12    1    3    3    0    0  0.27061066138E+02 -0.86591498986E+01  0.32807635430E+02  0.43400727183E+02  0.00000000000E+00 0. -1.
         11    1    4    4    0    0 -0.28981788779E+01  0.57942364153E+01 -0.80366961681E+01  0.10322843698E+02  0.51100000000E-03 0. -1.
        -11    1    4    4    0    0 -0.10501458700E+02  0.60259673859E+01 -0.18485798278E+02  0.22097910670E+02  0.51100000000E-03 0.  1.
         12    1    4    4    0    0 -0.13661428560E+02 -0.31610539026E+01 -0.62851409840E+01  0.15366518449E+02  0.00000000000E+00 0. -1.
</event>
<event>
 8    1  0.2994958E-010  0.9118800E+02  0.7816164E-02  0.1184000E+00
        -11   -1    0    0    0    0  0.00000000000E+00  0.00000000000E+00  0.45593999997E+02  0.45594000000E+02  0.51100000000E-03 0. -1.
         11   -1    0    0    0    0 -0.00000000000E+00 -0.00000000000E+00 -0.45593999997E+02  0.45594000000E+02  0.51100000000E-03 0.  1.
         23    2    1    2    0    0  0.00000000000E+00  0.00000000000E+00  0.00000000000E+00  0.91188000000E+02  0.91188000000E+02 0.  0.
    9900012    2    3    3    0    0  0.17461347327E+02 -0.12696069639E+02 -0.37650160977E+02  0.47787268942E+02  0.19999990415E+02 0.  0.
         12    1    3    3    0    0 -0.17461347327E+02  0.12696069639E+02  0.37650160977E+02  0.43400731058E+02  0.00000000000E+00 0. -1.
         11    1    4    4    0    0  0.12551472267E+01  0.31301377778E+01 -0.17785000391E+01  0.38126394688E+01  0.51100000000E-03 0. -1.
        -11    1    4    4    0    0  0.63817250983E+00 -0.58262656495E+01 -0.14877542141E+02  0.15990431389E+02  0.51100000000E-03 0.  1.
         12    1    4    4    0    0  0.15568027590E+02 -0.99999417671E+01 -0.20994118797E+02  0.27984198085E+02  0.00000000000E+00 0. -1.
</event>
<event>
 8    1  0.2994958E-010  0.9118800E+02  0.7816164E-02  0.1184000E+00
        -11   -1    0    0    0    0  0.00000000000E+00  0.00000000000E+00  0.45593999997E+02  0.45594000000E+02  0.51100000000E-03 0. -1.
         11   -1    0    0    0    0 -0.00000000000E+00 -0.00000000000E+00 -0.45593999997E+02  0.45594000000E+02  0.51100000000E-03 0.  1.
         23    2    1    2    0    0  0.88817841970E-15  0.00000000000E+00  0.00000000000E+00  0.91188000000E+02  0.91188000000E+02 0.  0.
    9900012    2    3    3    0    0  0.20680954020E+01 -0.24138342366E+02  0.36009526114E+02  0.47787279249E+02  0.20000037407E+02 0.  0.
        -12    1    3    3    0    0 -0.20680954020E+01  0.24138342366E+02 -0.36009526114E+02  0.43400720751E+02  0.00000000000E+00 0.  1.
         11    1    4    4    0    0 -0.14550847986E+01 -0.16818013677E+01  0.54944621514E+01  0.59274650742E+01  0.51100000000E-03 0. -1.
        -11    1    4    4    0    0  0.61895699792E+01 -0.14836983649E+02  0.80313248393E+01  0.17970782934E+02  0.51100000000E-03 0.  1.
        -12    1    4    4    0    0 -0.26663897786E+01 -0.76195573495E+01  0.22483739123E+02  0.23889031241E+02  0.00000000000E+00 0.  1.
</event>
<event>
 8    1  0.2994958E-010  0.9118800E+02  0.7816164E-02  0.1184000E+00
        -11   -1    0    0    0    0  0.00000000000E+00  0.00000000000E+00  0.45593999997E+02  0.45594000000E+02  0.51100000000E-03 0. -1.
         11   -1    0    0    0    0 -0.00000000000E+00 -0.00000000000E+00 -0.45593999997E+02  0.45594000000E+02  0.51100000000E-03 0.  1.
         23    2    1    2    0    0  0.00000000000E+00  0.00000000000E+00  0.00000000000E+00  0.91188000000E+02  0.91188000000E+02 0.  0.
    9900012    2    3    3    0    0  0.21273607557E+02 -0.30163912744E+02 -0.22829700107E+02  0.47787271694E+02  0.20000002962E+02 0.  0.
         12    1    3    3    0    0 -0.21273607557E+02  0.30163912744E+02  0.22829700107E+02  0.43400728306E+02  0.00000000000E+00 0. -1.
         11    1    4    4    0    0  0.50339236529E+01 -0.14717850821E+02 -0.11799389656E+02  0.19523860188E+02  0.51100000000E-03 0. -1.
        -11    1    4    4    0    0  0.25431109507E+01 -0.97452966099E+01 -0.85717678484E+01  0.13225483871E+02  0.51100000000E-03 0.  1.
        -12    1    4    4    0    0  0.13696572953E+02 -0.57007653125E+01 -0.24585426029E+01  0.15037927634E+02  0.00000000000E+00 0.  1.
</event>
<event>
 8    1  0.2994958E-010  0.9118800E+02  0.7816164E-02  0.1184000E+00
        -11   -1    0    0    0    0  0.00000000000E+00  0.00000000000E+00  0.45593999997E+02  0.45594000000E+02  0.51100000000E-03 0. -1.
         11   -1    0    0    0    0 -0.00000000000E+00 -0.00000000000E+00 -0.45593999997E+02  0.45594000000E+02  0.51100000000E-03 0.  1.
         23    2    1    2    0    0  0.00000000000E+00  0.00000000000E+00  0.00000000000E+00  0.91188000000E+02  0.91188000000E+02 0.  0.
    9900012    2    3    3    0    0 -0.67976029170E+01 -0.36165369308E+02  0.23010474428E+02  0.47787271020E+02  0.19999999888E+02 0.  0.
        -12    1    3    3    0    0  0.67976029170E+01  0.36165369308E+02 -0.23010474428E+02  0.43400728980E+02  0.00000000000E+00 0.  1.
         11    1    4    4    0    0  0.19162964010E+01 -0.35803093904E+01  0.20711358374E+01  0.45585536243E+01  0.51100000000E-03 0. -1.
        -11    1    4    4    0    0 -0.12484388687E+02 -0.27804338670E+02  0.21212870826E+02  0.37133907668E+02  0.51100000000E-03 0.  1.
        -12    1    4    4    0    0  0.37704893694E+01 -0.47807212471E+01 -0.27353223499E+00  0.60948097272E+01  0.00000000000E+00 0.  1.
</event>
<event>
 8    1  0.2994958E-010  0.9118800E+02  0.7816164E-02  0.1184000E+00
        -11   -1    0    0    0    0  0.00000000000E+00  0.00000000000E+00  0.45593999997E+02  0.45594000000E+02  0.51100000000E-03 0. -1.
         11   -1    0    0    0    0 -0.00000000000E+00 -0.00000000000E+00 -0.45593999997E+02  0.45594000000E+02  0.51100000000E-03 0.  1.
         23    2    1    2    0    0  0.00000000000E+00  0.71054273576E-14  0.00000000000E+00  0.91188000000E+02  0.91188000000E+02 0.  0.
    9900012    2    3    3    0    0  0.27842885406E+01 -0.38014718093E+02  0.20754559783E+02  0.47787276433E+02  0.20000024568E+02 0.  0.
        -12    1    3    3    0    0 -0.27842885406E+01  0.38014718093E+02 -0.20754559783E+02  0.43400723567E+02  0.00000000000E+00 0.  1.
         11    1    4    4    0    0  0.58569382982E+01 -0.20054015287E+02  0.47453150543E+01  0.21423941527E+02  0.51100000000E-03 0. -1.
        -11    1    4    4    0    0 -0.41986470277E+00 -0.51686179186E+01 -0.61281452392E+00  0.52217276316E+01  0.51100000000E-03 0.  1.
        -12    1    4    4    0    0 -0.26527850548E+01 -0.12792084888E+02  0.16622059252E+02  0.21141607274E+02  0.00000000000E+00 0.  1.
</event>
<event>
 8    1  0.2994958E-010  0.9118800E+02  0.7816164E-02  0.1184000E+00
        -11   -1    0    0    0    0  0.00000000000E+00  0.00000000000E+00  0.45593999997E+02  0.45594000000E+02  0.51100000000E-03 0.  1.
         11   -1    0    0    0    0 -0.00000000000E+00 -0.00000000000E+00 -0.45593999997E+02  0.45594000000E+02  0.51100000000E-03 0. -1.
         23    2    1    2    0    0 -0.35527136788E-14  0.00000000000E+00  0.35527136788E-14  0.91188000000E+02  0.91188000000E+02 0.  0.
    9900012    2    3    3    0    0 -0.19844236781E+02  0.35005024249E+02  0.16262767370E+02  0.47787273524E+02  0.20000011307E+02 0.  0.
        -12    1    3    3    0    0  0.19844236781E+02 -0.35005024249E+02 -0.16262767370E+02  0.43400726476E+02  0.00000000000E+00 0.  1.
         11    1    4    4    0    0 -0.48489073635E+01  0.48211848600E+01 -0.16225059504E+01  0.70276775605E+01  0.51100000000E-03 0. -1.
        -11    1    4    4    0    0 -0.17212039261E+02  0.21549745079E+02  0.11996011768E+02  0.30075739510E+02  0.51100000000E-03 0.  1.
        -12    1    4    4    0    0  0.22167098442E+01  0.86340943103E+01  0.58892615524E+01  0.10683856454E+02  0.00000000000E+00 0.  1.
</event>
<event>
 8    1  0.2994958E-010  0.9118800E+02  0.7816164E-02  0.1184000E+00
        -11   -1    0    0    0    0  0.00000000000E+00  0.00000000000E+00  0.45593999997E+02  0.45594000000E+02  0.51100000000E-03 0. -1.
         11   -1    0    0    0    0 -0.00000000000E+00 -0.00000000000E+00 -0.45593999997E+02  0.45594000000E+02  0.51100000000E-03 0.  1.
         23    2    1    2    0    0  0.00000000000E+00 -0.22204460493E-15  0.00000000000E+00  0.91188000000E+02  0.91188000000E+02 0.  0.
    9900012    2    3    3    0    0 -0.20606600547E+02 -0.11758106619E+01 -0.38178641841E+02  0.47787271784E+02  0.20000003373E+02 0.  0.
         12    1    3    3    0    0  0.20606600547E+02  0.11758106619E+01  0.38178641841E+02  0.43400728216E+02  0.00000000000E+00 0. -1.
         11    1    4    4    0    0 -0.10945442790E+02 -0.13278655068E+01 -0.34705788278E+01  0.11559016496E+02  0.51100000000E-03 0. -1.
        -11    1    4    4    0    0 -0.94951321303E+00  0.11586494788E+01 -0.72731677158E+01  0.74258341511E+01  0.51100000000E-03 0.  1.
         12    1    4    4    0    0 -0.87116445440E+01 -0.10065946339E+01 -0.27434895297E+02  0.28802421138E+02  0.00000000000E+00 0. -1.
</event>
<event>
 8    1  0.2994958E-010  0.9118800E+02  0.7816164E-02  0.1184000E+00
        -11   -1    0    0    0    0  0.00000000000E+00  0.00000000000E+00  0.45593999997E+02  0.45594000000E+02  0.51100000000E-03 0. -1.
         11   -1    0    0    0    0 -0.00000000000E+00 -0.00000000000E+00 -0.45593999997E+02  0.45594000000E+02  0.51100000000E-03 0.  1.
         23    2    1    2    0    0  0.44408920985E-15  0.00000000000E+00  0.00000000000E+00  0.91188000000E+02  0.91188000000E+02 0.  0.
    9900012    2    3    3    0    0  0.30159810143E+01 -0.40462445438E+02 -0.15405117629E+02  0.47787270957E+02  0.19999999601E+02 0.  0.
         12    1    3    3    0    0 -0.30159810143E+01  0.40462445438E+02  0.15405117629E+02  0.43400729043E+02  0.00000000000E+00 0. -1.
         11    1    4    4    0    0 -0.48843858298E+01 -0.60706676926E+01 -0.66573318776E+01  0.10248429107E+02  0.51100000000E-03 0. -1.
        -11    1    4    4    0    0  0.18183915901E+01 -0.15552625463E+01 -0.26875905484E+01  0.35984069781E+01  0.51100000000E-03 0.  1.
        -12    1    4    4    0    0  0.60819752540E+01 -0.32836515199E+02 -0.60601952029E+01  0.33940434872E+02  0.00000000000E+00 0.  1.
</event>
<event>
 8    1  0.2994958E-010  0.9118800E+02  0.7816164E-02  0.1184000E+00
        -11   -1    0    0    0    0  0.00000000000E+00  0.00000000000E+00  0.45593999997E+02  0.45594000000E+02  0.51100000000E-03 0. -1.
         11   -1    0    0    0    0 -0.00000000000E+00 -0.00000000000E+00 -0.45593999997E+02  0.45594000000E+02  0.51100000000E-03 0.  1.
         23    2    1    2    0    0  0.00000000000E+00  0.00000000000E+00  0.00000000000E+00  0.91188000000E+02  0.91188000000E+02 0.  0.
    9900012    2    3    3    0    0  0.24785873040E+01 -0.12136028508E+02 -0.41595642152E+02  0.47787262345E+02  0.19999960337E+02 0.  0.
         12    1    3    3    0    0 -0.24785873040E+01  0.12136028508E+02  0.41595642152E+02  0.43400737655E+02  0.00000000000E+00 0. -1.
         11    1    4    4    0    0  0.17655837816E+01  0.14971678442E+01 -0.78233711888E+01  0.81586723591E+01  0.51100000000E-03 0. -1.
        -11    1    4    4    0    0  0.72438081336E+01 -0.73278168654E+01 -0.24843293263E+02  0.26895331876E+02  0.51100000000E-03 0.  1.
         12    1    4    4    0    0 -0.65308046112E+01 -0.63053794867E+01 -0.89289776994E+01  0.12733258110E+02  0.00000000000E+00 0. -1.
</event>
<event>
 8    1  0.2994958E-010  0.9118800E+02  0.7816164E-02  0.1184000E+00
        -11   -1    0    0    0    0  0.00000000000E+00  0.00000000000E+00  0.45593999997E+02  0.45594000000E+02  0.51100000000E-03 0. -1.
         11   -1    0    0    0    0 -0.00000000000E+00 -0.00000000000E+00 -0.45593999997E+02  0.45594000000E+02  0.51100000000E-03 0.  1.
         23    2    1    2    0    0  0.00000000000E+00  0.00000000000E+00  0.00000000000E+00  0.91188000000E+02  0.91188000000E+02 0.  0.
    9900012    2    3    3    0    0  0.52403802088E+01 -0.76158920734E+01 -0.42404716153E+02  0.47787270181E+02  0.19999996063E+02 0.  0.
         12    1    3    3    0    0 -0.52403802088E+01  0.76158920734E+01  0.42404716153E+02  0.43400729819E+02  0.00000000000E+00 0. -1.
         11    1    4    4    0    0  0.20060056578E+01  0.38650525860E+01 -0.16115006390E+02  0.16692996178E+02  0.51100000000E-03 0. -1.
        -11    1    4    4    0    0 -0.15203884477E+01  0.18658185038E+01 -0.44998006665E+01  0.51030447794E+01  0.51100000000E-03 0.  1.
        -12    1    4    4    0    0  0.47547629987E+01 -0.13346763163E+02 -0.21789909096E+02  0.25991229223E+02  0.00000000000E+00 0.  1.
</event>
<event>
 8    1  0.2994958E-010  0.9118800E+02  0.7816164E-02  0.1184000E+00
        -11   -1    0    0    0    0  0.00000000000E+00  0.00000000000E+00  0.45593999997E+02  0.45594000000E+02  0.51100000000E-03 0. -1.
         11   -1    0    0    0    0 -0.00000000000E+00 -0.00000000000E+00 -0.45593999997E+02  0.45594000000E+02  0.51100000000E-03 0.  1.
         23    2    1    2    0    0 -0.88817841970E-15  0.00000000000E+00  0.00000000000E+00  0.91188000000E+02  0.91188000000E+02 0.  0.
    9900012    2    3    3    0    0 -0.35482065802E+01 -0.28562043290E+02 -0.32484506217E+02  0.47787271539E+02  0.20000002254E+02 0.  0.
         12    1    3    3    0    0  0.35482065802E+01  0.28562043290E+02  0.32484506217E+02  0.43400728461E+02  0.00000000000E+00 0. -1.
         11    1    4    4    0    0  0.30766529573E+01 -0.49718648057E+01 -0.35972586426E+01  0.68648017502E+01  0.51100000000E-03 0. -1.
        -11    1    4    4    0    0  0.21644302958E+01 -0.17672979909E+02 -0.21925932549E+02  0.28244742799E+02  0.51100000000E-03 0.  1.
         12    1    4    4    0    0 -0.87892898333E+01 -0.59171985749E+01 -0.69613150250E+01  0.12677726990E+02  0.00000000000E+00 0. -1.
</event>
<event>
 8    1  0.2994958E-010  0.9118800E+02  0.7816164E-02  0.1184000E+00
        -11   -1    0    0    0    0  0.00000000000E+00  0.00000000000E+00  0.45593999997E+02  0.45594000000E+02  0.51100000000E-03 0. -1.
         11   -1    0    0    0    0 -0.00000000000E+00 -0.00000000000E+00 -0.45593999997E+02  0.45594000000E+02  0.51100000000E-03 0.  1.
         23    2    1    2    0    0 -0.35527136788E-14  0.00000000000E+00  0.00000000000E+00  0.91188000000E+02  0.91188000000E+02 0.  0.
    9900012    2    3    3    0    0  0.22823260762E+02  0.25731916061E+02 -0.26468672112E+02  0.47787270290E+02  0.19999996562E+02 0.  0.
         12    1    3    3    0    0 -0.22823260762E+02 -0.25731916061E+02  0.26468672112E+02  0.43400729710E+02  0.00000000000E+00 0. -1.
         11    1    4    4    0    0  0.84219002345E+01  0.85669258530E+01 -0.11938128734E+01  0.12072522999E+02  0.51100000000E-03 0. -1.
        -11    1    4    4    0    0  0.84015609872E+01  0.18897537822E+01 -0.65739200086E+01  0.10833919924E+02  0.51100000000E-03 0.  1.
        -12    1    4    4    0    0  0.59997995400E+01  0.15275236426E+02 -0.18700939230E+02  0.24880827367E+02  0.00000000000E+00 0.  1.
</event>
<event>
 8    1  0.2994958E-010  0.9118800E+02  0.7816164E-02  0.1184000E+00
        -11   -1    0    0    0    0  0.00000000000E+00  0.00000000000E+00  0.45593999997E+02  0.45594000000E+02  0.51100000000E-03 0. -1.
         11   -1    0    0    0    0 -0.00000000000E+00 -0.00000000000E+00 -0.45593999997E+02  0.45594000000E+02  0.51100000000E-03 0.  1.
         23    2    1    2    0    0  0.35527136788E-14  0.33306690739E-15  0.00000000000E+00  0.91188000000E+02  0.91188000000E+02 0.  0.
    9900012    2    3    3    0    0  0.28555033134E+02 -0.10929834628E+00 -0.32683650251E+02  0.47787275846E+02  0.20000021891E+02 0.  0.
         12    1    3    3    0    0 -0.28555033134E+02  0.10929834628E+00  0.32683650251E+02  0.43400724154E+02  0.00000000000E+00 0. -1.
         11    1    4    4    0    0 -0.12543155818E+00  0.28467949424E+00 -0.50430265707E+01  0.50526124672E+01  0.51100000000E-03 0. -1.
        -11    1    4    4    0    0  0.15248711899E+02  0.58522605731E+01 -0.81494415287E+01  0.18253371357E+02  0.51100000000E-03 0.  1.
         12    1    4    4    0    0  0.13431752793E+02 -0.62462384136E+01 -0.19491182151E+02  0.24481292022E+02  0.00000000000E+00 0. -1.
</event>
<event>
 8    1  0.2994958E-010  0.9118800E+02  0.7816164E-02  0.1184000E+00
        -11   -1    0    0    0    0  0.00000000000E+00  0.00000000000E+00  0.45593999997E+02  0.45594000000E+02  0.51100000000E-03 0. -1.
         11   -1    0    0    0    0 -0.00000000000E+00 -0.00000000000E+00 -0.45593999997E+02  0.45594000000E+02  0.51100000000E-03 0.  1.
         23    2    1    2    0    0  0.35527136788E-14  0.00000000000E+00  0.35527136788E-14  0.91188000000E+02  0.91188000000E+02 0.  0.
    9900012    2    3    3    0    0 -0.19540830021E+02 -0.23534256394E+02 -0.30788273584E+02  0.47787273598E+02  0.20000011645E+02 0.  0.
         12    1    3    3    0    0  0.19540830021E+02  0.23534256394E+02  0.30788273584E+02  0.43400726402E+02  0.00000000000E+00 0. -1.
         11    1    4    4    0    0 -0.43603806888E+01  0.26293601474E+01 -0.19897352651E+01  0.54667633223E+01  0.51100000000E-03 0. -1.
        -11    1    4    4    0    0 -0.59946671013E+01 -0.10107398688E+02 -0.15891633956E+02  0.19764604017E+02  0.51100000000E-03 0.  1.
        -12    1    4    4    0    0 -0.91857822305E+01 -0.16056217854E+02 -0.12906904362E+02  0.22555906259E+02  0.00000000000E+00 0.  1.
</event>
<event>
 8    1  0.2994958E-010  0.9118800E+02  0.7816164E-02  0.1184000E+00
        -11   -1    0    0    0    0  0.00000000000E+00  0.00000000000E+00  0.45593999997E+02  0.45594000000E+02  0.51100000000E-03 0. -1.
         11   -1    0    0    0    0 -0.00000000000E+00 -0.00000000000E+00 -0.45593999997E+02  0.45594000000E+02  0.51100000000E-03 0.  1.
         23    2    1    2    0    0 -0.17763568394E-14  0.88817841970E-15  0.00000000000E+00  0.91188000000E+02  0.91188000000E+02 0.  0.
    9900012    2    3    3    0    0 -0.10064645503E+02  0.73902331933E+01  0.41565748939E+02  0.47787261290E+02  0.19999955524E+02 0.  0.
        -12    1    3    3    0    0  0.10064645503E+02 -0.73902331933E+01 -0.41565748939E+02  0.43400738710E+02  0.00000000000E+00 0.  1.
         11    1    4    4    0    0  0.12838786359E+01  0.59097832544E+01  0.10065431401E+02  0.11742520684E+02  0.51100000000E-03 0. -1.
        -11    1    4    4    0    0 -0.26791651256E+01  0.63497171172E+01  0.18028438171E+02  0.19300813879E+02  0.51100000000E-03 0.  1.
        -12    1    4    4    0    0 -0.86693590129E+01 -0.48692671783E+01  0.13471879367E+02  0.16743926726E+02  0.00000000000E+00 0.  1.
</event>
<event>
 8    1  0.2994958E-010  0.9118800E+02  0.7816164E-02  0.1184000E+00
        -11   -1    0    0    0    0  0.00000000000E+00  0.00000000000E+00  0.45593999997E+02  0.45594000000E+02  0.51100000000E-03 0. -1.
         11   -1    0    0    0    0 -0.00000000000E+00 -0.00000000000E+00 -0.45593999997E+02  0.45594000000E+02  0.51100000000E-03 0.  1.
         23    2    1    2    0    0  0.00000000000E+00 -0.35527136788E-14  0.00000000000E+00  0.91188000000E+02  0.91188000000E+02 0.  0.
    9900012    2    3    3    0    0 -0.66658470973E+01  0.31922730770E+02 -0.28637902864E+02  0.47787265700E+02  0.19999975633E+02 0.  0.
         12    1    3    3    0    0  0.66658470973E+01 -0.31922730770E+02  0.28637902864E+02  0.43400734300E+02  0.00000000000E+00 0. -1.
         11    1    4    4    0    0 -0.35028195217E+01  0.10122029779E+02 -0.98575175365E+01  0.14556643971E+02  0.51100000000E-03 0.  1.
        -11    1    4    4    0    0  0.75029236941E+00 -0.52877943041E+00 -0.81335235882E+01  0.81851543996E+01  0.51100000000E-03 0. -1.
         12    1    4    4    0    0 -0.39133199449E+01  0.22329480421E+02 -0.10646861740E+02  0.25045467330E+02  0.00000000000E+00 0. -1.
</event>
<event>
 8    1  0.2994958E-010  0.9118800E+02  0.7816164E-02  0.1184000E+00
        -11   -1    0    0    0    0  0.00000000000E+00  0.00000000000E+00  0.45593999997E+02  0.45594000000E+02  0.51100000000E-03 0. -1.
         11   -1    0    0    0    0 -0.00000000000E+00 -0.00000000000E+00 -0.45593999997E+02  0.45594000000E+02  0.51100000000E-03 0.  1.
         23    2    1    2    0    0  0.00000000000E+00  0.00000000000E+00  0.35527136788E-14  0.91188000000E+02  0.91188000000E+02 0.  0.
    9900012    2    3    3    0    0  0.86274463906E+01 -0.37274547996E+02  0.20488970112E+02  0.47787278165E+02  0.20000032467E+02 0.  0.
        -12    1    3    3    0    0 -0.86274463906E+01  0.37274547996E+02 -0.20488970112E+02  0.43400721835E+02  0.00000000000E+00 0.  1.
         11    1    4    4    0    0  0.22511573246E+01 -0.15950330536E+01  0.19617190078E+01  0.33852889786E+01  0.51100000000E-03 0. -1.
        -11    1    4    4    0    0 -0.20375208599E+01 -0.84159341038E+00 -0.21048270701E+01  0.30479612824E+01  0.51100000000E-03 0.  1.
         12    1    4    4    0    0  0.84138099259E+01 -0.34837921532E+02  0.20632078175E+02  0.41354027904E+02  0.00000000000E+00 0. -1.
</event>
<event>
 8    1  0.2994958E-010  0.9118800E+02  0.7816164E-02  0.1184000E+00
        -11   -1    0    0    0    0  0.00000000000E+00  0.00000000000E+00  0.45593999997E+02  0.45594000000E+02  0.51100000000E-03 0.  1.
         11   -1    0    0    0    0 -0.00000000000E+00 -0.00000000000E+00 -0.45593999997E+02  0.45594000000E+02  0.51100000000E-03 0. -1.
         23    2    1    2    0    0  0.35527136788E-14  0.00000000000E+00  0.35527136788E-14  0.91188000000E+02  0.91188000000E+02 0.  0.
    9900012    2    3    3    0    0  0.23736308640E+02 -0.25624759873E+02  0.25760095591E+02  0.47787271996E+02  0.20000004340E+02 0.  0.
        -12    1    3    3    0    0 -0.23736308640E+02  0.25624759873E+02 -0.25760095591E+02  0.43400728004E+02  0.00000000000E+00 0.  1.
         11    1    4    4    0    0 -0.11276462774E+01 -0.46089276560E+01  0.29178852879E+01  0.55702652612E+01  0.51100000000E-03 0. -1.
        -11    1    4    4    0    0  0.69715784527E+01  0.90012581267E+00  0.63258521444E+01  0.94567192099E+01  0.51100000000E-03 0.  1.
         12    1    4    4    0    0  0.17892376464E+02 -0.21915958030E+02  0.16516358159E+02  0.32760287525E+02  0.00000000000E+00 0. -1.
</event>
<event>
 8    1  0.2994958E-010  0.9118800E+02  0.7816164E-02  0.1184000E+00
        -11   -1    0    0    0    0  0.00000000000E+00  0.00000000000E+00  0.45593999997E+02  0.45594000000E+02  0.51100000000E-03 0. -1.
         11   -1    0    0    0    0 -0.00000000000E+00 -0.00000000000E+00 -0.45593999997E+02  0.45594000000E+02  0.51100000000E-03 0.  1.
         23    2    1    2    0    0  0.00000000000E+00  0.00000000000E+00  0.00000000000E+00  0.91188000000E+02  0.91188000000E+02 0.  0.
    9900012    2    3    3    0    0  0.22241894924E+02 -0.24680862489E+02  0.27924474522E+02  0.47787272583E+02  0.20000007016E+02 0.  0.
        -12    1    3    3    0    0 -0.22241894924E+02  0.24680862489E+02 -0.27924474522E+02  0.43400727417E+02  0.00000000000E+00 0.  1.
         11    1    4    4    0    0 -0.16170261202E+01 -0.40820775423E+01  0.30944243517E+01  0.53715540456E+01  0.51100000000E-03 0. -1.
        -11    1    4    4    0    0  0.28556022943E+01 -0.19594018502E+01  0.10158473963E+02  0.10732581870E+02  0.51100000000E-03 0.  1.
         12    1    4    4    0    0  0.21003318750E+02 -0.18639383096E+02  0.14671576207E+02  0.31683136668E+02  0.00000000000E+00 0. -1.
</event>
<event>
 8    1  0.2994958E-010  0.9118800E+02  0.7816164E-02  0.1184000E+00
        -11   -1    0    0    0    0  0.00000000000E+00  0.00000000000E+00  0.45593999997E+02  0.45594000000E+02  0.51100000000E-03 0. -1.
         11   -1    0    0    0    0 -0.00000000000E+00 -0.00000000000E+00 -0.45593999997E+02  0.45594000000E+02  0.51100000000E-03 0.  1.
         23    2    1    2    0    0  0.00000000000E+00  0.00000000000E+00  0.00000000000E+00  0.91188000000E+02  0.91188000000E+02 0.  0.
    9900012    2    3    3    0    0 -0.12730701739E+02 -0.33208856929E+02  0.24874171666E+02  0.47787270037E+02  0.19999995406E+02 0.  0.
        -12    1    3    3    0    0  0.12730701739E+02  0.33208856929E+02 -0.24874171666E+02  0.43400729963E+02  0.00000000000E+00 0.  1.
         11    1    4    4    0    0 -0.86300142727E+01 -0.11803010249E+02  0.70643534947E+01  0.16238635652E+02  0.51100000000E-03 0. -1.
        -11    1    4    4    0    0 -0.47211197751E+01 -0.32045750202E+01 -0.49494413099E+00  0.57274115397E+01  0.51100000000E-03 0.  1.
         12    1    4    4    0    0  0.62043230926E+00 -0.18201271659E+02  0.18304762302E+02  0.25821222845E+02  0.00000000000E+00 0. -1.
</event>
<event>
 8    1  0.2994958E-010  0.9118800E+02  0.7816164E-02  0.1184000E+00
        -11   -1    0    0    0    0  0.00000000000E+00  0.00000000000E+00  0.45593999997E+02  0.45594000000E+02  0.51100000000E-03 0. -1.
         11   -1    0    0    0    0 -0.00000000000E+00 -0.00000000000E+00 -0.45593999997E+02  0.45594000000E+02  0.51100000000E-03 0.  1.
         23    2    1    2    0    0 -0.17763568394E-14  0.00000000000E+00  0.00000000000E+00  0.91188000000E+02  0.91188000000E+02 0.  0.
    9900012    2    3    3    0    0 -0.10392514545E+02  0.11354137979E+02  0.40579569511E+02  0.47787282616E+02  0.20000052758E+02 0.  0.
        -12    1    3    3    0    0  0.10392514545E+02 -0.11354137979E+02 -0.40579569511E+02  0.43400717384E+02  0.00000000000E+00 0.  1.
         11    1    4    4    0    0 -0.15774701011E+01  0.93945375032E+01  0.64023710762E+01  0.11477634882E+02  0.51100000000E-03 0. -1.
        -11    1    4    4    0    0  0.10801750400E+01 -0.14127555749E+01  0.58835073525E+01  0.61464067112E+01  0.51100000000E-03 0.  1.
        -12    1    4    4    0    0 -0.98952194838E+01  0.33723560503E+01  0.28293691082E+02  0.30163241023E+02  0.00000000000E+00 0.  1.
</event>
<event>
 8    1  0.2994958E-010  0.9118800E+02  0.7816164E-02  0.1184000E+00
        -11   -1    0    0    0    0  0.00000000000E+00  0.00000000000E+00  0.45593999997E+02  0.45594000000E+02  0.51100000000E-03 0. -1.
         11   -1    0    0    0    0 -0.00000000000E+00 -0.00000000000E+00 -0.45593999997E+02  0.45594000000E+02  0.51100000000E-03 0.  1.
         23    2    1    2    0    0  0.66613381478E-15  0.00000000000E+00  0.00000000000E+00  0.91188000000E+02  0.91188000000E+02 0.  0.
    9900012    2    3    3    0    0 -0.95906536489E+00 -0.20197196370E+02  0.38402778182E+02  0.47787309687E+02  0.20000176185E+02 0.  0.
        -12    1    3    3    0    0  0.95906536489E+00  0.20197196370E+02 -0.38402778182E+02  0.43400690313E+02  0.00000000000E+00 0.  1.
         11    1    4    4    0    0 -0.70073352129E+01 -0.12910688216E+02  0.13543149608E+02  0.19980128092E+02  0.51100000000E-03 0. -1.
        -11    1    4    4    0    0 -0.11301284168E+01  0.41034387970E+00  0.67921222002E+01  0.68977167658E+01  0.51100000000E-03 0.  1.
        -12    1    4    4    0    0  0.71783982648E+01 -0.76968520336E+01  0.18067506374E+02  0.20909464829E+02  0.00000000000E+00 0.  1.
</event>
<event>
 8    1  0.2994958E-010  0.9118800E+02  0.7816164E-02  0.1184000E+00
        -11   -1    0    0    0    0  0.00000000000E+00  0.00000000000E+00  0.45593999997E+02  0.45594000000E+02  0.51100000000E-03 0. -1.
         11   -1    0    0    0    0 -0.00000000000E+00 -0.00000000000E+00 -0.45593999997E+02  0.45594000000E+02  0.51100000000E-03 0.  1.
         23    2    1    2    0    0  0.00000000000E+00 -0.35527136788E-14  0.00000000000E+00  0.91188000000E+02  0.91188000000E+02 0.  0.
    9900012    2    3    3    0    0  0.17857090029E+02  0.25765009455E+02  0.30015193873E+02  0.47787271437E+02  0.20000001791E+02 0.  0.
        -12    1    3    3    0    0 -0.17857090029E+02 -0.25765009455E+02 -0.30015193873E+02  0.43400728563E+02  0.00000000000E+00 0.  1.
         11    1    4    4    0    0  0.27901740509E+01  0.17159611924E+02  0.86014279837E+01  0.19396440813E+02  0.51100000000E-03 0.  1.
        -11    1    4    4    0    0  0.37640460483E+01 -0.85558996521E+00  0.52366265153E+01  0.65055618023E+01  0.51100000000E-03 0. -1.
        -12    1    4    4    0    0  0.11302869930E+02  0.94609874966E+01  0.16177139374E+02  0.21885268822E+02  0.00000000000E+00 0.  1.
</event>
<event>
 8    1  0.2994958E-010  0.9118800E+02  0.7816164E-02  0.1184000E+00
        -11   -1    0    0    0    0  0.00000000000E+00  0.00000000000E+00  0.45593999997E+02  0.45594000000E+02  0.51100000000E-03 0. -1.
         11   -1    0    0    0    0 -0.00000000000E+00 -0.00000000000E+00 -0.45593999997E+02  0.45594000000E+02  0.51100000000E-03 0.  1.
         23    2    1    2    0    0  0.00000000000E+00  0.00000000000E+00  0.00000000000E+00  0.91188000000E+02  0.91188000000E+02 0.  0.
    9900012    2    3    3    0    0  0.44085114441E+01 -0.34195823982E+02  0.26359690967E+02  0.47787278130E+02  0.20000032306E+02 0.  0.
        -12    1    3    3    0    0 -0.44085114441E+01  0.34195823982E+02 -0.26359690967E+02  0.43400721870E+02  0.00000000000E+00 0.  1.
         11    1    4    4    0    0  0.17188787342E+01 -0.14658018630E+02  0.15657816153E+02  0.21516952880E+02  0.51100000000E-03 0. -1.
        -11    1    4    4    0    0  0.11408714036E+01 -0.72323188987E+01  0.11727502717E+02  0.13825423844E+02  0.51100000000E-03 0.  1.
        -12    1    4    4    0    0  0.15487613064E+01 -0.12305486453E+02 -0.10256279036E+01  0.12444901407E+02  0.00000000000E+00 0.  1.
</event>
<event>
 8    1  0.2994958E-010  0.9118800E+02  0.7816164E-02  0.1184000E+00
        -11   -1    0    0    0    0  0.00000000000E+00  0.00000000000E+00  0.45593999997E+02  0.45594000000E+02  0.51100000000E-03 0.  1.
         11   -1    0    0    0    0 -0.00000000000E+00 -0.00000000000E+00 -0.45593999997E+02  0.45594000000E+02  0.51100000000E-03 0. -1.
         23    2    1    2    0    0  0.00000000000E+00  0.00000000000E+00  0.00000000000E+00  0.91188000000E+02  0.91188000000E+02 0.  0.
    9900012    2    3    3    0    0 -0.20913863496E+02 -0.22833423711E+02  0.30411646418E+02  0.47787272327E+02  0.20000005848E+02 0.  0.
        -12    1    3    3    0    0  0.20913863496E+02  0.22833423711E+02 -0.30411646418E+02  0.43400727673E+02  0.00000000000E+00 0.  1.
         11    1    4    4    0    0 -0.69282166584E+00 -0.58917441353E+01  0.61930124147E+01  0.85758995940E+01  0.51100000000E-03 0. -1.
        -11    1    4    4    0    0 -0.22292887117E+02 -0.15776864690E+02  0.24656710188E+02  0.36794505473E+02  0.51100000000E-03 0.  1.
        -12    1    4    4    0    0  0.20718452869E+01 -0.11648148855E+01 -0.43807618396E+00  0.24168672602E+01  0.00000000000E+00 0.  1.
</event>
<event>
 8    1  0.2994958E-010  0.9118800E+02  0.7816164E-02  0.1184000E+00
        -11   -1    0    0    0    0  0.00000000000E+00  0.00000000000E+00  0.45593999997E+02  0.45594000000E+02  0.51100000000E-03 0. -1.
         11   -1    0    0    0    0 -0.00000000000E+00 -0.00000000000E+00 -0.45593999997E+02  0.45594000000E+02  0.51100000000E-03 0.  1.
         23    2    1    2    0    0  0.17763568394E-14  0.71054273576E-14  0.17763568394E-14  0.91188000000E+02  0.91188000000E+02 0.  0.
    9900012    2    3    3    0    0 -0.14932806226E+02 -0.37495956267E+02  0.15958951539E+02  0.47787267605E+02  0.19999984320E+02 0.  0.
        -12    1    3    3    0    0  0.14932806226E+02  0.37495956267E+02 -0.15958951539E+02  0.43400732395E+02  0.00000000000E+00 0.  1.
         11    1    4    4    0    0 -0.15706816830E+02 -0.22115167240E+02  0.14502063811E+02  0.30758650361E+02  0.51100000000E-03 0. -1.
        -11    1    4    4    0    0 -0.30373433545E+01 -0.82110705272E+01 -0.12707350317E+00  0.87557570656E+01  0.51100000000E-03 0.  1.
        -12    1    4    4    0    0  0.38113539583E+01 -0.71697184995E+01  0.15839612309E+01  0.82728601789E+01  0.00000000000E+00 0.  1.
</event>
<event>
 8    1  0.2994958E-010  0.9118800E+02  0.7816164E-02  0.1184000E+00
        -11   -1    0    0    0    0  0.00000000000E+00  0.00000000000E+00  0.45593999997E+02  0.45594000000E+02  0.51100000000E-03 0. -1.
         11   -1    0    0    0    0 -0.00000000000E+00 -0.00000000000E+00 -0.45593999997E+02  0.45594000000E+02  0.51100000000E-03 0.  1.
         23    2    1    2    0    0 -0.71054273576E-14  0.00000000000E+00  0.00000000000E+00  0.91188000000E+02  0.91188000000E+02 0.  0.
    9900012    2    3    3    0    0  0.41642319826E+02  0.42733469828E+01 -0.11457707743E+02  0.47787270033E+02  0.19999995388E+02 0.  0.
         12    1    3    3    0    0 -0.41642319826E+02 -0.42733469828E+01  0.11457707743E+02  0.43400729967E+02  0.00000000000E+00 0. -1.
         11    1    4    4    0    0  0.28093915954E+01  0.26424196763E+01 -0.40203780328E+01  0.55712209317E+01  0.51100000000E-03 0. -1.
        -11    1    4    4    0    0  0.19197680508E+01 -0.36071224923E+01 -0.19633550758E+01  0.45333878566E+01  0.51100000000E-03 0.  1.
        -12    1    4    4    0    0  0.36913160180E+02  0.52380497988E+01 -0.54739746348E+01  0.37682661245E+02  0.00000000000E+00 0.  1.
</event>
<event>
 8    1  0.2994958E-010  0.9118800E+02  0.7816164E-02  0.1184000E+00
        -11   -1    0    0    0    0  0.00000000000E+00  0.00000000000E+00  0.45593999997E+02  0.45594000000E+02  0.51100000000E-03 0. -1.
         11   -1    0    0    0    0 -0.00000000000E+00 -0.00000000000E+00 -0.45593999997E+02  0.45594000000E+02  0.51100000000E-03 0.  1.
         23    2    1    2    0    0 -0.44408920985E-15  0.00000000000E+00  0.35527136788E-14  0.91188000000E+02  0.91188000000E+02 0.  0.
    9900012    2    3    3    0    0  0.38610764550E+01 -0.29335103036E+02 -0.31751647359E+02  0.47787270841E+02  0.19999999072E+02 0.  0.
         12    1    3    3    0    0 -0.38610764550E+01  0.29335103036E+02  0.31751647359E+02  0.43400729159E+02  0.00000000000E+00 0. -1.
         11    1    4    4    0    0  0.27399620261E+01 -0.75958519067E+00 -0.55302570097E+01  0.62183683086E+01  0.51100000000E-03 0. -1.
        -11    1    4    4    0    0  0.39755057287E+01 -0.21457705965E+02 -0.25934821373E+02  0.33894730431E+02  0.51100000000E-03 0.  1.
        -12    1    4    4    0    0 -0.28543912998E+01 -0.71178118809E+01 -0.28656897609E+00  0.76741721014E+01  0.00000000000E+00 0.  1.
</event>
<event>
 8    1  0.2994958E-010  0.9118800E+02  0.7816164E-02  0.1184000E+00
        -11   -1    0    0    0    0  0.00000000000E+00  0.00000000000E+00  0.45593999997E+02  0.45594000000E+02  0.51100000000E-03 0. -1.
         11   -1    0    0    0    0 -0.00000000000E+00 -0.00000000000E+00 -0.45593999997E+02  0.45594000000E+02  0.51100000000E-03 0.  1.
         23    2    1    2    0    0  0.35527136788E-14  0.00000000000E+00  0.00000000000E+00  0.91188000000E+02  0.91188000000E+02 0.  0.
    9900012    2    3    3    0    0 -0.26305279394E+02  0.25578146549E+02 -0.23182185034E+02  0.47787274109E+02  0.20000013974E+02 0.  0.
         12    1    3    3    0    0  0.26305279394E+02 -0.25578146549E+02  0.23182185034E+02  0.43400725891E+02  0.00000000000E+00 0. -1.
         11    1    4    4    0    0 -0.18804762808E+01  0.52039057614E+00 -0.60835001522E+01  0.63887378846E+01  0.51100000000E-03 0.  1.
        -11    1    4    4    0    0 -0.14980659463E+02  0.55033481984E+01 -0.64666098136E+01  0.17219873463E+02  0.51100000000E-03 0. -1.
         12    1    4    4    0    0 -0.94441436502E+01  0.19554407774E+02 -0.10632075068E+02  0.24178662762E+02  0.00000000000E+00 0. -1.
</event>
<event>
 8    1  0.2994958E-010  0.9118800E+02  0.7816164E-02  0.1184000E+00
        -11   -1    0    0    0    0  0.00000000000E+00  0.00000000000E+00  0.45593999997E+02  0.45594000000E+02  0.51100000000E-03 0. -1.
         11   -1    0    0    0    0 -0.00000000000E+00 -0.00000000000E+00 -0.45593999997E+02  0.45594000000E+02  0.51100000000E-03 0.  1.
         23    2    1    2    0    0  0.00000000000E+00  0.00000000000E+00  0.00000000000E+00  0.91188000000E+02  0.91188000000E+02 0.  0.
    9900012    2    3    3    0    0 -0.51200339660E+01 -0.15673488563E+02 -0.40146624106E+02  0.47787257856E+02  0.19999939867E+02 0.  0.
         12    1    3    3    0    0  0.51200339660E+01  0.15673488563E+02  0.40146624106E+02  0.43400742144E+02  0.00000000000E+00 0. -1.
         11    1    4    4    0    0  0.16941763827E+01 -0.30863313658E+01 -0.27495041169E+01  0.44671521202E+01  0.51100000000E-03 0. -1.
        -11    1    4    4    0    0 -0.96056668126E+01 -0.14388497840E+02 -0.24437448536E+02  0.29941386010E+02  0.51100000000E-03 0.  1.
        -12    1    4    4    0    0  0.27914564639E+01  0.18013406426E+01 -0.12959671453E+02  0.13378719725E+02  0.00000000000E+00 0.  1.
</event>
<event>
 8    1  0.2994958E-010  0.9118800E+02  0.7816164E-02  0.1184000E+00
        -11   -1    0    0    0    0  0.00000000000E+00  0.00000000000E+00  0.45593999997E+02  0.45594000000E+02  0.51100000000E-03 0. -1.
         11   -1    0    0    0    0 -0.00000000000E+00 -0.00000000000E+00 -0.45593999997E+02  0.45594000000E+02  0.51100000000E-03 0.  1.
         23    2    1    2    0    0  0.71054273576E-14  0.00000000000E+00  0.35527136788E-14  0.91188000000E+02  0.91188000000E+02 0.  0.
    9900012    2    3    3    0    0  0.32711181441E+02  0.16364241731E+02  0.23362649904E+02  0.47787271790E+02  0.20000003397E+02 0.  0.
        -12    1    3    3    0    0 -0.32711181441E+02 -0.16364241731E+02 -0.23362649904E+02  0.43400728210E+02  0.00000000000E+00 0.  1.
         11    1    4    4    0    0  0.17138979001E+02  0.74443094802E+01  0.14557091520E+02  0.23686942787E+02  0.51100000000E-03 0. -1.
        -11    1    4    4    0    0  0.15465010934E+02  0.21584315543E+01  0.69232845711E+01  0.17080903357E+02  0.51100000000E-03 0.  1.
        -12    1    4    4    0    0  0.10719150535E+00  0.67615006961E+01  0.18822738129E+01  0.70194256453E+01  0.00000000000E+00 0.  1.
</event>
<event>
 8    1  0.2994958E-010  0.9118800E+02  0.7816164E-02  0.1184000E+00
        -11   -1    0    0    0    0  0.00000000000E+00  0.00000000000E+00  0.45593999997E+02  0.45594000000E+02  0.51100000000E-03 0. -1.
         11   -1    0    0    0    0 -0.00000000000E+00 -0.00000000000E+00 -0.45593999997E+02  0.45594000000E+02  0.51100000000E-03 0.  1.
         23    2    1    2    0    0 -0.17763568394E-14  0.00000000000E+00  0.00000000000E+00  0.91188000000E+02  0.91188000000E+02 0.  0.
    9900012    2    3    3    0    0  0.67878488659E+01  0.15024806704E+02  0.40147274820E+02  0.47787269773E+02  0.19999994205E+02 0.  0.
        -12    1    3    3    0    0 -0.67878488659E+01 -0.15024806704E+02 -0.40147274820E+02  0.43400730227E+02  0.00000000000E+00 0.  1.
         11    1    4    4    0    0  0.33929042291E+01 -0.28838941414E+01  0.92692026521E+01  0.10283324491E+02  0.51100000000E-03 0. -1.
        -11    1    4    4    0    0  0.51125973864E+01  0.32937948097E+01  0.56689725083E+01  0.83141437229E+01  0.51100000000E-03 0.  1.
        -12    1    4    4    0    0 -0.17176527496E+01  0.14614906036E+02  0.25209099660E+02  0.29189801559E+02  0.00000000000E+00 0.  1.
</event>
<event>
 8    1  0.2994958E-010  0.9118800E+02  0.7816164E-02  0.1184000E+00
        -11   -1    0    0    0    0  0.00000000000E+00  0.00000000000E+00  0.45593999997E+02  0.45594000000E+02  0.51100000000E-03 0. -1.
         11   -1    0    0    0    0 -0.00000000000E+00 -0.00000000000E+00 -0.45593999997E+02  0.45594000000E+02  0.51100000000E-03 0.  1.
         23    2    1    2    0    0  0.35527136788E-14 -0.17763568394E-14  0.00000000000E+00  0.91188000000E+02  0.91188000000E+02 0.  0.
    9900012    2    3    3    0    0 -0.20299578797E+02  0.12858066795E+02  0.36141674444E+02  0.47787269446E+02  0.19999992711E+02 0.  0.
        -12    1    3    3    0    0  0.20299578797E+02 -0.12858066795E+02 -0.36141674444E+02  0.43400730554E+02  0.00000000000E+00 0.  1.
         11    1    4    4    0    0 -0.10566418288E+02  0.80582032368E+01  0.15299142791E+02  0.20264441893E+02  0.51100000000E-03 0. -1.
        -11    1    4    4    0    0 -0.47673659837E+00  0.63632216334E+01  0.23794690559E+01  0.68102672920E+01  0.51100000000E-03 0.  1.
         12    1    4    4    0    0 -0.92564239099E+01 -0.15633580751E+01  0.18463062597E+02  0.20712560260E+02  0.00000000000E+00 0. -1.
</event>
<event>
 8    1  0.2994958E-010  0.9118800E+02  0.7816164E-02  0.1184000E+00
        -11   -1    0    0    0    0  0.00000000000E+00  0.00000000000E+00  0.45593999997E+02  0.45594000000E+02  0.51100000000E-03 0. -1.
         11   -1    0    0    0    0 -0.00000000000E+00 -0.00000000000E+00 -0.45593999997E+02  0.45594000000E+02  0.51100000000E-03 0.  1.
         23    2    1    2    0    0  0.00000000000E+00  0.00000000000E+00 -0.35527136788E-14  0.91188000000E+02  0.91188000000E+02 0.  0.
    9900012    2    3    3    0    0  0.36640504786E+02 -0.10964845567E+02 -0.20515083181E+02  0.47787273425E+02  0.20000010856E+02 0.  0.
         12    1    3    3    0    0 -0.36640504786E+02  0.10964845567E+02  0.20515083181E+02  0.43400726575E+02  0.00000000000E+00 0. -1.
         11    1    4    4    0    0  0.84426117854E+00 -0.10771357437E+00  0.15873171897E+01  0.18010983520E+01  0.51100000000E-03 0. -1.
        -11    1    4    4    0    0  0.23138547882E+02 -0.41268752111E+01 -0.56672587475E+01  0.24177289325E+02  0.51100000000E-03 0.  1.
        -12    1    4    4    0    0  0.12657695725E+02 -0.67302567819E+01 -0.16435141624E+02  0.21808885749E+02  0.00000000000E+00 0.  1.
</event>
<event>
 8    1  0.2994958E-010  0.9118800E+02  0.7816164E-02  0.1184000E+00
        -11   -1    0    0    0    0  0.00000000000E+00  0.00000000000E+00  0.45593999997E+02  0.45594000000E+02  0.51100000000E-03 0. -1.
         11   -1    0    0    0    0 -0.00000000000E+00 -0.00000000000E+00 -0.45593999997E+02  0.45594000000E+02  0.51100000000E-03 0.  1.
         23    2    1    2    0    0  0.35527136788E-14 -0.17763568394E-14  0.00000000000E+00  0.91188000000E+02  0.91188000000E+02 0.  0.
    9900012    2    3    3    0    0 -0.28432922718E+02 -0.14712898187E+02  0.29303972687E+02  0.47787270944E+02  0.19999999543E+02 0.  0.
        -12    1    3    3    0    0  0.28432922718E+02  0.14712898187E+02 -0.29303972687E+02  0.43400729056E+02  0.00000000000E+00 0.  1.
         11    1    4    4    0    0 -0.16818256485E+02 -0.88471786840E+01  0.17724095880E+02  0.25985955762E+02  0.51100000000E-03 0. -1.
        -11    1    4    4    0    0 -0.10604997261E+02 -0.20383627617E+01  0.13592924229E+02  0.17360543742E+02  0.51100000000E-03 0.  1.
        -12    1    4    4    0    0 -0.10096689718E+01 -0.38273567415E+01 -0.20130474222E+01  0.44407714401E+01  0.00000000000E+00 0.  1.
</event>
<event>
 8    1  0.2994958E-010  0.9118800E+02  0.7816164E-02  0.1184000E+00
        -11   -1    0    0    0    0  0.00000000000E+00  0.00000000000E+00  0.45593999997E+02  0.45594000000E+02  0.51100000000E-03 0. -1.
         11   -1    0    0    0    0 -0.00000000000E+00 -0.00000000000E+00 -0.45593999997E+02  0.45594000000E+02  0.51100000000E-03 0.  1.
         23    2    1    2    0    0  0.00000000000E+00  0.00000000000E+00  0.71054273576E-14  0.91188000000E+02  0.91188000000E+02 0.  0.
    9900012    2    3    3    0    0  0.92555645761E+00 -0.35383911998E+02  0.25114646664E+02  0.47787270051E+02  0.19999995472E+02 0.  0.
        -12    1    3    3    0    0 -0.92555645761E+00  0.35383911998E+02 -0.25114646664E+02  0.43400729949E+02  0.00000000000E+00 0.  1.
         11    1    4    4    0    0 -0.66132617033E+00 -0.25705965500E+02  0.10287679875E+02  0.27696035313E+02  0.51100000000E-03 0. -1.
        -11    1    4    4    0    0  0.20446405679E+01 -0.11371701000E+02  0.11347840352E+02  0.16194740492E+02  0.51100000000E-03 0.  1.
        -12    1    4    4    0    0 -0.45775794001E+00  0.16937545024E+01  0.34791264368E+01  0.38964942460E+01  0.00000000000E+00 0.  1.
</event>
<event>
 8    1  0.2994958E-010  0.9118800E+02  0.7816164E-02  0.1184000E+00
        -11   -1    0    0    0    0  0.00000000000E+00  0.00000000000E+00  0.45593999997E+02  0.45594000000E+02  0.51100000000E-03 0. -1.
         11   -1    0    0    0    0 -0.00000000000E+00 -0.00000000000E+00 -0.45593999997E+02  0.45594000000E+02  0.51100000000E-03 0.  1.
         23    2    1    2    0    0 -0.17763568394E-14  0.71054273576E-14  0.35527136788E-14  0.91188000000E+02  0.91188000000E+02 0.  0.
    9900012    2    3    3    0    0 -0.80201155346E+01  0.32706290326E+02  0.27378815882E+02  0.47787271444E+02  0.20000001823E+02 0.  0.
        -12    1    3    3    0    0  0.80201155346E+01 -0.32706290326E+02 -0.27378815882E+02  0.43400728556E+02  0.00000000000E+00 0.  1.
         11    1    4    4    0    0 -0.32914139871E+01  0.21515145049E+02  0.28042150886E+02  0.35497846401E+02  0.51100000000E-03 0. -1.
        -11    1    4    4    0    0 -0.30823172717E+00  0.21472910253E+01 -0.47803569412E+00  0.22213473234E+01  0.51100000000E-03 0.  1.
         12    1    4    4    0    0 -0.44204698203E+01  0.90438542510E+01 -0.18529930933E+00  0.10068077720E+02  0.00000000000E+00 0. -1.
</event>
<event>
 8    1  0.2994958E-010  0.9118800E+02  0.7816164E-02  0.1184000E+00
        -11   -1    0    0    0    0  0.00000000000E+00  0.00000000000E+00  0.45593999997E+02  0.45594000000E+02  0.51100000000E-03 0. -1.
         11   -1    0    0    0    0 -0.00000000000E+00 -0.00000000000E+00 -0.45593999997E+02  0.45594000000E+02  0.51100000000E-03 0.  1.
         23    2    1    2    0    0  0.00000000000E+00  0.35527136788E-14 -0.35527136788E-14  0.91188000000E+02  0.91188000000E+02 0.  0.
    9900012    2    3    3    0    0  0.24530480734E+02 -0.28334785945E+02  0.21886505742E+02  0.47787265984E+02  0.19999976926E+02 0.  0.
        -12    1    3    3    0    0 -0.24530480734E+02  0.28334785945E+02 -0.21886505742E+02  0.43400734016E+02  0.00000000000E+00 0.  1.
         11    1    4    4    0    0  0.61866228011E+01 -0.10002625318E+02  0.96416011360E+01  0.15208132287E+02  0.51100000000E-03 0. -1.
        -11    1    4    4    0    0  0.82173541804E+01 -0.18009468141E+02  0.60318720233E+01  0.20694185966E+02  0.51100000000E-03 0.  1.
        -12    1    4    4    0    0  0.10126503752E+02 -0.32269248629E+00  0.62130325826E+01  0.11884947731E+02  0.00000000000E+00 0.  1.
</event>
<event>
 8    1  0.2994958E-010  0.9118800E+02  0.7816164E-02  0.1184000E+00
        -11   -1    0    0    0    0  0.00000000000E+00  0.00000000000E+00  0.45593999997E+02  0.45594000000E+02  0.51100000000E-03 0. -1.
         11   -1    0    0    0    0 -0.00000000000E+00 -0.00000000000E+00 -0.45593999997E+02  0.45594000000E+02  0.51100000000E-03 0.  1.
         23    2    1    2    0    0  0.17763568394E-14  0.00000000000E+00 -0.71054273576E-14  0.91188000000E+02  0.91188000000E+02 0.  0.
    9900012    2    3    3    0    0 -0.11689245698E+02 -0.19478683539E+02  0.36980613507E+02  0.47787270136E+02  0.19999995859E+02 0.  0.
        -12    1    3    3    0    0  0.11689245698E+02  0.19478683539E+02 -0.36980613507E+02  0.43400729864E+02  0.00000000000E+00 0.  1.
         11    1    4    4    0    0  0.39821901790E+01 -0.17279655575E+01  0.92806051731E+01  0.10245649625E+02  0.51100000000E-03 0. -1.
        -11    1    4    4    0    0 -0.29427469550E+01 -0.94263964231E+01  0.13562192424E+02  0.16776464847E+02  0.51100000000E-03 0.  1.
        -12    1    4    4    0    0 -0.12728688922E+02 -0.83243215581E+01  0.14137815910E+02  0.20765155664E+02  0.00000000000E+00 0.  1.
</event>
<event>
 8    1  0.2994958E-010  0.9118800E+02  0.7816164E-02  0.1184000E+00
        -11   -1    0    0    0    0  0.00000000000E+00  0.00000000000E+00  0.45593999997E+02  0.45594000000E+02  0.51100000000E-03 0. -1.
         11   -1    0    0    0    0 -0.00000000000E+00 -0.00000000000E+00 -0.45593999997E+02  0.45594000000E+02  0.51100000000E-03 0.  1.
         23    2    1    2    0    0  0.00000000000E+00  0.00000000000E+00 -0.71054273576E-14  0.91188000000E+02  0.91188000000E+02 0.  0.
    9900012    2    3    3    0    0 -0.17425282895E+02  0.27671414129E+02 -0.28535516521E+02  0.47787270202E+02  0.19999996161E+02 0.  0.
         12    1    3    3    0    0  0.17425282895E+02 -0.27671414129E+02  0.28535516521E+02  0.43400729798E+02  0.00000000000E+00 0. -1.
         11    1    4    4    0    0 -0.83202497112E+01  0.56833056726E+01 -0.16877906917E+02  0.19656812071E+02  0.51100000000E-03 0. -1.
        -11    1    4    4    0    0  0.14566390276E+01  0.55345002635E+01 -0.46049137729E+01  0.73455919803E+01  0.51100000000E-03 0.  1.
         12    1    4    4    0    0 -0.10561672211E+02  0.16453608193E+02 -0.70526958311E+01  0.20784866152E+02  0.00000000000E+00 0. -1.
</event>
<event>
 8    1  0.2994958E-010  0.9118800E+02  0.7816164E-02  0.1184000E+00
        -11   -1    0    0    0    0  0.00000000000E+00  0.00000000000E+00  0.45593999997E+02  0.45594000000E+02  0.51100000000E-03 0.  1.
         11   -1    0    0    0    0 -0.00000000000E+00 -0.00000000000E+00 -0.45593999997E+02  0.45594000000E+02  0.51100000000E-03 0. -1.
         23    2    1    2    0    0  0.00000000000E+00 -0.35527136788E-14  0.00000000000E+00  0.91188000000E+02  0.91188000000E+02 0.  0.
    9900012    2    3    3    0    0  0.29146385394E+02  0.30836228307E+02 -0.91235171167E+01  0.47787270486E+02  0.19999997456E+02 0.  0.
         12    1    3    3    0    0 -0.29146385394E+02 -0.30836228307E+02  0.91235171167E+01  0.43400729514E+02  0.00000000000E+00 0. -1.
         11    1    4    4    0    0  0.90902465336E+01  0.36985087894E+01 -0.61056515455E+00  0.98328195029E+01  0.51100000000E-03 0. -1.
        -11    1    4    4    0    0  0.11707101642E+02  0.39761390163E+01 -0.30783751885E+01  0.12741361952E+02  0.51100000000E-03 0.  1.
        -12    1    4    4    0    0  0.83490372180E+01  0.23161580501E+02 -0.54345767736E+01  0.25213089031E+02  0.00000000000E+00 0.  1.
</event>
<event>
 8    1  0.2994958E-010  0.9118800E+02  0.7816164E-02  0.1184000E+00
        -11   -1    0    0    0    0  0.00000000000E+00  0.00000000000E+00  0.45593999997E+02  0.45594000000E+02  0.51100000000E-03 0. -1.
         11   -1    0    0    0    0 -0.00000000000E+00 -0.00000000000E+00 -0.45593999997E+02  0.45594000000E+02  0.51100000000E-03 0.  1.
         23    2    1    2    0    0 -0.17763568394E-14  0.00000000000E+00  0.00000000000E+00  0.91188000000E+02  0.91188000000E+02 0.  0.
    9900012    2    3    3    0    0 -0.14373265781E+02 -0.80896846995E+01  0.40144608428E+02  0.47787270126E+02  0.19999995815E+02 0.  0.
        -12    1    3    3    0    0  0.14373265781E+02  0.80896846995E+01 -0.40144608428E+02  0.43400729874E+02  0.00000000000E+00 0.  1.
         11    1    4    4    0    0 -0.16895878436E+01 -0.10201199942E+01  0.18213250370E+01  0.26856241427E+01  0.51100000000E-03 0. -1.
        -11    1    4    4    0    0 -0.33176222662E+01 -0.11801449393E+01 -0.14574914482E+01  0.38109895252E+01  0.51100000000E-03 0.  1.
         12    1    4    4    0    0 -0.93660556713E+01 -0.58894197660E+01  0.39780774839E+02  0.41290656459E+02  0.00000000000E+00 0. -1.
</event>
<event>
 8    1  0.2994958E-010  0.9118800E+02  0.7816164E-02  0.1184000E+00
        -11   -1    0    0    0    0  0.00000000000E+00  0.00000000000E+00  0.45593999997E+02  0.45594000000E+02  0.51100000000E-03 0. -1.
         11   -1    0    0    0    0 -0.00000000000E+00 -0.00000000000E+00 -0.45593999997E+02  0.45594000000E+02  0.51100000000E-03 0.  1.
         23    2    1    2    0    0  0.00000000000E+00  0.00000000000E+00  0.71054273576E-14  0.91188000000E+02  0.91188000000E+02 0.  0.
    9900012    2    3    3    0    0 -0.13756966166E+02 -0.10181406428E+02  0.39883682434E+02  0.47787270981E+02  0.19999999709E+02 0.  0.
        -12    1    3    3    0    0  0.13756966166E+02  0.10181406428E+02 -0.39883682434E+02  0.43400729019E+02  0.00000000000E+00 0.  1.
         11    1    4    4    0    0 -0.11412884659E+02  0.14857796506E+01  0.11872505923E+02  0.16535352266E+02  0.51100000000E-03 0.  1.
        -11    1    4    4    0    0 -0.45107589349E+01 -0.50435584442E+01  0.15879923727E+02  0.17261413783E+02  0.51100000000E-03 0. -1.
        -12    1    4    4    0    0  0.21666774289E+01 -0.66236276347E+01  0.12131252783E+02  0.13990504931E+02  0.00000000000E+00 0.  1.
</event>
<event>
 8    1  0.2994958E-010  0.9118800E+02  0.7816164E-02  0.1184000E+00
        -11   -1    0    0    0    0  0.00000000000E+00  0.00000000000E+00  0.45593999997E+02  0.45594000000E+02  0.51100000000E-03 0. -1.
         11   -1    0    0    0    0 -0.00000000000E+00 -0.00000000000E+00 -0.45593999997E+02  0.45594000000E+02  0.51100000000E-03 0.  1.
         23    2    1    2    0    0 -0.17763568394E-14 -0.35527136788E-14 -0.35527136788E-14  0.91188000000E+02  0.91188000000E+02 0.  0.
    9900012    2    3    3    0    0  0.15604461663E+02  0.24852081122E+02  0.31976519300E+02  0.47787274817E+02  0.20000017200E+02 0.  0.
        -12    1    3    3    0    0 -0.15604461663E+02 -0.24852081122E+02 -0.31976519300E+02  0.43400725183E+02  0.00000000000E+00 0.  1.
         11    1    4    4    0    0 -0.44680852372E+00  0.10563215955E+02  0.19519527623E+02  0.22198944301E+02  0.51100000000E-03 0. -1.
        -11    1    4    4    0    0  0.44341347716E+01  0.70207581858E+01  0.69175712335E+01  0.10807654172E+02  0.51100000000E-03 0.  1.
        -12    1    4    4    0    0  0.11617135415E+02  0.72681069814E+01  0.55394204432E+01  0.14780676344E+02  0.00000000000E+00 0.  1.
</event>
<event>
 8    1  0.2994958E-010  0.9118800E+02  0.7816164E-02  0.1184000E+00
        -11   -1    0    0    0    0  0.00000000000E+00  0.00000000000E+00  0.45593999997E+02  0.45594000000E+02  0.51100000000E-03 0. -1.
         11   -1    0    0    0    0 -0.00000000000E+00 -0.00000000000E+00 -0.45593999997E+02  0.45594000000E+02  0.51100000000E-03 0.  1.
         23    2    1    2    0    0  0.35527136788E-14  0.00000000000E+00  0.00000000000E+00  0.91188000000E+02  0.91188000000E+02 0.  0.
    9900012    2    3    3    0    0 -0.26349637141E+02  0.31429822300E+02 -0.14194606669E+02  0.47787263073E+02  0.19999963656E+02 0.  0.
         12    1    3    3    0    0  0.26349637141E+02 -0.31429822300E+02  0.14194606669E+02  0.43400736927E+02  0.00000000000E+00 0. -1.
         11    1    4    4    0    0  0.19497631557E+01  0.32152538748E+01 -0.42942873015E+00  0.37846853420E+01  0.51100000000E-03 0. -1.
        -11    1    4    4    0    0 -0.85044323975E+01  0.76204302566E+01  0.16594749423E+01  0.11539072105E+02  0.51100000000E-03 0.  1.
         12    1    4    4    0    0 -0.19794967899E+02  0.20594138169E+02 -0.15424652881E+02  0.32463505626E+02  0.00000000000E+00 0. -1.
</event>
<event>
 8    1  0.2994958E-010  0.9118800E+02  0.7816164E-02  0.1184000E+00
        -11   -1    0    0    0    0  0.00000000000E+00  0.00000000000E+00  0.45593999997E+02  0.45594000000E+02  0.51100000000E-03 0. -1.
         11   -1    0    0    0    0 -0.00000000000E+00 -0.00000000000E+00 -0.45593999997E+02  0.45594000000E+02  0.51100000000E-03 0.  1.
         23    2    1    2    0    0  0.35527136788E-14 -0.71054273576E-14  0.00000000000E+00  0.91188000000E+02  0.91188000000E+02 0.  0.
    9900012    2    3    3    0    0  0.20921495936E+02 -0.28267470640E+02  0.25433527816E+02  0.47787271599E+02  0.20000002528E+02 0.  0.
        -12    1    3    3    0    0 -0.20921495936E+02  0.28267470640E+02 -0.25433527816E+02  0.43400728401E+02  0.00000000000E+00 0.  1.
         11    1    4    4    0    0  0.64965784067E+01 -0.17667499932E+02  0.14467405242E+02  0.23741354206E+02  0.51100000000E-03 0. -1.
        -11    1    4    4    0    0  0.94624675250E+01 -0.68194689747E+01  0.13017818356E+02  0.17478759790E+02  0.51100000000E-03 0.  1.
        -12    1    4    4    0    0  0.49624500042E+01 -0.37805017335E+01 -0.20516957827E+01  0.65671576032E+01  0.00000000000E+00 0.  1.
</event>
<event>
 8    1  0.2994958E-010  0.9118800E+02  0.7816164E-02  0.1184000E+00
        -11   -1    0    0    0    0  0.00000000000E+00  0.00000000000E+00  0.45593999997E+02  0.45594000000E+02  0.51100000000E-03 0. -1.
         11   -1    0    0    0    0 -0.00000000000E+00 -0.00000000000E+00 -0.45593999997E+02  0.45594000000E+02  0.51100000000E-03 0.  1.
         23    2    1    2    0    0  0.00000000000E+00 -0.17763568394E-14  0.00000000000E+00  0.91188000000E+02  0.91188000000E+02 0.  0.
    9900012    2    3    3    0    0  0.29153296774E+02  0.13672621157E+02 -0.29099279563E+02  0.47787270130E+02  0.19999995833E+02 0.  0.
         12    1    3    3    0    0 -0.29153296774E+02 -0.13672621157E+02  0.29099279563E+02  0.43400729870E+02  0.00000000000E+00 0. -1.
         11    1    4    4    0    0  0.33212838602E+00  0.64321050626E+00 -0.10434584825E+01  0.12699743643E+01  0.51100000000E-03 0. -1.
        -11    1    4    4    0    0  0.64028505799E+01  0.11442130102E+02 -0.17004811101E+02  0.21472830221E+02  0.51100000000E-03 0.  1.
        -12    1    4    4    0    0  0.22418317808E+02  0.15872805479E+01 -0.11051009979E+02  0.25044465546E+02  0.00000000000E+00 0.  1.
</event>
<event>
 8    1  0.2994958E-010  0.9118800E+02  0.7816164E-02  0.1184000E+00
        -11   -1    0    0    0    0  0.00000000000E+00  0.00000000000E+00  0.45593999997E+02  0.45594000000E+02  0.51100000000E-03 0. -1.
         11   -1    0    0    0    0 -0.00000000000E+00 -0.00000000000E+00 -0.45593999997E+02  0.45594000000E+02  0.51100000000E-03 0.  1.
         23    2    1    2    0    0  0.00000000000E+00  0.00000000000E+00  0.00000000000E+00  0.91188000000E+02  0.91188000000E+02 0.  0.
    9900012    2    3    3    0    0  0.27258779023E+02  0.14194455125E+02  0.30644733537E+02  0.47787270932E+02  0.19999999486E+02 0.  0.
        -12    1    3    3    0    0 -0.27258779023E+02 -0.14194455125E+02 -0.30644733537E+02  0.43400729068E+02  0.00000000000E+00 0.  1.
         11    1    4    4    0    0  0.10130069414E+02  0.11407610510E+01  0.13255420942E+02  0.16722016228E+02  0.51100000000E-03 0. -1.
        -11    1    4    4    0    0 -0.66798398867E+00  0.24077050793E+01  0.78509265975E+01  0.82389498760E+01  0.51100000000E-03 0.  1.
         12    1    4    4    0    0  0.17796693597E+02  0.10645988995E+02  0.95383859975E+01  0.22826304828E+02  0.00000000000E+00 0. -1.
</event>
<event>
 8    1  0.2994958E-010  0.9118800E+02  0.7816164E-02  0.1184000E+00
        -11   -1    0    0    0    0  0.00000000000E+00  0.00000000000E+00  0.45593999997E+02  0.45594000000E+02  0.51100000000E-03 0. -1.
         11   -1    0    0    0    0 -0.00000000000E+00 -0.00000000000E+00 -0.45593999997E+02  0.45594000000E+02  0.51100000000E-03 0.  1.
         23    2    1    2    0    0  0.44408920985E-15  0.71054273576E-14  0.00000000000E+00  0.91188000000E+02  0.91188000000E+02 0.  0.
    9900012    2    3    3    0    0 -0.30691429956E+01 -0.33982710855E+02  0.26821235766E+02  0.47787274617E+02  0.20000016287E+02 0.  0.
        -12    1    3    3    0    0  0.30691429956E+01  0.33982710855E+02 -0.26821235766E+02  0.43400725383E+02  0.00000000000E+00 0.  1.
         11    1    4    4    0    0  0.61930700523E-01 -0.13671494793E+00  0.14767074900E+01  0.14843152161E+01  0.51100000000E-03 0. -1.
        -11    1    4    4    0    0 -0.14678430547E+01  0.20994853416E+01  0.30041259147E+01  0.39480596127E+01  0.51100000000E-03 0.  1.
         12    1    4    4    0    0 -0.16632306414E+01 -0.35945481249E+02  0.22340402361E+02  0.42354899788E+02  0.00000000000E+00 0. -1.
</event>
<event>
 8    1  0.2994958E-010  0.9118800E+02  0.7816164E-02  0.1184000E+00
        -11   -1    0    0    0    0  0.00000000000E+00  0.00000000000E+00  0.45593999997E+02  0.45594000000E+02  0.51100000000E-03 0. -1.
         11   -1    0    0    0    0 -0.00000000000E+00 -0.00000000000E+00 -0.45593999997E+02  0.45594000000E+02  0.51100000000E-03 0.  1.
         23    2    1    2    0    0  0.00000000000E+00 -0.71054273576E-14  0.10658141036E-13  0.91188000000E+02  0.91188000000E+02 0.  0.
    9900012    2    3    3    0    0  0.13988570238E+02  0.26118225001E+02 -0.31714046777E+02  0.47787279528E+02  0.20000038680E+02 0.  0.
         12    1    3    3    0    0 -0.13988570238E+02 -0.26118225001E+02  0.31714046777E+02  0.43400720472E+02  0.00000000000E+00 0. -1.
         11    1    4    4    0    0 -0.57408827442E+00  0.46599791139E+00  0.51058429019E+00  0.89856996319E+00  0.51100000000E-03 0. -1.
        -11    1    4    4    0    0  0.13694012375E+02  0.21272628273E+02 -0.33741887540E+02  0.42173044277E+02  0.51100000000E-03 0.  1.
        -12    1    4    4    0    0  0.86864613759E+00  0.43795988164E+01  0.15172564724E+01  0.47156652880E+01  0.00000000000E+00 0.  1.
</event>
<event>
 8    1  0.2994958E-010  0.9118800E+02  0.7816164E-02  0.1184000E+00
        -11   -1    0    0    0    0  0.00000000000E+00  0.00000000000E+00  0.45593999997E+02  0.45594000000E+02  0.51100000000E-03 0. -1.
         11   -1    0    0    0    0 -0.00000000000E+00 -0.00000000000E+00 -0.45593999997E+02  0.45594000000E+02  0.51100000000E-03 0.  1.
         23    2    1    2    0    0  0.00000000000E+00 -0.35527136788E-14  0.00000000000E+00  0.91188000000E+02  0.91188000000E+02 0.  0.
    9900012    2    3    3    0    0 -0.11731380707E+02  0.29295038636E+02  0.29795953852E+02  0.47787269039E+02  0.19999990856E+02 0.  0.
        -12    1    3    3    0    0  0.11731380707E+02 -0.29295038636E+02 -0.29795953852E+02  0.43400730961E+02  0.00000000000E+00 0.  1.
         11    1    4    4    0    0 -0.56116934526E+01  0.15031613459E+02  0.18106891538E+02  0.24192974766E+02  0.51100000000E-03 0. -1.
        -11    1    4    4    0    0 -0.26578656258E+01  0.13848955042E+02  0.13623050723E+02  0.19607277136E+02  0.51100000000E-03 0.  1.
        -12    1    4    4    0    0 -0.34618216286E+01  0.41447013564E+00 -0.19339884093E+01  0.39870171367E+01  0.00000000000E+00 0.  1.
</event>
<event>
 8    1  0.2994958E-010  0.9118800E+02  0.7816164E-02  0.1184000E+00
        -11   -1    0    0    0    0  0.00000000000E+00  0.00000000000E+00  0.45593999997E+02  0.45594000000E+02  0.51100000000E-03 0. -1.
         11   -1    0    0    0    0 -0.00000000000E+00 -0.00000000000E+00 -0.45593999997E+02  0.45594000000E+02  0.51100000000E-03 0.  1.
         23    2    1    2    0    0  0.35527136788E-14  0.00000000000E+00  0.00000000000E+00  0.91188000000E+02  0.91188000000E+02 0.  0.
    9900012    2    3    3    0    0  0.29539870988E+02  0.14164420505E+02 -0.28467305974E+02  0.47787282314E+02  0.20000051384E+02 0.  0.
         12    1    3    3    0    0 -0.29539870988E+02 -0.14164420505E+02  0.28467305974E+02  0.43400717686E+02  0.00000000000E+00 0. -1.
         11    1    4    4    0    0 -0.13616111134E+01  0.19732758954E+01 -0.87574148503E+00  0.25523961278E+01  0.51100000000E-03 0. -1.
        -11    1    4    4    0    0  0.75051315653E+01  0.91232438604E+01 -0.12634725877E+02  0.17297308363E+02  0.51100000000E-03 0.  1.
        -12    1    4    4    0    0  0.23396350536E+02  0.30679007493E+01 -0.14956838612E+02  0.27937577824E+02  0.00000000000E+00 0.  1.
</event>
<event>
 8    1  0.2994958E-010  0.9118800E+02  0.7816164E-02  0.1184000E+00
        -11   -1    0    0    0    0  0.00000000000E+00  0.00000000000E+00  0.45593999997E+02  0.45594000000E+02  0.51100000000E-03 0. -1.
         11   -1    0    0    0    0 -0.00000000000E+00 -0.00000000000E+00 -0.45593999997E+02  0.45594000000E+02  0.51100000000E-03 0.  1.
         23    2    1    2    0    0  0.11102230246E-15  0.00000000000E+00  0.00000000000E+00  0.91188000000E+02  0.91188000000E+02 0.  0.
    9900012    2    3    3    0    0  0.90053314244E+00 -0.44339367465E+01  0.43164249432E+02  0.47787272079E+02  0.20000004718E+02 0.  0.
        -12    1    3    3    0    0 -0.90053314244E+00  0.44339367465E+01 -0.43164249432E+02  0.43400727921E+02  0.00000000000E+00 0.  1.
         11    1    4    4    0    0 -0.76519235494E+00 -0.21234425161E+01  0.10526226569E+01  0.24904903490E+01  0.51100000000E-03 0. -1.
        -11    1    4    4    0    0 -0.25672685792E+01 -0.86525112258E+01  0.21351239967E+02  0.23180428531E+02  0.51100000000E-03 0.  1.
         12    1    4    4    0    0  0.42329940765E+01  0.63420169954E+01  0.20760386808E+02  0.22116353200E+02  0.00000000000E+00 0. -1.
</event>
<event>
 8    1  0.2994958E-010  0.9118800E+02  0.7816164E-02  0.1184000E+00
        -11   -1    0    0    0    0  0.00000000000E+00  0.00000000000E+00  0.45593999997E+02  0.45594000000E+02  0.51100000000E-03 0. -1.
         11   -1    0    0    0    0 -0.00000000000E+00 -0.00000000000E+00 -0.45593999997E+02  0.45594000000E+02  0.51100000000E-03 0.  1.
         23    2    1    2    0    0  0.00000000000E+00  0.00000000000E+00  0.00000000000E+00  0.91188000000E+02  0.91188000000E+02 0.  0.
    9900012    2    3    3    0    0  0.62078665695E+01 -0.26449364901E+02  0.33845488500E+02  0.47787267254E+02  0.19999982720E+02 0.  0.
        -12    1    3    3    0    0 -0.62078665695E+01  0.26449364901E+02 -0.33845488500E+02  0.43400732746E+02  0.00000000000E+00 0.  1.
         11    1    4    4    0    0  0.41360340590E+01 -0.15082278806E+02  0.18546470439E+02  0.24260121140E+02  0.51100000000E-03 0. -1.
        -11    1    4    4    0    0  0.31391626104E+01 -0.13045163831E+02  0.16450957537E+02  0.21228863498E+02  0.51100000000E-03 0.  1.
        -12    1    4    4    0    0 -0.10673300999E+01  0.16780777358E+01 -0.11519394757E+01  0.22982826165E+01  0.00000000000E+00 0.  1.
</event>
<event>
 8    1  0.2994958E-010  0.9118800E+02  0.7816164E-02  0.1184000E+00
        -11   -1    0    0    0    0  0.00000000000E+00  0.00000000000E+00  0.45593999997E+02  0.45594000000E+02  0.51100000000E-03 0. -1.
         11   -1    0    0    0    0 -0.00000000000E+00 -0.00000000000E+00 -0.45593999997E+02  0.45594000000E+02  0.51100000000E-03 0.  1.
         23    2    1    2    0    0  0.00000000000E+00  0.00000000000E+00  0.71054273576E-14  0.91188000000E+02  0.91188000000E+02 0.  0.
    9900012    2    3    3    0    0 -0.22791558579E+02 -0.30870077565E+01  0.36805387958E+02  0.47787293300E+02  0.20000101471E+02 0.  0.
        -12    1    3    3    0    0  0.22791558579E+02  0.30870077565E+01 -0.36805387958E+02  0.43400706700E+02  0.00000000000E+00 0.  1.
         11    1    4    4    0    0 -0.13970894516E+02  0.30916897116E+01  0.21506305573E+02  0.25831485023E+02  0.51100000000E-03 0. -1.
        -11    1    4    4    0    0 -0.68565684338E+01 -0.14104321243E+01  0.15270806615E+02  0.16798791159E+02  0.51100000000E-03 0.  1.
        -12    1    4    4    0    0 -0.19640956294E+01 -0.47682653438E+01  0.28275769492E-01  0.51570171175E+01  0.00000000000E+00 0.  1.
</event>
<event>
 8    1  0.2994958E-010  0.9118800E+02  0.7816164E-02  0.1184000E+00
        -11   -1    0    0    0    0  0.00000000000E+00  0.00000000000E+00  0.45593999997E+02  0.45594000000E+02  0.51100000000E-03 0. -1.
         11   -1    0    0    0    0 -0.00000000000E+00 -0.00000000000E+00 -0.45593999997E+02  0.45594000000E+02  0.51100000000E-03 0.  1.
         23    2    1    2    0    0  0.00000000000E+00  0.00000000000E+00  0.00000000000E+00  0.91188000000E+02  0.91188000000E+02 0.  0.
    9900012    2    3    3    0    0 -0.19028578177E+02 -0.21451842650E+01  0.38947844555E+02  0.47787271914E+02  0.20000003963E+02 0.  0.
        -12    1    3    3    0    0  0.19028578177E+02  0.21451842650E+01 -0.38947844555E+02  0.43400728086E+02  0.00000000000E+00 0.  1.
         11    1    4    4    0    0 -0.59848047626E+01 -0.21314717921E+00  0.21540417827E+02  0.22357390729E+02  0.51100000000E-03 0. -1.
        -11    1    4    4    0    0 -0.62714379432E+01  0.50558681532E+01  0.43804372314E+01  0.91695674520E+01  0.51100000000E-03 0.  1.
         12    1    4    4    0    0 -0.67723354708E+01 -0.69879052389E+01  0.13026989496E+02  0.16260313733E+02  0.00000000000E+00 0. -1.
</event>
<event>
 8    1  0.2994958E-010  0.9118800E+02  0.7816164E-02  0.1184000E+00
        -11   -1    0    0    0    0  0.00000000000E+00  0.00000000000E+00  0.45593999997E+02  0.45594000000E+02  0.51100000000E-03 0. -1.
         11   -1    0    0    0    0 -0.00000000000E+00 -0.00000000000E+00 -0.45593999997E+02  0.45594000000E+02  0.51100000000E-03 0.  1.
         23    2    1    2    0    0 -0.35527136788E-14  0.00000000000E+00 -0.71054273576E-14  0.91188000000E+02  0.91188000000E+02 0.  0.
    9900012    2    3    3    0    0  0.16496784015E+02 -0.18747519672E+02 -0.35496615924E+02  0.47787272831E+02  0.20000008147E+02 0.  0.
         12    1    3    3    0    0 -0.16496784015E+02  0.18747519672E+02  0.35496615924E+02  0.43400727169E+02  0.00000000000E+00 0. -1.
         11    1    4    4    0    0  0.10198442950E+02 -0.88369775459E+01 -0.23723389930E+02  0.27292849627E+02  0.51100000000E-03 0. -1.
        -11    1    4    4    0    0  0.98116032208E+01 -0.63799757298E+01 -0.72557016830E+01  0.13770143618E+02  0.51100000000E-03 0.  1.
         12    1    4    4    0    0 -0.35132621557E+01 -0.35305663963E+01 -0.45175243116E+01  0.67242795866E+01  0.00000000000E+00 0. -1.
</event>
<event>
 8    1  0.2994958E-010  0.9118800E+02  0.7816164E-02  0.1184000E+00
        -11   -1    0    0    0    0  0.00000000000E+00  0.00000000000E+00  0.45593999997E+02  0.45594000000E+02  0.51100000000E-03 0.  1.
         11   -1    0    0    0    0 -0.00000000000E+00 -0.00000000000E+00 -0.45593999997E+02  0.45594000000E+02  0.51100000000E-03 0. -1.
         23    2    1    2    0    0  0.00000000000E+00  0.00000000000E+00  0.88817841970E-15  0.91188000000E+02  0.91188000000E+02 0.  0.
    9900012    2    3    3    0    0 -0.77504990370E+01  0.42391476787E+02 -0.51493251413E+01  0.47787273175E+02  0.20000009715E+02 0.  0.
        -12    1    3    3    0    0  0.77504990370E+01 -0.42391476787E+02  0.51493251413E+01  0.43400726825E+02  0.00000000000E+00 0.  1.
         11    1    4    4    0    0 -0.38061641712E+01  0.26851949731E+01  0.94823969937E+00  0.47535583020E+01  0.51100000000E-03 0. -1.
        -11    1    4    4    0    0 -0.10413313483E+01  0.51016848245E+01  0.43340116740E+01  0.67746008353E+01  0.51100000000E-03 0.  1.
         12    1    4    4    0    0 -0.29030035174E+01  0.34604596990E+02 -0.10431576515E+02  0.36259114038E+02  0.00000000000E+00 0. -1.
</event>
<event>
 8    1  0.2994958E-010  0.9118800E+02  0.7816164E-02  0.1184000E+00
        -11   -1    0    0    0    0  0.00000000000E+00  0.00000000000E+00  0.45593999997E+02  0.45594000000E+02  0.51100000000E-03 0. -1.
         11   -1    0    0    0    0 -0.00000000000E+00 -0.00000000000E+00 -0.45593999997E+02  0.45594000000E+02  0.51100000000E-03 0.  1.
         23    2    1    2    0    0  0.00000000000E+00  0.17763568394E-14  0.00000000000E+00  0.91188000000E+02  0.91188000000E+02 0.  0.
    9900012    2    3    3    0    0 -0.58358682013E+01  0.82510089072E+01  0.42207659625E+02  0.47787273777E+02  0.20000012459E+02 0.  0.
        -12    1    3    3    0    0  0.58358682013E+01 -0.82510089072E+01 -0.42207659625E+02  0.43400726223E+02  0.00000000000E+00 0.  1.
         11    1    4    4    0    0 -0.19845610071E+00  0.45300018599E+01  0.57864676609E+01  0.73514291078E+01  0.51100000000E-03 0. -1.
        -11    1    4    4    0    0 -0.14035052440E+01  0.52279514992E+00 -0.15150166335E+01  0.21303561673E+01  0.51100000000E-03 0.  1.
         12    1    4    4    0    0 -0.42339068567E+01  0.31982118974E+01  0.37936208598E+02  0.38305488502E+02  0.00000000000E+00 0. -1.
</event>
<event>
 8    1  0.2994958E-010  0.9118800E+02  0.7816164E-02  0.1184000E+00
        -11   -1    0    0    0    0  0.00000000000E+00  0.00000000000E+00  0.45593999997E+02  0.45594000000E+02  0.51100000000E-03 0. -1.
         11   -1    0    0    0    0 -0.00000000000E+00 -0.00000000000E+00 -0.45593999997E+02  0.45594000000E+02  0.51100000000E-03 0.  1.
         23    2    1    2    0    0  0.00000000000E+00  0.00000000000E+00  0.11102230246E-14  0.91188000000E+02  0.91188000000E+02 0.  0.
    9900012    2    3    3    0    0 -0.52269109019E+01 -0.43072095531E+02 -0.10474453996E+01  0.47787272439E+02  0.20000006358E+02 0.  0.
        -12    1    3    3    0    0  0.52269109019E+01  0.43072095531E+02  0.10474453996E+01  0.43400727561E+02  0.00000000000E+00 0.  1.
         11    1    4    4    0    0 -0.19412217904E+01 -0.56422188551E+01  0.16359426449E+01  0.61870254766E+01  0.51100000000E-03 0. -1.
        -11    1    4    4    0    0 -0.55136881577E+01 -0.11413012708E+02  0.60786399622E+01  0.14057292778E+02  0.51100000000E-03 0.  1.
         12    1    4    4    0    0  0.22279990463E+01 -0.26016863967E+02 -0.87620280068E+01  0.27542954185E+02  0.00000000000E+00 0. -1.
</event>
<event>
 8    1  0.2994958E-010  0.9118800E+02  0.7816164E-02  0.1184000E+00
        -11   -1    0    0    0    0  0.00000000000E+00  0.00000000000E+00  0.45593999997E+02  0.45594000000E+02  0.51100000000E-03 0. -1.
         11   -1    0    0    0    0 -0.00000000000E+00 -0.00000000000E+00 -0.45593999997E+02  0.45594000000E+02  0.51100000000E-03 0.  1.
         23    2    1    2    0    0 -0.17763568394E-14  0.00000000000E+00  0.00000000000E+00  0.91188000000E+02  0.91188000000E+02 0.  0.
    9900012    2    3    3    0    0 -0.12750395086E+02  0.63857044050E+01 -0.40991139108E+02  0.47787270963E+02  0.19999999627E+02 0.  0.
         12    1    3    3    0    0  0.12750395086E+02 -0.63857044050E+01  0.40991139108E+02  0.43400729037E+02  0.00000000000E+00 0. -1.
         11    1    4    4    0    0 -0.13696880656E+02  0.48253970641E+01 -0.14264271692E+02  0.20355796317E+02  0.51100000000E-03 0. -1.
        -11    1    4    4    0    0 -0.22517586391E+01 -0.31015168394E+00 -0.70034884109E+01  0.73631149128E+01  0.51100000000E-03 0.  1.
         12    1    4    4    0    0  0.31982442091E+01  0.18704590249E+01 -0.19723379006E+02  0.20068359733E+02  0.00000000000E+00 0. -1.
</event>
<event>
 8    1  0.2994958E-010  0.9118800E+02  0.7816164E-02  0.1184000E+00
        -11   -1    0    0    0    0  0.00000000000E+00  0.00000000000E+00  0.45593999997E+02  0.45594000000E+02  0.51100000000E-03 0. -1.
         11   -1    0    0    0    0 -0.00000000000E+00 -0.00000000000E+00 -0.45593999997E+02  0.45594000000E+02  0.51100000000E-03 0.  1.
         23    2    1    2    0    0  0.00000000000E+00  0.00000000000E+00  0.00000000000E+00  0.91188000000E+02  0.91188000000E+02 0.  0.
    9900012    2    3    3    0    0  0.17966282948E+02 -0.17453965225E+02 -0.35442839160E+02  0.47787273362E+02  0.20000010565E+02 0.  0.
         12    1    3    3    0    0 -0.17966282948E+02  0.17453965225E+02  0.35442839160E+02  0.43400726638E+02  0.00000000000E+00 0. -1.
         11    1    4    4    0    0  0.74503383519E+01 -0.62247134254E+01 -0.23985635895E+02  0.25875960433E+02  0.51100000000E-03 0. -1.
        -11    1    4    4    0    0  0.53590769819E+01  0.20795444015E+00 -0.64863946567E+01  0.84164284023E+01  0.51100000000E-03 0.  1.
         12    1    4    4    0    0  0.51568676138E+01 -0.11437206240E+02 -0.49708086083E+01  0.13494884526E+02  0.00000000000E+00 0. -1.
</event>
<event>
 8    1  0.2994958E-010  0.9118800E+02  0.7816164E-02  0.1184000E+00
        -11   -1    0    0    0    0  0.00000000000E+00  0.00000000000E+00  0.45593999997E+02  0.45594000000E+02  0.51100000000E-03 0. -1.
         11   -1    0    0    0    0 -0.00000000000E+00 -0.00000000000E+00 -0.45593999997E+02  0.45594000000E+02  0.51100000000E-03 0.  1.
         23    2    1    2    0    0  0.00000000000E+00  0.00000000000E+00 -0.35527136788E-14  0.91188000000E+02  0.91188000000E+02 0.  0.
    9900012    2    3    3    0    0 -0.34034879226E+02 -0.12755991030E+02  0.23717816564E+02  0.47787272660E+02  0.20000007365E+02 0.  0.
        -12    1    3    3    0    0  0.34034879226E+02  0.12755991030E+02 -0.23717816564E+02  0.43400727340E+02  0.00000000000E+00 0.  1.
         11    1    4    4    0    0 -0.12685326167E+02 -0.72182708421E+01  0.26241941448E+01  0.14829272709E+02  0.51100000000E-03 0. -1.
        -11    1    4    4    0    0 -0.11402886524E+02 -0.87010535753E+01  0.87860387023E+01  0.16820482476E+02  0.51100000000E-03 0.  1.
        -12    1    4    4    0    0 -0.99466665353E+01  0.31633333874E+01  0.12307583717E+02  0.16137517474E+02  0.00000000000E+00 0.  1.
</event>
<event>
 8    1  0.2994958E-010  0.9118800E+02  0.7816164E-02  0.1184000E+00
        -11   -1    0    0    0    0  0.00000000000E+00  0.00000000000E+00  0.45593999997E+02  0.45594000000E+02  0.51100000000E-03 0. -1.
         11   -1    0    0    0    0 -0.00000000000E+00 -0.00000000000E+00 -0.45593999997E+02  0.45594000000E+02  0.51100000000E-03 0.  1.
         23    2    1    2    0    0 -0.88817841970E-15  0.88817841970E-15  0.00000000000E+00  0.91188000000E+02  0.91188000000E+02 0.  0.
    9900012    2    3    3    0    0 -0.60623569635E+01 -0.78104697402E+01  0.42259527810E+02  0.47787270740E+02  0.19999998614E+02 0.  0.
        -12    1    3    3    0    0  0.60623569635E+01  0.78104697402E+01 -0.42259527810E+02  0.43400729260E+02  0.00000000000E+00 0.  1.
         11    1    4    4    0    0  0.19137359763E+01  0.23518903268E+01  0.79177716219E+01  0.84784952211E+01  0.51100000000E-03 0. -1.
        -11    1    4    4    0    0  0.10272451418E+01 -0.77534923446E+01  0.24657707578E+02  0.25868405814E+02  0.51100000000E-03 0.  1.
        -12    1    4    4    0    0 -0.90033380816E+01 -0.24088677225E+01  0.96840486108E+01  0.13440369705E+02  0.00000000000E+00 0.  1.
</event>
<event>
 8    1  0.2994958E-010  0.9118800E+02  0.7816164E-02  0.1184000E+00
        -11   -1    0    0    0    0  0.00000000000E+00  0.00000000000E+00  0.45593999997E+02  0.45594000000E+02  0.51100000000E-03 0.  1.
         11   -1    0    0    0    0 -0.00000000000E+00 -0.00000000000E+00 -0.45593999997E+02  0.45594000000E+02  0.51100000000E-03 0. -1.
         23    2    1    2    0    0 -0.35527136788E-14  0.00000000000E+00  0.00000000000E+00  0.91188000000E+02  0.91188000000E+02 0.  0.
    9900012    2    3    3    0    0  0.16293849549E+02 -0.39807861448E+02 -0.57851518461E+01  0.47787270189E+02  0.19999996101E+02 0.  0.
        -12    1    3    3    0    0 -0.16293849549E+02  0.39807861448E+02  0.57851518461E+01  0.43400729811E+02  0.00000000000E+00 0.  1.
         11    1    4    4    0    0  0.54478837723E+01 -0.10116518233E+02  0.39413946390E+01  0.12147344184E+02  0.51100000000E-03 0. -1.
        -11    1    4    4    0    0  0.81085660940E+01 -0.10519345260E+02  0.13154843637E+01  0.13346758714E+02  0.51100000000E-03 0.  1.
        -12    1    4    4    0    0  0.27373996824E+01 -0.19171997956E+02 -0.11042030849E+02  0.22293167292E+02  0.00000000000E+00 0.  1.
</event>
<event>
 8    1  0.2994958E-010  0.9118800E+02  0.7816164E-02  0.1184000E+00
        -11   -1    0    0    0    0  0.00000000000E+00  0.00000000000E+00  0.45593999997E+02  0.45594000000E+02  0.51100000000E-03 0. -1.
         11   -1    0    0    0    0 -0.00000000000E+00 -0.00000000000E+00 -0.45593999997E+02  0.45594000000E+02  0.51100000000E-03 0.  1.
         23    2    1    2    0    0  0.00000000000E+00  0.00000000000E+00  0.00000000000E+00  0.91188000000E+02  0.91188000000E+02 0.  0.
    9900012    2    3    3    0    0  0.21761092838E+02  0.24914784112E+02 -0.28095080536E+02  0.47787249094E+02  0.19999899919E+02 0.  0.
         12    1    3    3    0    0 -0.21761092838E+02 -0.24914784112E+02  0.28095080536E+02  0.43400750906E+02  0.00000000000E+00 0. -1.
         11    1    4    4    0    0  0.38462149377E+01  0.79913884857E+01 -0.36009668668E+01  0.95719706389E+01  0.51100000000E-03 0. -1.
        -11    1    4    4    0    0  0.48579359276E+01 -0.26288969626E+01 -0.26655824154E+01  0.61331860065E+01  0.51100000000E-03 0.  1.
        -12    1    4    4    0    0  0.13056941973E+02  0.19552292589E+02 -0.21828531254E+02  0.32082092449E+02  0.00000000000E+00 0.  1.
</event>
<event>
 8    1  0.2994958E-010  0.9118800E+02  0.7816164E-02  0.1184000E+00
        -11   -1    0    0    0    0  0.00000000000E+00  0.00000000000E+00  0.45593999997E+02  0.45594000000E+02  0.51100000000E-03 0. -1.
         11   -1    0    0    0    0 -0.00000000000E+00 -0.00000000000E+00 -0.45593999997E+02  0.45594000000E+02  0.51100000000E-03 0.  1.
         23    2    1    2    0    0  0.00000000000E+00  0.17763568394E-14  0.00000000000E+00  0.91188000000E+02  0.91188000000E+02 0.  0.
    9900012    2    3    3    0    0  0.37415363956E+01 -0.13724376735E+02  0.41003239300E+02  0.47787271383E+02  0.20000001546E+02 0.  0.
        -12    1    3    3    0    0 -0.37415363956E+01  0.13724376735E+02 -0.41003239300E+02  0.43400728617E+02  0.00000000000E+00 0.  1.
         11    1    4    4    0    0 -0.44982419697E+01  0.18683647385E+00  0.43338198769E+01  0.62490866270E+01  0.51100000000E-03 0. -1.
        -11    1    4    4    0    0  0.15765502277E+01  0.21626539233E+00 -0.93968951714E-01  0.15940864987E+01  0.51100000000E-03 0.  1.
         12    1    4    4    0    0  0.66632281376E+01 -0.14127478601E+02  0.36763388375E+02  0.39944098258E+02  0.00000000000E+00 0. -1.
</event>
<event>
 8    1  0.2994958E-010  0.9118800E+02  0.7816164E-02  0.1184000E+00
        -11   -1    0    0    0    0  0.00000000000E+00  0.00000000000E+00  0.45593999997E+02  0.45594000000E+02  0.51100000000E-03 0. -1.
         11   -1    0    0    0    0 -0.00000000000E+00 -0.00000000000E+00 -0.45593999997E+02  0.45594000000E+02  0.51100000000E-03 0.  1.
         23    2    1    2    0    0  0.00000000000E+00  0.35527136788E-14  0.00000000000E+00  0.91188000000E+02  0.91188000000E+02 0.  0.
    9900012    2    3    3    0    0  0.44236289822E+01  0.30913752886E+02 -0.30139585246E+02  0.47787271784E+02  0.20000003372E+02 0.  0.
         12    1    3    3    0    0 -0.44236289822E+01 -0.30913752886E+02  0.30139585246E+02  0.43400728216E+02  0.00000000000E+00 0. -1.
         11    1    4    4    0    0  0.18552718726E-01  0.12303061389E+01  0.11413032098E+01  0.16782641856E+01  0.51100000000E-03 0. -1.
        -11    1    4    4    0    0 -0.46445469651E+01  0.18036404730E+02 -0.21327972313E+02  0.28315474839E+02  0.51100000000E-03 0.  1.
        -12    1    4    4    0    0  0.90496232286E+01  0.11647042017E+02 -0.99529161426E+01  0.17793532760E+02  0.00000000000E+00 0.  1.
</event>
<event>
 8    1  0.2994958E-010  0.9118800E+02  0.7816164E-02  0.1184000E+00
        -11   -1    0    0    0    0  0.00000000000E+00  0.00000000000E+00  0.45593999997E+02  0.45594000000E+02  0.51100000000E-03 0. -1.
         11   -1    0    0    0    0 -0.00000000000E+00 -0.00000000000E+00 -0.45593999997E+02  0.45594000000E+02  0.51100000000E-03 0.  1.
         23    2    1    2    0    0 -0.17763568394E-14  0.00000000000E+00  0.00000000000E+00  0.91188000000E+02  0.91188000000E+02 0.  0.
    9900012    2    3    3    0    0  0.13100933123E+02  0.28378312332E+01 -0.41278755774E+02  0.47787269441E+02  0.19999992690E+02 0.  0.
         12    1    3    3    0    0 -0.13100933123E+02 -0.28378312332E+01  0.41278755774E+02  0.43400730559E+02  0.00000000000E+00 0. -1.
         11    1    4    4    0    0  0.36946950090E+01  0.23038326253E+01 -0.51524037179E+01  0.67457898209E+01  0.51100000000E-03 0. -1.
        -11    1    4    4    0    0  0.33261503753E+01 -0.74980949070E+00 -0.34432102508E+02  0.34600508290E+02  0.51100000000E-03 0.  1.
        -12    1    4    4    0    0  0.60800877384E+01  0.12838080985E+01 -0.16942495483E+01  0.64409713299E+01  0.00000000000E+00 0.  1.
</event>
<event>
 8    1  0.2994958E-010  0.9118800E+02  0.7816164E-02  0.1184000E+00
        -11   -1    0    0    0    0  0.00000000000E+00  0.00000000000E+00  0.45593999997E+02  0.45594000000E+02  0.51100000000E-03 0. -1.
         11   -1    0    0    0    0 -0.00000000000E+00 -0.00000000000E+00 -0.45593999997E+02  0.45594000000E+02  0.51100000000E-03 0.  1.
         23    2    1    2    0    0  0.00000000000E+00 -0.17763568394E-14  0.00000000000E+00  0.91188000000E+02  0.91188000000E+02 0.  0.
    9900012    2    3    3    0    0 -0.36024327034E+02  0.59706015316E+01  0.23456833126E+02  0.47787271421E+02  0.20000001715E+02 0.  0.
        -12    1    3    3    0    0  0.36024327034E+02 -0.59706015316E+01 -0.23456833126E+02  0.43400728579E+02  0.00000000000E+00 0.  1.
         11    1    4    4    0    0 -0.39141022568E+01 -0.21312798377E+01  0.20637270571E+01  0.49113663935E+01  0.51100000000E-03 0. -1.
        -11    1    4    4    0    0 -0.12624019666E+01 -0.22961972567E+01 -0.15552072044E+01  0.30471052290E+01  0.51100000000E-03 0.  1.
         12    1    4    4    0    0 -0.30847822810E+02  0.10398078626E+02  0.22948313274E+02  0.39828799798E+02  0.00000000000E+00 0. -1.
</event>
<event>
 8    1  0.2994958E-010  0.9118800E+02  0.7816164E-02  0.1184000E+00
        -11   -1    0    0    0    0  0.00000000000E+00  0.00000000000E+00  0.45593999997E+02  0.45594000000E+02  0.51100000000E-03 0.  1.
         11   -1    0    0    0    0 -0.00000000000E+00 -0.00000000000E+00 -0.45593999997E+02  0.45594000000E+02  0.51100000000E-03 0. -1.
         23    2    1    2    0    0  0.71054273576E-14  0.00000000000E+00 -0.35527136788E-14  0.91188000000E+02  0.91188000000E+02 0.  0.
    9900012    2    3    3    0    0  0.34758345803E+02  0.56275700849E+01  0.25373433486E+02  0.47787271033E+02  0.19999999946E+02 0.  0.
        -12    1    3    3    0    0 -0.34758345803E+02 -0.56275700849E+01 -0.25373433486E+02  0.43400728967E+02  0.00000000000E+00 0.  1.
         11    1    4    4    0    0  0.61872270007E+01 -0.51736780694E+01  0.28808659121E+01  0.85643511949E+01  0.51100000000E-03 0. -1.
        -11    1    4    4    0    0  0.28445031088E+00 -0.12281373745E+01  0.26029084672E+00  0.12872392846E+01  0.51100000000E-03 0.  1.
         12    1    4    4    0    0  0.28286668491E+02  0.12029385529E+02  0.22232276727E+02  0.37935680553E+02  0.00000000000E+00 0. -1.
</event>
<event>
 8    1  0.2994958E-010  0.9118800E+02  0.7816164E-02  0.1184000E+00
        -11   -1    0    0    0    0  0.00000000000E+00  0.00000000000E+00  0.45593999997E+02  0.45594000000E+02  0.51100000000E-03 0.  1.
         11   -1    0    0    0    0 -0.00000000000E+00 -0.00000000000E+00 -0.45593999997E+02  0.45594000000E+02  0.51100000000E-03 0. -1.
         23    2    1    2    0    0  0.00000000000E+00  0.00000000000E+00  0.00000000000E+00  0.91188000000E+02  0.91188000000E+02 0.  0.
    9900012    2    3    3    0    0  0.38469190446E+02 -0.19416235136E+02  0.51724887514E+01  0.47787269127E+02  0.19999991257E+02 0.  0.
        -12    1    3    3    0    0 -0.38469190446E+02  0.19416235136E+02 -0.51724887514E+01  0.43400730873E+02  0.00000000000E+00 0.  1.
         11    1    4    4    0    0  0.92493053184E+01 -0.76946643421E+01  0.89640244930E+01  0.15003707661E+02  0.51100000000E-03 0. -1.
        -11    1    4    4    0    0  0.33594111196E+01 -0.46686315073E+01 -0.92768790879E+00  0.58260079247E+01  0.51100000000E-03 0.  1.
        -12    1    4    4    0    0  0.25860474008E+02 -0.70529392868E+01 -0.28638478328E+01  0.26957553541E+02  0.00000000000E+00 0.  1.
</event>
<event>
 8    1  0.2994958E-010  0.9118800E+02  0.7816164E-02  0.1184000E+00
        -11   -1    0    0    0    0  0.00000000000E+00  0.00000000000E+00  0.45593999997E+02  0.45594000000E+02  0.51100000000E-03 0. -1.
         11   -1    0    0    0    0 -0.00000000000E+00 -0.00000000000E+00 -0.45593999997E+02  0.45594000000E+02  0.51100000000E-03 0.  1.
         23    2    1    2    0    0  0.00000000000E+00  0.00000000000E+00  0.00000000000E+00  0.91188000000E+02  0.91188000000E+02 0.  0.
    9900012    2    3    3    0    0 -0.27676148730E+02  0.33429970362E+02 -0.30083528945E+00  0.47787278476E+02  0.20000033885E+02 0.  0.
         12    1    3    3    0    0  0.27676148730E+02 -0.33429970362E+02  0.30083528945E+00  0.43400721524E+02  0.00000000000E+00 0. -1.
         11    1    4    4    0    0 -0.29294401518E+01  0.10279710934E+02  0.25980054888E+01  0.11000168602E+02  0.51100000000E-03 0. -1.
        -11    1    4    4    0    0 -0.78916499225E+01  0.16721332547E+02 -0.30907808077E+01  0.18746573738E+02  0.51100000000E-03 0.  1.
         12    1    4    4    0    0 -0.16855058656E+02  0.64289268807E+01  0.19194002948E+00  0.18040536137E+02  0.00000000000E+00 0. -1.
</event>
<event>
 8    1  0.2994958E-010  0.9118800E+02  0.7816164E-02  0.1184000E+00
        -11   -1    0    0    0    0  0.00000000000E+00  0.00000000000E+00  0.45593999997E+02  0.45594000000E+02  0.51100000000E-03 0.  1.
         11   -1    0    0    0    0 -0.00000000000E+00 -0.00000000000E+00 -0.45593999997E+02  0.45594000000E+02  0.51100000000E-03 0. -1.
         23    2    1    2    0    0  0.71054273576E-14  0.44408920985E-15  0.00000000000E+00  0.91188000000E+02  0.91188000000E+02 0.  0.
    9900012    2    3    3    0    0 -0.39495814241E+02 -0.20652848084E+01  0.17872831400E+02  0.47787275972E+02  0.20000022467E+02 0.  0.
        -12    1    3    3    0    0  0.39495814241E+02  0.20652848084E+01 -0.17872831400E+02  0.43400724028E+02  0.00000000000E+00 0.  1.
         11    1    4    4    0    0 -0.29416531333E+02 -0.31041500606E+01  0.73402947574E+01  0.30477007574E+02  0.51100000000E-03 0. -1.
        -11    1    4    4    0    0 -0.87811924996E+01 -0.24729474180E+01  0.44077928185E+01  0.10131803810E+02  0.51100000000E-03 0.  1.
        -12    1    4    4    0    0 -0.12980904084E+01  0.35118126702E+01  0.61247438240E+01  0.71784645885E+01  0.00000000000E+00 0.  1.
</event>
<event>
 8    1  0.2994958E-010  0.9118800E+02  0.7816164E-02  0.1184000E+00
        -11   -1    0    0    0    0  0.00000000000E+00  0.00000000000E+00  0.45593999997E+02  0.45594000000E+02  0.51100000000E-03 0. -1.
         11   -1    0    0    0    0 -0.00000000000E+00 -0.00000000000E+00 -0.45593999997E+02  0.45594000000E+02  0.51100000000E-03 0.  1.
         23    2    1    2    0    0  0.00000000000E+00  0.71054273576E-14  0.00000000000E+00  0.91188000000E+02  0.91188000000E+02 0.  0.
    9900012    2    3    3    0    0 -0.10945669984E+01 -0.33224973795E+02  0.27902083551E+02  0.47787271583E+02  0.20000002456E+02 0.  0.
        -12    1    3    3    0    0  0.10945669984E+01  0.33224973795E+02 -0.27902083551E+02  0.43400728417E+02  0.00000000000E+00 0.  1.
         11    1    4    4    0    0  0.29576603415E+01 -0.53749483985E+01  0.13993513622E+01  0.62925360132E+01  0.51100000000E-03 0. -1.
        -11    1    4    4    0    0  0.50741419749E+01 -0.55158481547E+01  0.39659772650E+01  0.84794146953E+01  0.51100000000E-03 0.  1.
         12    1    4    4    0    0 -0.91263693147E+01 -0.22334177242E+02  0.22536754924E+02  0.33015320875E+02  0.00000000000E+00 0. -1.
</event>
<event>
 8    1  0.2994958E-010  0.9118800E+02  0.7816164E-02  0.1184000E+00
        -11   -1    0    0    0    0  0.00000000000E+00  0.00000000000E+00  0.45593999997E+02  0.45594000000E+02  0.51100000000E-03 0. -1.
         11   -1    0    0    0    0 -0.00000000000E+00 -0.00000000000E+00 -0.45593999997E+02  0.45594000000E+02  0.51100000000E-03 0.  1.
         23    2    1    2    0    0  0.00000000000E+00 -0.35527136788E-14  0.00000000000E+00  0.91188000000E+02  0.91188000000E+02 0.  0.
    9900012    2    3    3    0    0  0.28941828952E+02  0.19809665409E+02 -0.25565033237E+02  0.47787271537E+02  0.20000002247E+02 0.  0.
         12    1    3    3    0    0 -0.28941828952E+02 -0.19809665409E+02  0.25565033237E+02  0.43400728463E+02  0.00000000000E+00 0. -1.
         11    1    4    4    0    0  0.23675336373E+00  0.15384601259E+01 -0.29003138989E+00  0.15833604082E+01  0.51100000000E-03 0. -1.
        -11    1    4    4    0    0  0.30175181111E+02  0.19219545420E+02 -0.20763075907E+02  0.41364692705E+02  0.51100000000E-03 0.  1.
         12    1    4    4    0    0 -0.14701055228E+01 -0.94834013711E+00 -0.45119259401E+01  0.48392184237E+01  0.00000000000E+00 0. -1.
</event>
<event>
 8    1  0.2994958E-010  0.9118800E+02  0.7816164E-02  0.1184000E+00
        -11   -1    0    0    0    0  0.00000000000E+00  0.00000000000E+00  0.45593999997E+02  0.45594000000E+02  0.51100000000E-03 0. -1.
         11   -1    0    0    0    0 -0.00000000000E+00 -0.00000000000E+00 -0.45593999997E+02  0.45594000000E+02  0.51100000000E-03 0.  1.
         23    2    1    2    0    0  0.00000000000E+00  0.00000000000E+00 -0.71054273576E-14  0.91188000000E+02  0.91188000000E+02 0.  0.
    9900012    2    3    3    0    0 -0.89860339992E+01 -0.23840760604E+01 -0.42393284813E+02  0.47787271631E+02  0.20000002674E+02 0.  0.
         12    1    3    3    0    0  0.89860339992E+01  0.23840760604E+01  0.42393284813E+02  0.43400728369E+02  0.00000000000E+00 0. -1.
         11    1    4    4    0    0 -0.99429306017E+01 -0.14283491904E+01 -0.17789961595E+02  0.20429997166E+02  0.51100000000E-03 0. -1.
        -11    1    4    4    0    0 -0.42470268542E+01  0.19943853893E+01 -0.17257092928E+02  0.17883569743E+02  0.51100000000E-03 0.  1.
         12    1    4    4    0    0  0.52039234567E+01 -0.29501122592E+01 -0.73462302901E+01  0.94737047221E+01  0.00000000000E+00 0. -1.
</event>
<event>
 8    1  0.2994958E-010  0.9118800E+02  0.7816164E-02  0.1184000E+00
        -11   -1    0    0    0    0  0.00000000000E+00  0.00000000000E+00  0.45593999997E+02  0.45594000000E+02  0.51100000000E-03 0. -1.
         11   -1    0    0    0    0 -0.00000000000E+00 -0.00000000000E+00 -0.45593999997E+02  0.45594000000E+02  0.51100000000E-03 0.  1.
         23    2    1    2    0    0  0.00000000000E+00 -0.47184478547E-15 -0.17763568394E-14  0.91188000000E+02  0.91188000000E+02 0.  0.
    9900012    2    3    3    0    0  0.42583614210E+02  0.16645829472E+00 -0.83804291289E+01  0.47787268440E+02  0.19999988126E+02 0.  0.
         12    1    3    3    0    0 -0.42583614210E+02 -0.16645829472E+00  0.83804291289E+01  0.43400731560E+02  0.00000000000E+00 0. -1.
         11    1    4    4    0    0  0.42187805817E+01  0.13165227672E+01 -0.57340508162E+01  0.72395221401E+01  0.51100000000E-03 0. -1.
        -11    1    4    4    0    0  0.28342017436E+02  0.21738198180E+01 -0.67552187002E+01  0.29216920182E+02  0.51100000000E-03 0.  1.
         12    1    4    4    0    0  0.10022816192E+02 -0.33238842905E+01  0.41088403874E+01  0.11330826118E+02  0.00000000000E+00 0. -1.
</event>
<event>
 8    1  0.2994958E-010  0.9118800E+02  0.7816164E-02  0.1184000E+00
        -11   -1    0    0    0    0  0.00000000000E+00  0.00000000000E+00  0.45593999997E+02  0.45594000000E+02  0.51100000000E-03 0.  1.
         11   -1    0    0    0    0 -0.00000000000E+00 -0.00000000000E+00 -0.45593999997E+02  0.45594000000E+02  0.51100000000E-03 0. -1.
         23    2    1    2    0    0  0.00000000000E+00  0.00000000000E+00  0.11102230246E-15  0.91188000000E+02  0.91188000000E+02 0.  0.
    9900012    2    3    3    0    0  0.42715637390E+02 -0.76506133579E+01 -0.68270138372E+00  0.47787266786E+02  0.19999980582E+02 0.  0.
         12    1    3    3    0    0 -0.42715637390E+02  0.76506133579E+01  0.68270138372E+00  0.43400733214E+02  0.00000000000E+00 0. -1.
         11    1    4    4    0    0  0.43384561976E+01 -0.37545777594E+01  0.11697507143E+01  0.58555421034E+01  0.51100000000E-03 0. -1.
        -11    1    4    4    0    0  0.11720923465E+01 -0.44734599543E+01 -0.89235503191E+00  0.47097709281E+01  0.51100000000E-03 0.  1.
         12    1    4    4    0    0  0.37205088846E+02  0.57742435574E+00 -0.96009706607E+00  0.37221953754E+02  0.00000000000E+00 0. -1.
</event>
<event>
 8    1  0.3600442E-010  0.9118800E+02  0.7816164E-02  0.1184000E+00
        -11   -1    0    0    0    0  0.00000000000E+00  0.00000000000E+00  0.45593999997E+02  0.45594000000E+02  0.51100000000E-03 0. -1.
         11   -1    0    0    0    0 -0.00000000000E+00 -0.00000000000E+00 -0.45593999997E+02  0.45594000000E+02  0.51100000000E-03 0.  1.
         23    2    1    2    0    0 -0.88817841970E-15 -0.35527136788E-14  0.71054273576E-14  0.91188000000E+02  0.91188000000E+02 0.  0.
    9900012    2    3    3    0    0 -0.67670284212E+01 -0.21214456758E+02  0.37252892317E+02  0.47787264578E+02  0.19999970517E+02 0.  0.
        -12    1    3    3    0    0  0.67670284212E+01  0.21214456758E+02 -0.37252892317E+02  0.43400735422E+02  0.00000000000E+00 0.  1.
         11    1    4    4    0    0 -0.73547671435E+01 -0.33049770566E+01  0.21168395874E+02  0.22652074016E+02  0.51100000000E-03 0. -1.
        -11    1    4    4    0    0  0.63166763874E+00 -0.13078604821E+01 -0.62439420938E+00  0.15809400483E+01  0.51100000000E-03 0.  1.
         12    1    4    4    0    0 -0.43928916438E-01 -0.16601619219E+02  0.16708890653E+02  0.23554250514E+02  0.00000000000E+00 0. -1.
</event>
<event>
 8    1  0.2994958E-010  0.9118800E+02  0.7816164E-02  0.1184000E+00
        -11   -1    0    0    0    0  0.00000000000E+00  0.00000000000E+00  0.45593999997E+02  0.45594000000E+02  0.51100000000E-03 0.  1.
         11   -1    0    0    0    0 -0.00000000000E+00 -0.00000000000E+00 -0.45593999997E+02  0.45594000000E+02  0.51100000000E-03 0. -1.
         23    2    1    2    0    0  0.00000000000E+00  0.88817841970E-15  0.17763568394E-14  0.91188000000E+02  0.91188000000E+02 0.  0.
    9900012    2    3    3    0    0  0.40629963069E+02 -0.44240987092E+01 -0.14603319368E+02  0.47787268613E+02  0.19999988912E+02 0.  0.
         12    1    3    3    0    0 -0.40629963069E+02  0.44240987092E+01  0.14603319368E+02  0.43400731387E+02  0.00000000000E+00 0. -1.
         11    1    4    4    0    0  0.23934748994E+02 -0.79365188255E+01 -0.11808208008E+02  0.27844107403E+02  0.51100000000E-03 0. -1.
        -11    1    4    4    0    0  0.13548110115E+02 -0.14610622160E+01 -0.53060507430E+00  0.13636991329E+02  0.51100000000E-03 0.  1.
        -12    1    4    4    0    0  0.31471039603E+01  0.49734823322E+01 -0.22645062853E+01  0.63061698805E+01  0.00000000000E+00 0.  1.
</event>
<event>
 8    1  0.2994958E-010  0.9118800E+02  0.7816164E-02  0.1184000E+00
        -11   -1    0    0    0    0  0.00000000000E+00  0.00000000000E+00  0.45593999997E+02  0.45594000000E+02  0.51100000000E-03 0. -1.
         11   -1    0    0    0    0 -0.00000000000E+00 -0.00000000000E+00 -0.45593999997E+02  0.45594000000E+02  0.51100000000E-03 0.  1.
         23    2    1    2    0    0 -0.35527136788E-14  0.00000000000E+00  0.00000000000E+00  0.91188000000E+02  0.91188000000E+02 0.  0.
    9900012    2    3    3    0    0 -0.18555741918E+02 -0.12487165613E+02 -0.37193793811E+02  0.47787272343E+02  0.20000005920E+02 0.  0.
         12    1    3    3    0    0  0.18555741918E+02  0.12487165613E+02  0.37193793811E+02  0.43400727657E+02  0.00000000000E+00 0. -1.
         11    1    4    4    0    0  0.11912196356E+01  0.40152920143E+00 -0.28522463376E+00  0.12890241552E+01  0.51100000000E-03 0. -1.
        -11    1    4    4    0    0 -0.17441899228E+02 -0.75428606121E+01 -0.16149550879E+02  0.24938375824E+02  0.51100000000E-03 0.  1.
         12    1    4    4    0    0 -0.23050623255E+01 -0.53458342020E+01 -0.20759018298E+02  0.21559872364E+02  0.00000000000E+00 0. -1.
</event>
<event>
 8    1  0.2994958E-010  0.9118800E+02  0.7816164E-02  0.1184000E+00
        -11   -1    0    0    0    0  0.00000000000E+00  0.00000000000E+00  0.45593999997E+02  0.45594000000E+02  0.51100000000E-03 0. -1.
         11   -1    0    0    0    0 -0.00000000000E+00 -0.00000000000E+00 -0.45593999997E+02  0.45594000000E+02  0.51100000000E-03 0.  1.
         23    2    1    2    0    0 -0.17763568394E-14  0.00000000000E+00  0.00000000000E+00  0.91188000000E+02  0.91188000000E+02 0.  0.
    9900012    2    3    3    0    0 -0.96371549967E+01 -0.60734503694E+01  0.41879110184E+02  0.47787292338E+02  0.20000097084E+02 0.  0.
        -12    1    3    3    0    0  0.96371549967E+01  0.60734503694E+01 -0.41879110184E+02  0.43400707662E+02  0.00000000000E+00 0.  1.
         11    1    4    4    0    0 -0.36531807313E+01 -0.40139890535E+01  0.39577232992E+01  0.67172473196E+01  0.51100000000E-03 0. -1.
        -11    1    4    4    0    0 -0.38643351048E+01 -0.83086047641E+01  0.21371957298E+02  0.23253527860E+02  0.51100000000E-03 0.  1.
        -12    1    4    4    0    0 -0.21196391606E+01  0.62491434483E+01  0.16549429586E+02  0.17816517158E+02  0.00000000000E+00 0.  1.
</event>
<event>
 8    1  0.2994958E-010  0.9118800E+02  0.7816164E-02  0.1184000E+00
        -11   -1    0    0    0    0  0.00000000000E+00  0.00000000000E+00  0.45593999997E+02  0.45594000000E+02  0.51100000000E-03 0. -1.
         11   -1    0    0    0    0 -0.00000000000E+00 -0.00000000000E+00 -0.45593999997E+02  0.45594000000E+02  0.51100000000E-03 0.  1.
         23    2    1    2    0    0  0.00000000000E+00  0.00000000000E+00  0.00000000000E+00  0.91188000000E+02  0.91188000000E+02 0.  0.
    9900012    2    3    3    0    0 -0.18920747233E+02 -0.22927061605E+02  0.31622435454E+02  0.47787271277E+02  0.20000001060E+02 0.  0.
        -12    1    3    3    0    0  0.18920747233E+02  0.22927061605E+02 -0.31622435454E+02  0.43400728723E+02  0.00000000000E+00 0.  1.
         11    1    4    4    0    0 -0.26969635850E+00 -0.82905613368E+01  0.15125299262E+02  0.17250531047E+02  0.51100000000E-03 0.  1.
        -11    1    4    4    0    0 -0.47626794561E+01 -0.86767078807E+01  0.10050704564E+02  0.14106205646E+02  0.51100000000E-03 0. -1.
        -12    1    4    4    0    0 -0.13888371418E+02 -0.59597923875E+01  0.64464316282E+01  0.16430534583E+02  0.00000000000E+00 0.  1.
</event>
<event>
 8    1  0.2994958E-010  0.9118800E+02  0.7816164E-02  0.1184000E+00
        -11   -1    0    0    0    0  0.00000000000E+00  0.00000000000E+00  0.45593999997E+02  0.45594000000E+02  0.51100000000E-03 0. -1.
         11   -1    0    0    0    0 -0.00000000000E+00 -0.00000000000E+00 -0.45593999997E+02  0.45594000000E+02  0.51100000000E-03 0.  1.
         23    2    1    2    0    0  0.00000000000E+00  0.44408920985E-15  0.00000000000E+00  0.91188000000E+02  0.91188000000E+02 0.  0.
    9900012    2    3    3    0    0 -0.98885757245E+01 -0.33294385042E+01 -0.42127828893E+02  0.47787273533E+02  0.20000011345E+02 0.  0.
         12    1    3    3    0    0  0.98885757245E+01  0.33294385042E+01  0.42127828893E+02  0.43400726467E+02  0.00000000000E+00 0. -1.
         11    1    4    4    0    0  0.17706024655E+01  0.99307113026E-01 -0.18167564348E+02  0.18253911624E+02  0.51100000000E-03 0. -1.
        -11    1    4    4    0    0 -0.81815002150E+01  0.25677895909E+01 -0.19468518947E+02  0.21273310025E+02  0.51100000000E-03 0.  1.
         12    1    4    4    0    0 -0.34776779750E+01 -0.59965352082E+01 -0.44917455982E+01  0.82600518836E+01  0.00000000000E+00 0. -1.
</event>
<event>
 8    1  0.2994958E-010  0.9118800E+02  0.7816164E-02  0.1184000E+00
        -11   -1    0    0    0    0  0.00000000000E+00  0.00000000000E+00  0.45593999997E+02  0.45594000000E+02  0.51100000000E-03 0. -1.
         11   -1    0    0    0    0 -0.00000000000E+00 -0.00000000000E+00 -0.45593999997E+02  0.45594000000E+02  0.51100000000E-03 0.  1.
         23    2    1    2    0    0  0.00000000000E+00  0.35527136788E-14  0.35527136788E-14  0.91188000000E+02  0.91188000000E+02 0.  0.
    9900012    2    3    3    0    0  0.23080791576E+02  0.22515115453E+02  0.29051158007E+02  0.47787272527E+02  0.20000006758E+02 0.  0.
        -12    1    3    3    0    0 -0.23080791576E+02 -0.22515115453E+02 -0.29051158007E+02  0.43400727473E+02  0.00000000000E+00 0.  1.
         11    1    4    4    0    0  0.59919102911E+01  0.32905243868E+01  0.15242425981E+02  0.16705151593E+02  0.51100000000E-03 0. -1.
        -11    1    4    4    0    0  0.67267374467E+01  0.10523715519E+02  0.12194045701E+02  0.17455438574E+02  0.51100000000E-03 0.  1.
        -12    1    4    4    0    0  0.10362143838E+02  0.87008755471E+01  0.16146863256E+01  0.13626682360E+02  0.00000000000E+00 0.  1.
</event>
<event>
 8    1  0.2994958E-010  0.9118800E+02  0.7816164E-02  0.1184000E+00
        -11   -1    0    0    0    0  0.00000000000E+00  0.00000000000E+00  0.45593999997E+02  0.45594000000E+02  0.51100000000E-03 0. -1.
         11   -1    0    0    0    0 -0.00000000000E+00 -0.00000000000E+00 -0.45593999997E+02  0.45594000000E+02  0.51100000000E-03 0.  1.
         23    2    1    2    0    0  0.00000000000E+00  0.71054273576E-14  0.00000000000E+00  0.91188000000E+02  0.91188000000E+02 0.  0.
    9900012    2    3    3    0    0  0.18114690855E+02 -0.34989023351E+02 -0.18200277415E+02  0.47787264087E+02  0.19999968277E+02 0.  0.
         12    1    3    3    0    0 -0.18114690855E+02  0.34989023351E+02  0.18200277415E+02  0.43400735913E+02  0.00000000000E+00 0. -1.
         11    1    4    4    0    0  0.63841894710E+01 -0.73235701175E+01 -0.17936589939E+01  0.98797655496E+01  0.51100000000E-03 0. -1.
        -11    1    4    4    0    0  0.28609251007E+01 -0.21585687553E+01 -0.93241390263E+01  0.99891881725E+01  0.51100000000E-03 0.  1.
        -12    1    4    4    0    0  0.88695762834E+01 -0.25506884478E+02 -0.70824793952E+01  0.27918310364E+02  0.00000000000E+00 0.  1.
</event>
<event>
 8    1  0.2994958E-010  0.9118800E+02  0.7816164E-02  0.1184000E+00
        -11   -1    0    0    0    0  0.00000000000E+00  0.00000000000E+00  0.45593999997E+02  0.45594000000E+02  0.51100000000E-03 0. -1.
         11   -1    0    0    0    0 -0.00000000000E+00 -0.00000000000E+00 -0.45593999997E+02  0.45594000000E+02  0.51100000000E-03 0.  1.
         23    2    1    2    0    0  0.00000000000E+00  0.88817841970E-15  0.00000000000E+00  0.91188000000E+02  0.91188000000E+02 0.  0.
    9900012    2    3    3    0    0 -0.36092865258E+02  0.78327473333E+01 -0.22794221245E+02  0.47787269874E+02  0.19999994666E+02 0.  0.
         12    1    3    3    0    0  0.36092865258E+02 -0.78327473333E+01  0.22794221245E+02  0.43400730126E+02  0.00000000000E+00 0. -1.
         11    1    4    4    0    0 -0.94170509166E+01  0.60257648978E+01 -0.49623136725E+01  0.12231731186E+02  0.51100000000E-03 0. -1.
        -11    1    4    4    0    0 -0.15465153182E+02  0.84637636430E+01 -0.88776841595E+01  0.19738782491E+02  0.51100000000E-03 0.  1.
         12    1    4    4    0    0 -0.11210661159E+02 -0.66567812075E+01 -0.89542234126E+01  0.15816756197E+02  0.00000000000E+00 0. -1.
</event>
<event>
 8    1  0.2994958E-010  0.9118800E+02  0.7816164E-02  0.1184000E+00
        -11   -1    0    0    0    0  0.00000000000E+00  0.00000000000E+00  0.45593999997E+02  0.45594000000E+02  0.51100000000E-03 0. -1.
         11   -1    0    0    0    0 -0.00000000000E+00 -0.00000000000E+00 -0.45593999997E+02  0.45594000000E+02  0.51100000000E-03 0.  1.
         23    2    1    2    0    0  0.17763568394E-14  0.00000000000E+00  0.00000000000E+00  0.91188000000E+02  0.91188000000E+02 0.  0.
    9900012    2    3    3    0    0  0.12877591931E+02  0.17817002048E+02 -0.37421188242E+02  0.47787271142E+02  0.20000000447E+02 0.  0.
         12    1    3    3    0    0 -0.12877591931E+02 -0.17817002048E+02  0.37421188242E+02  0.43400728858E+02  0.00000000000E+00 0. -1.
         11    1    4    4    0    0  0.45844942778E+01  0.82792609197E+01 -0.92771858098E+01  0.13252544132E+02  0.51100000000E-03 0. -1.
        -11    1    4    4    0    0  0.74846027725E+01  0.11965881481E+02 -0.13040837728E+02  0.19216270377E+02  0.51100000000E-03 0.  1.
         12    1    4    4    0    0  0.80849488095E+00 -0.24281403533E+01 -0.15103164704E+02  0.15318456633E+02  0.00000000000E+00 0. -1.
</event>
<event>
 8    1  0.2994958E-010  0.9118800E+02  0.7816164E-02  0.1184000E+00
        -11   -1    0    0    0    0  0.00000000000E+00  0.00000000000E+00  0.45593999997E+02  0.45594000000E+02  0.51100000000E-03 0. -1.
         11   -1    0    0    0    0 -0.00000000000E+00 -0.00000000000E+00 -0.45593999997E+02  0.45594000000E+02  0.51100000000E-03 0.  1.
         23    2    1    2    0    0  0.00000000000E+00 -0.17763568394E-14  0.00000000000E+00  0.91188000000E+02  0.91188000000E+02 0.  0.
    9900012    2    3    3    0    0 -0.37238321276E+02 -0.13477464677E+02 -0.17756371053E+02  0.47787270300E+02  0.19999996606E+02 0.  0.
         12    1    3    3    0    0  0.37238321276E+02  0.13477464677E+02  0.17756371053E+02  0.43400729700E+02  0.00000000000E+00 0. -1.
         11    1    4    4    0    0 -0.38212119652E+01 -0.49314943155E+01  0.32289658864E+01  0.70247788594E+01  0.51100000000E-03 0. -1.
        -11    1    4    4    0    0 -0.26046663806E+01 -0.16795353918E+01 -0.35010127285E+01  0.46757049172E+01  0.51100000000E-03 0.  1.
         12    1    4    4    0    0 -0.30812442930E+02 -0.68664349693E+01 -0.17484324210E+02  0.36086786523E+02  0.00000000000E+00 0. -1.
</event>
<event>
 8    1  0.2994958E-010  0.9118800E+02  0.7816164E-02  0.1184000E+00
        -11   -1    0    0    0    0  0.00000000000E+00  0.00000000000E+00  0.45593999997E+02  0.45594000000E+02  0.51100000000E-03 0. -1.
         11   -1    0    0    0    0 -0.00000000000E+00 -0.00000000000E+00 -0.45593999997E+02  0.45594000000E+02  0.51100000000E-03 0.  1.
         23    2    1    2    0    0 -0.17763568394E-14  0.00000000000E+00 -0.71054273576E-14  0.91188000000E+02  0.91188000000E+02 0.  0.
    9900012    2    3    3    0    0 -0.90901844629E+01 -0.12428821776E+02  0.40577304405E+02  0.47787254648E+02  0.19999925241E+02 0.  0.
        -12    1    3    3    0    0  0.90901844629E+01  0.12428821776E+02 -0.40577304405E+02  0.43400745352E+02  0.00000000000E+00 0.  1.
         11    1    4    4    0    0 -0.58300459556E+00  0.11593505181E+01 -0.12231002918E+01  0.17832449543E+01  0.51100000000E-03 0.  1.
        -11    1    4    4    0    0 -0.68489157903E+01 -0.31430467115E+01  0.10206469562E+02  0.12686938611E+02  0.51100000000E-03 0. -1.
         12    1    4    4    0    0 -0.16582640770E+01 -0.10445125583E+02  0.31593935135E+02  0.33317071083E+02  0.00000000000E+00 0. -1.
</event>
<event>
 8    1  0.2994958E-010  0.9118800E+02  0.7816164E-02  0.1184000E+00
        -11   -1    0    0    0    0  0.00000000000E+00  0.00000000000E+00  0.45593999997E+02  0.45594000000E+02  0.51100000000E-03 0. -1.
         11   -1    0    0    0    0 -0.00000000000E+00 -0.00000000000E+00 -0.45593999997E+02  0.45594000000E+02  0.51100000000E-03 0.  1.
         23    2    1    2    0    0  0.35527136788E-14  0.00000000000E+00  0.00000000000E+00  0.91188000000E+02  0.91188000000E+02 0.  0.
    9900012    2    3    3    0    0  0.30013142200E+02  0.25150997780E+02 -0.18715284537E+02  0.47787271097E+02  0.20000000238E+02 0.  0.
         12    1    3    3    0    0 -0.30013142200E+02 -0.25150997780E+02  0.18715284537E+02  0.43400728903E+02  0.00000000000E+00 0. -1.
         11    1    4    4    0    0  0.32177538470E+01  0.89254323737E+01 -0.72837054090E+01  0.11961172502E+02  0.51100000000E-03 0. -1.
        -11    1    4    4    0    0  0.75426918964E+01  0.11655053228E+02 -0.24582454724E+01  0.14098774339E+02  0.51100000000E-03 0.  1.
         12    1    4    4    0    0  0.19252696457E+02  0.45705121784E+01 -0.89733336558E+01  0.21727324256E+02  0.00000000000E+00 0. -1.
</event>
<event>
 8    1  0.2994958E-010  0.9118800E+02  0.7816164E-02  0.1184000E+00
        -11   -1    0    0    0    0  0.00000000000E+00  0.00000000000E+00  0.45593999997E+02  0.45594000000E+02  0.51100000000E-03 0. -1.
         11   -1    0    0    0    0 -0.00000000000E+00 -0.00000000000E+00 -0.45593999997E+02  0.45594000000E+02  0.51100000000E-03 0.  1.
         23    2    1    2    0    0 -0.88817841970E-15  0.00000000000E+00  0.71054273576E-14  0.91188000000E+02  0.91188000000E+02 0.  0.
    9900012    2    3    3    0    0 -0.61277091485E+01  0.19686330047E+02 -0.38190567924E+02  0.47787310046E+02  0.20000177822E+02 0.  0.
         12    1    3    3    0    0  0.61277091485E+01 -0.19686330047E+02  0.38190567924E+02  0.43400689954E+02  0.00000000000E+00 0. -1.
         11    1    4    4    0    0 -0.79545202582E+01  0.18254793683E+02 -0.22430785929E+02  0.29994200149E+02  0.51100000000E-03 0. -1.
        -11    1    4    4    0    0 -0.30044542621E+01  0.66058029734E+00 -0.84923845557E+01  0.90323699794E+01  0.51100000000E-03 0.  1.
         12    1    4    4    0    0  0.48312653718E+01  0.77095606683E+00 -0.72673974400E+01  0.87607399175E+01  0.00000000000E+00 0. -1.
</event>
<event>
 8    1  0.2994958E-010  0.9118800E+02  0.7816164E-02  0.1184000E+00
        -11   -1    0    0    0    0  0.00000000000E+00  0.00000000000E+00  0.45593999997E+02  0.45594000000E+02  0.51100000000E-03 0. -1.
         11   -1    0    0    0    0 -0.00000000000E+00 -0.00000000000E+00 -0.45593999997E+02  0.45594000000E+02  0.51100000000E-03 0.  1.
         23    2    1    2    0    0  0.00000000000E+00  0.17763568394E-14  0.71054273576E-14  0.91188000000E+02  0.91188000000E+02 0.  0.
    9900012    2    3    3    0    0  0.11284612924E+02  0.86444172329E+01 -0.41006765586E+02  0.47787271182E+02  0.20000000626E+02 0.  0.
         12    1    3    3    0    0 -0.11284612924E+02 -0.86444172329E+01  0.41006765586E+02  0.43400728818E+02  0.00000000000E+00 0. -1.
         11    1    4    4    0    0 -0.93722574050E+00  0.54139440652E-01 -0.46106955468E+00  0.10459008381E+01  0.51100000000E-03 0. -1.
        -11    1    4    4    0    0  0.83816091979E+01 -0.39164167483E+01 -0.23486859475E+02  0.25243261698E+02  0.51100000000E-03 0.  1.
        -12    1    4    4    0    0  0.38402294671E+01  0.12506694541E+02 -0.17058836556E+02  0.21498108646E+02  0.00000000000E+00 0.  1.
</event>
<event>
 8    1  0.2994958E-010  0.9118800E+02  0.7816164E-02  0.1184000E+00
        -11   -1    0    0    0    0  0.00000000000E+00  0.00000000000E+00  0.45593999997E+02  0.45594000000E+02  0.51100000000E-03 0. -1.
         11   -1    0    0    0    0 -0.00000000000E+00 -0.00000000000E+00 -0.45593999997E+02  0.45594000000E+02  0.51100000000E-03 0.  1.
         23    2    1    2    0    0 -0.35527136788E-14  0.00000000000E+00  0.00000000000E+00  0.91188000000E+02  0.91188000000E+02 0.  0.
    9900012    2    3    3    0    0  0.13833497371E+02 -0.40995381309E+02 -0.34111436037E+01  0.47787276056E+02  0.20000022848E+02 0.  0.
         12    1    3    3    0    0 -0.13833497371E+02  0.40995381309E+02  0.34111436037E+01  0.43400723944E+02  0.00000000000E+00 0. -1.
         11    1    4    4    0    0  0.11899670132E+02 -0.11748902614E+02 -0.46875017647E+01  0.17366966774E+02  0.51100000000E-03 0. -1.
        -11    1    4    4    0    0  0.48815131466E+01 -0.14434139405E+02 -0.26098281677E+00  0.15239477132E+02  0.51100000000E-03 0.  1.
        -12    1    4    4    0    0 -0.29476859074E+01 -0.14812339291E+02  0.15373409778E+01  0.15180832150E+02  0.00000000000E+00 0.  1.
</event>
<event>
 8    1  0.2994958E-010  0.9118800E+02  0.7816164E-02  0.1184000E+00
        -11   -1    0    0    0    0  0.00000000000E+00  0.00000000000E+00  0.45593999997E+02  0.45594000000E+02  0.51100000000E-03 0. -1.
         11   -1    0    0    0    0 -0.00000000000E+00 -0.00000000000E+00 -0.45593999997E+02  0.45594000000E+02  0.51100000000E-03 0.  1.
         23    2    1    2    0    0  0.35527136788E-14  0.00000000000E+00  0.00000000000E+00  0.91188000000E+02  0.91188000000E+02 0.  0.
    9900012    2    3    3    0    0 -0.18517855645E+02 -0.20131493064E+02 -0.33696223435E+02  0.47787268848E+02  0.19999989987E+02 0.  0.
         12    1    3    3    0    0  0.18517855645E+02  0.20131493064E+02  0.33696223435E+02  0.43400731152E+02  0.00000000000E+00 0. -1.
         11    1    4    4    0    0  0.14495003753E+01 -0.57595642165E+01 -0.61213085491E+01  0.85290122475E+01  0.51100000000E-03 0. -1.
        -11    1    4    4    0    0 -0.27212362850E+01 -0.85698728816E+01 -0.13650547106E+02  0.16345803274E+02  0.51100000000E-03 0.  1.
         12    1    4    4    0    0 -0.17246119735E+02 -0.58020559661E+01 -0.13924367780E+02  0.22912453327E+02  0.00000000000E+00 0. -1.
</event>
<event>
 8    1  0.2994958E-010  0.9118800E+02  0.7816164E-02  0.1184000E+00
        -11   -1    0    0    0    0  0.00000000000E+00  0.00000000000E+00  0.45593999997E+02  0.45594000000E+02  0.51100000000E-03 0. -1.
         11   -1    0    0    0    0 -0.00000000000E+00 -0.00000000000E+00 -0.45593999997E+02  0.45594000000E+02  0.51100000000E-03 0.  1.
         23    2    1    2    0    0  0.00000000000E+00 -0.44408920985E-15  0.00000000000E+00  0.91188000000E+02  0.91188000000E+02 0.  0.
    9900012    2    3    3    0    0  0.35722966601E+02  0.25833523576E+01 -0.24511610482E+02  0.47787273041E+02  0.20000009102E+02 0.  0.
         12    1    3    3    0    0 -0.35722966601E+02 -0.25833523576E+01  0.24511610482E+02  0.43400726959E+02  0.00000000000E+00 0. -1.
         11    1    4    4    0    0  0.78551015880E+01 -0.61520610750E+01 -0.83365031733E+01  0.13001836864E+02  0.51100000000E-03 0. -1.
        -11    1    4    4    0    0  0.91964465277E+00  0.30986635402E+01 -0.22021210615E+01  0.39111123039E+01  0.51100000000E-03 0.  1.
        -12    1    4    4    0    0  0.26948220360E+02  0.56367498925E+01 -0.13972986247E+02  0.30874323873E+02  0.00000000000E+00 0.  1.
</event>
<event>
 8    1  0.4017451E-010  0.9118800E+02  0.7816164E-02  0.1184000E+00
        -11   -1    0    0    0    0  0.00000000000E+00  0.00000000000E+00  0.45593999997E+02  0.45594000000E+02  0.51100000000E-03 0. -1.
         11   -1    0    0    0    0 -0.00000000000E+00 -0.00000000000E+00 -0.45593999997E+02  0.45594000000E+02  0.51100000000E-03 0.  1.
         23    2    1    2    0    0  0.00000000000E+00 -0.36082248300E-15  0.00000000000E+00  0.91188000000E+02  0.91188000000E+02 0.  0.
    9900012    2    3    3    0    0 -0.21533549577E+02 -0.17012323808E+00  0.37681557298E+02  0.47787280424E+02  0.20000042765E+02 0.  0.
        -12    1    3    3    0    0  0.21533549577E+02  0.17012323808E+00 -0.37681557298E+02  0.43400719576E+02  0.00000000000E+00 0.  1.
         11    1    4    4    0    0 -0.36213068451E+01  0.42302446295E+01  0.32223194621E+01  0.64336751448E+01  0.51100000000E-03 0. -1.
        -11    1    4    4    0    0 -0.95515040859E+01 -0.24236764006E+01  0.58000800006E+01  0.11434437716E+02  0.51100000000E-03 0.  1.
         12    1    4    4    0    0 -0.83607386461E+01 -0.19766914671E+01  0.28659157835E+02  0.29919167564E+02  0.00000000000E+00 0. -1.
</event>
<event>
 8    1  0.2994958E-010  0.9118800E+02  0.7816164E-02  0.1184000E+00
        -11   -1    0    0    0    0  0.00000000000E+00  0.00000000000E+00  0.45593999997E+02  0.45594000000E+02  0.51100000000E-03 0.  1.
         11   -1    0    0    0    0 -0.00000000000E+00 -0.00000000000E+00 -0.45593999997E+02  0.45594000000E+02  0.51100000000E-03 0. -1.
         23    2    1    2    0    0  0.35527136788E-14  0.35527136788E-14  0.71054273576E-14  0.91188000000E+02  0.91188000000E+02 0.  0.
    9900012    2    3    3    0    0 -0.26127213063E+02 -0.21329888210E+02 -0.27313510213E+02  0.47787271508E+02  0.20000002114E+02 0.  0.
         12    1    3    3    0    0  0.26127213063E+02  0.21329888210E+02  0.27313510213E+02  0.43400728492E+02  0.00000000000E+00 0. -1.
         11    1    4    4    0    0  0.54840747956E+00 -0.22582533230E+01 -0.14603815047E+01  0.27446626814E+01  0.51100000000E-03 0. -1.
        -11    1    4    4    0    0 -0.20509414240E+02 -0.21976662365E+02 -0.20707715412E+02  0.36502318269E+02  0.51100000000E-03 0.  1.
         12    1    4    4    0    0 -0.61662063018E+01  0.29050274785E+01 -0.51454132969E+01  0.85402905573E+01  0.00000000000E+00 0. -1.
</event>
<event>
 8    1  0.2994958E-010  0.9118800E+02  0.7816164E-02  0.1184000E+00
        -11   -1    0    0    0    0  0.00000000000E+00  0.00000000000E+00  0.45593999997E+02  0.45594000000E+02  0.51100000000E-03 0. -1.
         11   -1    0    0    0    0 -0.00000000000E+00 -0.00000000000E+00 -0.45593999997E+02  0.45594000000E+02  0.51100000000E-03 0.  1.
         23    2    1    2    0    0  0.00000000000E+00  0.17763568394E-14  0.00000000000E+00  0.91188000000E+02  0.91188000000E+02 0.  0.
    9900012    2    3    3    0    0  0.40943946802E+02  0.45459218091E+01 -0.13658379401E+02  0.47787268294E+02  0.19999987458E+02 0.  0.
         12    1    3    3    0    0 -0.40943946802E+02 -0.45459218091E+01  0.13658379401E+02  0.43400731706E+02  0.00000000000E+00 0. -1.
         11    1    4    4    0    0  0.17142729401E+02 -0.43607321750E+01 -0.71895181394E+01  0.19093934318E+02  0.51100000000E-03 0. -1.
        -11    1    4    4    0    0  0.58614062046E+00 -0.20257512688E+01  0.36103102876E+00  0.21395262781E+01  0.51100000000E-03 0.  1.
        -12    1    4    4    0    0  0.23215076780E+02  0.10932405253E+02 -0.68298922904E+01  0.26553807697E+02  0.00000000000E+00 0.  1.
</event>
<event>
 8    1  0.2994958E-010  0.9118800E+02  0.7816164E-02  0.1184000E+00
        -11   -1    0    0    0    0  0.00000000000E+00  0.00000000000E+00  0.45593999997E+02  0.45594000000E+02  0.51100000000E-03 0. -1.
         11   -1    0    0    0    0 -0.00000000000E+00 -0.00000000000E+00 -0.45593999997E+02  0.45594000000E+02  0.51100000000E-03 0.  1.
         23    2    1    2    0    0  0.00000000000E+00  0.00000000000E+00  0.00000000000E+00  0.91188000000E+02  0.91188000000E+02 0.  0.
    9900012    2    3    3    0    0 -0.91865666753E+01  0.12437445588E+02 -0.40552926171E+02  0.47787275570E+02  0.20000020636E+02 0.  0.
         12    1    3    3    0    0  0.91865666753E+01 -0.12437445588E+02  0.40552926171E+02  0.43400724430E+02  0.00000000000E+00 0. -1.
         11    1    4    4    0    0  0.13268723263E+01  0.40606867272E+01 -0.34453391872E+01  0.54881808682E+01  0.51100000000E-03 0. -1.
        -11    1    4    4    0    0  0.39416573253E+01  0.26668609970E+01 -0.84114483219E+01  0.96644334123E+01  0.51100000000E-03 0.  1.
        -12    1    4    4    0    0 -0.14455096327E+02  0.57098978634E+01 -0.28696138661E+02  0.32634661290E+02  0.00000000000E+00 0.  1.
</event>
<event>
 8    1  0.2994958E-010  0.9118800E+02  0.7816164E-02  0.1184000E+00
        -11   -1    0    0    0    0  0.00000000000E+00  0.00000000000E+00  0.45593999997E+02  0.45594000000E+02  0.51100000000E-03 0. -1.
         11   -1    0    0    0    0 -0.00000000000E+00 -0.00000000000E+00 -0.45593999997E+02  0.45594000000E+02  0.51100000000E-03 0.  1.
         23    2    1    2    0    0  0.00000000000E+00 -0.35527136788E-14  0.00000000000E+00  0.91188000000E+02  0.91188000000E+02 0.  0.
    9900012    2    3    3    0    0  0.94563691664E+01 -0.21076447440E+02  0.36742119873E+02  0.47787275038E+02  0.20000018206E+02 0.  0.
        -12    1    3    3    0    0 -0.94563691664E+01  0.21076447440E+02 -0.36742119873E+02  0.43400724962E+02  0.00000000000E+00 0.  1.
         11    1    4    4    0    0 -0.57503077551E+00 -0.10837305057E+01  0.65353646124E+00  0.13900512110E+01  0.51100000000E-03 0. -1.
        -11    1    4    4    0    0  0.41768699224E+01  0.27858392729E+01  0.10521444011E+02  0.11657955530E+02  0.51100000000E-03 0.  1.
         12    1    4    4    0    0  0.58545300195E+01 -0.22778556207E+02  0.25567139400E+02  0.34739268296E+02  0.00000000000E+00 0. -1.
</event>
<event>
 8    1  0.2994958E-010  0.9118800E+02  0.7816164E-02  0.1184000E+00
        -11   -1    0    0    0    0  0.00000000000E+00  0.00000000000E+00  0.45593999997E+02  0.45594000000E+02  0.51100000000E-03 0.  1.
         11   -1    0    0    0    0 -0.00000000000E+00 -0.00000000000E+00 -0.45593999997E+02  0.45594000000E+02  0.51100000000E-03 0. -1.
         23    2    1    2    0    0  0.71054273576E-14  0.35527136788E-14  0.00000000000E+00  0.91188000000E+02  0.91188000000E+02 0.  0.
    9900012    2    3    3    0    0 -0.32613193505E+02 -0.24833863381E+02 -0.14257707766E+02  0.47787269686E+02  0.19999993808E+02 0.  0.
         12    1    3    3    0    0  0.32613193505E+02  0.24833863381E+02  0.14257707766E+02  0.43400730314E+02  0.00000000000E+00 0. -1.
         11    1    4    4    0    0 -0.93346939992E+01 -0.62915738274E+01 -0.13531811854E+01  0.11338055956E+02  0.51100000000E-03 0. -1.
        -11    1    4    4    0    0 -0.25550277288E+02 -0.18312476930E+02 -0.13298155914E+02  0.34132161253E+02  0.51100000000E-03 0.  1.
         12    1    4    4    0    0  0.22717777819E+01 -0.22981262315E+00  0.39362933334E+00  0.23170524777E+01  0.00000000000E+00 0. -1.
</event>
<event>
 8    1  0.2994958E-010  0.9118800E+02  0.7816164E-02  0.1184000E+00
        -11   -1    0    0    0    0  0.00000000000E+00  0.00000000000E+00  0.45593999997E+02  0.45594000000E+02  0.51100000000E-03 0. -1.
         11   -1    0    0    0    0 -0.00000000000E+00 -0.00000000000E+00 -0.45593999997E+02  0.45594000000E+02  0.51100000000E-03 0.  1.
         23    2    1    2    0    0  0.00000000000E+00  0.00000000000E+00  0.00000000000E+00  0.91188000000E+02  0.91188000000E+02 0.  0.
    9900012    2    3    3    0    0 -0.77103353427E+01 -0.13383178600E+02  0.40559394224E+02  0.47787271892E+02  0.20000003864E+02 0.  0.
        -12    1    3    3    0    0  0.77103353427E+01  0.13383178600E+02 -0.40559394224E+02  0.43400728108E+02  0.00000000000E+00 0.  1.
         11    1    4    4    0    0 -0.34647221791E+01 -0.68751607514E+01  0.34367689766E+01  0.84311041030E+01  0.51100000000E-03 0. -1.
        -11    1    4    4    0    0 -0.33091506615E+01  0.21401113001E+01  0.73632029882E+01  0.83514856752E+01  0.51100000000E-03 0.  1.
        -12    1    4    4    0    0 -0.93646250209E+00 -0.86481291484E+01  0.29759422259E+02  0.31004682114E+02  0.00000000000E+00 0.  1.
</event>
<event>
 8    1  0.2994958E-010  0.9118800E+02  0.7816164E-02  0.1184000E+00
        -11   -1    0    0    0    0  0.00000000000E+00  0.00000000000E+00  0.45593999997E+02  0.45594000000E+02  0.51100000000E-03 0. -1.
         11   -1    0    0    0    0 -0.00000000000E+00 -0.00000000000E+00 -0.45593999997E+02  0.45594000000E+02  0.51100000000E-03 0.  1.
         23    2    1    2    0    0 -0.71054273576E-14  0.00000000000E+00  0.00000000000E+00  0.91188000000E+02  0.91188000000E+02 0.  0.
    9900012    2    3    3    0    0 -0.35769188048E+02 -0.19150947677E+02 -0.15408754965E+02  0.47787270282E+02  0.19999996522E+02 0.  0.
         12    1    3    3    0    0  0.35769188048E+02  0.19150947677E+02  0.15408754965E+02  0.43400729718E+02  0.00000000000E+00 0. -1.
         11    1    4    4    0    0 -0.93084888514E+01 -0.55274931664E+01  0.62553579449E+00  0.10844004827E+02  0.51100000000E-03 0. -1.
        -11    1    4    4    0    0 -0.27029123177E+02 -0.15481805644E+02 -0.14067294137E+02  0.34178188517E+02  0.51100000000E-03 0.  1.
         12    1    4    4    0    0  0.56842398054E+00  0.18583511333E+01 -0.19669966227E+01  0.27650769375E+01  0.00000000000E+00 0. -1.
</event>
<event>
 8    1  0.2994958E-010  0.9118800E+02  0.7816164E-02  0.1184000E+00
        -11   -1    0    0    0    0  0.00000000000E+00  0.00000000000E+00  0.45593999997E+02  0.45594000000E+02  0.51100000000E-03 0. -1.
         11   -1    0    0    0    0 -0.00000000000E+00 -0.00000000000E+00 -0.45593999997E+02  0.45594000000E+02  0.51100000000E-03 0.  1.
         23    2    1    2    0    0  0.00000000000E+00 -0.17763568394E-14  0.00000000000E+00  0.91188000000E+02  0.91188000000E+02 0.  0.
    9900012    2    3    3    0    0 -0.89120271890E+01 -0.10138637937E+02 -0.41248114999E+02  0.47787271910E+02  0.20000003944E+02 0.  0.
         12    1    3    3    0    0  0.89120271890E+01  0.10138637937E+02  0.41248114999E+02  0.43400728090E+02  0.00000000000E+00 0. -1.
         11    1    4    4    0    0 -0.47063937250E+01 -0.22631530691E+01 -0.14389079105E+02  0.15307436149E+02  0.51100000000E-03 0. -1.
        -11    1    4    4    0    0 -0.26918787694E+01 -0.10620374970E+02 -0.27202928962E+02  0.29326403124E+02  0.51100000000E-03 0.  1.
         12    1    4    4    0    0 -0.15137546946E+01  0.27448901025E+01  0.34389306824E+00  0.31534326365E+01  0.00000000000E+00 0. -1.
</event>
<event>
 8    1  0.2994958E-010  0.9118800E+02  0.7816164E-02  0.1184000E+00
        -11   -1    0    0    0    0  0.00000000000E+00  0.00000000000E+00  0.45593999997E+02  0.45594000000E+02  0.51100000000E-03 0. -1.
         11   -1    0    0    0    0 -0.00000000000E+00 -0.00000000000E+00 -0.45593999997E+02  0.45594000000E+02  0.51100000000E-03 0.  1.
         23    2    1    2    0    0  0.22204460493E-15  0.00000000000E+00  0.00000000000E+00  0.91188000000E+02  0.91188000000E+02 0.  0.
    9900012    2    3    3    0    0  0.64356497680E+00  0.76020121888E+01  0.42724913975E+02  0.47787273746E+02  0.20000012318E+02 0.  0.
        -12    1    3    3    0    0 -0.64356497680E+00 -0.76020121888E+01 -0.42724913975E+02  0.43400726254E+02  0.00000000000E+00 0.  1.
         11    1    4    4    0    0 -0.18918697986E+01  0.14157257886E+01  0.73524050550E+01  0.77227787226E+01  0.51100000000E-03 0. -1.
        -11    1    4    4    0    0  0.64769400487E+01  0.34736033865E+01  0.34407080782E+02  0.35183289799E+02  0.51100000000E-03 0.  1.
        -12    1    4    4    0    0 -0.39415052732E+01  0.27126830137E+01  0.96542813753E+00  0.48812052242E+01  0.00000000000E+00 0.  1.
</event>
<event>
 8    1  0.2994958E-010  0.9118800E+02  0.7816164E-02  0.1184000E+00
        -11   -1    0    0    0    0  0.00000000000E+00  0.00000000000E+00  0.45593999997E+02  0.45594000000E+02  0.51100000000E-03 0. -1.
         11   -1    0    0    0    0 -0.00000000000E+00 -0.00000000000E+00 -0.45593999997E+02  0.45594000000E+02  0.51100000000E-03 0.  1.
         23    2    1    2    0    0  0.00000000000E+00  0.00000000000E+00 -0.88817841970E-15  0.91188000000E+02  0.91188000000E+02 0.  0.
    9900012    2    3    3    0    0 -0.14022757329E+02  0.40850189156E+02 -0.42718780941E+01  0.47787255541E+02  0.19999929311E+02 0.  0.
         12    1    3    3    0    0  0.14022757329E+02 -0.40850189156E+02  0.42718780941E+01  0.43400744459E+02  0.00000000000E+00 0. -1.
         11    1    4    4    0    0 -0.23583441459E+01  0.22201002995E+02 -0.63559969058E+01  0.23213035520E+02  0.51100000000E-03 0. -1.
        -11    1    4    4    0    0 -0.69449358524E+01  0.12335291743E+02 -0.38930495041E+01  0.14681532314E+02  0.51100000000E-03 0.  1.
        -12    1    4    4    0    0 -0.47194773306E+01  0.63138944173E+01  0.59771683158E+01  0.98926877067E+01  0.00000000000E+00 0.  1.
</event>
<event>
 8    1  0.2994958E-010  0.9118800E+02  0.7816164E-02  0.1184000E+00
        -11   -1    0    0    0    0  0.00000000000E+00  0.00000000000E+00  0.45593999997E+02  0.45594000000E+02  0.51100000000E-03 0. -1.
         11   -1    0    0    0    0 -0.00000000000E+00 -0.00000000000E+00 -0.45593999997E+02  0.45594000000E+02  0.51100000000E-03 0.  1.
         23    2    1    2    0    0 -0.35527136788E-14 -0.88817841970E-15 -0.71054273576E-14  0.91188000000E+02  0.91188000000E+02 0.  0.
    9900012    2    3    3    0    0  0.18627157244E+02 -0.59453137882E+01 -0.38746685148E+02  0.47787270133E+02  0.19999995845E+02 0.  0.
         12    1    3    3    0    0 -0.18627157244E+02  0.59453137882E+01  0.38746685148E+02  0.43400729867E+02  0.00000000000E+00 0. -1.
         11    1    4    4    0    0  0.12433845151E+01  0.20422331874E+01 -0.10684407350E+01  0.26188331962E+01  0.51100000000E-03 0. -1.
        -11    1    4    4    0    0  0.18018230297E+02 -0.22308327460E+01 -0.33227500622E+02  0.37864231613E+02  0.51100000000E-03 0.  1.
        -12    1    4    4    0    0 -0.63445756783E+00 -0.57567142297E+01 -0.44507437908E+01  0.73042053242E+01  0.00000000000E+00 0.  1.
</event>
<event>
 8    1  0.2994958E-010  0.9118800E+02  0.7816164E-02  0.1184000E+00
        -11   -1    0    0    0    0  0.00000000000E+00  0.00000000000E+00  0.45593999997E+02  0.45594000000E+02  0.51100000000E-03 0. -1.
         11   -1    0    0    0    0 -0.00000000000E+00 -0.00000000000E+00 -0.45593999997E+02  0.45594000000E+02  0.51100000000E-03 0.  1.
         23    2    1    2    0    0  0.17763568394E-14  0.35527136788E-14  0.00000000000E+00  0.91188000000E+02  0.91188000000E+02 0.  0.
    9900012    2    3    3    0    0 -0.15694716719E+02 -0.26279664999E+02 -0.30768136815E+02  0.47787272260E+02  0.20000005542E+02 0.  0.
         12    1    3    3    0    0  0.15694716719E+02  0.26279664999E+02  0.30768136815E+02  0.43400727740E+02  0.00000000000E+00 0. -1.
         11    1    4    4    0    0 -0.15818920769E+01 -0.12010406812E+02 -0.48071724224E+01  0.13033079502E+02  0.51100000000E-03 0. -1.
        -11    1    4    4    0    0  0.13681336969E+01 -0.13723475396E+01 -0.59932630318E-01  0.19387417991E+01  0.51100000000E-03 0.  1.
        -12    1    4    4    0    0 -0.15480958339E+02 -0.12896910647E+02 -0.25901031762E+02  0.32815450959E+02  0.00000000000E+00 0.  1.
</event>
<event>
 8    1  0.2994958E-010  0.9118800E+02  0.7816164E-02  0.1184000E+00
        -11   -1    0    0    0    0  0.00000000000E+00  0.00000000000E+00  0.45593999997E+02  0.45594000000E+02  0.51100000000E-03 0. -1.
         11   -1    0    0    0    0 -0.00000000000E+00 -0.00000000000E+00 -0.45593999997E+02  0.45594000000E+02  0.51100000000E-03 0.  1.
         23    2    1    2    0    0  0.00000000000E+00  0.00000000000E+00 -0.44408920985E-15  0.91188000000E+02  0.91188000000E+02 0.  0.
    9900012    2    3    3    0    0 -0.16093158078E+02 -0.40224330184E+02 -0.25763025028E+01  0.47787264865E+02  0.19999971826E+02 0.  0.
        -12    1    3    3    0    0  0.16093158078E+02  0.40224330184E+02  0.25763025028E+01  0.43400735135E+02  0.00000000000E+00 0.  1.
         11    1    4    4    0    0 -0.78608600932E+01 -0.14723163068E+02 -0.58770275448E+00  0.16700600196E+02  0.51100000000E-03 0. -1.
        -11    1    4    4    0    0 -0.83157313619E+01 -0.25623338865E+02 -0.55645500994E+01  0.27507655312E+02  0.51100000000E-03 0.  1.
        -12    1    4    4    0    0  0.83433376985E-01  0.12217174888E+00  0.35759503511E+01  0.35790093571E+01  0.00000000000E+00 0.  1.
</event>
<event>
 8    1  0.2994958E-010  0.9118800E+02  0.7816164E-02  0.1184000E+00
        -11   -1    0    0    0    0  0.00000000000E+00  0.00000000000E+00  0.45593999997E+02  0.45594000000E+02  0.51100000000E-03 0. -1.
         11   -1    0    0    0    0 -0.00000000000E+00 -0.00000000000E+00 -0.45593999997E+02  0.45594000000E+02  0.51100000000E-03 0.  1.
         23    2    1    2    0    0  0.00000000000E+00  0.00000000000E+00  0.00000000000E+00  0.91188000000E+02  0.91188000000E+02 0.  0.
    9900012    2    3    3    0    0  0.41295994980E+01 -0.30378620507E+01 -0.43096879893E+02  0.47787271269E+02  0.20000001026E+02 0.  0.
         12    1    3    3    0    0 -0.41295994980E+01  0.30378620507E+01  0.43096879893E+02  0.43400728731E+02  0.00000000000E+00 0. -1.
         11    1    4    4    0    0  0.10124997115E+01 -0.25736490412E+00  0.16693498091E+01  0.19692946468E+01  0.51100000000E-03 0. -1.
        -11    1    4    4    0    0 -0.25678685206E+01  0.50965926102E+00 -0.67769896873E+01  0.72650733502E+01  0.51100000000E-03 0.  1.
        -12    1    4    4    0    0  0.56849683071E+01 -0.32901564076E+01 -0.37989240015E+02  0.38552903272E+02  0.00000000000E+00 0.  1.
</event>
<event>
 8    1  0.2994958E-010  0.9118800E+02  0.7816164E-02  0.1184000E+00
        -11   -1    0    0    0    0  0.00000000000E+00  0.00000000000E+00  0.45593999997E+02  0.45594000000E+02  0.51100000000E-03 0. -1.
         11   -1    0    0    0    0 -0.00000000000E+00 -0.00000000000E+00 -0.45593999997E+02  0.45594000000E+02  0.51100000000E-03 0.  1.
         23    2    1    2    0    0  0.00000000000E+00  0.00000000000E+00  0.00000000000E+00  0.91188000000E+02  0.91188000000E+02 0.  0.
    9900012    2    3    3    0    0 -0.50962984280E+01 -0.22981881316E+02 -0.36462090588E+02  0.47787272166E+02  0.20000005113E+02 0.  0.
         12    1    3    3    0    0  0.50962984280E+01  0.22981881316E+02  0.36462090588E+02  0.43400727834E+02  0.00000000000E+00 0. -1.
         11    1    4    4    0    0  0.20485950921E+01 -0.20435149438E+01  0.30641729068E+00  0.29097400217E+01  0.51100000000E-03 0. -1.
        -11    1    4    4    0    0 -0.41568451287E+01 -0.74947336059E+01 -0.42567039841E+01  0.95692174349E+01  0.51100000000E-03 0.  1.
         12    1    4    4    0    0 -0.29880483913E+01 -0.13443632767E+02 -0.32511803894E+02  0.35308314709E+02  0.00000000000E+00 0. -1.
</event>
<event>
 8    1  0.2994958E-010  0.9118800E+02  0.7816164E-02  0.1184000E+00
        -11   -1    0    0    0    0  0.00000000000E+00  0.00000000000E+00  0.45593999997E+02  0.45594000000E+02  0.51100000000E-03 0. -1.
         11   -1    0    0    0    0 -0.00000000000E+00 -0.00000000000E+00 -0.45593999997E+02  0.45594000000E+02  0.51100000000E-03 0.  1.
         23    2    1    2    0    0 -0.35527136788E-14  0.00000000000E+00  0.00000000000E+00  0.91188000000E+02  0.91188000000E+02 0.  0.
    9900012    2    3    3    0    0  0.28767883492E+02 -0.17082385900E+02  0.27644605073E+02  0.47787271685E+02  0.20000002921E+02 0.  0.
        -12    1    3    3    0    0 -0.28767883492E+02  0.17082385900E+02 -0.27644605073E+02  0.43400728315E+02  0.00000000000E+00 0.  1.
         11    1    4    4    0    0  0.33531645630E+01 -0.49772379523E+01  0.94127451688E+01  0.11163170790E+02  0.51100000000E-03 0. -1.
        -11    1    4    4    0    0  0.82314214817E+01  0.54395771060E+00  0.11688431957E+02  0.14306349341E+02  0.51100000000E-03 0.  1.
        -12    1    4    4    0    0  0.17183297447E+02 -0.12649105658E+02  0.65434279474E+01  0.22317751553E+02  0.00000000000E+00 0.  1.
</event>
<event>
 8    1  0.2994958E-010  0.9118800E+02  0.7816164E-02  0.1184000E+00
        -11   -1    0    0    0    0  0.00000000000E+00  0.00000000000E+00  0.45593999997E+02  0.45594000000E+02  0.51100000000E-03 0. -1.
         11   -1    0    0    0    0 -0.00000000000E+00 -0.00000000000E+00 -0.45593999997E+02  0.45594000000E+02  0.51100000000E-03 0.  1.
         23    2    1    2    0    0  0.00000000000E+00 -0.35527136788E-14  0.00000000000E+00  0.91188000000E+02  0.91188000000E+02 0.  0.
    9900012    2    3    3    0    0  0.26055959361E+02  0.30251355900E+02 -0.17016633268E+02  0.47787270055E+02  0.19999995490E+02 0.  0.
         12    1    3    3    0    0 -0.26055959361E+02 -0.30251355900E+02  0.17016633268E+02  0.43400729945E+02  0.00000000000E+00 0. -1.
         11    1    4    4    0    0  0.15739029217E+02  0.17928645575E+02 -0.84061187438E+01  0.25294588461E+02  0.51100000000E-03 0. -1.
        -11    1    4    4    0    0  0.94693944447E+01  0.12593957374E+02 -0.11475502062E+02  0.19492674042E+02  0.51100000000E-03 0.  1.
         12    1    4    4    0    0  0.84753569900E+00 -0.27124704883E+00  0.28649875374E+01  0.30000075520E+01  0.00000000000E+00 0. -1.
</event>
<event>
 8    1  0.2994958E-010  0.9118800E+02  0.7816164E-02  0.1184000E+00
        -11   -1    0    0    0    0  0.00000000000E+00  0.00000000000E+00  0.45593999997E+02  0.45594000000E+02  0.51100000000E-03 0. -1.
         11   -1    0    0    0    0 -0.00000000000E+00 -0.00000000000E+00 -0.45593999997E+02  0.45594000000E+02  0.51100000000E-03 0.  1.
         23    2    1    2    0    0  0.00000000000E+00  0.00000000000E+00  0.00000000000E+00  0.91188000000E+02  0.91188000000E+02 0.  0.
    9900012    2    3    3    0    0 -0.68079535486E+01  0.18711082571E+02 -0.38563845924E+02  0.47787273566E+02  0.20000011499E+02 0.  0.
         12    1    3    3    0    0  0.68079535486E+01 -0.18711082571E+02  0.38563845924E+02  0.43400726434E+02  0.00000000000E+00 0. -1.
         11    1    4    4    0    0 -0.50236058365E+01  0.79733289144E+01 -0.14304305085E+02  0.17129615693E+02  0.51100000000E-03 0. -1.
        -11    1    4    4    0    0 -0.27582294234E+01  0.97428674446E-02 -0.17976923983E+02  0.18187295583E+02  0.51100000000E-03 0.  1.
         12    1    4    4    0    0  0.97388171140E+00  0.10728010789E+02 -0.62826168564E+01  0.12470362290E+02  0.00000000000E+00 0. -1.
</event>
<event>
 8    1  0.2994958E-010  0.9118800E+02  0.7816164E-02  0.1184000E+00
        -11   -1    0    0    0    0  0.00000000000E+00  0.00000000000E+00  0.45593999997E+02  0.45594000000E+02  0.51100000000E-03 0. -1.
         11   -1    0    0    0    0 -0.00000000000E+00 -0.00000000000E+00 -0.45593999997E+02  0.45594000000E+02  0.51100000000E-03 0.  1.
         23    2    1    2    0    0 -0.17763568394E-14  0.00000000000E+00  0.00000000000E+00  0.91188000000E+02  0.91188000000E+02 0.  0.
    9900012    2    3    3    0    0 -0.89067989012E+01  0.42086180444E+02  0.57485553297E+01  0.47787267985E+02  0.19999986052E+02 0.  0.
        -12    1    3    3    0    0  0.89067989012E+01 -0.42086180444E+02 -0.57485553297E+01  0.43400732015E+02  0.00000000000E+00 0.  1.
         11    1    4    4    0    0 -0.75109322291E+00  0.41373467346E+01  0.24536650619E+01  0.48684958179E+01  0.51100000000E-03 0. -1.
        -11    1    4    4    0    0 -0.72260710661E+01  0.35255300907E+01  0.26876834300E+01  0.84775649778E+01  0.51100000000E-03 0.  1.
        -12    1    4    4    0    0 -0.92963461216E+00  0.34423303619E+02  0.60720683792E+00  0.34441207190E+02  0.00000000000E+00 0.  1.
</event>
<event>
 8    1  0.2994958E-010  0.9118800E+02  0.7816164E-02  0.1184000E+00
        -11   -1    0    0    0    0  0.00000000000E+00  0.00000000000E+00  0.45593999997E+02  0.45594000000E+02  0.51100000000E-03 0. -1.
         11   -1    0    0    0    0 -0.00000000000E+00 -0.00000000000E+00 -0.45593999997E+02  0.45594000000E+02  0.51100000000E-03 0.  1.
         23    2    1    2    0    0  0.00000000000E+00 -0.88817841970E-15  0.00000000000E+00  0.91188000000E+02  0.91188000000E+02 0.  0.
    9900012    2    3    3    0    0 -0.17579580567E+02  0.79926513653E+01 -0.38867702767E+02  0.47787280569E+02  0.20000043425E+02 0.  0.
         12    1    3    3    0    0  0.17579580567E+02 -0.79926513653E+01  0.38867702767E+02  0.43400719431E+02  0.00000000000E+00 0. -1.
         11    1    4    4    0    0 -0.14744426950E+02  0.67905683886E+01 -0.21864442087E+02  0.27231668571E+02  0.51100000000E-03 0. -1.
        -11    1    4    4    0    0 -0.66986909086E+01  0.20615170133E+01 -0.13745980780E+02  0.15429656514E+02  0.51100000000E-03 0.  1.
         12    1    4    4    0    0  0.38635372919E+01 -0.85943403659E+00 -0.32572799006E+01  0.51259554836E+01  0.00000000000E+00 0. -1.
</event>
<event>
 8    1  0.2994958E-010  0.9118800E+02  0.7816164E-02  0.1184000E+00
        -11   -1    0    0    0    0  0.00000000000E+00  0.00000000000E+00  0.45593999997E+02  0.45594000000E+02  0.51100000000E-03 0. -1.
         11   -1    0    0    0    0 -0.00000000000E+00 -0.00000000000E+00 -0.45593999997E+02  0.45594000000E+02  0.51100000000E-03 0.  1.
         23    2    1    2    0    0  0.71054273576E-14 -0.17763568394E-14  0.00000000000E+00  0.91188000000E+02  0.91188000000E+02 0.  0.
    9900012    2    3    3    0    0  0.34618053022E+02 -0.11814032940E+02  0.23359014861E+02  0.47787256405E+02  0.19999933251E+02 0.  0.
        -12    1    3    3    0    0 -0.34618053022E+02  0.11814032940E+02 -0.23359014861E+02  0.43400743595E+02  0.00000000000E+00 0.  1.
         11    1    4    4    0    0  0.26277515776E+02 -0.80816522623E+01  0.19845320121E+02  0.33906602154E+02  0.51100000000E-03 0. -1.
        -11    1    4    4    0    0  0.10177167422E+02 -0.25608606851E+01  0.45858766199E+01  0.11452642002E+02  0.51100000000E-03 0.  1.
        -12    1    4    4    0    0 -0.18366301762E+01 -0.11715199931E+01 -0.10721818799E+01  0.24280122491E+01  0.00000000000E+00 0.  1.
</event>
<event>
 8    1  0.2994958E-010  0.9118800E+02  0.7816164E-02  0.1184000E+00
        -11   -1    0    0    0    0  0.00000000000E+00  0.00000000000E+00  0.45593999997E+02  0.45594000000E+02  0.51100000000E-03 0. -1.
         11   -1    0    0    0    0 -0.00000000000E+00 -0.00000000000E+00 -0.45593999997E+02  0.45594000000E+02  0.51100000000E-03 0.  1.
         23    2    1    2    0    0  0.88817841970E-15  0.88817841970E-15 -0.71054273576E-14  0.91188000000E+02  0.91188000000E+02 0.  0.
    9900012    2    3    3    0    0  0.48870665711E+01  0.47814736509E+01 -0.42858800972E+02  0.47787277302E+02  0.20000028530E+02 0.  0.
         12    1    3    3    0    0 -0.48870665711E+01 -0.47814736509E+01  0.42858800972E+02  0.43400722698E+02  0.00000000000E+00 0. -1.
         11    1    4    4    0    0  0.48482708090E+01  0.90388719549E+01 -0.25081670872E+02  0.27097917817E+02  0.51100000000E-03 0.  1.
        -11    1    4    4    0    0 -0.35080154482E+00  0.30762861195E+01 -0.69265864008E+01  0.75871073171E+01  0.51100000000E-03 0. -1.
         12    1    4    4    0    0  0.38959730685E+00 -0.73336844234E+01 -0.10850543700E+02  0.13102252167E+02  0.00000000000E+00 0. -1.
</event>
<event>
 8    1  0.2994958E-010  0.9118800E+02  0.7816164E-02  0.1184000E+00
        -11   -1    0    0    0    0  0.00000000000E+00  0.00000000000E+00  0.45593999997E+02  0.45594000000E+02  0.51100000000E-03 0. -1.
         11   -1    0    0    0    0 -0.00000000000E+00 -0.00000000000E+00 -0.45593999997E+02  0.45594000000E+02  0.51100000000E-03 0.  1.
         23    2    1    2    0    0  0.35527136788E-14  0.88817841970E-15  0.71054273576E-14  0.91188000000E+02  0.91188000000E+02 0.  0.
    9900012    2    3    3    0    0  0.29605888027E+02  0.42770387962E+01  0.31445537568E+02  0.47787268443E+02  0.19999988140E+02 0.  0.
        -12    1    3    3    0    0 -0.29605888027E+02 -0.42770387962E+01 -0.31445537568E+02  0.43400731557E+02  0.00000000000E+00 0.  1.
         11    1    4    4    0    0  0.22982234939E+02  0.58762558321E+01  0.30825815537E+02  0.38896586087E+02  0.51100000000E-03 0. -1.
        -11    1    4    4    0    0  0.87248480233E+00 -0.28523891966E+01  0.22804250519E+00  0.29915476771E+01  0.51100000000E-03 0.  1.
        -12    1    4    4    0    0  0.57511682859E+01  0.12531721607E+01  0.39167952518E+00  0.58991346796E+01  0.00000000000E+00 0.  1.
</event>
<event>
 8    1  0.2994958E-010  0.9118800E+02  0.7816164E-02  0.1184000E+00
        -11   -1    0    0    0    0  0.00000000000E+00  0.00000000000E+00  0.45593999997E+02  0.45594000000E+02  0.51100000000E-03 0. -1.
         11   -1    0    0    0    0 -0.00000000000E+00 -0.00000000000E+00 -0.45593999997E+02  0.45594000000E+02  0.51100000000E-03 0.  1.
         23    2    1    2    0    0  0.00000000000E+00  0.00000000000E+00  0.00000000000E+00  0.91188000000E+02  0.91188000000E+02 0.  0.
    9900012    2    3    3    0    0  0.15571735295E+02  0.57378702680E+01 -0.40102628604E+02  0.47787275164E+02  0.20000018785E+02 0.  0.
         12    1    3    3    0    0 -0.15571735295E+02 -0.57378702680E+01  0.40102628604E+02  0.43400724836E+02  0.00000000000E+00 0. -1.
         11    1    4    4    0    0  0.10013067808E+02  0.10241536826E+02 -0.18264571514E+02  0.23210884867E+02  0.51100000000E-03 0. -1.
        -11    1    4    4    0    0  0.64907262616E+00  0.11903721418E+01 -0.12567085332E+02  0.12640012465E+02  0.51100000000E-03 0.  1.
         12    1    4    4    0    0  0.49095948609E+01 -0.56940386996E+01 -0.92709717581E+01  0.11936377832E+02  0.00000000000E+00 0. -1.
</event>
<event>
 8    1  0.2994958E-010  0.9118800E+02  0.7816164E-02  0.1184000E+00
        -11   -1    0    0    0    0  0.00000000000E+00  0.00000000000E+00  0.45593999997E+02  0.45594000000E+02  0.51100000000E-03 0. -1.
         11   -1    0    0    0    0 -0.00000000000E+00 -0.00000000000E+00 -0.45593999997E+02  0.45594000000E+02  0.51100000000E-03 0.  1.
         23    2    1    2    0    0  0.35527136788E-14 -0.17763568394E-14  0.71054273576E-14  0.91188000000E+02  0.91188000000E+02 0.  0.
    9900012    2    3    3    0    0  0.20332827391E+02  0.12084699516E+02  0.36388958346E+02  0.47787307361E+02  0.20000165579E+02 0.  0.
        -12    1    3    3    0    0 -0.20332827391E+02 -0.12084699516E+02 -0.36388958346E+02  0.43400692639E+02  0.00000000000E+00 0.  1.
         11    1    4    4    0    0 -0.11328525786E+01  0.79797309521E+00  0.48355908024E+01  0.50302141798E+01  0.51100000000E-03 0. -1.
        -11    1    4    4    0    0  0.70403572426E+01  0.11946494210E+02  0.19610792268E+02  0.24018087510E+02  0.51100000000E-03 0.  1.
         12    1    4    4    0    0  0.14425322727E+02 -0.65976778957E+00  0.11942575275E+02  0.18739005670E+02  0.00000000000E+00 0. -1.
</event>
<event>
 8    1  0.2994958E-010  0.9118800E+02  0.7816164E-02  0.1184000E+00
        -11   -1    0    0    0    0  0.00000000000E+00  0.00000000000E+00  0.45593999997E+02  0.45594000000E+02  0.51100000000E-03 0. -1.
         11   -1    0    0    0    0 -0.00000000000E+00 -0.00000000000E+00 -0.45593999997E+02  0.45594000000E+02  0.51100000000E-03 0.  1.
         23    2    1    2    0    0  0.00000000000E+00  0.00000000000E+00 -0.35527136788E-14  0.91188000000E+02  0.91188000000E+02 0.  0.
    9900012    2    3    3    0    0  0.33980282600E+02  0.76291595116E+01  0.25899029246E+02  0.47787269634E+02  0.19999993571E+02 0.  0.
        -12    1    3    3    0    0 -0.33980282600E+02 -0.76291595116E+01 -0.25899029246E+02  0.43400730366E+02  0.00000000000E+00 0.  1.
         11    1    4    4    0    0  0.76913641967E+01 -0.32467771047E+01  0.35242017151E+01  0.90619337210E+01  0.51100000000E-03 0. -1.
        -11    1    4    4    0    0  0.10656243261E+02 -0.14816115015E+01  0.35952895854E+01  0.11343579706E+02  0.51100000000E-03 0.  1.
        -12    1    4    4    0    0  0.15632675142E+02  0.12357548118E+02  0.18779537945E+02  0.27381756208E+02  0.00000000000E+00 0.  1.
</event>
<event>
 8    1  0.2994958E-010  0.9118800E+02  0.7816164E-02  0.1184000E+00
        -11   -1    0    0    0    0  0.00000000000E+00  0.00000000000E+00  0.45593999997E+02  0.45594000000E+02  0.51100000000E-03 0. -1.
         11   -1    0    0    0    0 -0.00000000000E+00 -0.00000000000E+00 -0.45593999997E+02  0.45594000000E+02  0.51100000000E-03 0.  1.
         23    2    1    2    0    0  0.00000000000E+00  0.88817841970E-15  0.00000000000E+00  0.91188000000E+02  0.91188000000E+02 0.  0.
    9900012    2    3    3    0    0  0.14698723548E+02  0.49453167321E+01  0.40535348355E+02  0.47787273074E+02  0.20000009251E+02 0.  0.
        -12    1    3    3    0    0 -0.14698723548E+02 -0.49453167321E+01 -0.40535348355E+02  0.43400726926E+02  0.00000000000E+00 0.  1.
         11    1    4    4    0    0  0.77930651617E+01 -0.17763477562E+01  0.18639863683E+02  0.20281316386E+02  0.51100000000E-03 0. -1.
        -11    1    4    4    0    0  0.25715703198E+01 -0.35252053358E+01  0.11417620130E+02  0.12223015023E+02  0.51100000000E-03 0.  1.
        -12    1    4    4    0    0  0.43340880666E+01  0.10246869824E+02  0.10477864542E+02  0.15282941665E+02  0.00000000000E+00 0.  1.
</event>
<event>
 8    1  0.2994958E-010  0.9118800E+02  0.7816164E-02  0.1184000E+00
        -11   -1    0    0    0    0  0.00000000000E+00  0.00000000000E+00  0.45593999997E+02  0.45594000000E+02  0.51100000000E-03 0. -1.
         11   -1    0    0    0    0 -0.00000000000E+00 -0.00000000000E+00 -0.45593999997E+02  0.45594000000E+02  0.51100000000E-03 0.  1.
         23    2    1    2    0    0  0.35527136788E-14  0.35527136788E-14  0.35527136788E-14  0.91188000000E+02  0.91188000000E+02 0.  0.
    9900012    2    3    3    0    0  0.26006524475E+02  0.25598991397E+02  0.23494154941E+02  0.47787274290E+02  0.20000014796E+02 0.  0.
        -12    1    3    3    0    0 -0.26006524475E+02 -0.25598991397E+02 -0.23494154941E+02  0.43400725710E+02  0.00000000000E+00 0.  1.
         11    1    4    4    0    0  0.45626841629E+01  0.67541654285E+01  0.30242929940E+01  0.86938590844E+01  0.51100000000E-03 0. -1.
        -11    1    4    4    0    0  0.14777320165E+02  0.20681978434E+02  0.11857300442E+02  0.28048333234E+02  0.51100000000E-03 0.  1.
        -12    1    4    4    0    0  0.66665201472E+01 -0.18371524658E+01  0.86125615054E+01  0.11045081971E+02  0.00000000000E+00 0.  1.
</event>
<event>
 8    1  0.2994958E-010  0.9118800E+02  0.7816164E-02  0.1184000E+00
        -11   -1    0    0    0    0  0.00000000000E+00  0.00000000000E+00  0.45593999997E+02  0.45594000000E+02  0.51100000000E-03 0. -1.
         11   -1    0    0    0    0 -0.00000000000E+00 -0.00000000000E+00 -0.45593999997E+02  0.45594000000E+02  0.51100000000E-03 0.  1.
         23    2    1    2    0    0  0.00000000000E+00  0.35527136788E-14  0.00000000000E+00  0.91188000000E+02  0.91188000000E+02 0.  0.
    9900012    2    3    3    0    0 -0.57359328787E+00  0.28212290591E+02 -0.32975157162E+02  0.47787270288E+02  0.19999996553E+02 0.  0.
         12    1    3    3    0    0  0.57359328787E+00 -0.28212290591E+02  0.32975157162E+02  0.43400729712E+02  0.00000000000E+00 0. -1.
         11    1    4    4    0    0  0.15550472443E+01  0.37240407520E+01 -0.82184149524E+00  0.41185039952E+01  0.51100000000E-03 0. -1.
        -11    1    4    4    0    0 -0.73769370002E+01  0.18894400227E+02 -0.16169487978E+02  0.25939735951E+02  0.51100000000E-03 0.  1.
        -12    1    4    4    0    0  0.52482964680E+01  0.55938496112E+01 -0.15983827689E+02  0.17729030342E+02  0.00000000000E+00 0.  1.
</event>
<event>
 8    1  0.2994958E-010  0.9118800E+02  0.7816164E-02  0.1184000E+00
        -11   -1    0    0    0    0  0.00000000000E+00  0.00000000000E+00  0.45593999997E+02  0.45594000000E+02  0.51100000000E-03 0. -1.
         11   -1    0    0    0    0 -0.00000000000E+00 -0.00000000000E+00 -0.45593999997E+02  0.45594000000E+02  0.51100000000E-03 0.  1.
         23    2    1    2    0    0 -0.48572257327E-16  0.00000000000E+00 -0.71054273576E-14  0.91188000000E+02  0.91188000000E+02 0.  0.
    9900012    2    3    3    0    0 -0.31764197037E-01 -0.33960807885E+01  0.43267666615E+02  0.47787247150E+02  0.19999891055E+02 0.  0.
        -12    1    3    3    0    0  0.31764197037E-01  0.33960807885E+01 -0.43267666615E+02  0.43400752850E+02  0.00000000000E+00 0.  1.
         11    1    4    4    0    0  0.32422339073E+01 -0.49038441722E+01  0.21410377343E+02  0.22202793216E+02  0.51100000000E-03 0. -1.
        -11    1    4    4    0    0 -0.15029705015E+01 -0.56899049537E+01  0.96307576164E+01  0.11286515460E+02  0.51100000000E-03 0.  1.
         12    1    4    4    0    0 -0.17710276028E+01  0.71976683374E+01  0.12226531656E+02  0.14297938473E+02  0.00000000000E+00 0. -1.
</event>
<event>
 8    1  0.2994958E-010  0.9118800E+02  0.7816164E-02  0.1184000E+00
        -11   -1    0    0    0    0  0.00000000000E+00  0.00000000000E+00  0.45593999997E+02  0.45594000000E+02  0.51100000000E-03 0. -1.
         11   -1    0    0    0    0 -0.00000000000E+00 -0.00000000000E+00 -0.45593999997E+02  0.45594000000E+02  0.51100000000E-03 0.  1.
         23    2    1    2    0    0  0.00000000000E+00  0.22204460493E-15  0.00000000000E+00  0.91188000000E+02  0.91188000000E+02 0.  0.
    9900012    2    3    3    0    0 -0.14289534456E+01 -0.13547333253E+01  0.43356038986E+02  0.47787270433E+02  0.19999997213E+02 0.  0.
        -12    1    3    3    0    0  0.14289534456E+01  0.13547333253E+01 -0.43356038986E+02  0.43400729567E+02  0.00000000000E+00 0.  1.
         11    1    4    4    0    0  0.17370567808E+00 -0.37805870386E+01  0.32191715431E+01  0.49685085995E+01  0.51100000000E-03 0. -1.
        -11    1    4    4    0    0  0.62292341503E+01  0.25723405421E+01  0.14078088642E+02  0.15608102832E+02  0.51100000000E-03 0.  1.
        -12    1    4    4    0    0 -0.78318932739E+01 -0.14648682892E+00  0.26058778802E+02  0.27210659001E+02  0.00000000000E+00 0.  1.
</event>
<event>
 8    1  0.2994958E-010  0.9118800E+02  0.7816164E-02  0.1184000E+00
        -11   -1    0    0    0    0  0.00000000000E+00  0.00000000000E+00  0.45593999997E+02  0.45594000000E+02  0.51100000000E-03 0. -1.
         11   -1    0    0    0    0 -0.00000000000E+00 -0.00000000000E+00 -0.45593999997E+02  0.45594000000E+02  0.51100000000E-03 0.  1.
         23    2    1    2    0    0 -0.13322676296E-14  0.88817841970E-15  0.00000000000E+00  0.91188000000E+02  0.91188000000E+02 0.  0.
    9900012    2    3    3    0    0 -0.31258268918E+01  0.62400881898E+01  0.42835892853E+02  0.47787271770E+02  0.20000003310E+02 0.  0.
        -12    1    3    3    0    0  0.31258268918E+01 -0.62400881898E+01 -0.42835892853E+02  0.43400728230E+02  0.00000000000E+00 0.  1.
         11    1    4    4    0    0  0.21305556111E+01  0.57692944249E+01  0.16312135441E+02  0.17433008583E+02  0.51100000000E-03 0. -1.
        -11    1    4    4    0    0 -0.84999908969E+01  0.33362172387E+01  0.23088615086E+02  0.24828699876E+02  0.51100000000E-03 0.  1.
        -12    1    4    4    0    0  0.32436083939E+01 -0.28654234739E+01  0.34351423263E+01  0.55255633106E+01  0.00000000000E+00 0.  1.
</event>
<event>
 8    1  0.2994958E-010  0.9118800E+02  0.7816164E-02  0.1184000E+00
        -11   -1    0    0    0    0  0.00000000000E+00  0.00000000000E+00  0.45593999997E+02  0.45594000000E+02  0.51100000000E-03 0. -1.
         11   -1    0    0    0    0 -0.00000000000E+00 -0.00000000000E+00 -0.45593999997E+02  0.45594000000E+02  0.51100000000E-03 0.  1.
         23    2    1    2    0    0  0.00000000000E+00  0.00000000000E+00  0.00000000000E+00  0.91188000000E+02  0.91188000000E+02 0.  0.
    9900012    2    3    3    0    0 -0.33455675561E+02  0.21430078904E+01  0.27563541009E+02  0.47787268405E+02  0.19999987965E+02 0.  0.
        -12    1    3    3    0    0  0.33455675561E+02 -0.21430078904E+01 -0.27563541009E+02  0.43400731595E+02  0.00000000000E+00 0.  1.
         11    1    4    4    0    0 -0.22214137369E+02  0.38739893117E+01  0.18680953604E+02  0.29282310702E+02  0.51100000000E-03 0. -1.
        -11    1    4    4    0    0 -0.11764822033E+02 -0.38297598446E+01  0.10145450379E+02  0.16000258172E+02  0.51100000000E-03 0.  1.
         12    1    4    4    0    0  0.52328384096E+00  0.20987784234E+01 -0.12628629736E+01  0.25046995306E+01  0.00000000000E+00 0. -1.
</event>
<event>
 8    1  0.2994958E-010  0.9118800E+02  0.7816164E-02  0.1184000E+00
        -11   -1    0    0    0    0  0.00000000000E+00  0.00000000000E+00  0.45593999997E+02  0.45594000000E+02  0.51100000000E-03 0. -1.
         11   -1    0    0    0    0 -0.00000000000E+00 -0.00000000000E+00 -0.45593999997E+02  0.45594000000E+02  0.51100000000E-03 0.  1.
         23    2    1    2    0    0  0.00000000000E+00 -0.17763568394E-14 -0.71054273576E-14  0.91188000000E+02  0.91188000000E+02 0.  0.
    9900012    2    3    3    0    0 -0.17806326286E+02  0.11105273396E+02  0.37989880772E+02  0.47787269660E+02  0.19999993687E+02 0.  0.
        -12    1    3    3    0    0  0.17806326286E+02 -0.11105273396E+02 -0.37989880772E+02  0.43400730340E+02  0.00000000000E+00 0.  1.
         11    1    4    4    0    0 -0.11338304320E+02  0.37393936617E+01  0.23106631752E+02  0.26008780075E+02  0.51100000000E-03 0. -1.
        -11    1    4    4    0    0 -0.77209102298E+01  0.80587672358E+01  0.16306302676E+02  0.19759850489E+02  0.51100000000E-03 0.  1.
        -12    1    4    4    0    0  0.12528882638E+01 -0.69288750176E+00 -0.14230536558E+01  0.20186390958E+01  0.00000000000E+00 0.  1.
</event>
<event>
 8    1  0.2994958E-010  0.9118800E+02  0.7816164E-02  0.1184000E+00
        -11   -1    0    0    0    0  0.00000000000E+00  0.00000000000E+00  0.45593999997E+02  0.45594000000E+02  0.51100000000E-03 0. -1.
         11   -1    0    0    0    0 -0.00000000000E+00 -0.00000000000E+00 -0.45593999997E+02  0.45594000000E+02  0.51100000000E-03 0.  1.
         23    2    1    2    0    0  0.35527136788E-14 -0.35527136788E-14  0.00000000000E+00  0.91188000000E+02  0.91188000000E+02 0.  0.
    9900012    2    3    3    0    0 -0.24753214422E+02  0.16349226286E+02  0.31679714201E+02  0.47787272860E+02  0.20000008280E+02 0.  0.
        -12    1    3    3    0    0  0.24753214422E+02 -0.16349226286E+02 -0.31679714201E+02  0.43400727140E+02  0.00000000000E+00 0.  1.
         11    1    4    4    0    0 -0.17891540415E+02  0.82958443867E+01  0.28526462737E+02  0.34679782714E+02  0.51100000000E-03 0. -1.
        -11    1    4    4    0    0 -0.43413744062E+01  0.52022847153E+01  0.54211690504E+01  0.86775787019E+01  0.51100000000E-03 0.  1.
        -12    1    4    4    0    0 -0.25202996002E+01  0.28510971844E+01 -0.22679175863E+01  0.44299114447E+01  0.00000000000E+00 0.  1.
</event>
<event>
 8    1  0.2994958E-010  0.9118800E+02  0.7816164E-02  0.1184000E+00
        -11   -1    0    0    0    0  0.00000000000E+00  0.00000000000E+00  0.45593999997E+02  0.45594000000E+02  0.51100000000E-03 0. -1.
         11   -1    0    0    0    0 -0.00000000000E+00 -0.00000000000E+00 -0.45593999997E+02  0.45594000000E+02  0.51100000000E-03 0.  1.
         23    2    1    2    0    0  0.00000000000E+00  0.00000000000E+00  0.00000000000E+00  0.91188000000E+02  0.91188000000E+02 0.  0.
    9900012    2    3    3    0    0  0.18528271291E+02  0.16352754655E+02  0.35677921121E+02  0.47787268700E+02  0.19999989309E+02 0.  0.
        -12    1    3    3    0    0 -0.18528271291E+02 -0.16352754655E+02 -0.35677921121E+02  0.43400731300E+02  0.00000000000E+00 0.  1.
         11    1    4    4    0    0  0.39895218433E+01  0.54361883270E+01  0.14407610069E+02  0.15907471710E+02  0.51100000000E-03 0. -1.
        -11    1    4    4    0    0  0.77468235478E+01 -0.29415694945E+01  0.81622186706E+01  0.11631333546E+02  0.51100000000E-03 0.  1.
        -12    1    4    4    0    0  0.67919259000E+01  0.13858135823E+02  0.13108092382E+02  0.20248463443E+02  0.00000000000E+00 0.  1.
</event>
<event>
 8    1  0.2994958E-010  0.9118800E+02  0.7816164E-02  0.1184000E+00
        -11   -1    0    0    0    0  0.00000000000E+00  0.00000000000E+00  0.45593999997E+02  0.45594000000E+02  0.51100000000E-03 0. -1.
         11   -1    0    0    0    0 -0.00000000000E+00 -0.00000000000E+00 -0.45593999997E+02  0.45594000000E+02  0.51100000000E-03 0.  1.
         23    2    1    2    0    0  0.00000000000E+00  0.00000000000E+00  0.71054273576E-14  0.91188000000E+02  0.91188000000E+02 0.  0.
    9900012    2    3    3    0    0 -0.19047819733E+02 -0.81783788912E+01  0.38130274983E+02  0.47787272032E+02  0.20000004503E+02 0.  0.
        -12    1    3    3    0    0  0.19047819733E+02  0.81783788912E+01 -0.38130274983E+02  0.43400727968E+02  0.00000000000E+00 0.  1.
         11    1    4    4    0    0 -0.62839630376E+01 -0.22660469886E+01  0.17692370429E+02  0.18911455049E+02  0.51100000000E-03 0. -1.
        -11    1    4    4    0    0 -0.10314714513E+02 -0.96500032948E+01  0.19858834838E+02  0.24369842438E+02  0.51100000000E-03 0.  1.
        -12    1    4    4    0    0 -0.24491421822E+01  0.37376713922E+01  0.57906971594E+00  0.45059745450E+01  0.00000000000E+00 0.  1.
</event>
<event>
 8    1  0.2994958E-010  0.9118800E+02  0.7816164E-02  0.1184000E+00
        -11   -1    0    0    0    0  0.00000000000E+00  0.00000000000E+00  0.45593999997E+02  0.45594000000E+02  0.51100000000E-03 0. -1.
         11   -1    0    0    0    0 -0.00000000000E+00 -0.00000000000E+00 -0.45593999997E+02  0.45594000000E+02  0.51100000000E-03 0.  1.
         23    2    1    2    0    0  0.00000000000E+00  0.00000000000E+00  0.35527136788E-14  0.91188000000E+02  0.91188000000E+02 0.  0.
    9900012    2    3    3    0    0  0.29459564375E+02 -0.13607006280E+02 -0.28820253565E+02  0.47787267649E+02  0.19999984518E+02 0.  0.
         12    1    3    3    0    0 -0.29459564375E+02  0.13607006280E+02  0.28820253565E+02  0.43400732351E+02  0.00000000000E+00 0. -1.
         11    1    4    4    0    0 -0.26440291529E+00  0.20135987348E+01 -0.14505887785E+01  0.24957357295E+01  0.51100000000E-03 0. -1.
        -11    1    4    4    0    0  0.93606105943E+01 -0.56553658637E+01 -0.17340802702E+02  0.20501405619E+02  0.51100000000E-03 0.  1.
         12    1    4    4    0    0  0.20363356696E+02 -0.99652391514E+01 -0.10028862084E+02  0.24790126300E+02  0.00000000000E+00 0. -1.
</event>
<event>
 8    1  0.2994958E-010  0.9118800E+02  0.7816164E-02  0.1184000E+00
        -11   -1    0    0    0    0  0.00000000000E+00  0.00000000000E+00  0.45593999997E+02  0.45594000000E+02  0.51100000000E-03 0. -1.
         11   -1    0    0    0    0 -0.00000000000E+00 -0.00000000000E+00 -0.45593999997E+02  0.45594000000E+02  0.51100000000E-03 0.  1.
         23    2    1    2    0    0 -0.17763568394E-14  0.00000000000E+00  0.71054273576E-14  0.91188000000E+02  0.91188000000E+02 0.  0.
    9900012    2    3    3    0    0 -0.14504776456E+02 -0.64521650508E+01  0.40393121304E+02  0.47787271636E+02  0.20000002696E+02 0.  0.
        -12    1    3    3    0    0  0.14504776456E+02  0.64521650508E+01 -0.40393121304E+02  0.43400728364E+02  0.00000000000E+00 0.  1.
         11    1    4    4    0    0 -0.40711221117E+01 -0.14824599316E+00  0.14077154346E+02  0.14654770106E+02  0.51100000000E-03 0. -1.
        -11    1    4    4    0    0 -0.43542316694E+01  0.36869016998E+01  0.18213653339E+01  0.59891526542E+01  0.51100000000E-03 0.  1.
        -12    1    4    4    0    0 -0.60794226754E+01 -0.99908207574E+01  0.24494601624E+02  0.27143348876E+02  0.00000000000E+00 0.  1.
</event>
<event>
 8    1  0.2994958E-010  0.9118800E+02  0.7816164E-02  0.1184000E+00
        -11   -1    0    0    0    0  0.00000000000E+00  0.00000000000E+00  0.45593999997E+02  0.45594000000E+02  0.51100000000E-03 0. -1.
         11   -1    0    0    0    0 -0.00000000000E+00 -0.00000000000E+00 -0.45593999997E+02  0.45594000000E+02  0.51100000000E-03 0.  1.
         23    2    1    2    0    0 -0.35527136788E-14  0.00000000000E+00  0.00000000000E+00  0.91188000000E+02  0.91188000000E+02 0.  0.
    9900012    2    3    3    0    0  0.19241569796E+02 -0.10027041073E+02  0.37587819695E+02  0.47787265556E+02  0.19999974976E+02 0.  0.
        -12    1    3    3    0    0 -0.19241569796E+02  0.10027041073E+02 -0.37587819695E+02  0.43400734444E+02  0.00000000000E+00 0.  1.
         11    1    4    4    0    0  0.46738575813E+01  0.28256284150E+01  0.12760145714E+02  0.13879857332E+02  0.51100000000E-03 0.  1.
        -11    1    4    4    0    0  0.93367985400E+01 -0.18144096235E+01  0.53400147360E+01  0.10907962546E+02  0.51100000000E-03 0. -1.
         12    1    4    4    0    0  0.52309136747E+01 -0.11038259865E+02  0.19487659244E+02  0.22999445679E+02  0.00000000000E+00 0. -1.
</event>
<event>
 8    1  0.2994958E-010  0.9118800E+02  0.7816164E-02  0.1184000E+00
        -11   -1    0    0    0    0  0.00000000000E+00  0.00000000000E+00  0.45593999997E+02  0.45594000000E+02  0.51100000000E-03 0. -1.
         11   -1    0    0    0    0 -0.00000000000E+00 -0.00000000000E+00 -0.45593999997E+02  0.45594000000E+02  0.51100000000E-03 0.  1.
         23    2    1    2    0    0  0.00000000000E+00  0.00000000000E+00  0.00000000000E+00  0.91188000000E+02  0.91188000000E+02 0.  0.
    9900012    2    3    3    0    0  0.37482947455E+02  0.78975403909E+01 -0.20402968243E+02  0.47787267203E+02  0.19999982487E+02 0.  0.
         12    1    3    3    0    0 -0.37482947455E+02 -0.78975403909E+01  0.20402968243E+02  0.43400732797E+02  0.00000000000E+00 0. -1.
         11    1    4    4    0    0  0.26326728298E+01  0.26043249217E+01 -0.43908776835E+01  0.57439778568E+01  0.51100000000E-03 0. -1.
        -11    1    4    4    0    0  0.18252861997E+01 -0.29291970500E+01 -0.53728480717E+01  0.63858720415E+01  0.51100000000E-03 0.  1.
         12    1    4    4    0    0  0.33024988426E+02  0.82224125191E+01 -0.10639242488E+02  0.35657417305E+02  0.00000000000E+00 0. -1.
</event>
<event>
 8    1  0.2994958E-010  0.9118800E+02  0.7816164E-02  0.1184000E+00
        -11   -1    0    0    0    0  0.00000000000E+00  0.00000000000E+00  0.45593999997E+02  0.45594000000E+02  0.51100000000E-03 0. -1.
         11   -1    0    0    0    0 -0.00000000000E+00 -0.00000000000E+00 -0.45593999997E+02  0.45594000000E+02  0.51100000000E-03 0.  1.
         23    2    1    2    0    0  0.00000000000E+00  0.00000000000E+00  0.00000000000E+00  0.91188000000E+02  0.91188000000E+02 0.  0.
    9900012    2    3    3    0    0  0.73997430456E+01 -0.36079717018E+01 -0.42612782569E+02  0.47787275407E+02  0.20000019889E+02 0.  0.
         12    1    3    3    0    0 -0.73997430456E+01  0.36079717018E+01  0.42612782569E+02  0.43400724593E+02  0.00000000000E+00 0. -1.
         11    1    4    4    0    0  0.56855623638E+01  0.19559384209E+01 -0.14066129835E+02  0.15297297909E+02  0.51100000000E-03 0.  1.
        -11    1    4    4    0    0  0.36279891121E+01 -0.54004973756E+01 -0.35342999922E+01  0.74039822796E+01  0.51100000000E-03 0. -1.
        -12    1    4    4    0    0 -0.19138084302E+01 -0.16341274718E+00 -0.25012352742E+02  0.25085995219E+02  0.00000000000E+00 0.  1.
</event>
<event>
 8    1  0.2994958E-010  0.9118800E+02  0.7816164E-02  0.1184000E+00
        -11   -1    0    0    0    0  0.00000000000E+00  0.00000000000E+00  0.45593999997E+02  0.45594000000E+02  0.51100000000E-03 0. -1.
         11   -1    0    0    0    0 -0.00000000000E+00 -0.00000000000E+00 -0.45593999997E+02  0.45594000000E+02  0.51100000000E-03 0.  1.
         23    2    1    2    0    0  0.00000000000E+00 -0.35527136788E-14  0.00000000000E+00  0.91188000000E+02  0.91188000000E+02 0.  0.
    9900012    2    3    3    0    0 -0.27291143466E+01  0.30226366259E+02  0.31024859379E+02  0.47787272104E+02  0.20000004833E+02 0.  0.
        -12    1    3    3    0    0  0.27291143466E+01 -0.30226366259E+02 -0.31024859379E+02  0.43400727896E+02  0.00000000000E+00 0.  1.
         11    1    4    4    0    0 -0.81917754891E+00  0.25668644849E+02  0.22927862772E+02  0.34427275114E+02  0.51100000000E-03 0. -1.
        -11    1    4    4    0    0 -0.43375698842E+01  0.60088799056E+01  0.73435411165E+01  0.10433060271E+02  0.51100000000E-03 0.  1.
        -12    1    4    4    0    0  0.24276330865E+01 -0.14511584957E+01  0.75345549113E+00  0.29269367194E+01  0.00000000000E+00 0.  1.
</event>
<event>
 8    1  0.3133166E-010  0.9118800E+02  0.7816164E-02  0.1184000E+00
        -11   -1    0    0    0    0  0.00000000000E+00  0.00000000000E+00  0.45593999997E+02  0.45594000000E+02  0.51100000000E-03 0. -1.
         11   -1    0    0    0    0 -0.00000000000E+00 -0.00000000000E+00 -0.45593999997E+02  0.45594000000E+02  0.51100000000E-03 0.  1.
         23    2    1    2    0    0  0.00000000000E+00  0.00000000000E+00  0.00000000000E+00  0.91188000000E+02  0.91188000000E+02 0.  0.
    9900012    2    3    3    0    0 -0.48935998933E+01  0.23569852727E+02  0.36112853875E+02  0.47787268526E+02  0.19999988519E+02 0.  0.
        -12    1    3    3    0    0  0.48935998933E+01 -0.23569852727E+02 -0.36112853875E+02  0.43400731474E+02  0.00000000000E+00 0.  1.
         11    1    4    4    0    0 -0.43155209154E+01  0.89251444227E+01  0.92693800762E+01  0.13572152777E+02  0.51100000000E-03 0. -1.
        -11    1    4    4    0    0 -0.65318708696E+01  0.14701674221E+01  0.73002195469E+01  0.99055507167E+01  0.51100000000E-03 0.  1.
         12    1    4    4    0    0  0.59537918918E+01  0.13174540882E+02  0.19543254252E+02  0.24309565033E+02  0.00000000000E+00 0. -1.
</event>
<event>
 8    1  0.2994958E-010  0.9118800E+02  0.7816164E-02  0.1184000E+00
        -11   -1    0    0    0    0  0.00000000000E+00  0.00000000000E+00  0.45593999997E+02  0.45594000000E+02  0.51100000000E-03 0. -1.
         11   -1    0    0    0    0 -0.00000000000E+00 -0.00000000000E+00 -0.45593999997E+02  0.45594000000E+02  0.51100000000E-03 0.  1.
         23    2    1    2    0    0  0.17763568394E-14 -0.17763568394E-14  0.00000000000E+00  0.91188000000E+02  0.91188000000E+02 0.  0.
    9900012    2    3    3    0    0 -0.11224665185E+02 -0.15223147704E+02 -0.39062588615E+02  0.47787272312E+02  0.20000005781E+02 0.  0.
         12    1    3    3    0    0  0.11224665185E+02  0.15223147704E+02  0.39062588615E+02  0.43400727688E+02  0.00000000000E+00 0. -1.
         11    1    4    4    0    0 -0.23707614508E+01 -0.48886507302E+01 -0.19630644531E+02  0.20368643077E+02  0.51100000000E-03 0. -1.
        -11    1    4    4    0    0 -0.15097077162E+01 -0.62180251740E+01 -0.17702806719E+02  0.18823719623E+02  0.51100000000E-03 0.  1.
        -12    1    4    4    0    0 -0.73441960176E+01 -0.41164717998E+01 -0.17291373649E+01  0.85949096127E+01  0.00000000000E+00 0.  1.
</event>
<event>
 8    1  0.2994958E-010  0.9118800E+02  0.7816164E-02  0.1184000E+00
        -11   -1    0    0    0    0  0.00000000000E+00  0.00000000000E+00  0.45593999997E+02  0.45594000000E+02  0.51100000000E-03 0. -1.
         11   -1    0    0    0    0 -0.00000000000E+00 -0.00000000000E+00 -0.45593999997E+02  0.45594000000E+02  0.51100000000E-03 0.  1.
         23    2    1    2    0    0  0.00000000000E+00 -0.22204460493E-15  0.00000000000E+00  0.91188000000E+02  0.91188000000E+02 0.  0.
    9900012    2    3    3    0    0 -0.21463331443E+02 -0.66837856391E+00 -0.37716066921E+02  0.47787273848E+02  0.20000012782E+02 0.  0.
         12    1    3    3    0    0  0.21463331443E+02  0.66837856391E+00  0.37716066921E+02  0.43400726152E+02  0.00000000000E+00 0. -1.
         11    1    4    4    0    0 -0.10365970348E+02 -0.49551017581E+00 -0.12811447019E+02  0.16487329880E+02  0.51100000000E-03 0. -1.
        -11    1    4    4    0    0 -0.74857947355E+01  0.10182763049E+01 -0.26211675232E+02  0.27278671672E+02  0.51100000000E-03 0.  1.
         12    1    4    4    0    0 -0.36115663587E+01 -0.11911446930E+01  0.13070553295E+01  0.40212722959E+01  0.00000000000E+00 0. -1.
</event>
<event>
 8    1  0.2994958E-010  0.9118800E+02  0.7816164E-02  0.1184000E+00
        -11   -1    0    0    0    0  0.00000000000E+00  0.00000000000E+00  0.45593999997E+02  0.45594000000E+02  0.51100000000E-03 0. -1.
         11   -1    0    0    0    0 -0.00000000000E+00 -0.00000000000E+00 -0.45593999997E+02  0.45594000000E+02  0.51100000000E-03 0.  1.
         23    2    1    2    0    0  0.00000000000E+00  0.00000000000E+00 -0.35527136788E-14  0.91188000000E+02  0.91188000000E+02 0.  0.
    9900012    2    3    3    0    0  0.16859717372E+02 -0.26222294433E+02 -0.30195434747E+02  0.47787273338E+02  0.20000010457E+02 0.  0.
         12    1    3    3    0    0 -0.16859717372E+02  0.26222294433E+02  0.30195434747E+02  0.43400726662E+02  0.00000000000E+00 0. -1.
         11    1    4    4    0    0  0.14309519978E+02 -0.72864595104E+01 -0.16487779432E+02  0.23015249837E+02  0.51100000000E-03 0. -1.
        -11    1    4    4    0    0 -0.80347025332E+00  0.47553868885E+00 -0.67642542974E+00  0.11529323986E+01  0.51100000000E-03 0.  1.
        -12    1    4    4    0    0  0.33536676474E+01 -0.19411373611E+02 -0.13031229886E+02  0.23619091102E+02  0.00000000000E+00 0.  1.
</event>
<event>
 8    1  0.2994958E-010  0.9118800E+02  0.7816164E-02  0.1184000E+00
        -11   -1    0    0    0    0  0.00000000000E+00  0.00000000000E+00  0.45593999997E+02  0.45594000000E+02  0.51100000000E-03 0. -1.
         11   -1    0    0    0    0 -0.00000000000E+00 -0.00000000000E+00 -0.45593999997E+02  0.45594000000E+02  0.51100000000E-03 0.  1.
         23    2    1    2    0    0 -0.44408920985E-15 -0.35527136788E-14 -0.71054273576E-14  0.91188000000E+02  0.91188000000E+02 0.  0.
    9900012    2    3    3    0    0 -0.36995895355E+01 -0.27264258707E+02 -0.33564816205E+02  0.47787266683E+02  0.19999980115E+02 0.  0.
         12    1    3    3    0    0  0.36995895355E+01  0.27264258707E+02  0.33564816205E+02  0.43400733317E+02  0.00000000000E+00 0. -1.
         11    1    4    4    0    0 -0.50338556426E+01 -0.14462661090E+02 -0.80476876902E+01  0.17299524440E+02  0.51100000000E-03 0. -1.
        -11    1    4    4    0    0  0.22892756789E+01 -0.91691267260E+01 -0.74489390843E+01  0.12033302198E+02  0.51100000000E-03 0.  1.
         12    1    4    4    0    0 -0.95500957180E+00 -0.36324708904E+01 -0.18068189431E+02  0.18454440044E+02  0.00000000000E+00 0. -1.
</event>
<event>
 8    1  0.2994958E-010  0.9118800E+02  0.7816164E-02  0.1184000E+00
        -11   -1    0    0    0    0  0.00000000000E+00  0.00000000000E+00  0.45593999997E+02  0.45594000000E+02  0.51100000000E-03 0. -1.
         11   -1    0    0    0    0 -0.00000000000E+00 -0.00000000000E+00 -0.45593999997E+02  0.45594000000E+02  0.51100000000E-03 0.  1.
         23    2    1    2    0    0  0.00000000000E+00  0.00000000000E+00  0.00000000000E+00  0.91188000000E+02  0.91188000000E+02 0.  0.
    9900012    2    3    3    0    0 -0.14101252966E+02  0.13783864063E+02 -0.38662429468E+02  0.47787266180E+02  0.19999977820E+02 0.  0.
         12    1    3    3    0    0  0.14101252966E+02 -0.13783864063E+02  0.38662429468E+02  0.43400733820E+02  0.00000000000E+00 0. -1.
         11    1    4    4    0    0 -0.76845472803E+01  0.32568259360E+01 -0.31931481177E+02  0.33004222040E+02  0.51100000000E-03 0. -1.
        -11    1    4    4    0    0 -0.17227639764E+01  0.34786232099E+01 -0.46602232752E+01  0.60651806560E+01  0.51100000000E-03 0.  1.
         12    1    4    4    0    0 -0.46939417095E+01  0.70484149175E+01 -0.20707250163E+01  0.87178634833E+01  0.00000000000E+00 0. -1.
</event>
<event>
 8    1  0.2994958E-010  0.9118800E+02  0.7816164E-02  0.1184000E+00
        -11   -1    0    0    0    0  0.00000000000E+00  0.00000000000E+00  0.45593999997E+02  0.45594000000E+02  0.51100000000E-03 0. -1.
         11   -1    0    0    0    0 -0.00000000000E+00 -0.00000000000E+00 -0.45593999997E+02  0.45594000000E+02  0.51100000000E-03 0.  1.
         23    2    1    2    0    0  0.00000000000E+00 -0.17763568394E-14  0.00000000000E+00  0.91188000000E+02  0.91188000000E+02 0.  0.
    9900012    2    3    3    0    0  0.89477378358E+01 -0.70494597155E+01 -0.41879185470E+02  0.47787273390E+02  0.20000010693E+02 0.  0.
         12    1    3    3    0    0 -0.89477378358E+01  0.70494597155E+01  0.41879185470E+02  0.43400726610E+02  0.00000000000E+00 0. -1.
         11    1    4    4    0    0  0.82070197864E+01 -0.53391572662E+01 -0.10964823930E+02  0.14699970686E+02  0.51100000000E-03 0. -1.
        -11    1    4    4    0    0 -0.22952086276E+01 -0.58689460618E+01 -0.12987048618E+02  0.14435232682E+02  0.51100000000E-03 0.  1.
        -12    1    4    4    0    0  0.30359266770E+01  0.41586436126E+01 -0.17927312922E+02  0.18652070022E+02  0.00000000000E+00 0.  1.
</event>
<event>
 8    1  0.2994958E-010  0.9118800E+02  0.7816164E-02  0.1184000E+00
        -11   -1    0    0    0    0  0.00000000000E+00  0.00000000000E+00  0.45593999997E+02  0.45594000000E+02  0.51100000000E-03 0. -1.
         11   -1    0    0    0    0 -0.00000000000E+00 -0.00000000000E+00 -0.45593999997E+02  0.45594000000E+02  0.51100000000E-03 0.  1.
         23    2    1    2    0    0  0.00000000000E+00  0.00000000000E+00 -0.35527136788E-14  0.91188000000E+02  0.91188000000E+02 0.  0.
    9900012    2    3    3    0    0 -0.15881097858E+02  0.32058689787E+02  0.24569375472E+02  0.47787273380E+02  0.20000010649E+02 0.  0.
        -12    1    3    3    0    0  0.15881097858E+02 -0.32058689787E+02 -0.24569375472E+02  0.43400726620E+02  0.00000000000E+00 0.  1.
         11    1    4    4    0    0 -0.42485985046E+01  0.15141315752E+02  0.49545467104E+01  0.16488103752E+02  0.51100000000E-03 0. -1.
        -11    1    4    4    0    0 -0.70597441860E+01  0.48319638047E+01  0.96346770954E+00  0.86090726835E+01  0.51100000000E-03 0.  1.
         12    1    4    4    0    0 -0.45727551674E+01  0.12085410230E+02  0.18651361052E+02  0.22690096945E+02  0.00000000000E+00 0. -1.
</event>
<event>
 8    1  0.2994958E-010  0.9118800E+02  0.7816164E-02  0.1184000E+00
        -11   -1    0    0    0    0  0.00000000000E+00  0.00000000000E+00  0.45593999997E+02  0.45594000000E+02  0.51100000000E-03 0. -1.
         11   -1    0    0    0    0 -0.00000000000E+00 -0.00000000000E+00 -0.45593999997E+02  0.45594000000E+02  0.51100000000E-03 0.  1.
         23    2    1    2    0    0  0.00000000000E+00  0.71054273576E-14  0.00000000000E+00  0.91188000000E+02  0.91188000000E+02 0.  0.
    9900012    2    3    3    0    0  0.95079231430E+01 -0.38406730115E+02 -0.17836633089E+02  0.47787274193E+02  0.20000014355E+02 0.  0.
         12    1    3    3    0    0 -0.95079231430E+01  0.38406730115E+02  0.17836633089E+02  0.43400725807E+02  0.00000000000E+00 0. -1.
         11    1    4    4    0    0  0.17290115791E+01 -0.92564133821E+01  0.29808557693E+01  0.98770527547E+01  0.51100000000E-03 0. -1.
        -11    1    4    4    0    0 -0.41857040036E+00 -0.14845818956E+02 -0.70935776690E+01  0.16458808768E+02  0.51100000000E-03 0.  1.
         12    1    4    4    0    0  0.81974819642E+01 -0.14304497777E+02 -0.13723911189E+02  0.21451412670E+02  0.00000000000E+00 0. -1.
</event>
<event>
 8    1  0.2994958E-010  0.9118800E+02  0.7816164E-02  0.1184000E+00
        -11   -1    0    0    0    0  0.00000000000E+00  0.00000000000E+00  0.45593999997E+02  0.45594000000E+02  0.51100000000E-03 0. -1.
         11   -1    0    0    0    0 -0.00000000000E+00 -0.00000000000E+00 -0.45593999997E+02  0.45594000000E+02  0.51100000000E-03 0.  1.
         23    2    1    2    0    0  0.00000000000E+00  0.17763568394E-14  0.00000000000E+00  0.91188000000E+02  0.91188000000E+02 0.  0.
    9900012    2    3    3    0    0  0.58238652649E+01 -0.45524632103E+01  0.42766601252E+02  0.47787256797E+02  0.19999935039E+02 0.  0.
        -12    1    3    3    0    0 -0.58238652649E+01  0.45524632103E+01 -0.42766601252E+02  0.43400743203E+02  0.00000000000E+00 0.  1.
         11    1    4    4    0    0  0.26899709163E-01  0.48346164367E+01  0.14671683706E+02  0.15447735844E+02  0.51100000000E-03 0.  1.
        -11    1    4    4    0    0  0.54715470904E+01 -0.29083394618E+00  0.17670871546E+02  0.18500867909E+02  0.51100000000E-03 0. -1.
         12    1    4    4    0    0  0.32541846533E+00 -0.90962457008E+01  0.10424046001E+02  0.13838653043E+02  0.00000000000E+00 0. -1.
</event>
<event>
 8    1  0.2994958E-010  0.9118800E+02  0.7816164E-02  0.1184000E+00
        -11   -1    0    0    0    0  0.00000000000E+00  0.00000000000E+00  0.45593999997E+02  0.45594000000E+02  0.51100000000E-03 0. -1.
         11   -1    0    0    0    0 -0.00000000000E+00 -0.00000000000E+00 -0.45593999997E+02  0.45594000000E+02  0.51100000000E-03 0.  1.
         23    2    1    2    0    0  0.00000000000E+00  0.00000000000E+00  0.00000000000E+00  0.91188000000E+02  0.91188000000E+02 0.  0.
    9900012    2    3    3    0    0 -0.32970428199E+02 -0.13804610978E+02  0.24617207602E+02  0.47787270398E+02  0.19999997053E+02 0.  0.
        -12    1    3    3    0    0  0.32970428199E+02  0.13804610978E+02 -0.24617207602E+02  0.43400729602E+02  0.00000000000E+00 0.  1.
         11    1    4    4    0    0  0.27811723894E+00  0.16994959955E+01 -0.20461089491E+00  0.17342150145E+01  0.51100000000E-03 0.  1.
        -11    1    4    4    0    0  0.47505403122E+00  0.45981665270E+00 -0.60939998205E+00  0.89915309371E+00  0.51100000000E-03 0. -1.
         12    1    4    4    0    0 -0.33723599469E+02 -0.15963923626E+02  0.25431218478E+02  0.45153902290E+02  0.00000000000E+00 0. -1.
</event>
<event>
 8    1  0.2994958E-010  0.9118800E+02  0.7816164E-02  0.1184000E+00
        -11   -1    0    0    0    0  0.00000000000E+00  0.00000000000E+00  0.45593999997E+02  0.45594000000E+02  0.51100000000E-03 0.  1.
         11   -1    0    0    0    0 -0.00000000000E+00 -0.00000000000E+00 -0.45593999997E+02  0.45594000000E+02  0.51100000000E-03 0. -1.
         23    2    1    2    0    0  0.35527136788E-14 -0.71054273576E-14  0.00000000000E+00  0.91188000000E+02  0.91188000000E+02 0.  0.
    9900012    2    3    3    0    0 -0.31968629717E+02  0.27860752916E+02  0.92416807276E+01  0.47787268420E+02  0.19999988033E+02 0.  0.
        -12    1    3    3    0    0  0.31968629717E+02 -0.27860752916E+02 -0.92416807276E+01  0.43400731580E+02  0.00000000000E+00 0.  1.
         11    1    4    4    0    0 -0.13945738241E+02  0.16627942360E+02  0.39354349558E+01  0.22055832126E+02  0.51100000000E-03 0. -1.
        -11    1    4    4    0    0 -0.64461885180E+01  0.52990817962E+01  0.89352873381E+01  0.12225914050E+02  0.51100000000E-03 0.  1.
        -12    1    4    4    0    0 -0.11576702959E+02  0.59337287590E+01 -0.36290415663E+01  0.13505522244E+02  0.00000000000E+00 0.  1.
</event>
<event>
 8    1  0.2994958E-010  0.9118800E+02  0.7816164E-02  0.1184000E+00
        -11   -1    0    0    0    0  0.00000000000E+00  0.00000000000E+00  0.45593999997E+02  0.45594000000E+02  0.51100000000E-03 0. -1.
         11   -1    0    0    0    0 -0.00000000000E+00 -0.00000000000E+00 -0.45593999997E+02  0.45594000000E+02  0.51100000000E-03 0.  1.
         23    2    1    2    0    0  0.71054273576E-14  0.17763568394E-14  0.00000000000E+00  0.91188000000E+02  0.91188000000E+02 0.  0.
    9900012    2    3    3    0    0 -0.33048640614E+02 -0.13982009930E+02 -0.24411351902E+02  0.47787270170E+02  0.19999996014E+02 0.  0.
         12    1    3    3    0    0  0.33048640614E+02  0.13982009930E+02  0.24411351902E+02  0.43400729830E+02  0.00000000000E+00 0. -1.
         11    1    4    4    0    0 -0.77611078697E+01 -0.21256275577E+01 -0.50569935919E+01  0.95040134853E+01  0.51100000000E-03 0. -1.
        -11    1    4    4    0    0 -0.24346614257E+02 -0.45860854553E+01 -0.10825269631E+02  0.27036572794E+02  0.51100000000E-03 0.  1.
         12    1    4    4    0    0 -0.94091848708E+00 -0.72702969166E+01 -0.85290886788E+01  0.11246683891E+02  0.00000000000E+00 0. -1.
</event>
<event>
 8    1  0.2994958E-010  0.9118800E+02  0.7816164E-02  0.1184000E+00
        -11   -1    0    0    0    0  0.00000000000E+00  0.00000000000E+00  0.45593999997E+02  0.45594000000E+02  0.51100000000E-03 0. -1.
         11   -1    0    0    0    0 -0.00000000000E+00 -0.00000000000E+00 -0.45593999997E+02  0.45594000000E+02  0.51100000000E-03 0.  1.
         23    2    1    2    0    0 -0.17763568394E-14  0.00000000000E+00  0.00000000000E+00  0.91188000000E+02  0.91188000000E+02 0.  0.
    9900012    2    3    3    0    0  0.14610812987E+02 -0.12870464731E+02 -0.38787869742E+02  0.47787267775E+02  0.19999985092E+02 0.  0.
         12    1    3    3    0    0 -0.14610812987E+02  0.12870464731E+02  0.38787869742E+02  0.43400732225E+02  0.00000000000E+00 0. -1.
         11    1    4    4    0    0 -0.89753428331E+00 -0.31246554509E+01 -0.55208564909E+01  0.64069412461E+01  0.51100000000E-03 0. -1.
        -11    1    4    4    0    0  0.10629141754E+02 -0.86085724280E+01 -0.33681872482E+02  0.36353193916E+02  0.51100000000E-03 0.  1.
         12    1    4    4    0    0  0.48792055164E+01 -0.11372368518E+01  0.41485923103E+00  0.50271326131E+01  0.00000000000E+00 0. -1.
</event>
<event>
 8    1  0.2994958E-010  0.9118800E+02  0.7816164E-02  0.1184000E+00
        -11   -1    0    0    0    0  0.00000000000E+00  0.00000000000E+00  0.45593999997E+02  0.45594000000E+02  0.51100000000E-03 0. -1.
         11   -1    0    0    0    0 -0.00000000000E+00 -0.00000000000E+00 -0.45593999997E+02  0.45594000000E+02  0.51100000000E-03 0.  1.
         23    2    1    2    0    0  0.00000000000E+00  0.00000000000E+00  0.00000000000E+00  0.91188000000E+02  0.91188000000E+02 0.  0.
    9900012    2    3    3    0    0  0.17424178111E+01  0.30905311104E+02 -0.30421186383E+02  0.47787275868E+02  0.20000021991E+02 0.  0.
         12    1    3    3    0    0 -0.17424178111E+01 -0.30905311104E+02  0.30421186383E+02  0.43400724132E+02  0.00000000000E+00 0. -1.
         11    1    4    4    0    0 -0.21328652781E+00  0.28016852716E+01  0.17635573095E+01  0.33173884532E+01  0.51100000000E-03 0. -1.
        -11    1    4    4    0    0  0.24443755835E+00  0.57167300320E+01 -0.64981186235E+00  0.57587331677E+01  0.51100000000E-03 0.  1.
        -12    1    4    4    0    0  0.17112667806E+01  0.22386895800E+02 -0.31534931830E+02  0.38711154247E+02  0.00000000000E+00 0.  1.
</event>
<event>
 8    1  0.2994958E-010  0.9118800E+02  0.7816164E-02  0.1184000E+00
        -11   -1    0    0    0    0  0.00000000000E+00  0.00000000000E+00  0.45593999997E+02  0.45594000000E+02  0.51100000000E-03 0. -1.
         11   -1    0    0    0    0 -0.00000000000E+00 -0.00000000000E+00 -0.45593999997E+02  0.45594000000E+02  0.51100000000E-03 0.  1.
         23    2    1    2    0    0  0.00000000000E+00 -0.44408920985E-15  0.00000000000E+00  0.91188000000E+02  0.91188000000E+02 0.  0.
    9900012    2    3    3    0    0 -0.36143775765E+02  0.37025470197E+01 -0.23739043714E+02  0.47787267547E+02  0.19999984056E+02 0.  0.
         12    1    3    3    0    0  0.36143775765E+02 -0.37025470197E+01  0.23739043714E+02  0.43400732453E+02  0.00000000000E+00 0. -1.
         11    1    4    4    0    0  0.27224467931E+00  0.34798694881E+01 -0.35444227823E+01  0.49745896253E+01  0.51100000000E-03 0. -1.
        -11    1    4    4    0    0 -0.16454317653E+02  0.47770774283E+01 -0.11055518177E+02  0.20390917601E+02  0.51100000000E-03 0.  1.
         12    1    4    4    0    0 -0.19961702791E+02 -0.45543998968E+01 -0.91391027547E+01  0.22421760321E+02  0.00000000000E+00 0. -1.
</event>
<event>
 8    1  0.2994958E-010  0.9118800E+02  0.7816164E-02  0.1184000E+00
        -11   -1    0    0    0    0  0.00000000000E+00  0.00000000000E+00  0.45593999997E+02  0.45594000000E+02  0.51100000000E-03 0. -1.
         11   -1    0    0    0    0 -0.00000000000E+00 -0.00000000000E+00 -0.45593999997E+02  0.45594000000E+02  0.51100000000E-03 0.  1.
         23    2    1    2    0    0  0.00000000000E+00  0.88817841970E-15  0.00000000000E+00  0.91188000000E+02  0.91188000000E+02 0.  0.
    9900012    2    3    3    0    0  0.26734849660E+02  0.48334817895E+01  0.33845363351E+02  0.47787270133E+02  0.19999995846E+02 0.  0.
        -12    1    3    3    0    0 -0.26734849660E+02 -0.48334817895E+01 -0.33845363351E+02  0.43400729867E+02  0.00000000000E+00 0.  1.
         11    1    4    4    0    0  0.17914885094E+01  0.28000464583E+01  0.61915600726E+01  0.70274538520E+01  0.51100000000E-03 0.  1.
        -11    1    4    4    0    0  0.19978558056E+02  0.63974446721E+01  0.12987582097E+02  0.24672806271E+02  0.51100000000E-03 0. -1.
         12    1    4    4    0    0  0.49648030952E+01 -0.43640093410E+01  0.14666221182E+02  0.16087010010E+02  0.00000000000E+00 0. -1.
</event>
<event>
 8    1  0.2994958E-010  0.9118800E+02  0.7816164E-02  0.1184000E+00
        -11   -1    0    0    0    0  0.00000000000E+00  0.00000000000E+00  0.45593999997E+02  0.45594000000E+02  0.51100000000E-03 0. -1.
         11   -1    0    0    0    0 -0.00000000000E+00 -0.00000000000E+00 -0.45593999997E+02  0.45594000000E+02  0.51100000000E-03 0.  1.
         23    2    1    2    0    0  0.35527136788E-14 -0.13322676296E-14  0.00000000000E+00  0.91188000000E+02  0.91188000000E+02 0.  0.
    9900012    2    3    3    0    0  0.19251371754E+02  0.35004021034E+01 -0.38739588060E+02  0.47787264841E+02  0.19999971717E+02 0.  0.
         12    1    3    3    0    0 -0.19251371754E+02 -0.35004021034E+01  0.38739588060E+02  0.43400735159E+02  0.00000000000E+00 0. -1.
         11    1    4    4    0    0  0.12543243796E+02 -0.49443255092E+01 -0.12526885792E+02  0.18403863387E+02  0.51100000000E-03 0. -1.
        -11    1    4    4    0    0 -0.99665641561E+00 -0.27425193860E+00 -0.57652739744E+01  0.58572111450E+01  0.51100000000E-03 0.  1.
        -12    1    4    4    0    0  0.77047843736E+01  0.87189795513E+01 -0.20447428294E+02  0.23526190310E+02  0.00000000000E+00 0.  1.
</event>
<event>
 8    1  0.2994958E-010  0.9118800E+02  0.7816164E-02  0.1184000E+00
        -11   -1    0    0    0    0  0.00000000000E+00  0.00000000000E+00  0.45593999997E+02  0.45594000000E+02  0.51100000000E-03 0. -1.
         11   -1    0    0    0    0 -0.00000000000E+00 -0.00000000000E+00 -0.45593999997E+02  0.45594000000E+02  0.51100000000E-03 0.  1.
         23    2    1    2    0    0  0.00000000000E+00  0.00000000000E+00  0.35527136788E-14  0.91188000000E+02  0.91188000000E+02 0.  0.
    9900012    2    3    3    0    0  0.29417977826E+02 -0.25948436241E+02  0.18571077387E+02  0.47787266388E+02  0.19999978771E+02 0.  0.
        -12    1    3    3    0    0 -0.29417977826E+02  0.25948436241E+02 -0.18571077387E+02  0.43400733612E+02  0.00000000000E+00 0.  1.
         11    1    4    4    0    0  0.32741222150E+01  0.63294428225E-02 -0.16314557480E+01  0.36580820739E+01  0.51100000000E-03 0. -1.
        -11    1    4    4    0    0  0.54165677725E+01 -0.63010781434E+01 -0.12552822600E+01  0.84034829693E+01  0.51100000000E-03 0.  1.
         12    1    4    4    0    0  0.20727287839E+02 -0.19653687540E+02  0.21457815395E+02  0.35725701345E+02  0.00000000000E+00 0. -1.
</event>
<event>
 8    1  0.2994958E-010  0.9118800E+02  0.7816164E-02  0.1184000E+00
        -11   -1    0    0    0    0  0.00000000000E+00  0.00000000000E+00  0.45593999997E+02  0.45594000000E+02  0.51100000000E-03 0. -1.
         11   -1    0    0    0    0 -0.00000000000E+00 -0.00000000000E+00 -0.45593999997E+02  0.45594000000E+02  0.51100000000E-03 0.  1.
         23    2    1    2    0    0  0.35527136788E-14  0.00000000000E+00 -0.35527136788E-14  0.91188000000E+02  0.91188000000E+02 0.  0.
    9900012    2    3    3    0    0 -0.27985591630E+02 -0.19565955883E+02  0.26788075906E+02  0.47787297480E+02  0.20000120529E+02 0.  0.
        -12    1    3    3    0    0  0.27985591630E+02  0.19565955883E+02 -0.26788075906E+02  0.43400702520E+02  0.00000000000E+00 0.  1.
         11    1    4    4    0    0 -0.20597662158E+02 -0.62620019627E+01  0.19691103987E+02  0.29175605074E+02  0.51100000000E-03 0. -1.
        -11    1    4    4    0    0 -0.56404254126E+01 -0.46830901137E+01  0.64958364024E+01  0.97949794628E+01  0.51100000000E-03 0.  1.
        -12    1    4    4    0    0 -0.17475040593E+01 -0.86208638065E+01  0.60113551688E+00  0.88167129429E+01  0.00000000000E+00 0.  1.
</event>
<event>
 8    1  0.2994958E-010  0.9118800E+02  0.7816164E-02  0.1184000E+00
        -11   -1    0    0    0    0  0.00000000000E+00  0.00000000000E+00  0.45593999997E+02  0.45594000000E+02  0.51100000000E-03 0. -1.
         11   -1    0    0    0    0 -0.00000000000E+00 -0.00000000000E+00 -0.45593999997E+02  0.45594000000E+02  0.51100000000E-03 0.  1.
         23    2    1    2    0    0 -0.88817841970E-15  0.00000000000E+00  0.00000000000E+00  0.91188000000E+02  0.91188000000E+02 0.  0.
    9900012    2    3    3    0    0  0.64078306187E+01 -0.39768029602E+02  0.16157537544E+02  0.47787280062E+02  0.20000041113E+02 0.  0.
        -12    1    3    3    0    0 -0.64078306187E+01  0.39768029602E+02 -0.16157537544E+02  0.43400719938E+02  0.00000000000E+00 0.  1.
         11    1    4    4    0    0  0.36363248693E+01 -0.16507636333E+02 -0.77581110582E-01  0.16903577578E+02  0.51100000000E-03 0. -1.
        -11    1    4    4    0    0  0.28449255685E+01 -0.13560159421E+00  0.44646703025E+00  0.28829364115E+01  0.51100000000E-03 0.  1.
        -12    1    4    4    0    0 -0.73419819084E-01 -0.23124791675E+02  0.15788651624E+02  0.28000766072E+02  0.00000000000E+00 0.  1.
</event>
<event>
 8    1  0.2994958E-010  0.9118800E+02  0.7816164E-02  0.1184000E+00
        -11   -1    0    0    0    0  0.00000000000E+00  0.00000000000E+00  0.45593999997E+02  0.45594000000E+02  0.51100000000E-03 0. -1.
         11   -1    0    0    0    0 -0.00000000000E+00 -0.00000000000E+00 -0.45593999997E+02  0.45594000000E+02  0.51100000000E-03 0.  1.
         23    2    1    2    0    0  0.00000000000E+00  0.00000000000E+00  0.35527136788E-14  0.91188000000E+02  0.91188000000E+02 0.  0.
    9900012    2    3    3    0    0 -0.10010366085E+01  0.34956485838E+02  0.25703406238E+02  0.47787273408E+02  0.20000010779E+02 0.  0.
        -12    1    3    3    0    0  0.10010366085E+01 -0.34956485838E+02 -0.25703406238E+02  0.43400726592E+02  0.00000000000E+00 0.  1.
         11    1    4    4    0    0  0.11307971702E+01  0.69905125091E+01 -0.10650985535E+01  0.71610336244E+01  0.51100000000E-03 0. -1.
        -11    1    4    4    0    0 -0.33449870424E+01  0.59703281719E+01  0.13237023923E+01  0.69703619044E+01  0.51100000000E-03 0.  1.
         12    1    4    4    0    0  0.12131532637E+01  0.21995645157E+02  0.25444802399E+02  0.33655877880E+02  0.00000000000E+00 0. -1.
</event>
<event>
 8    1  0.2994958E-010  0.9118800E+02  0.7816164E-02  0.1184000E+00
        -11   -1    0    0    0    0  0.00000000000E+00  0.00000000000E+00  0.45593999997E+02  0.45594000000E+02  0.51100000000E-03 0. -1.
         11   -1    0    0    0    0 -0.00000000000E+00 -0.00000000000E+00 -0.45593999997E+02  0.45594000000E+02  0.51100000000E-03 0.  1.
         23    2    1    2    0    0  0.00000000000E+00  0.00000000000E+00  0.00000000000E+00  0.91188000000E+02  0.91188000000E+02 0.  0.
    9900012    2    3    3    0    0  0.12669929634E+02 -0.37218582649E+01 -0.41343001329E+02  0.47787272993E+02  0.20000008882E+02 0.  0.
         12    1    3    3    0    0 -0.12669929634E+02  0.37218582649E+01  0.41343001329E+02  0.43400727007E+02  0.00000000000E+00 0. -1.
         11    1    4    4    0    0 -0.23476627772E+01  0.13715700940E+01 -0.67686333907E+01  0.72943213034E+01  0.51100000000E-03 0. -1.
        -11    1    4    4    0    0  0.18059086245E+01  0.36104695121E+01 -0.13810709402E+02  0.14388623649E+02  0.51100000000E-03 0.  1.
        -12    1    4    4    0    0  0.13211683787E+02 -0.87038978709E+01 -0.20763658537E+02  0.26104328041E+02  0.00000000000E+00 0.  1.
</event>
<event>
 8    1  0.2994958E-010  0.9118800E+02  0.7816164E-02  0.1184000E+00
        -11   -1    0    0    0    0  0.00000000000E+00  0.00000000000E+00  0.45593999997E+02  0.45594000000E+02  0.51100000000E-03 0.  1.
         11   -1    0    0    0    0 -0.00000000000E+00 -0.00000000000E+00 -0.45593999997E+02  0.45594000000E+02  0.51100000000E-03 0. -1.
         23    2    1    2    0    0  0.00000000000E+00 -0.71054273576E-14 -0.22204460493E-15  0.91188000000E+02  0.91188000000E+02 0.  0.
    9900012    2    3    3    0    0 -0.75697695994E+01 -0.42692983846E+02 -0.19055480766E+01  0.47787269650E+02  0.19999993643E+02 0.  0.
         12    1    3    3    0    0  0.75697695994E+01  0.42692983846E+02  0.19055480766E+01  0.43400730350E+02  0.00000000000E+00 0. -1.
         11    1    4    4    0    0  0.10206429275E+01 -0.85932841509E+00 -0.31945459736E+00  0.13719361543E+01  0.51100000000E-03 0. -1.
        -11    1    4    4    0    0 -0.12398567478E+02 -0.30634673708E+02 -0.63681592676E+01  0.33656517369E+02  0.51100000000E-03 0.  1.
        -12    1    4    4    0    0  0.38081549513E+01 -0.11198981723E+02  0.47820657884E+01  0.12758816127E+02  0.00000000000E+00 0.  1.
</event>
<event>
 8    1  0.2994958E-010  0.9118800E+02  0.7816164E-02  0.1184000E+00
        -11   -1    0    0    0    0  0.00000000000E+00  0.00000000000E+00  0.45593999997E+02  0.45594000000E+02  0.51100000000E-03 0. -1.
         11   -1    0    0    0    0 -0.00000000000E+00 -0.00000000000E+00 -0.45593999997E+02  0.45594000000E+02  0.51100000000E-03 0.  1.
         23    2    1    2    0    0 -0.71054273576E-14 -0.17763568394E-14 -0.35527136788E-14  0.91188000000E+02  0.91188000000E+02 0.  0.
    9900012    2    3    3    0    0  0.35827396916E+02  0.94809821574E+01  0.22586097554E+02  0.47787271951E+02  0.20000004134E+02 0.  0.
        -12    1    3    3    0    0 -0.35827396916E+02 -0.94809821574E+01 -0.22586097554E+02  0.43400728049E+02  0.00000000000E+00 0.  1.
         11    1    4    4    0    0  0.11291645102E+02  0.71601177782E+01  0.65127690412E+01  0.14872279467E+02  0.51100000000E-03 0. -1.
        -11    1    4    4    0    0 -0.11693661029E+01  0.10739029774E+01  0.43586859557E+01  0.46388391014E+01  0.51100000000E-03 0.  1.
         12    1    4    4    0    0  0.25705117917E+02  0.12469614018E+01  0.11714642557E+02  0.28276153382E+02  0.00000000000E+00 0. -1.
</event>
<event>
 8    1  0.2994958E-010  0.9118800E+02  0.7816164E-02  0.1184000E+00
        -11   -1    0    0    0    0  0.00000000000E+00  0.00000000000E+00  0.45593999997E+02  0.45594000000E+02  0.51100000000E-03 0. -1.
         11   -1    0    0    0    0 -0.00000000000E+00 -0.00000000000E+00 -0.45593999997E+02  0.45594000000E+02  0.51100000000E-03 0.  1.
         23    2    1    2    0    0  0.00000000000E+00 -0.17763568394E-14  0.00000000000E+00  0.91188000000E+02  0.91188000000E+02 0.  0.
    9900012    2    3    3    0    0  0.18714573413E+02 -0.95004369656E+01 -0.37988546050E+02  0.47787271993E+02  0.20000004325E+02 0.  0.
         12    1    3    3    0    0 -0.18714573413E+02  0.95004369656E+01  0.37988546050E+02  0.43400728007E+02  0.00000000000E+00 0. -1.
         11    1    4    4    0    0  0.30779633171E+01  0.53692696210E+00 -0.17852691349E+00  0.31295400403E+01  0.51100000000E-03 0. -1.
        -11    1    4    4    0    0  0.15380240356E+02 -0.76677424616E+01 -0.18691834275E+02  0.25391548529E+02  0.51100000000E-03 0.  1.
         12    1    4    4    0    0  0.25636973962E+00 -0.23696214661E+01 -0.19118184861E+02  0.19266183424E+02  0.00000000000E+00 0. -1.
</event>
<event>
 8    1  0.2994958E-010  0.9118800E+02  0.7816164E-02  0.1184000E+00
        -11   -1    0    0    0    0  0.00000000000E+00  0.00000000000E+00  0.45593999997E+02  0.45594000000E+02  0.51100000000E-03 0. -1.
         11   -1    0    0    0    0 -0.00000000000E+00 -0.00000000000E+00 -0.45593999997E+02  0.45594000000E+02  0.51100000000E-03 0.  1.
         23    2    1    2    0    0  0.17763568394E-14  0.00000000000E+00  0.00000000000E+00  0.91188000000E+02  0.91188000000E+02 0.  0.
    9900012    2    3    3    0    0 -0.12624157482E+02 -0.10825336669E+02 -0.40088235138E+02  0.47787264262E+02  0.19999969076E+02 0.  0.
         12    1    3    3    0    0  0.12624157482E+02  0.10825336669E+02  0.40088235138E+02  0.43400735738E+02  0.00000000000E+00 0. -1.
         11    1    4    4    0    0 -0.27166705804E+01 -0.58872547093E+01 -0.36505765240E+01  0.74408854495E+01  0.51100000000E-03 0. -1.
        -11    1    4    4    0    0 -0.35532721304E+01 -0.33596833809E+00 -0.55016106787E+00  0.36112733237E+01  0.51100000000E-03 0.  1.
        -12    1    4    4    0    0 -0.63542147712E+01 -0.46021136214E+01 -0.35887497546E+02  0.36735105489E+02  0.00000000000E+00 0.  1.
</event>
<event>
 8    1  0.2994958E-010  0.9118800E+02  0.7816164E-02  0.1184000E+00
        -11   -1    0    0    0    0  0.00000000000E+00  0.00000000000E+00  0.45593999997E+02  0.45594000000E+02  0.51100000000E-03 0. -1.
         11   -1    0    0    0    0 -0.00000000000E+00 -0.00000000000E+00 -0.45593999997E+02  0.45594000000E+02  0.51100000000E-03 0.  1.
         23    2    1    2    0    0  0.00000000000E+00 -0.71054273576E-14 -0.44408920985E-15  0.91188000000E+02  0.91188000000E+02 0.  0.
    9900012    2    3    3    0    0  0.20950100324E+02  0.37994539113E+02 -0.10636980277E+01  0.47787272363E+02  0.20000006010E+02 0.  0.
        -12    1    3    3    0    0 -0.20950100324E+02 -0.37994539113E+02  0.10636980277E+01  0.43400727637E+02  0.00000000000E+00 0.  1.
         11    1    4    4    0    0  0.12877955698E+01  0.75297115207E+00  0.24939596255E+00  0.15124753197E+01  0.51100000000E-03 0.  1.
        -11    1    4    4    0    0  0.76671840700E+01  0.13195423664E+01  0.25964086071E+01  0.82017218641E+01  0.51100000000E-03 0. -1.
         12    1    4    4    0    0  0.11995120684E+02  0.35922025594E+02 -0.39095025973E+01  0.38073075179E+02  0.00000000000E+00 0. -1.
</event>
<event>
 8    1  0.2994958E-010  0.9118800E+02  0.7816164E-02  0.1184000E+00
        -11   -1    0    0    0    0  0.00000000000E+00  0.00000000000E+00  0.45593999997E+02  0.45594000000E+02  0.51100000000E-03 0. -1.
         11   -1    0    0    0    0 -0.00000000000E+00 -0.00000000000E+00 -0.45593999997E+02  0.45594000000E+02  0.51100000000E-03 0.  1.
         23    2    1    2    0    0  0.00000000000E+00  0.00000000000E+00  0.00000000000E+00  0.91188000000E+02  0.91188000000E+02 0.  0.
    9900012    2    3    3    0    0 -0.24934911560E+02  0.76685979714E+01  0.34685241030E+02  0.47787272418E+02  0.20000006263E+02 0.  0.
        -12    1    3    3    0    0  0.24934911560E+02 -0.76685979714E+01 -0.34685241030E+02  0.43400727582E+02  0.00000000000E+00 0.  1.
         11    1    4    4    0    0 -0.80391643655E+01  0.45242499822E+01  0.89703114708E+01  0.12867147692E+02  0.51100000000E-03 0. -1.
        -11    1    4    4    0    0 -0.15459939606E+02 -0.32389506221E+01  0.22848770878E+02  0.27777092444E+02  0.51100000000E-03 0.  1.
        -12    1    4    4    0    0 -0.14358075880E+01  0.63832986113E+01  0.28661586818E+01  0.71430322818E+01  0.00000000000E+00 0.  1.
</event>
<event>
 8    1  0.2994958E-010  0.9118800E+02  0.7816164E-02  0.1184000E+00
        -11   -1    0    0    0    0  0.00000000000E+00  0.00000000000E+00  0.45593999997E+02  0.45594000000E+02  0.51100000000E-03 0. -1.
         11   -1    0    0    0    0 -0.00000000000E+00 -0.00000000000E+00 -0.45593999997E+02  0.45594000000E+02  0.51100000000E-03 0.  1.
         23    2    1    2    0    0  0.00000000000E+00  0.17763568394E-14 -0.35527136788E-14  0.91188000000E+02  0.91188000000E+02 0.  0.
    9900012    2    3    3    0    0  0.35504427148E+02  0.81492547503E+01 -0.23593433919E+02  0.47787253184E+02  0.19999918567E+02 0.  0.
         12    1    3    3    0    0 -0.35504427148E+02 -0.81492547503E+01  0.23593433919E+02  0.43400746816E+02  0.00000000000E+00 0. -1.
         11    1    4    4    0    0  0.98858749206E+01 -0.19911550937E+01 -0.23717011875E+01  0.10359545759E+02  0.51100000000E-03 0. -1.
        -11    1    4    4    0    0  0.59462992914E+01  0.49972191284E+01  0.36054721293E+00  0.77756458789E+01  0.51100000000E-03 0.  1.
        -12    1    4    4    0    0  0.19672252936E+02  0.51431907156E+01 -0.21582279945E+02  0.29652061546E+02  0.00000000000E+00 0.  1.
</event>
<event>
 8    1  0.2994958E-010  0.9118800E+02  0.7816164E-02  0.1184000E+00
        -11   -1    0    0    0    0  0.00000000000E+00  0.00000000000E+00  0.45593999997E+02  0.45594000000E+02  0.51100000000E-03 0. -1.
         11   -1    0    0    0    0 -0.00000000000E+00 -0.00000000000E+00 -0.45593999997E+02  0.45594000000E+02  0.51100000000E-03 0.  1.
         23    2    1    2    0    0  0.00000000000E+00  0.00000000000E+00  0.00000000000E+00  0.91188000000E+02  0.91188000000E+02 0.  0.
    9900012    2    3    3    0    0  0.17054609737E+02 -0.29666866143E+02  0.26695326952E+02  0.47787272574E+02  0.20000006972E+02 0.  0.
        -12    1    3    3    0    0 -0.17054609737E+02  0.29666866143E+02 -0.26695326952E+02  0.43400727426E+02  0.00000000000E+00 0.  1.
         11    1    4    4    0    0  0.11677598796E+02 -0.19489949224E+02  0.14392843535E+02  0.26895694445E+02  0.51100000000E-03 0. -1.
        -11    1    4    4    0    0  0.15530138453E+01 -0.66962935199E+01 -0.68938419562E+00  0.69085056082E+01  0.51100000000E-03 0.  1.
         12    1    4    4    0    0  0.38239970961E+01 -0.34806233990E+01  0.12991867613E+02  0.13983072521E+02  0.00000000000E+00 0. -1.
</event>
<event>
 8    1  0.2994958E-010  0.9118800E+02  0.7816164E-02  0.1184000E+00
        -11   -1    0    0    0    0  0.00000000000E+00  0.00000000000E+00  0.45593999997E+02  0.45594000000E+02  0.51100000000E-03 0. -1.
         11   -1    0    0    0    0 -0.00000000000E+00 -0.00000000000E+00 -0.45593999997E+02  0.45594000000E+02  0.51100000000E-03 0.  1.
         23    2    1    2    0    0  0.35527136788E-14  0.00000000000E+00 -0.35527136788E-14  0.91188000000E+02  0.91188000000E+02 0.  0.
    9900012    2    3    3    0    0 -0.19331029927E+02  0.22758398403E+02  0.31495871613E+02  0.47787270230E+02  0.19999996285E+02 0.  0.
        -12    1    3    3    0    0  0.19331029927E+02 -0.22758398403E+02 -0.31495871613E+02  0.43400729770E+02  0.00000000000E+00 0.  1.
         11    1    4    4    0    0 -0.31352345404E+01  0.80221497175E+01  0.12273415052E+02  0.14994042118E+02  0.51100000000E-03 0. -1.
        -11    1    4    4    0    0 -0.54709888772E+00  0.10280102915E+02  0.76973951084E+01  0.12854171496E+02  0.51100000000E-03 0.  1.
         12    1    4    4    0    0 -0.15648696499E+02  0.44561457707E+01  0.11525061452E+02  0.19939056616E+02  0.00000000000E+00 0. -1.
</event>
<event>
 8    1  0.2994958E-010  0.9118800E+02  0.7816164E-02  0.1184000E+00
        -11   -1    0    0    0    0  0.00000000000E+00  0.00000000000E+00  0.45593999997E+02  0.45594000000E+02  0.51100000000E-03 0. -1.
         11   -1    0    0    0    0 -0.00000000000E+00 -0.00000000000E+00 -0.45593999997E+02  0.45594000000E+02  0.51100000000E-03 0.  1.
         23    2    1    2    0    0  0.00000000000E+00 -0.22204460493E-15  0.00000000000E+00  0.91188000000E+02  0.91188000000E+02 0.  0.
    9900012    2    3    3    0    0 -0.27635399970E+02 -0.33302795360E+00 -0.33463368753E+02  0.47787270888E+02  0.19999999288E+02 0.  0.
         12    1    3    3    0    0  0.27635399970E+02  0.33302795360E+00  0.33463368753E+02  0.43400729112E+02  0.00000000000E+00 0. -1.
         11    1    4    4    0    0 -0.90331338537E+01  0.33167067456E+01 -0.79839773434E+01  0.12503677273E+02  0.51100000000E-03 0. -1.
        -11    1    4    4    0    0 -0.19570434978E+02 -0.51216080542E+00 -0.25307099539E+02  0.31995523456E+02  0.51100000000E-03 0.  1.
         12    1    4    4    0    0  0.96816886165E+00 -0.31375738938E+01 -0.17229187105E+00  0.32880701593E+01  0.00000000000E+00 0. -1.
</event>
<event>
 8    1  0.2994958E-010  0.9118800E+02  0.7816164E-02  0.1184000E+00
        -11   -1    0    0    0    0  0.00000000000E+00  0.00000000000E+00  0.45593999997E+02  0.45594000000E+02  0.51100000000E-03 0. -1.
         11   -1    0    0    0    0 -0.00000000000E+00 -0.00000000000E+00 -0.45593999997E+02  0.45594000000E+02  0.51100000000E-03 0.  1.
         23    2    1    2    0    0 -0.17763568394E-14  0.88817841970E-15  0.00000000000E+00  0.91188000000E+02  0.91188000000E+02 0.  0.
    9900012    2    3    3    0    0  0.14131228598E+02  0.74841999714E+01  0.40347469488E+02  0.47787272299E+02  0.20000005718E+02 0.  0.
        -12    1    3    3    0    0 -0.14131228598E+02 -0.74841999714E+01 -0.40347469488E+02  0.43400727701E+02  0.00000000000E+00 0.  1.
         11    1    4    4    0    0  0.29584245883E+01  0.78870676600E+01  0.19916342449E+02  0.21624495581E+02  0.51100000000E-03 0. -1.
        -11    1    4    4    0    0  0.85937901975E+01  0.52582589029E+01  0.13573294699E+02  0.16903752420E+02  0.51100000000E-03 0.  1.
         12    1    4    4    0    0  0.25790138120E+01 -0.56611265915E+01  0.68578323410E+01  0.92590242976E+01  0.00000000000E+00 0. -1.
</event>
<event>
 8    1  0.2994958E-010  0.9118800E+02  0.7816164E-02  0.1184000E+00
        -11   -1    0    0    0    0  0.00000000000E+00  0.00000000000E+00  0.45593999997E+02  0.45594000000E+02  0.51100000000E-03 0. -1.
         11   -1    0    0    0    0 -0.00000000000E+00 -0.00000000000E+00 -0.45593999997E+02  0.45594000000E+02  0.51100000000E-03 0.  1.
         23    2    1    2    0    0  0.00000000000E+00 -0.17763568394E-14  0.71054273576E-14  0.91188000000E+02  0.91188000000E+02 0.  0.
    9900012    2    3    3    0    0  0.90531427341E+01 -0.83972320684E+01 -0.41607094881E+02  0.47787271386E+02  0.20000001559E+02 0.  0.
         12    1    3    3    0    0 -0.90531427341E+01  0.83972320684E+01  0.41607094881E+02  0.43400728614E+02  0.00000000000E+00 0. -1.
         11    1    4    4    0    0 -0.33206573970E+00  0.44172536576E+01 -0.62414045005E+01  0.76535957517E+01  0.51100000000E-03 0. -1.
        -11    1    4    4    0    0  0.66928872852E+01 -0.21806873982E+01 -0.20386179381E+02  0.21567254061E+02  0.51100000000E-03 0.  1.
        -12    1    4    4    0    0  0.26923211886E+01 -0.10633798328E+02 -0.14979510999E+02  0.18566421573E+02  0.00000000000E+00 0.  1.
</event>
<event>
 8    1  0.2994958E-010  0.9118800E+02  0.7816164E-02  0.1184000E+00
        -11   -1    0    0    0    0  0.00000000000E+00  0.00000000000E+00  0.45593999997E+02  0.45594000000E+02  0.51100000000E-03 0. -1.
         11   -1    0    0    0    0 -0.00000000000E+00 -0.00000000000E+00 -0.45593999997E+02  0.45594000000E+02  0.51100000000E-03 0.  1.
         23    2    1    2    0    0  0.88817841970E-15  0.44408920985E-15  0.00000000000E+00  0.91188000000E+02  0.91188000000E+02 0.  0.
    9900012    2    3    3    0    0 -0.51208935743E+01  0.29280454508E+01 -0.42997984354E+02  0.47787266600E+02  0.19999979737E+02 0.  0.
         12    1    3    3    0    0  0.51208935743E+01 -0.29280454508E+01  0.42997984354E+02  0.43400733400E+02  0.00000000000E+00 0. -1.
         11    1    4    4    0    0 -0.31179407278E+01  0.14300063963E+01 -0.26326995459E+01  0.43240698232E+01  0.51100000000E-03 0. -1.
        -11    1    4    4    0    0  0.10099420370E+01  0.81676246730E+01 -0.15580898659E+02  0.17620853526E+02  0.51100000000E-03 0.  1.
         12    1    4    4    0    0 -0.30128948835E+01 -0.66695856186E+01 -0.24784386149E+02  0.25842343251E+02  0.00000000000E+00 0. -1.
</event>
<event>
 8    1  0.2994958E-010  0.9118800E+02  0.7816164E-02  0.1184000E+00
        -11   -1    0    0    0    0  0.00000000000E+00  0.00000000000E+00  0.45593999997E+02  0.45594000000E+02  0.51100000000E-03 0. -1.
         11   -1    0    0    0    0 -0.00000000000E+00 -0.00000000000E+00 -0.45593999997E+02  0.45594000000E+02  0.51100000000E-03 0.  1.
         23    2    1    2    0    0  0.00000000000E+00  0.00000000000E+00  0.00000000000E+00  0.91188000000E+02  0.91188000000E+02 0.  0.
    9900012    2    3    3    0    0  0.12173604567E+02 -0.38247248731E+02 -0.16509829351E+02  0.47787272484E+02  0.20000006565E+02 0.  0.
         12    1    3    3    0    0 -0.12173604567E+02  0.38247248731E+02  0.16509829351E+02  0.43400727516E+02  0.00000000000E+00 0. -1.
         11    1    4    4    0    0  0.75422264116E+00 -0.73374379868E+00  0.88308752480E+00  0.13737086999E+01  0.51100000000E-03 0. -1.
        -11    1    4    4    0    0 -0.99676494223E-02 -0.64664591863E+01 -0.10936922714E+02  0.12705568562E+02  0.51100000000E-03 0.  1.
        -12    1    4    4    0    0  0.11429349576E+02 -0.31047045746E+02 -0.64559941618E+01  0.33707995223E+02  0.00000000000E+00 0.  1.
</event>
<event>
 8    1  0.2994958E-010  0.9118800E+02  0.7816164E-02  0.1184000E+00
        -11   -1    0    0    0    0  0.00000000000E+00  0.00000000000E+00  0.45593999997E+02  0.45594000000E+02  0.51100000000E-03 0. -1.
         11   -1    0    0    0    0 -0.00000000000E+00 -0.00000000000E+00 -0.45593999997E+02  0.45594000000E+02  0.51100000000E-03 0.  1.
         23    2    1    2    0    0  0.00000000000E+00  0.44408920985E-15  0.00000000000E+00  0.91188000000E+02  0.91188000000E+02 0.  0.
    9900012    2    3    3    0    0  0.93044288371E+01 -0.27067895183E+01 -0.42305133647E+02  0.47787269149E+02  0.19999991360E+02 0.  0.
         12    1    3    3    0    0 -0.93044288371E+01  0.27067895183E+01  0.42305133647E+02  0.43400730851E+02  0.00000000000E+00 0. -1.
         11    1    4    4    0    0  0.15195882495E+01 -0.14870511740E+01  0.14393478653E+01  0.25675264713E+01  0.51100000000E-03 0. -1.
        -11    1    4    4    0    0  0.39651143286E+01 -0.40706502973E+01 -0.14227040761E+02  0.15319954783E+02  0.51100000000E-03 0.  1.
         12    1    4    4    0    0  0.38197262590E+01  0.28509119530E+01 -0.29517440751E+02  0.29899787895E+02  0.00000000000E+00 0. -1.
</event>
<event>
 8    1  0.2994958E-010  0.9118800E+02  0.7816164E-02  0.1184000E+00
        -11   -1    0    0    0    0  0.00000000000E+00  0.00000000000E+00  0.45593999997E+02  0.45594000000E+02  0.51100000000E-03 0. -1.
         11   -1    0    0    0    0 -0.00000000000E+00 -0.00000000000E+00 -0.45593999997E+02  0.45594000000E+02  0.51100000000E-03 0.  1.
         23    2    1    2    0    0  0.35527136788E-14  0.17763568394E-14  0.71054273576E-14  0.91188000000E+02  0.91188000000E+02 0.  0.
    9900012    2    3    3    0    0  0.16491506946E+02  0.10465299402E+02  0.38757338278E+02  0.47787267710E+02  0.19999984795E+02 0.  0.
        -12    1    3    3    0    0 -0.16491506946E+02 -0.10465299402E+02 -0.38757338278E+02  0.43400732290E+02  0.00000000000E+00 0.  1.
         11    1    4    4    0    0  0.49704514375E+01  0.73025175214E+01  0.18799771858E+02  0.20771701226E+02  0.51100000000E-03 0. -1.
        -11    1    4    4    0    0  0.21221954991E+01 -0.24943162280E+01  0.14304564973E+02  0.14674668872E+02  0.51100000000E-03 0.  1.
        -12    1    4    4    0    0  0.93988600097E+01  0.56570981088E+01  0.56530014474E+01  0.12340897612E+02  0.00000000000E+00 0.  1.
</event>
<event>
 8    1  0.2994958E-010  0.9118800E+02  0.7816164E-02  0.1184000E+00
        -11   -1    0    0    0    0  0.00000000000E+00  0.00000000000E+00  0.45593999997E+02  0.45594000000E+02  0.51100000000E-03 0. -1.
         11   -1    0    0    0    0 -0.00000000000E+00 -0.00000000000E+00 -0.45593999997E+02  0.45594000000E+02  0.51100000000E-03 0.  1.
         23    2    1    2    0    0  0.00000000000E+00 -0.44408920985E-15  0.00000000000E+00  0.91188000000E+02  0.91188000000E+02 0.  0.
    9900012    2    3    3    0    0  0.29739232473E+02  0.34660488401E+01  0.31419549935E+02  0.47787267739E+02  0.19999984930E+02 0.  0.
        -12    1    3    3    0    0 -0.29739232473E+02 -0.34660488401E+01 -0.31419549935E+02  0.43400732261E+02  0.00000000000E+00 0.  1.
         11    1    4    4    0    0  0.42729684277E+01 -0.72378250678E+00 -0.14248803092E+01  0.45620614264E+01  0.51100000000E-03 0. -1.
        -11    1    4    4    0    0  0.14123727834E+02  0.36033913262E+01  0.98901622092E+01  0.17614750233E+02  0.51100000000E-03 0.  1.
         12    1    4    4    0    0  0.11342536212E+02  0.58644002070E+00  0.22954268035E+02  0.25610456080E+02  0.00000000000E+00 0. -1.
</event>
<event>
 8    1  0.2994958E-010  0.9118800E+02  0.7816164E-02  0.1184000E+00
        -11   -1    0    0    0    0  0.00000000000E+00  0.00000000000E+00  0.45593999997E+02  0.45594000000E+02  0.51100000000E-03 0. -1.
         11   -1    0    0    0    0 -0.00000000000E+00 -0.00000000000E+00 -0.45593999997E+02  0.45594000000E+02  0.51100000000E-03 0.  1.
         23    2    1    2    0    0  0.66613381478E-15  0.00000000000E+00  0.00000000000E+00  0.91188000000E+02  0.91188000000E+02 0.  0.
    9900012    2    3    3    0    0  0.71449411273E+00 -0.42245374033E+01 -0.43188731430E+02  0.47787265667E+02  0.19999975483E+02 0.  0.
         12    1    3    3    0    0 -0.71449411273E+00  0.42245374033E+01  0.43188731430E+02  0.43400734333E+02  0.00000000000E+00 0. -1.
         11    1    4    4    0    0 -0.18707324015E+01 -0.56908956268E+01 -0.58945420665E+01  0.84042583961E+01  0.51100000000E-03 0. -1.
        -11    1    4    4    0    0 -0.46160045060E+01 -0.14995427153E+01 -0.15230844731E+02  0.15985454558E+02  0.51100000000E-03 0.  1.
         12    1    4    4    0    0  0.72012310202E+01  0.29659009388E+01 -0.22063344632E+02  0.23397552713E+02  0.00000000000E+00 0. -1.
</event>
<event>
 8    1  0.2994958E-010  0.9118800E+02  0.7816164E-02  0.1184000E+00
        -11   -1    0    0    0    0  0.00000000000E+00  0.00000000000E+00  0.45593999997E+02  0.45594000000E+02  0.51100000000E-03 0. -1.
         11   -1    0    0    0    0 -0.00000000000E+00 -0.00000000000E+00 -0.45593999997E+02  0.45594000000E+02  0.51100000000E-03 0.  1.
         23    2    1    2    0    0 -0.35527136788E-14  0.00000000000E+00 -0.35527136788E-14  0.91188000000E+02  0.91188000000E+02 0.  0.
    9900012    2    3    3    0    0 -0.29418209148E+02  0.53937107270E+01 -0.31449961719E+02  0.47787271469E+02  0.20000001936E+02 0.  0.
         12    1    3    3    0    0  0.29418209148E+02 -0.53937107270E+01  0.31449961719E+02  0.43400728531E+02  0.00000000000E+00 0. -1.
         11    1    4    4    0    0 -0.19009879929E+02  0.42435057983E+00 -0.94889644338E+01  0.21250789506E+02  0.51100000000E-03 0. -1.
        -11    1    4    4    0    0 -0.46813941711E+01 -0.17750478340E+01 -0.36371388116E+01  0.61882974391E+01  0.51100000000E-03 0.  1.
        -12    1    4    4    0    0 -0.57269350479E+01  0.67444079812E+01 -0.18323858474E+02  0.20348184524E+02  0.00000000000E+00 0.  1.
</event>
<event>
 8    1  0.2994958E-010  0.9118800E+02  0.7816164E-02  0.1184000E+00
        -11   -1    0    0    0    0  0.00000000000E+00  0.00000000000E+00  0.45593999997E+02  0.45594000000E+02  0.51100000000E-03 0. -1.
         11   -1    0    0    0    0 -0.00000000000E+00 -0.00000000000E+00 -0.45593999997E+02  0.45594000000E+02  0.51100000000E-03 0.  1.
         23    2    1    2    0    0  0.00000000000E+00  0.00000000000E+00  0.00000000000E+00  0.91188000000E+02  0.91188000000E+02 0.  0.
    9900012    2    3    3    0    0  0.79790667027E+01 -0.34209729797E+02 -0.25488276788E+02  0.47787269916E+02  0.19999994856E+02 0.  0.
         12    1    3    3    0    0 -0.79790667027E+01  0.34209729797E+02  0.25488276788E+02  0.43400730084E+02  0.00000000000E+00 0. -1.
         11    1    4    4    0    0 -0.17068620171E+01 -0.12727056650E+02 -0.18137595291E+02  0.22223044618E+02  0.51100000000E-03 0. -1.
        -11    1    4    4    0    0 -0.98305408069E+00 -0.28323618422E+01 -0.93515759966E+00  0.31405714334E+01  0.51100000000E-03 0.  1.
         12    1    4    4    0    0  0.10668982801E+02 -0.18650311305E+02 -0.64155238974E+01  0.22423653865E+02  0.00000000000E+00 0. -1.
</event>
<event>
 8    1  0.2994958E-010  0.9118800E+02  0.7816164E-02  0.1184000E+00
        -11   -1    0    0    0    0  0.00000000000E+00  0.00000000000E+00  0.45593999997E+02  0.45594000000E+02  0.51100000000E-03 0. -1.
         11   -1    0    0    0    0 -0.00000000000E+00 -0.00000000000E+00 -0.45593999997E+02  0.45594000000E+02  0.51100000000E-03 0.  1.
         23    2    1    2    0    0  0.00000000000E+00  0.00000000000E+00  0.00000000000E+00  0.91188000000E+02  0.91188000000E+02 0.  0.
    9900012    2    3    3    0    0 -0.32231537649E+02  0.21006920299E+02 -0.20086333975E+02  0.47787268068E+02  0.19999986428E+02 0.  0.
         12    1    3    3    0    0  0.32231537649E+02 -0.21006920299E+02  0.20086333975E+02  0.43400731932E+02  0.00000000000E+00 0. -1.
         11    1    4    4    0    0 -0.10159570929E+02  0.77027691896E+01 -0.35061467007E+01  0.13222806041E+02  0.51100000000E-03 0. -1.
        -11    1    4    4    0    0 -0.21140568849E+02  0.91416582051E+01 -0.18822779734E+02  0.29745429955E+02  0.51100000000E-03 0.  1.
         12    1    4    4    0    0 -0.93139787132E+00  0.41624929043E+01  0.22425924596E+01  0.48190320722E+01  0.00000000000E+00 0. -1.
</event>
<event>
 8    1  0.2994958E-010  0.9118800E+02  0.7816164E-02  0.1184000E+00
        -11   -1    0    0    0    0  0.00000000000E+00  0.00000000000E+00  0.45593999997E+02  0.45594000000E+02  0.51100000000E-03 0. -1.
         11   -1    0    0    0    0 -0.00000000000E+00 -0.00000000000E+00 -0.45593999997E+02  0.45594000000E+02  0.51100000000E-03 0.  1.
         23    2    1    2    0    0 -0.71054273576E-14 -0.35527136788E-14  0.00000000000E+00  0.91188000000E+02  0.91188000000E+02 0.  0.
    9900012    2    3    3    0    0  0.33130462165E+02 -0.27516575163E+02  0.53697373217E+01  0.47787268314E+02  0.19999987551E+02 0.  0.
        -12    1    3    3    0    0 -0.33130462165E+02  0.27516575163E+02 -0.53697373217E+01  0.43400731686E+02  0.00000000000E+00 0.  1.
         11    1    4    4    0    0  0.10014215815E+02 -0.83030874577E+00  0.30094695657E+01  0.10489558538E+02  0.51100000000E-03 0. -1.
        -11    1    4    4    0    0  0.10144691392E+02 -0.36594965585E+01  0.30457052326E+00  0.10788857306E+02  0.51100000000E-03 0.  1.
        -12    1    4    4    0    0  0.12971554958E+02 -0.23026769859E+02  0.20556972328E+01  0.26508852470E+02  0.00000000000E+00 0.  1.
</event>
<event>
 8    1  0.2994958E-010  0.9118800E+02  0.7816164E-02  0.1184000E+00
        -11   -1    0    0    0    0  0.00000000000E+00  0.00000000000E+00  0.45593999997E+02  0.45594000000E+02  0.51100000000E-03 0. -1.
         11   -1    0    0    0    0 -0.00000000000E+00 -0.00000000000E+00 -0.45593999997E+02  0.45594000000E+02  0.51100000000E-03 0.  1.
         23    2    1    2    0    0 -0.35527136788E-14  0.13322676296E-14  0.35527136788E-14  0.91188000000E+02  0.91188000000E+02 0.  0.
    9900012    2    3    3    0    0  0.30133654683E+02  0.33597961643E+01 -0.31053149545E+02  0.47787268768E+02  0.19999989622E+02 0.  0.
         12    1    3    3    0    0 -0.30133654683E+02 -0.33597961643E+01  0.31053149545E+02  0.43400731232E+02  0.00000000000E+00 0. -1.
         11    1    4    4    0    0  0.11011175447E+02  0.94939469897E+01 -0.10087387229E+02  0.17695660359E+02  0.51100000000E-03 0. -1.
        -11    1    4    4    0    0  0.20939143979E+01  0.51284167378E+00 -0.62909970469E+01  0.66501224194E+01  0.51100000000E-03 0.  1.
         12    1    4    4    0    0  0.17028564838E+02 -0.66469924992E+01 -0.14674765268E+02  0.23441485990E+02  0.00000000000E+00 0. -1.
</event>
<event>
 8    1  0.2994958E-010  0.9118800E+02  0.7816164E-02  0.1184000E+00
        -11   -1    0    0    0    0  0.00000000000E+00  0.00000000000E+00  0.45593999997E+02  0.45594000000E+02  0.51100000000E-03 0. -1.
         11   -1    0    0    0    0 -0.00000000000E+00 -0.00000000000E+00 -0.45593999997E+02  0.45594000000E+02  0.51100000000E-03 0.  1.
         23    2    1    2    0    0  0.00000000000E+00  0.00000000000E+00  0.00000000000E+00  0.91188000000E+02  0.91188000000E+02 0.  0.
    9900012    2    3    3    0    0 -0.26574231129E+02 -0.31725078805E+01  0.34166781283E+02  0.47787268329E+02  0.19999987618E+02 0.  0.
        -12    1    3    3    0    0  0.26574231129E+02  0.31725078805E+01 -0.34166781283E+02  0.43400731671E+02  0.00000000000E+00 0.  1.
         11    1    4    4    0    0 -0.12090684026E+02  0.17257409291E+01  0.48339129193E+01  0.13135049918E+02  0.51100000000E-03 0. -1.
        -11    1    4    4    0    0  0.12230446604E+01  0.33910864511E+00  0.42458735739E+00  0.13383226814E+01  0.51100000000E-03 0.  1.
         12    1    4    4    0    0 -0.15706591764E+02 -0.52373574547E+01  0.28908281006E+02  0.33313895730E+02  0.00000000000E+00 0. -1.
</event>
<event>
 8    1  0.2994958E-010  0.9118800E+02  0.7816164E-02  0.1184000E+00
        -11   -1    0    0    0    0  0.00000000000E+00  0.00000000000E+00  0.45593999997E+02  0.45594000000E+02  0.51100000000E-03 0. -1.
         11   -1    0    0    0    0 -0.00000000000E+00 -0.00000000000E+00 -0.45593999997E+02  0.45594000000E+02  0.51100000000E-03 0.  1.
         23    2    1    2    0    0  0.00000000000E+00 -0.35527136788E-14 -0.71054273576E-14  0.91188000000E+02  0.91188000000E+02 0.  0.
    9900012    2    3    3    0    0 -0.10671102862E+02  0.21826323115E+02  0.35963347298E+02  0.47787272289E+02  0.20000005674E+02 0.  0.
        -12    1    3    3    0    0  0.10671102862E+02 -0.21826323115E+02 -0.35963347298E+02  0.43400727711E+02  0.00000000000E+00 0.  1.
         11    1    4    4    0    0 -0.84372378325E+01  0.23883830909E+02  0.22178162936E+02  0.33667421532E+02  0.51100000000E-03 0. -1.
        -11    1    4    4    0    0 -0.49660641182E+00 -0.45894904001E+00  0.37712772196E+01  0.38314206605E+01  0.51100000000E-03 0.  1.
         12    1    4    4    0    0 -0.17372586177E+01 -0.15985587544E+01  0.10013907142E+02  0.10288430096E+02  0.00000000000E+00 0. -1.
</event>
<event>
 8    1  0.2994958E-010  0.9118800E+02  0.7816164E-02  0.1184000E+00
        -11   -1    0    0    0    0  0.00000000000E+00  0.00000000000E+00  0.45593999997E+02  0.45594000000E+02  0.51100000000E-03 0. -1.
         11   -1    0    0    0    0 -0.00000000000E+00 -0.00000000000E+00 -0.45593999997E+02  0.45594000000E+02  0.51100000000E-03 0.  1.
         23    2    1    2    0    0 -0.35527136788E-14  0.00000000000E+00  0.00000000000E+00  0.91188000000E+02  0.91188000000E+02 0.  0.
    9900012    2    3    3    0    0  0.20530953542E+02 -0.72516406203E+01 -0.37543534266E+02  0.47787270626E+02  0.19999998090E+02 0.  0.
         12    1    3    3    0    0 -0.20530953542E+02  0.72516406203E+01  0.37543534266E+02  0.43400729374E+02  0.00000000000E+00 0. -1.
         11    1    4    4    0    0  0.55335708619E+01 -0.17832942653E+01 -0.12912733505E+02  0.14161187512E+02  0.51100000000E-03 0. -1.
        -11    1    4    4    0    0  0.13580614218E+02  0.30848683690E+01 -0.17727839144E+02  0.22543863387E+02  0.51100000000E-03 0.  1.
         12    1    4    4    0    0  0.14167684615E+01 -0.85532147240E+01 -0.69029616170E+01  0.11082219727E+02  0.00000000000E+00 0. -1.
</event>
<event>
 8    1  0.2994958E-010  0.9118800E+02  0.7816164E-02  0.1184000E+00
        -11   -1    0    0    0    0  0.00000000000E+00  0.00000000000E+00  0.45593999997E+02  0.45594000000E+02  0.51100000000E-03 0. -1.
         11   -1    0    0    0    0 -0.00000000000E+00 -0.00000000000E+00 -0.45593999997E+02  0.45594000000E+02  0.51100000000E-03 0.  1.
         23    2    1    2    0    0 -0.44408920985E-15  0.00000000000E+00  0.00000000000E+00  0.91188000000E+02  0.91188000000E+02 0.  0.
    9900012    2    3    3    0    0  0.32820681642E+01 -0.26206969890E+02  0.34439017946E+02  0.47787271903E+02  0.20000003913E+02 0.  0.
        -12    1    3    3    0    0 -0.32820681642E+01  0.26206969890E+02 -0.34439017946E+02  0.43400728097E+02  0.00000000000E+00 0.  1.
         11    1    4    4    0    0  0.15327244081E+01  0.13925359187E+01 -0.93645094028E+00  0.22727386609E+01  0.51100000000E-03 0. -1.
        -11    1    4    4    0    0  0.16935422822E+00 -0.27605259471E+00 -0.37177955235E+00  0.49305799490E+00  0.51100000000E-03 0.  1.
         12    1    4    4    0    0  0.15799895280E+01 -0.27323453214E+02  0.35747248439E+02  0.45021475247E+02  0.00000000000E+00 0. -1.
</event>
<event>
 8    1  0.2994958E-010  0.9118800E+02  0.7816164E-02  0.1184000E+00
        -11   -1    0    0    0    0  0.00000000000E+00  0.00000000000E+00  0.45593999997E+02  0.45594000000E+02  0.51100000000E-03 0. -1.
         11   -1    0    0    0    0 -0.00000000000E+00 -0.00000000000E+00 -0.45593999997E+02  0.45594000000E+02  0.51100000000E-03 0.  1.
         23    2    1    2    0    0  0.00000000000E+00  0.00000000000E+00 -0.71054273576E-14  0.91188000000E+02  0.91188000000E+02 0.  0.
    9900012    2    3    3    0    0  0.20996013997E+02 -0.14548349866E+02 -0.35087555494E+02  0.47787266848E+02  0.19999980866E+02 0.  0.
         12    1    3    3    0    0 -0.20996013997E+02  0.14548349866E+02  0.35087555494E+02  0.43400733152E+02  0.00000000000E+00 0. -1.
         11    1    4    4    0    0  0.29811447863E+01 -0.10795162423E+01  0.11498386629E+01  0.33726412151E+01  0.51100000000E-03 0. -1.
        -11    1    4    4    0    0  0.51673274645E+01  0.91955093648E+00 -0.31678400604E+01  0.61304207001E+01  0.51100000000E-03 0.  1.
         12    1    4    4    0    0  0.12847541746E+02 -0.14388384561E+02 -0.33069554096E+02  0.38284204933E+02  0.00000000000E+00 0. -1.
</event>
<event>
 8    1  0.2994958E-010  0.9118800E+02  0.7816164E-02  0.1184000E+00
        -11   -1    0    0    0    0  0.00000000000E+00  0.00000000000E+00  0.45593999997E+02  0.45594000000E+02  0.51100000000E-03 0. -1.
         11   -1    0    0    0    0 -0.00000000000E+00 -0.00000000000E+00 -0.45593999997E+02  0.45594000000E+02  0.51100000000E-03 0.  1.
         23    2    1    2    0    0  0.00000000000E+00  0.44408920985E-15  0.00000000000E+00  0.91188000000E+02  0.91188000000E+02 0.  0.
    9900012    2    3    3    0    0 -0.24419612245E+01  0.21885155551E+01 -0.43276671754E+02  0.47787273128E+02  0.20000009498E+02 0.  0.
         12    1    3    3    0    0  0.24419612245E+01 -0.21885155551E+01  0.43276671754E+02  0.43400726872E+02  0.00000000000E+00 0. -1.
         11    1    4    4    0    0  0.38920352042E+00  0.35842376180E+01 -0.95110348422E+00  0.37286507991E+01  0.51100000000E-03 0. -1.
        -11    1    4    4    0    0 -0.10654058657E+01  0.49378468932E+01 -0.11848874046E+02  0.12880731269E+02  0.51100000000E-03 0.  1.
        -12    1    4    4    0    0 -0.17657588792E+01 -0.63335689561E+01 -0.30476694224E+02  0.31177891060E+02  0.00000000000E+00 0.  1.
</event>
<event>
 8    1  0.2994958E-010  0.9118800E+02  0.7816164E-02  0.1184000E+00
        -11   -1    0    0    0    0  0.00000000000E+00  0.00000000000E+00  0.45593999997E+02  0.45594000000E+02  0.51100000000E-03 0.  1.
         11   -1    0    0    0    0 -0.00000000000E+00 -0.00000000000E+00 -0.45593999997E+02  0.45594000000E+02  0.51100000000E-03 0. -1.
         23    2    1    2    0    0  0.00000000000E+00  0.00000000000E+00 -0.35527136788E-14  0.91188000000E+02  0.91188000000E+02 0.  0.
    9900012    2    3    3    0    0  0.35911720684E+02  0.12335332507E+02 -0.21019302982E+02  0.47787271799E+02  0.20000003440E+02 0.  0.
         12    1    3    3    0    0 -0.35911720684E+02 -0.12335332507E+02  0.21019302982E+02  0.43400728201E+02  0.00000000000E+00 0. -1.
         11    1    4    4    0    0  0.48569036957E+01 -0.13034279716E+01 -0.72402054466E+01  0.88152715873E+01  0.51100000000E-03 0. -1.
        -11    1    4    4    0    0  0.30828456288E+01  0.70730223807E+01 -0.26080529521E+01  0.81445394732E+01  0.51100000000E-03 0.  1.
        -12    1    4    4    0    0  0.27971971359E+02  0.65657380974E+01 -0.11171044584E+02  0.30827460738E+02  0.00000000000E+00 0.  1.
</event>
<event>
 8    1  0.2994958E-010  0.9118800E+02  0.7816164E-02  0.1184000E+00
        -11   -1    0    0    0    0  0.00000000000E+00  0.00000000000E+00  0.45593999997E+02  0.45594000000E+02  0.51100000000E-03 0. -1.
         11   -1    0    0    0    0 -0.00000000000E+00 -0.00000000000E+00 -0.45593999997E+02  0.45594000000E+02  0.51100000000E-03 0.  1.
         23    2    1    2    0    0 -0.44408920985E-15  0.00000000000E+00  0.00000000000E+00  0.91188000000E+02  0.91188000000E+02 0.  0.
    9900012    2    3    3    0    0 -0.31930062157E+01  0.24313618130E+02 -0.35808854852E+02  0.47787292620E+02  0.20000098371E+02 0.  0.
         12    1    3    3    0    0  0.31930062157E+01 -0.24313618130E+02  0.35808854852E+02  0.43400707380E+02  0.00000000000E+00 0. -1.
         11    1    4    4    0    0  0.28196704671E+01  0.87999229704E+01 -0.72929162160E+01  0.11771822842E+02  0.51100000000E-03 0. -1.
        -11    1    4    4    0    0  0.36927831914E-01  0.15900293977E+02 -0.21553785902E+02  0.26784069878E+02  0.51100000000E-03 0.  1.
         12    1    4    4    0    0 -0.60496045147E+01 -0.38659881780E+00 -0.69621527339E+01  0.92313999004E+01  0.00000000000E+00 0. -1.
</event>
<event>
 8    1  0.2994958E-010  0.9118800E+02  0.7816164E-02  0.1184000E+00
        -11   -1    0    0    0    0  0.00000000000E+00  0.00000000000E+00  0.45593999997E+02  0.45594000000E+02  0.51100000000E-03 0. -1.
         11   -1    0    0    0    0 -0.00000000000E+00 -0.00000000000E+00 -0.45593999997E+02  0.45594000000E+02  0.51100000000E-03 0.  1.
         23    2    1    2    0    0 -0.17763568394E-14  0.00000000000E+00  0.71054273576E-14  0.91188000000E+02  0.91188000000E+02 0.  0.
    9900012    2    3    3    0    0 -0.11858616493E+02 -0.21100829442E+02 -0.36024315632E+02  0.47787272989E+02  0.20000008867E+02 0.  0.
         12    1    3    3    0    0  0.11858616493E+02  0.21100829442E+02  0.36024315632E+02  0.43400727011E+02  0.00000000000E+00 0. -1.
         11    1    4    4    0    0 -0.55684489137E+01 -0.10537304891E+02 -0.22174177532E+02  0.25174124953E+02  0.51100000000E-03 0. -1.
        -11    1    4    4    0    0  0.22032147361E+01  0.68446044372E+00 -0.61147299891E+01  0.65354850144E+01  0.51100000000E-03 0.  1.
         12    1    4    4    0    0 -0.84933823155E+01 -0.11247984995E+02 -0.77354081113E+01  0.16077663022E+02  0.00000000000E+00 0. -1.
</event>
<event>
 8    1  0.2994958E-010  0.9118800E+02  0.7816164E-02  0.1184000E+00
        -11   -1    0    0    0    0  0.00000000000E+00  0.00000000000E+00  0.45593999997E+02  0.45594000000E+02  0.51100000000E-03 0. -1.
         11   -1    0    0    0    0 -0.00000000000E+00 -0.00000000000E+00 -0.45593999997E+02  0.45594000000E+02  0.51100000000E-03 0.  1.
         23    2    1    2    0    0  0.00000000000E+00 -0.17763568394E-14  0.71054273576E-14  0.91188000000E+02  0.91188000000E+02 0.  0.
    9900012    2    3    3    0    0  0.26168810951E+02  0.93190628643E+01 -0.33346238461E+02  0.47787271680E+02  0.20000002896E+02 0.  0.
         12    1    3    3    0    0 -0.26168810951E+02 -0.93190628643E+01  0.33346238461E+02  0.43400728320E+02  0.00000000000E+00 0. -1.
         11    1    4    4    0    0  0.18087591517E+01  0.56574824812E+01 -0.74066359141E+01  0.94940493741E+01  0.51100000000E-03 0. -1.
        -11    1    4    4    0    0  0.17687805672E+02  0.86788068409E+01 -0.19783339934E+02  0.27920614192E+02  0.51100000000E-03 0.  1.
         12    1    4    4    0    0  0.66722461273E+01 -0.50172264577E+01 -0.61562626127E+01  0.10372608113E+02  0.00000000000E+00 0. -1.
</event>
<event>
 8    1  0.2994958E-010  0.9118800E+02  0.7816164E-02  0.1184000E+00
        -11   -1    0    0    0    0  0.00000000000E+00  0.00000000000E+00  0.45593999997E+02  0.45594000000E+02  0.51100000000E-03 0. -1.
         11   -1    0    0    0    0 -0.00000000000E+00 -0.00000000000E+00 -0.45593999997E+02  0.45594000000E+02  0.51100000000E-03 0.  1.
         23    2    1    2    0    0  0.17763568394E-14  0.00000000000E+00 -0.35527136788E-14  0.91188000000E+02  0.91188000000E+02 0.  0.
    9900012    2    3    3    0    0  0.54889455471E+01  0.31302437855E+02 -0.29557615598E+02  0.47787265228E+02  0.19999973483E+02 0.  0.
         12    1    3    3    0    0 -0.54889455471E+01 -0.31302437855E+02  0.29557615598E+02  0.43400734772E+02  0.00000000000E+00 0. -1.
         11    1    4    4    0    0  0.69553784925E-01  0.14198820088E+02 -0.13539202909E+02  0.19619412461E+02  0.51100000000E-03 0. -1.
        -11    1    4    4    0    0  0.58402352486E+01  0.18894053581E+02 -0.10583111705E+02  0.22429798530E+02  0.51100000000E-03 0.  1.
         12    1    4    4    0    0 -0.42084348640E+00 -0.17904358148E+01 -0.54353009838E+01  0.57380542374E+01  0.00000000000E+00 0. -1.
</event>
<event>
 8    1  0.2994958E-010  0.9118800E+02  0.7816164E-02  0.1184000E+00
        -11   -1    0    0    0    0  0.00000000000E+00  0.00000000000E+00  0.45593999997E+02  0.45594000000E+02  0.51100000000E-03 0. -1.
         11   -1    0    0    0    0 -0.00000000000E+00 -0.00000000000E+00 -0.45593999997E+02  0.45594000000E+02  0.51100000000E-03 0.  1.
         23    2    1    2    0    0  0.35527136788E-14  0.00000000000E+00  0.00000000000E+00  0.91188000000E+02  0.91188000000E+02 0.  0.
    9900012    2    3    3    0    0 -0.31712198127E+02 -0.22988505329E+02  0.18694607557E+02  0.47787271446E+02  0.20000001831E+02 0.  0.
        -12    1    3    3    0    0  0.31712198127E+02  0.22988505329E+02 -0.18694607557E+02  0.43400728554E+02  0.00000000000E+00 0.  1.
         11    1    4    4    0    0 -0.16505376335E+02 -0.11584688163E+02  0.31643400959E+01  0.20411895951E+02  0.51100000000E-03 0. -1.
        -11    1    4    4    0    0 -0.41265721888E+01  0.22237770035E+01  0.15836356146E+01  0.49478969484E+01  0.51100000000E-03 0.  1.
        -12    1    4    4    0    0 -0.11080249603E+02 -0.13627594169E+02  0.13946631847E+02  0.22427478547E+02  0.00000000000E+00 0.  1.
</event>
<event>
 8    1  0.2994958E-010  0.9118800E+02  0.7816164E-02  0.1184000E+00
        -11   -1    0    0    0    0  0.00000000000E+00  0.00000000000E+00  0.45593999997E+02  0.45594000000E+02  0.51100000000E-03 0. -1.
         11   -1    0    0    0    0 -0.00000000000E+00 -0.00000000000E+00 -0.45593999997E+02  0.45594000000E+02  0.51100000000E-03 0.  1.
         23    2    1    2    0    0 -0.44408920985E-15  0.00000000000E+00  0.00000000000E+00  0.91188000000E+02  0.91188000000E+02 0.  0.
    9900012    2    3    3    0    0  0.10308763499E+01  0.32505641359E+02  0.28739236489E+02  0.47787272585E+02  0.20000007023E+02 0.  0.
        -12    1    3    3    0    0 -0.10308763499E+01 -0.32505641359E+02 -0.28739236489E+02  0.43400727415E+02  0.00000000000E+00 0.  1.
         11    1    4    4    0    0  0.22216906423E+00  0.10049608096E+02  0.70704158504E+01  0.12289620114E+02  0.51100000000E-03 0. -1.
        -11    1    4    4    0    0 -0.75998694587E+01  0.14560324007E+02  0.14556458521E+02  0.21946560913E+02  0.51100000000E-03 0.  1.
         12    1    4    4    0    0  0.84085767444E+01  0.78957092556E+01  0.71123621172E+01  0.13551091558E+02  0.00000000000E+00 0. -1.
</event>
<event>
 8    1  0.2994958E-010  0.9118800E+02  0.7816164E-02  0.1184000E+00
        -11   -1    0    0    0    0  0.00000000000E+00  0.00000000000E+00  0.45593999997E+02  0.45594000000E+02  0.51100000000E-03 0. -1.
         11   -1    0    0    0    0 -0.00000000000E+00 -0.00000000000E+00 -0.45593999997E+02  0.45594000000E+02  0.51100000000E-03 0.  1.
         23    2    1    2    0    0 -0.35527136788E-14  0.00000000000E+00 -0.17763568394E-14  0.91188000000E+02  0.91188000000E+02 0.  0.
    9900012    2    3    3    0    0 -0.20277014490E+02  0.34889352742E+02  0.15974950772E+02  0.47787270702E+02  0.19999998438E+02 0.  0.
        -12    1    3    3    0    0  0.20277014490E+02 -0.34889352742E+02 -0.15974950772E+02  0.43400729298E+02  0.00000000000E+00 0.  1.
         11    1    4    4    0    0 -0.95735281206E+01  0.21250504831E+02  0.10457712077E+02  0.25546039583E+02  0.51100000000E-03 0. -1.
        -11    1    4    4    0    0 -0.58196846128E+01  0.15242274458E+02  0.33140145271E+01  0.16648674188E+02  0.51100000000E-03 0.  1.
        -12    1    4    4    0    0 -0.48838017570E+01 -0.16034265466E+01  0.22032241685E+01  0.55925569312E+01  0.00000000000E+00 0.  1.
</event>
<event>
 8    1  0.2994958E-010  0.9118800E+02  0.7816164E-02  0.1184000E+00
        -11   -1    0    0    0    0  0.00000000000E+00  0.00000000000E+00  0.45593999997E+02  0.45594000000E+02  0.51100000000E-03 0. -1.
         11   -1    0    0    0    0 -0.00000000000E+00 -0.00000000000E+00 -0.45593999997E+02  0.45594000000E+02  0.51100000000E-03 0.  1.
         23    2    1    2    0    0  0.00000000000E+00  0.00000000000E+00  0.00000000000E+00  0.91188000000E+02  0.91188000000E+02 0.  0.
    9900012    2    3    3    0    0  0.16082000150E+02 -0.92297892867E+01 -0.39240323238E+02  0.47787277576E+02  0.20000029782E+02 0.  0.
         12    1    3    3    0    0 -0.16082000150E+02  0.92297892867E+01  0.39240323238E+02  0.43400722424E+02  0.00000000000E+00 0. -1.
         11    1    4    4    0    0  0.33810569055E+01  0.34031408473E+01 -0.22417802367E+02  0.22925330459E+02  0.51100000000E-03 0.  1.
        -11    1    4    4    0    0  0.31489723736E+00 -0.56455544820E+00  0.11405414438E+00  0.65642344044E+00  0.51100000000E-03 0. -1.
        -12    1    4    4    0    0  0.12386046007E+02 -0.12068374686E+02 -0.16936575015E+02  0.24205523677E+02  0.00000000000E+00 0.  1.
</event>
<event>
 8    1  0.2994958E-010  0.9118800E+02  0.7816164E-02  0.1184000E+00
        -11   -1    0    0    0    0  0.00000000000E+00  0.00000000000E+00  0.45593999997E+02  0.45594000000E+02  0.51100000000E-03 0. -1.
         11   -1    0    0    0    0 -0.00000000000E+00 -0.00000000000E+00 -0.45593999997E+02  0.45594000000E+02  0.51100000000E-03 0.  1.
         23    2    1    2    0    0  0.00000000000E+00  0.00000000000E+00  0.00000000000E+00  0.91188000000E+02  0.91188000000E+02 0.  0.
    9900012    2    3    3    0    0  0.15175022915E+02  0.32932662930E+02  0.23849142183E+02  0.47787271999E+02  0.20000004353E+02 0.  0.
        -12    1    3    3    0    0 -0.15175022915E+02 -0.32932662930E+02 -0.23849142183E+02  0.43400728001E+02  0.00000000000E+00 0.  1.
         11    1    4    4    0    0  0.13761827687E+02  0.28882767852E+02  0.13884287336E+02  0.34876576884E+02  0.51100000000E-03 0. -1.
        -11    1    4    4    0    0  0.50564293122E+00  0.54458074349E+01  0.41593475655E+01  0.68711473441E+01  0.51100000000E-03 0.  1.
        -12    1    4    4    0    0  0.90755229703E+00 -0.13959123568E+01  0.58055072817E+01  0.60395477710E+01  0.00000000000E+00 0.  1.
</event>
<event>
 8    1  0.2994958E-010  0.9118800E+02  0.7816164E-02  0.1184000E+00
        -11   -1    0    0    0    0  0.00000000000E+00  0.00000000000E+00  0.45593999997E+02  0.45594000000E+02  0.51100000000E-03 0. -1.
         11   -1    0    0    0    0 -0.00000000000E+00 -0.00000000000E+00 -0.45593999997E+02  0.45594000000E+02  0.51100000000E-03 0.  1.
         23    2    1    2    0    0  0.00000000000E+00 -0.35527136788E-14  0.00000000000E+00  0.91188000000E+02  0.91188000000E+02 0.  0.
    9900012    2    3    3    0    0  0.27532127814E+02 -0.23295009468E+02  0.24144309966E+02  0.47787271529E+02  0.20000002211E+02 0.  0.
        -12    1    3    3    0    0 -0.27532127814E+02  0.23295009468E+02 -0.24144309966E+02  0.43400728471E+02  0.00000000000E+00 0.  1.
         11    1    4    4    0    0  0.67841203968E+00  0.22948485141E+01  0.46061879556E+01  0.51907167464E+01  0.51100000000E-03 0.  1.
        -11    1    4    4    0    0  0.85291256945E+01 -0.38312324210E+01  0.38622659541E+01  0.10116393900E+02  0.51100000000E-03 0. -1.
        -12    1    4    4    0    0  0.18324590080E+02 -0.21758625561E+02  0.15675856056E+02  0.32480160883E+02  0.00000000000E+00 0.  1.
</event>
<event>
 8    1  0.2994958E-010  0.9118800E+02  0.7816164E-02  0.1184000E+00
        -11   -1    0    0    0    0  0.00000000000E+00  0.00000000000E+00  0.45593999997E+02  0.45594000000E+02  0.51100000000E-03 0. -1.
         11   -1    0    0    0    0 -0.00000000000E+00 -0.00000000000E+00 -0.45593999997E+02  0.45594000000E+02  0.51100000000E-03 0.  1.
         23    2    1    2    0    0  0.00000000000E+00  0.00000000000E+00  0.00000000000E+00  0.91188000000E+02  0.91188000000E+02 0.  0.
    9900012    2    3    3    0    0  0.34953060900E-01  0.27740796517E+02  0.33377688086E+02  0.47787273334E+02  0.20000010440E+02 0.  0.
        -12    1    3    3    0    0 -0.34953060900E-01 -0.27740796517E+02 -0.33377688086E+02  0.43400726666E+02  0.00000000000E+00 0.  1.
         11    1    4    4    0    0  0.53395840755E+00  0.14101989640E+02  0.13605603351E+02  0.19602644367E+02  0.51100000000E-03 0. -1.
        -11    1    4    4    0    0  0.48154307469E-01  0.10917305464E+02  0.31930106615E+01  0.11374761306E+02  0.51100000000E-03 0.  1.
        -12    1    4    4    0    0 -0.54715965412E+00  0.27215014137E+01  0.16579074073E+02  0.16809867661E+02  0.00000000000E+00 0.  1.
</event>
<event>
 8    1  0.2994958E-010  0.9118800E+02  0.7816164E-02  0.1184000E+00
        -11   -1    0    0    0    0  0.00000000000E+00  0.00000000000E+00  0.45593999997E+02  0.45594000000E+02  0.51100000000E-03 0. -1.
         11   -1    0    0    0    0 -0.00000000000E+00 -0.00000000000E+00 -0.45593999997E+02  0.45594000000E+02  0.51100000000E-03 0.  1.
         23    2    1    2    0    0  0.00000000000E+00 -0.55511151231E-16 -0.71054273576E-14  0.91188000000E+02  0.91188000000E+02 0.  0.
    9900012    2    3    3    0    0 -0.58467100928E+01  0.34315959912E+00  0.43003726798E+02  0.47787282311E+02  0.20000051369E+02 0.  0.
        -12    1    3    3    0    0  0.58467100928E+01 -0.34315959912E+00 -0.43003726798E+02  0.43400717689E+02  0.00000000000E+00 0.  1.
         11    1    4    4    0    0  0.17903529019E+01 -0.16714932632E+01  0.13396791270E+02  0.13618857141E+02  0.51100000000E-03 0. -1.
        -11    1    4    4    0    0  0.14939185350E+01  0.31563040476E+01  0.21867045713E+02  0.22144112904E+02  0.51100000000E-03 0.  1.
        -12    1    4    4    0    0 -0.91309815296E+01 -0.11416511853E+01  0.77398898149E+01  0.12024312266E+02  0.00000000000E+00 0.  1.
</event>
<event>
 8    1  0.2994958E-010  0.9118800E+02  0.7816164E-02  0.1184000E+00
        -11   -1    0    0    0    0  0.00000000000E+00  0.00000000000E+00  0.45593999997E+02  0.45594000000E+02  0.51100000000E-03 0.  1.
         11   -1    0    0    0    0 -0.00000000000E+00 -0.00000000000E+00 -0.45593999997E+02  0.45594000000E+02  0.51100000000E-03 0. -1.
         23    2    1    2    0    0  0.00000000000E+00 -0.71054273576E-14  0.00000000000E+00  0.91188000000E+02  0.91188000000E+02 0.  0.
    9900012    2    3    3    0    0 -0.11543154177E+02  0.41643267957E+02 -0.40268758244E+01  0.47787286833E+02  0.20000071987E+02 0.  0.
        -12    1    3    3    0    0  0.11543154177E+02 -0.41643267957E+02  0.40268758244E+01  0.43400713167E+02  0.00000000000E+00 0.  1.
         11    1    4    4    0    0 -0.10669830913E+02  0.93371360636E+01 -0.27652938715E+01  0.14445561673E+02  0.51100000000E-03 0. -1.
        -11    1    4    4    0    0  0.16115166392E+01  0.10827993856E+01 -0.52406836673E+00  0.20109918702E+01  0.51100000000E-03 0.  1.
        -12    1    4    4    0    0 -0.24848399037E+01  0.31223332508E+02 -0.73751358616E+00  0.31330733290E+02  0.00000000000E+00 0.  1.
</event>
<event>
 8    1  0.2994958E-010  0.9118800E+02  0.7816164E-02  0.1184000E+00
        -11   -1    0    0    0    0  0.00000000000E+00  0.00000000000E+00  0.45593999997E+02  0.45594000000E+02  0.51100000000E-03 0. -1.
         11   -1    0    0    0    0 -0.00000000000E+00 -0.00000000000E+00 -0.45593999997E+02  0.45594000000E+02  0.51100000000E-03 0.  1.
         23    2    1    2    0    0  0.17763568394E-14  0.00000000000E+00  0.71054273576E-14  0.91188000000E+02  0.91188000000E+02 0.  0.
    9900012    2    3    3    0    0  0.13336902688E+02 -0.16695343336E+02  0.37775859375E+02  0.47787274039E+02  0.20000013653E+02 0.  0.
        -12    1    3    3    0    0 -0.13336902688E+02  0.16695343336E+02 -0.37775859375E+02  0.43400725961E+02  0.00000000000E+00 0.  1.
         11    1    4    4    0    0  0.92056199261E+01 -0.13978536280E+02  0.28460423419E+02  0.33017247253E+02  0.51100000000E-03 0. -1.
        -11    1    4    4    0    0 -0.21777166847E+00  0.58670036818E-01  0.96002999192E+01  0.96029487905E+01  0.51100000000E-03 0.  1.
        -12    1    4    4    0    0  0.43490544302E+01 -0.27754770930E+01 -0.28486396271E+00  0.51670779951E+01  0.00000000000E+00 0.  1.
</event>
<event>
 8    1  0.2994958E-010  0.9118800E+02  0.7816164E-02  0.1184000E+00
        -11   -1    0    0    0    0  0.00000000000E+00  0.00000000000E+00  0.45593999997E+02  0.45594000000E+02  0.51100000000E-03 0. -1.
         11   -1    0    0    0    0 -0.00000000000E+00 -0.00000000000E+00 -0.45593999997E+02  0.45594000000E+02  0.51100000000E-03 0.  1.
         23    2    1    2    0    0  0.88817841970E-15  0.00000000000E+00  0.00000000000E+00  0.91188000000E+02  0.91188000000E+02 0.  0.
    9900012    2    3    3    0    0 -0.27789830936E+01  0.13657003448E+02 -0.41102152299E+02  0.47787269432E+02  0.19999992650E+02 0.  0.
         12    1    3    3    0    0  0.27789830936E+01 -0.13657003448E+02  0.41102152299E+02  0.43400730568E+02  0.00000000000E+00 0. -1.
         11    1    4    4    0    0 -0.57669814253E+00 -0.23067688853E+01 -0.13154433454E+01  0.27173801526E+01  0.51100000000E-03 0. -1.
        -11    1    4    4    0    0 -0.73052414205E+01  0.13730813572E+02 -0.30616741134E+02  0.34340743025E+02  0.51100000000E-03 0.  1.
         12    1    4    4    0    0  0.51029564694E+01  0.22329587616E+01 -0.91699678189E+01  0.10729146255E+02  0.00000000000E+00 0. -1.
</event>
<event>
 8    1  0.2994958E-010  0.9118800E+02  0.7816164E-02  0.1184000E+00
        -11   -1    0    0    0    0  0.00000000000E+00  0.00000000000E+00  0.45593999997E+02  0.45594000000E+02  0.51100000000E-03 0. -1.
         11   -1    0    0    0    0 -0.00000000000E+00 -0.00000000000E+00 -0.45593999997E+02  0.45594000000E+02  0.51100000000E-03 0.  1.
         23    2    1    2    0    0  0.00000000000E+00  0.00000000000E+00  0.00000000000E+00  0.91188000000E+02  0.91188000000E+02 0.  0.
    9900012    2    3    3    0    0  0.28941084409E+01 -0.16686014426E+02 -0.39960294607E+02  0.47787261686E+02  0.19999957330E+02 0.  0.
         12    1    3    3    0    0 -0.28941084409E+01  0.16686014426E+02  0.39960294607E+02  0.43400738314E+02  0.00000000000E+00 0. -1.
         11    1    4    4    0    0  0.12525299034E+01  0.42650324844E+00  0.55744840480E+00  0.14357872980E+01  0.51100000000E-03 0. -1.
        -11    1    4    4    0    0 -0.49763473960E+01 -0.97236668425E+01 -0.12346057002E+02  0.16484503451E+02  0.51100000000E-03 0.  1.
         12    1    4    4    0    0  0.66179259335E+01 -0.73888508323E+01 -0.28171686010E+02  0.29866970937E+02  0.00000000000E+00 0. -1.
</event>
<event>
 8    1  0.2994958E-010  0.9118800E+02  0.7816164E-02  0.1184000E+00
        -11   -1    0    0    0    0  0.00000000000E+00  0.00000000000E+00  0.45593999997E+02  0.45594000000E+02  0.51100000000E-03 0. -1.
         11   -1    0    0    0    0 -0.00000000000E+00 -0.00000000000E+00 -0.45593999997E+02  0.45594000000E+02  0.51100000000E-03 0.  1.
         23    2    1    2    0    0  0.00000000000E+00  0.00000000000E+00 -0.35527136788E-14  0.91188000000E+02  0.91188000000E+02 0.  0.
    9900012    2    3    3    0    0  0.16887036835E+02  0.25251739741E+02 -0.30996790199E+02  0.47787269872E+02  0.19999994652E+02 0.  0.
         12    1    3    3    0    0 -0.16887036835E+02 -0.25251739741E+02  0.30996790199E+02  0.43400730128E+02  0.00000000000E+00 0. -1.
         11    1    4    4    0    0  0.74937532053E+01  0.81541014449E+01 -0.95315907778E+01  0.14611534159E+02  0.51100000000E-03 0. -1.
        -11    1    4    4    0    0  0.13919033933E+02  0.14137182062E+02 -0.17686061056E+02  0.26578114648E+02  0.51100000000E-03 0.  1.
         12    1    4    4    0    0 -0.45257503034E+01  0.29604562339E+01 -0.37791383653E+01  0.65976210642E+01  0.00000000000E+00 0. -1.
</event>
<event>
 8    1  0.2994958E-010  0.9118800E+02  0.7816164E-02  0.1184000E+00
        -11   -1    0    0    0    0  0.00000000000E+00  0.00000000000E+00  0.45593999997E+02  0.45594000000E+02  0.51100000000E-03 0.  1.
         11   -1    0    0    0    0 -0.00000000000E+00 -0.00000000000E+00 -0.45593999997E+02  0.45594000000E+02  0.51100000000E-03 0. -1.
         23    2    1    2    0    0  0.17763568394E-14  0.71054273576E-14  0.00000000000E+00  0.91188000000E+02  0.91188000000E+02 0.  0.
    9900012    2    3    3    0    0  0.11612635072E+02  0.33914406626E+02 -0.24465959881E+02  0.47787268866E+02  0.19999990065E+02 0.  0.
         12    1    3    3    0    0 -0.11612635072E+02 -0.33914406626E+02  0.24465959881E+02  0.43400731134E+02  0.00000000000E+00 0. -1.
         11    1    4    4    0    0 -0.15406889714E+01  0.91058497927E+01 -0.52184819222E+01  0.10607675371E+02  0.51100000000E-03 0. -1.
        -11    1    4    4    0    0  0.95009068137E+01  0.21615842315E+02 -0.79993318262E+01  0.24929925375E+02  0.51100000000E-03 0.  1.
        -12    1    4    4    0    0  0.36524172294E+01  0.31927145187E+01 -0.11248146133E+02  0.12249668119E+02  0.00000000000E+00 0.  1.
</event>
<event>
 8    1  0.2994958E-010  0.9118800E+02  0.7816164E-02  0.1184000E+00
        -11   -1    0    0    0    0  0.00000000000E+00  0.00000000000E+00  0.45593999997E+02  0.45594000000E+02  0.51100000000E-03 0. -1.
         11   -1    0    0    0    0 -0.00000000000E+00 -0.00000000000E+00 -0.45593999997E+02  0.45594000000E+02  0.51100000000E-03 0.  1.
         23    2    1    2    0    0  0.83266726847E-15  0.00000000000E+00 -0.35527136788E-14  0.91188000000E+02  0.91188000000E+02 0.  0.
    9900012    2    3    3    0    0  0.13045102355E+00 -0.32942327021E+02 -0.28256137917E+02  0.47787271239E+02  0.20000000887E+02 0.  0.
         12    1    3    3    0    0 -0.13045102355E+00  0.32942327021E+02  0.28256137917E+02  0.43400728761E+02  0.00000000000E+00 0. -1.
         11    1    4    4    0    0  0.12276121929E+01 -0.39030513231E+00  0.68895843860E+00  0.14608332498E+01  0.51100000000E-03 0. -1.
        -11    1    4    4    0    0 -0.84163578209E+01 -0.18525305968E+02 -0.16505760575E+02  0.26200423137E+02  0.51100000000E-03 0.  1.
        -12    1    4    4    0    0  0.73191966515E+01 -0.14026715921E+02 -0.12439335780E+02  0.20126014852E+02  0.00000000000E+00 0.  1.
</event>
<event>
 8    1  0.2994958E-010  0.9118800E+02  0.7816164E-02  0.1184000E+00
        -11   -1    0    0    0    0  0.00000000000E+00  0.00000000000E+00  0.45593999997E+02  0.45594000000E+02  0.51100000000E-03 0. -1.
         11   -1    0    0    0    0 -0.00000000000E+00 -0.00000000000E+00 -0.45593999997E+02  0.45594000000E+02  0.51100000000E-03 0.  1.
         23    2    1    2    0    0  0.00000000000E+00  0.00000000000E+00  0.00000000000E+00  0.91188000000E+02  0.91188000000E+02 0.  0.
    9900012    2    3    3    0    0 -0.12407360725E+02 -0.79392425339E+01  0.40824615215E+02  0.47787269826E+02  0.19999994444E+02 0.  0.
        -12    1    3    3    0    0  0.12407360725E+02  0.79392425339E+01 -0.40824615215E+02  0.43400730174E+02  0.00000000000E+00 0.  1.
         11    1    4    4    0    0 -0.13470149693E+01  0.28482767042E+01  0.19490114567E+02  0.19743143002E+02  0.51100000000E-03 0. -1.
        -11    1    4    4    0    0 -0.44746295941E+01  0.33336545139E+00  0.95584989748E+01  0.10559277695E+02  0.51100000000E-03 0.  1.
        -12    1    4    4    0    0 -0.65857161617E+01 -0.11120884689E+02  0.11776001674E+02  0.17484849129E+02  0.00000000000E+00 0.  1.
</event>
<event>
 8    1  0.2994958E-010  0.9118800E+02  0.7816164E-02  0.1184000E+00
        -11   -1    0    0    0    0  0.00000000000E+00  0.00000000000E+00  0.45593999997E+02  0.45594000000E+02  0.51100000000E-03 0. -1.
         11   -1    0    0    0    0 -0.00000000000E+00 -0.00000000000E+00 -0.45593999997E+02  0.45594000000E+02  0.51100000000E-03 0.  1.
         23    2    1    2    0    0  0.00000000000E+00  0.00000000000E+00  0.00000000000E+00  0.91188000000E+02  0.91188000000E+02 0.  0.
    9900012    2    3    3    0    0 -0.11673848724E+02  0.34164297480E+02 -0.24086278736E+02  0.47787230541E+02  0.19999815327E+02 0.  0.
         12    1    3    3    0    0  0.11673848724E+02 -0.34164297480E+02  0.24086278736E+02  0.43400769459E+02  0.00000000000E+00 0. -1.
         11    1    4    4    0    0 -0.25385059457E+01  0.33563834217E+01  0.84746271455E+00  0.42927282029E+01  0.51100000000E-03 0. -1.
        -11    1    4    4    0    0 -0.11768392264E+02  0.17015896408E+02 -0.99408962451E+01  0.22953370242E+02  0.51100000000E-03 0.  1.
         12    1    4    4    0    0  0.26330494857E+01  0.13792017650E+02 -0.14992845205E+02  0.20541132096E+02  0.00000000000E+00 0. -1.
</event>
<event>
 8    1  0.2994958E-010  0.9118800E+02  0.7816164E-02  0.1184000E+00
        -11   -1    0    0    0    0  0.00000000000E+00  0.00000000000E+00  0.45593999997E+02  0.45594000000E+02  0.51100000000E-03 0. -1.
         11   -1    0    0    0    0 -0.00000000000E+00 -0.00000000000E+00 -0.45593999997E+02  0.45594000000E+02  0.51100000000E-03 0.  1.
         23    2    1    2    0    0 -0.17763568394E-14  0.00000000000E+00  0.00000000000E+00  0.91188000000E+02  0.91188000000E+02 0.  0.
    9900012    2    3    3    0    0  0.15392747491E+02 -0.15655189020E+02  0.37437975455E+02  0.47787267002E+02  0.19999981570E+02 0.  0.
        -12    1    3    3    0    0 -0.15392747491E+02  0.15655189020E+02 -0.37437975455E+02  0.43400732998E+02  0.00000000000E+00 0.  1.
         11    1    4    4    0    0  0.37057308863E+00 -0.10474247553E+02  0.97601333292E+01  0.14321570762E+02  0.51100000000E-03 0. -1.
        -11    1    4    4    0    0  0.31869953852E+01 -0.61597208223E+01  0.10373536754E+02  0.12478355871E+02  0.51100000000E-03 0.  1.
        -12    1    4    4    0    0  0.11835179017E+02  0.97877935544E+00  0.17304305372E+02  0.20987340370E+02  0.00000000000E+00 0.  1.
</event>
<event>
 8    1  0.2994958E-010  0.9118800E+02  0.7816164E-02  0.1184000E+00
        -11   -1    0    0    0    0  0.00000000000E+00  0.00000000000E+00  0.45593999997E+02  0.45594000000E+02  0.51100000000E-03 0. -1.
         11   -1    0    0    0    0 -0.00000000000E+00 -0.00000000000E+00 -0.45593999997E+02  0.45594000000E+02  0.51100000000E-03 0.  1.
         23    2    1    2    0    0  0.00000000000E+00  0.22204460493E-15  0.00000000000E+00  0.91188000000E+02  0.91188000000E+02 0.  0.
    9900012    2    3    3    0    0  0.41244260021E+02 -0.19795782270E+01 -0.13364721703E+02  0.47787268429E+02  0.19999988076E+02 0.  0.
         12    1    3    3    0    0 -0.41244260021E+02  0.19795782270E+01  0.13364721703E+02  0.43400731571E+02  0.00000000000E+00 0. -1.
         11    1    4    4    0    0  0.69923180378E+01 -0.20022043902E+01  0.18081392063E+01  0.74947115764E+01  0.51100000000E-03 0. -1.
        -11    1    4    4    0    0  0.24677404551E+02 -0.95697574942E+00 -0.31563413036E+01  0.24896838929E+02  0.51100000000E-03 0.  1.
        -12    1    4    4    0    0  0.95745374321E+01  0.97960191259E+00 -0.12016519606E+02  0.15395717924E+02  0.00000000000E+00 0.  1.
</event>
<event>
 8    1  0.2994958E-010  0.9118800E+02  0.7816164E-02  0.1184000E+00
        -11   -1    0    0    0    0  0.00000000000E+00  0.00000000000E+00  0.45593999997E+02  0.45594000000E+02  0.51100000000E-03 0. -1.
         11   -1    0    0    0    0 -0.00000000000E+00 -0.00000000000E+00 -0.45593999997E+02  0.45594000000E+02  0.51100000000E-03 0.  1.
         23    2    1    2    0    0  0.00000000000E+00  0.35527136788E-14  0.35527136788E-14  0.91188000000E+02  0.91188000000E+02 0.  0.
    9900012    2    3    3    0    0 -0.29435806612E+02 -0.19589315135E+02 -0.25167750632E+02  0.47787266709E+02  0.19999980232E+02 0.  0.
         12    1    3    3    0    0  0.29435806612E+02  0.19589315135E+02  0.25167750632E+02  0.43400733291E+02  0.00000000000E+00 0. -1.
         11    1    4    4    0    0 -0.51152345456E+01 -0.79982816647E+01 -0.11904841233E+02  0.15227060750E+02  0.51100000000E-03 0. -1.
        -11    1    4    4    0    0 -0.21907221572E+01  0.44295585722E+00 -0.59104116033E+01  0.63188953974E+01  0.51100000000E-03 0.  1.
         12    1    4    4    0    0 -0.22129849909E+02 -0.12033989327E+02 -0.73524977956E+01  0.26241310561E+02  0.00000000000E+00 0. -1.
</event>
<event>
 8    1  0.2994958E-010  0.9118800E+02  0.7816164E-02  0.1184000E+00
        -11   -1    0    0    0    0  0.00000000000E+00  0.00000000000E+00  0.45593999997E+02  0.45594000000E+02  0.51100000000E-03 0. -1.
         11   -1    0    0    0    0 -0.00000000000E+00 -0.00000000000E+00 -0.45593999997E+02  0.45594000000E+02  0.51100000000E-03 0.  1.
         23    2    1    2    0    0  0.88817841970E-15  0.35527136788E-14  0.00000000000E+00  0.91188000000E+02  0.91188000000E+02 0.  0.
    9900012    2    3    3    0    0  0.73343196633E+01  0.18928690755E+02 -0.38360600138E+02  0.47787271647E+02  0.20000002747E+02 0.  0.
         12    1    3    3    0    0 -0.73343196633E+01 -0.18928690755E+02  0.38360600138E+02  0.43400728353E+02  0.00000000000E+00 0. -1.
         11    1    4    4    0    0  0.31254459804E-01  0.94670547786E+01 -0.95144740227E+01  0.13422046014E+02  0.51100000000E-03 0. -1.
        -11    1    4    4    0    0  0.30801844715E+01  0.96386794690E+01 -0.28359543465E+02  0.30110718757E+02  0.51100000000E-03 0.  1.
        -12    1    4    4    0    0  0.42228807320E+01 -0.17704349258E+00 -0.48658265059E+00  0.42545068751E+01  0.00000000000E+00 0.  1.
</event>
<event>
 8    1  0.2994958E-010  0.9118800E+02  0.7816164E-02  0.1184000E+00
        -11   -1    0    0    0    0  0.00000000000E+00  0.00000000000E+00  0.45593999997E+02  0.45594000000E+02  0.51100000000E-03 0. -1.
         11   -1    0    0    0    0 -0.00000000000E+00 -0.00000000000E+00 -0.45593999997E+02  0.45594000000E+02  0.51100000000E-03 0.  1.
         23    2    1    2    0    0  0.00000000000E+00  0.00000000000E+00  0.00000000000E+00  0.91188000000E+02  0.91188000000E+02 0.  0.
    9900012    2    3    3    0    0  0.21891498197E+01 -0.33405397982E+02 -0.27620825611E+02  0.47787274215E+02  0.20000014456E+02 0.  0.
         12    1    3    3    0    0 -0.21891498197E+01  0.33405397982E+02  0.27620825611E+02  0.43400725785E+02  0.00000000000E+00 0. -1.
         11    1    4    4    0    0 -0.43187173536E+01 -0.61605628898E+01 -0.40070176787E+01  0.85240862054E+01  0.51100000000E-03 0.  1.
        -11    1    4    4    0    0 -0.33606863992E+01 -0.89604472387E+01 -0.12365833158E+02  0.15636420874E+02  0.51100000000E-03 0. -1.
        -12    1    4    4    0    0  0.98685535725E+01 -0.18284387853E+02 -0.11247974774E+02  0.23626767136E+02  0.00000000000E+00 0.  1.
</event>
<event>
 8    1  0.2994958E-010  0.9118800E+02  0.7816164E-02  0.1184000E+00
        -11   -1    0    0    0    0  0.00000000000E+00  0.00000000000E+00  0.45593999997E+02  0.45594000000E+02  0.51100000000E-03 0.  1.
         11   -1    0    0    0    0 -0.00000000000E+00 -0.00000000000E+00 -0.45593999997E+02  0.45594000000E+02  0.51100000000E-03 0. -1.
         23    2    1    2    0    0 -0.71054273576E-14  0.00000000000E+00  0.35527136788E-14  0.91188000000E+02  0.91188000000E+02 0.  0.
    9900012    2    3    3    0    0 -0.37687711023E+02  0.11636207162E+02  0.18106861715E+02  0.47787270508E+02  0.19999997553E+02 0.  0.
        -12    1    3    3    0    0  0.37687711023E+02 -0.11636207162E+02 -0.18106861715E+02  0.43400729492E+02  0.00000000000E+00 0.  1.
         11    1    4    4    0    0 -0.23216929060E+01  0.16490268610E+01 -0.16476940393E+01  0.32900521951E+01  0.51100000000E-03 0. -1.
        -11    1    4    4    0    0 -0.24484446598E+01  0.50613542674E+01 -0.31371854130E+00  0.56312172625E+01  0.51100000000E-03 0.  1.
         12    1    4    4    0    0 -0.32917573457E+02  0.49258260339E+01  0.20068274295E+02  0.38866001050E+02  0.00000000000E+00 0. -1.
</event>
<event>
 8    1  0.2994958E-010  0.9118800E+02  0.7816164E-02  0.1184000E+00
        -11   -1    0    0    0    0  0.00000000000E+00  0.00000000000E+00  0.45593999997E+02  0.45594000000E+02  0.51100000000E-03 0. -1.
         11   -1    0    0    0    0 -0.00000000000E+00 -0.00000000000E+00 -0.45593999997E+02  0.45594000000E+02  0.51100000000E-03 0.  1.
         23    2    1    2    0    0  0.00000000000E+00  0.00000000000E+00  0.00000000000E+00  0.91188000000E+02  0.91188000000E+02 0.  0.
    9900012    2    3    3    0    0  0.14508970312E+02 -0.16272930403E+02 -0.37527387344E+02  0.47787270925E+02  0.19999999454E+02 0.  0.
         12    1    3    3    0    0 -0.14508970312E+02  0.16272930403E+02  0.37527387344E+02  0.43400729075E+02  0.00000000000E+00 0. -1.
         11    1    4    4    0    0  0.42342928834E+01 -0.53269788929E+01 -0.57339293319E+01  0.88985328112E+01  0.51100000000E-03 0. -1.
        -11    1    4    4    0    0  0.12362269718E+02 -0.52241327315E+01 -0.29447901680E+02  0.32361955889E+02  0.51100000000E-03 0.  1.
         12    1    4    4    0    0 -0.20875922887E+01 -0.57218187782E+01 -0.23455563322E+01  0.65267822242E+01  0.00000000000E+00 0. -1.
</event>
<event>
 8    1  0.3740135E-010  0.9118800E+02  0.7816164E-02  0.1184000E+00
        -11   -1    0    0    0    0  0.00000000000E+00  0.00000000000E+00  0.45593999997E+02  0.45594000000E+02  0.51100000000E-03 0. -1.
         11   -1    0    0    0    0 -0.00000000000E+00 -0.00000000000E+00 -0.45593999997E+02  0.45594000000E+02  0.51100000000E-03 0.  1.
         23    2    1    2    0    0  0.00000000000E+00  0.00000000000E+00  0.00000000000E+00  0.91188000000E+02  0.91188000000E+02 0.  0.
    9900012    2    3    3    0    0 -0.79096477607E+01  0.48694681062E+01  0.42395153165E+02  0.47787271213E+02  0.20000000769E+02 0.  0.
        -12    1    3    3    0    0  0.79096477607E+01 -0.48694681062E+01 -0.42395153165E+02  0.43400728787E+02  0.00000000000E+00 0.  1.
         11    1    4    4    0    0 -0.11055930290E+01 -0.14447874836E+01  0.15392821392E+02  0.15499957983E+02  0.51100000000E-03 0. -1.
        -11    1    4    4    0    0 -0.44619978143E+01 -0.39051952513E+01  0.44389919173E+01  0.74070658123E+01  0.51100000000E-03 0.  1.
         12    1    4    4    0    0 -0.23420569174E+01  0.10219450841E+02  0.22563339856E+02  0.24880247417E+02  0.00000000000E+00 0. -1.
</event>
<event>
 8    1  0.2994958E-010  0.9118800E+02  0.7816164E-02  0.1184000E+00
        -11   -1    0    0    0    0  0.00000000000E+00  0.00000000000E+00  0.45593999997E+02  0.45594000000E+02  0.51100000000E-03 0. -1.
         11   -1    0    0    0    0 -0.00000000000E+00 -0.00000000000E+00 -0.45593999997E+02  0.45594000000E+02  0.51100000000E-03 0.  1.
         23    2    1    2    0    0 -0.71054273576E-14  0.00000000000E+00  0.35527136788E-14  0.91188000000E+02  0.91188000000E+02 0.  0.
    9900012    2    3    3    0    0 -0.33039973154E+02  0.79096306069E+01 -0.27007798287E+02  0.47787271312E+02  0.20000001221E+02 0.  0.
         12    1    3    3    0    0  0.33039973154E+02 -0.79096306069E+01  0.27007798287E+02  0.43400728688E+02  0.00000000000E+00 0. -1.
         11    1    4    4    0    0 -0.17198608789E+02  0.50806940337E+01 -0.12537244121E+02  0.21881226807E+02  0.51100000000E-03 0. -1.
        -11    1    4    4    0    0 -0.12426230496E+02 -0.36898557604E+01 -0.13083070874E+02  0.18417192610E+02  0.51100000000E-03 0.  1.
         12    1    4    4    0    0 -0.34151338689E+01  0.65187923336E+01 -0.13874832909E+01  0.74888518955E+01  0.00000000000E+00 0. -1.
</event>
<event>
 8    1  0.2994958E-010  0.9118800E+02  0.7816164E-02  0.1184000E+00
        -11   -1    0    0    0    0  0.00000000000E+00  0.00000000000E+00  0.45593999997E+02  0.45594000000E+02  0.51100000000E-03 0. -1.
         11   -1    0    0    0    0 -0.00000000000E+00 -0.00000000000E+00 -0.45593999997E+02  0.45594000000E+02  0.51100000000E-03 0.  1.
         23    2    1    2    0    0  0.00000000000E+00  0.88817841970E-15  0.00000000000E+00  0.91188000000E+02  0.91188000000E+02 0.  0.
    9900012    2    3    3    0    0  0.33900994085E+02 -0.43111454417E+01  0.26753685158E+02  0.47787273687E+02  0.20000012047E+02 0.  0.
        -12    1    3    3    0    0 -0.33900994085E+02  0.43111454417E+01 -0.26753685158E+02  0.43400726313E+02  0.00000000000E+00 0.  1.
         11    1    4    4    0    0  0.69627614595E+01  0.33408714198E+01  0.32714825639E+01  0.83871370212E+01  0.51100000000E-03 0. -1.
        -11    1    4    4    0    0  0.13993000545E+01  0.33794887813E+01  0.15402926198E+01  0.39688142664E+01  0.51100000000E-03 0.  1.
         12    1    4    4    0    0  0.25538932571E+02 -0.11031505643E+02  0.21941909975E+02  0.35431322399E+02  0.00000000000E+00 0. -1.
</event>
<event>
 8    1  0.2994958E-010  0.9118800E+02  0.7816164E-02  0.1184000E+00
        -11   -1    0    0    0    0  0.00000000000E+00  0.00000000000E+00  0.45593999997E+02  0.45594000000E+02  0.51100000000E-03 0. -1.
         11   -1    0    0    0    0 -0.00000000000E+00 -0.00000000000E+00 -0.45593999997E+02  0.45594000000E+02  0.51100000000E-03 0.  1.
         23    2    1    2    0    0  0.35527136788E-14  0.00000000000E+00  0.00000000000E+00  0.91188000000E+02  0.91188000000E+02 0.  0.
    9900012    2    3    3    0    0  0.21666222863E+02  0.17424651245E+02  0.33325347453E+02  0.47787280340E+02  0.20000042382E+02 0.  0.
        -12    1    3    3    0    0 -0.21666222863E+02 -0.17424651245E+02 -0.33325347453E+02  0.43400719660E+02  0.00000000000E+00 0.  1.
         11    1    4    4    0    0  0.18324954017E+02  0.18756158259E+02  0.26099982139E+02  0.36997384776E+02  0.51100000000E-03 0. -1.
        -11    1    4    4    0    0  0.54606395032E+01 -0.19417708606E+01  0.49605298981E+01  0.76286247116E+01  0.51100000000E-03 0.  1.
        -12    1    4    4    0    0 -0.21193706566E+01  0.61026384603E+00  0.22648354154E+01  0.31612708521E+01  0.00000000000E+00 0.  1.
</event>
<event>
 8    1  0.2994958E-010  0.9118800E+02  0.7816164E-02  0.1184000E+00
        -11   -1    0    0    0    0  0.00000000000E+00  0.00000000000E+00  0.45593999997E+02  0.45594000000E+02  0.51100000000E-03 0. -1.
         11   -1    0    0    0    0 -0.00000000000E+00 -0.00000000000E+00 -0.45593999997E+02  0.45594000000E+02  0.51100000000E-03 0.  1.
         23    2    1    2    0    0  0.00000000000E+00  0.35527136788E-14 -0.71054273576E-14  0.91188000000E+02  0.91188000000E+02 0.  0.
    9900012    2    3    3    0    0  0.37616551439E+01 -0.26135350506E+02  0.34444404037E+02  0.47787267691E+02  0.19999984710E+02 0.  0.
        -12    1    3    3    0    0 -0.37616551439E+01  0.26135350506E+02 -0.34444404037E+02  0.43400732309E+02  0.00000000000E+00 0.  1.
         11    1    4    4    0    0 -0.28447082948E+01 -0.17832381377E+02  0.26151124876E+02  0.31779986209E+02  0.51100000000E-03 0. -1.
        -11    1    4    4    0    0 -0.12624498581E+01 -0.35327314936E+01  0.20684354298E+00  0.37572271641E+01  0.51100000000E-03 0.  1.
         12    1    4    4    0    0  0.78688132967E+01 -0.47702376348E+01  0.80864356181E+01  0.12250054318E+02  0.00000000000E+00 0. -1.
</event>
<event>
 8    1  0.2994958E-010  0.9118800E+02  0.7816164E-02  0.1184000E+00
        -11   -1    0    0    0    0  0.00000000000E+00  0.00000000000E+00  0.45593999997E+02  0.45594000000E+02  0.51100000000E-03 0. -1.
         11   -1    0    0    0    0 -0.00000000000E+00 -0.00000000000E+00 -0.45593999997E+02  0.45594000000E+02  0.51100000000E-03 0.  1.
         23    2    1    2    0    0  0.00000000000E+00  0.17763568394E-14  0.00000000000E+00  0.91188000000E+02  0.91188000000E+02 0.  0.
    9900012    2    3    3    0    0  0.90061782006E+01  0.92074963856E+01  0.41445558635E+02  0.47787267678E+02  0.19999984653E+02 0.  0.
        -12    1    3    3    0    0 -0.90061782006E+01 -0.92074963856E+01 -0.41445558635E+02  0.43400732322E+02  0.00000000000E+00 0.  1.
         11    1    4    4    0    0  0.49095176967E+01 -0.43870453529E+01  0.20273033053E+02  0.21315379433E+02  0.51100000000E-03 0. -1.
        -11    1    4    4    0    0 -0.18991723033E+01  0.16176528837E+01  0.34426808158E+01  0.42515535690E+01  0.51100000000E-03 0.  1.
         12    1    4    4    0    0  0.59958328072E+01  0.11976888855E+02  0.17729844767E+02  0.22220334677E+02  0.00000000000E+00 0. -1.
</event>
<event>
 8    1  0.2994958E-010  0.9118800E+02  0.7816164E-02  0.1184000E+00
        -11   -1    0    0    0    0  0.00000000000E+00  0.00000000000E+00  0.45593999997E+02  0.45594000000E+02  0.51100000000E-03 0. -1.
         11   -1    0    0    0    0 -0.00000000000E+00 -0.00000000000E+00 -0.45593999997E+02  0.45594000000E+02  0.51100000000E-03 0.  1.
         23    2    1    2    0    0 -0.15543122345E-14  0.00000000000E+00  0.00000000000E+00  0.91188000000E+02  0.91188000000E+02 0.  0.
    9900012    2    3    3    0    0  0.16132306362E+01 -0.57951051672E+01 -0.42981848120E+02  0.47787250873E+02  0.19999908029E+02 0.  0.
         12    1    3    3    0    0 -0.16132306362E+01  0.57951051672E+01  0.42981848120E+02  0.43400749127E+02  0.00000000000E+00 0. -1.
         11    1    4    4    0    0 -0.49534698117E+01 -0.90136531948E-01 -0.18524460532E+01  0.52892858129E+01  0.51100000000E-03 0. -1.
        -11    1    4    4    0    0 -0.84704145684E+00 -0.62505661097E+00 -0.11173311132E+02  0.11222791850E+02  0.51100000000E-03 0.  1.
        -12    1    4    4    0    0  0.74137419048E+01 -0.50799120243E+01 -0.29956090935E+02  0.31275173210E+02  0.00000000000E+00 0.  1.
</event>
<event>
 8    1  0.2994958E-010  0.9118800E+02  0.7816164E-02  0.1184000E+00
        -11   -1    0    0    0    0  0.00000000000E+00  0.00000000000E+00  0.45593999997E+02  0.45594000000E+02  0.51100000000E-03 0. -1.
         11   -1    0    0    0    0 -0.00000000000E+00 -0.00000000000E+00 -0.45593999997E+02  0.45594000000E+02  0.51100000000E-03 0.  1.
         23    2    1    2    0    0  0.00000000000E+00  0.00000000000E+00  0.00000000000E+00  0.91188000000E+02  0.91188000000E+02 0.  0.
    9900012    2    3    3    0    0  0.29877777855E+02  0.58163694090E+01  0.30937228791E+02  0.47787263970E+02  0.19999967743E+02 0.  0.
        -12    1    3    3    0    0 -0.29877777855E+02 -0.58163694090E+01 -0.30937228791E+02  0.43400736030E+02  0.00000000000E+00 0.  1.
         11    1    4    4    0    0  0.55398711462E+01  0.38576488451E+01  0.62116571954E+00  0.67791942030E+01  0.51100000000E-03 0. -1.
        -11    1    4    4    0    0  0.12186117683E+01  0.95389668215E+00 -0.11647804846E+01  0.19369169731E+01  0.51100000000E-03 0.  1.
         12    1    4    4    0    0  0.23119294941E+02  0.10048238817E+01  0.31480843557E+02  0.39071152794E+02  0.00000000000E+00 0. -1.
</event>
<event>
 8    1  0.2994958E-010  0.9118800E+02  0.7816164E-02  0.1184000E+00
        -11   -1    0    0    0    0  0.00000000000E+00  0.00000000000E+00  0.45593999997E+02  0.45594000000E+02  0.51100000000E-03 0.  1.
         11   -1    0    0    0    0 -0.00000000000E+00 -0.00000000000E+00 -0.45593999997E+02  0.45594000000E+02  0.51100000000E-03 0. -1.
         23    2    1    2    0    0  0.00000000000E+00  0.17763568394E-14 -0.17763568394E-14  0.91188000000E+02  0.91188000000E+02 0.  0.
    9900012    2    3    3    0    0 -0.41844760744E+02 -0.93778885926E+01  0.66853714372E+01  0.47787274344E+02  0.20000015046E+02 0.  0.
        -12    1    3    3    0    0  0.41844760744E+02  0.93778885926E+01 -0.66853714372E+01  0.43400725656E+02  0.00000000000E+00 0.  1.
         11    1    4    4    0    0 -0.32127348942E+01 -0.34889088393E+01 -0.16061920498E+00  0.47455188525E+01  0.51100000000E-03 0. -1.
        -11    1    4    4    0    0 -0.21960700655E+02 -0.15974916964E+01  0.11994227780E+02  0.25073608701E+02  0.51100000000E-03 0.  1.
         12    1    4    4    0    0 -0.16671325194E+02 -0.42914880570E+01 -0.51482371374E+01  0.17968146791E+02  0.00000000000E+00 0. -1.
</event>
<event>
 8    1  0.2994958E-010  0.9118800E+02  0.7816164E-02  0.1184000E+00
        -11   -1    0    0    0    0  0.00000000000E+00  0.00000000000E+00  0.45593999997E+02  0.45594000000E+02  0.51100000000E-03 0. -1.
         11   -1    0    0    0    0 -0.00000000000E+00 -0.00000000000E+00 -0.45593999997E+02  0.45594000000E+02  0.51100000000E-03 0.  1.
         23    2    1    2    0    0  0.00000000000E+00  0.35527136788E-14  0.00000000000E+00  0.91188000000E+02  0.91188000000E+02 0.  0.
    9900012    2    3    3    0    0 -0.31318434364E+02  0.24399945759E+02  0.17533441111E+02  0.47787271420E+02  0.20000001713E+02 0.  0.
        -12    1    3    3    0    0  0.31318434364E+02 -0.24399945759E+02 -0.17533441111E+02  0.43400728580E+02  0.00000000000E+00 0.  1.
         11    1    4    4    0    0 -0.13014314203E+02  0.90676937986E+01  0.93344285605E+01  0.18404537534E+02  0.51100000000E-03 0. -1.
        -11    1    4    4    0    0 -0.84360900663E+01 -0.14092438379E+01  0.42560125711E+01  0.95533882506E+01  0.51100000000E-03 0.  1.
         12    1    4    4    0    0 -0.98680300945E+01  0.16741495798E+02  0.39429999797E+01  0.19829345636E+02  0.00000000000E+00 0. -1.
</event>
<event>
 8    1  0.2994958E-010  0.9118800E+02  0.7816164E-02  0.1184000E+00
        -11   -1    0    0    0    0  0.00000000000E+00  0.00000000000E+00  0.45593999997E+02  0.45594000000E+02  0.51100000000E-03 0. -1.
         11   -1    0    0    0    0 -0.00000000000E+00 -0.00000000000E+00 -0.45593999997E+02  0.45594000000E+02  0.51100000000E-03 0.  1.
         23    2    1    2    0    0  0.00000000000E+00 -0.71054273576E-14  0.35527136788E-14  0.91188000000E+02  0.91188000000E+02 0.  0.
    9900012    2    3    3    0    0 -0.13915688320E+02  0.29009275863E+02 -0.29127979248E+02  0.47787266797E+02  0.19999980632E+02 0.  0.
         12    1    3    3    0    0  0.13915688320E+02 -0.29009275863E+02  0.29127979248E+02  0.43400733203E+02  0.00000000000E+00 0. -1.
         11    1    4    4    0    0 -0.10910445810E+02  0.28947982181E+02 -0.21919708232E+02  0.37914339100E+02  0.51100000000E-03 0. -1.
        -11    1    4    4    0    0 -0.35968236621E+01  0.21359592027E+01 -0.62299282881E+01  0.75040968083E+01  0.51100000000E-03 0.  1.
         12    1    4    4    0    0  0.59158115201E+00 -0.20746655211E+01 -0.97834272793E+00  0.23688308882E+01  0.00000000000E+00 0. -1.
</event>
<event>
 8    1  0.2994958E-010  0.9118800E+02  0.7816164E-02  0.1184000E+00
        -11   -1    0    0    0    0  0.00000000000E+00  0.00000000000E+00  0.45593999997E+02  0.45594000000E+02  0.51100000000E-03 0. -1.
         11   -1    0    0    0    0 -0.00000000000E+00 -0.00000000000E+00 -0.45593999997E+02  0.45594000000E+02  0.51100000000E-03 0.  1.
         23    2    1    2    0    0  0.00000000000E+00  0.00000000000E+00  0.00000000000E+00  0.91188000000E+02  0.91188000000E+02 0.  0.
    9900012    2    3    3    0    0  0.30672608945E+02 -0.97274588765E+01  0.29123715343E+02  0.47787271998E+02  0.20000004349E+02 0.  0.
        -12    1    3    3    0    0 -0.30672608945E+02  0.97274588765E+01 -0.29123715343E+02  0.43400728002E+02  0.00000000000E+00 0.  1.
         11    1    4    4    0    0  0.97274767946E+01 -0.81256567641E+00 -0.59565053383E+00  0.97795126457E+01  0.51100000000E-03 0.  1.
        -11    1    4    4    0    0  0.82275245448E+01 -0.39552903021E+01  0.70032466044E+01  0.11505735299E+02  0.51100000000E-03 0. -1.
        -12    1    4    4    0    0  0.12717607606E+02 -0.49596028980E+01  0.22716119273E+02  0.26502024053E+02  0.00000000000E+00 0.  1.
</event>
<event>
 8    1  0.2994958E-010  0.9118800E+02  0.7816164E-02  0.1184000E+00
        -11   -1    0    0    0    0  0.00000000000E+00  0.00000000000E+00  0.45593999997E+02  0.45594000000E+02  0.51100000000E-03 0. -1.
         11   -1    0    0    0    0 -0.00000000000E+00 -0.00000000000E+00 -0.45593999997E+02  0.45594000000E+02  0.51100000000E-03 0.  1.
         23    2    1    2    0    0  0.44408920985E-15  0.00000000000E+00  0.00000000000E+00  0.91188000000E+02  0.91188000000E+02 0.  0.
    9900012    2    3    3    0    0  0.28372249411E+01 -0.96612170614E+01  0.42216517985E+02  0.47787270153E+02  0.19999995937E+02 0.  0.
        -12    1    3    3    0    0 -0.28372249411E+01  0.96612170614E+01 -0.42216517985E+02  0.43400729847E+02  0.00000000000E+00 0.  1.
         11    1    4    4    0    0 -0.30792053858E+01 -0.31798793351E+01  0.99069279321E+01  0.10850822997E+02  0.51100000000E-03 0. -1.
        -11    1    4    4    0    0 -0.33393868314E+00 -0.90428792035E+01  0.93834205288E+01  0.13035864391E+02  0.51100000000E-03 0.  1.
         12    1    4    4    0    0  0.62503690100E+01  0.25615414773E+01  0.22926169524E+02  0.23900582766E+02  0.00000000000E+00 0. -1.
</event>
<event>
 8    1  0.2994958E-010  0.9118800E+02  0.7816164E-02  0.1184000E+00
        -11   -1    0    0    0    0  0.00000000000E+00  0.00000000000E+00  0.45593999997E+02  0.45594000000E+02  0.51100000000E-03 0. -1.
         11   -1    0    0    0    0 -0.00000000000E+00 -0.00000000000E+00 -0.45593999997E+02  0.45594000000E+02  0.51100000000E-03 0.  1.
         23    2    1    2    0    0  0.35527136788E-14  0.00000000000E+00  0.00000000000E+00  0.91188000000E+02  0.91188000000E+02 0.  0.
    9900012    2    3    3    0    0 -0.16751029752E+02  0.27348620748E+02 -0.29241739205E+02  0.47787269979E+02  0.19999995144E+02 0.  0.
         12    1    3    3    0    0  0.16751029752E+02 -0.27348620748E+02  0.29241739205E+02  0.43400730021E+02  0.00000000000E+00 0. -1.
         11    1    4    4    0    0 -0.40762083402E+01  0.49784231437E+01  0.41726703044E-01  0.64344318172E+01  0.51100000000E-03 0. -1.
        -11    1    4    4    0    0 -0.69546089757E+01  0.15223081282E+02 -0.87824356356E+01  0.18900792726E+02  0.51100000000E-03 0.  1.
         12    1    4    4    0    0 -0.57202124358E+01  0.71471163229E+01 -0.20501030272E+02  0.22452045436E+02  0.00000000000E+00 0. -1.
</event>
<event>
 8    1  0.2994958E-010  0.9118800E+02  0.7816164E-02  0.1184000E+00
        -11   -1    0    0    0    0  0.00000000000E+00  0.00000000000E+00  0.45593999997E+02  0.45594000000E+02  0.51100000000E-03 0. -1.
         11   -1    0    0    0    0 -0.00000000000E+00 -0.00000000000E+00 -0.45593999997E+02  0.45594000000E+02  0.51100000000E-03 0.  1.
         23    2    1    2    0    0  0.00000000000E+00 -0.17763568394E-14  0.00000000000E+00  0.91188000000E+02  0.91188000000E+02 0.  0.
    9900012    2    3    3    0    0  0.19035873563E+02  0.10003673027E+02  0.37698599370E+02  0.47787281679E+02  0.20000048486E+02 0.  0.
        -12    1    3    3    0    0 -0.19035873563E+02 -0.10003673027E+02 -0.37698599370E+02  0.43400718321E+02  0.00000000000E+00 0.  1.
         11    1    4    4    0    0  0.14549751061E+02  0.11372671554E+02  0.28911688752E+02  0.34306248133E+02  0.51100000000E-03 0. -1.
        -11    1    4    4    0    0  0.22034054943E+01  0.32895219312E+01  0.93179460394E+00  0.40674551938E+01  0.51100000000E-03 0.  1.
         12    1    4    4    0    0  0.22827170072E+01 -0.46585204576E+01  0.78551160142E+01  0.94135783518E+01  0.00000000000E+00 0. -1.
</event>
<event>
 8    1  0.2994958E-010  0.9118800E+02  0.7816164E-02  0.1184000E+00
        -11   -1    0    0    0    0  0.00000000000E+00  0.00000000000E+00  0.45593999997E+02  0.45594000000E+02  0.51100000000E-03 0. -1.
         11   -1    0    0    0    0 -0.00000000000E+00 -0.00000000000E+00 -0.45593999997E+02  0.45594000000E+02  0.51100000000E-03 0.  1.
         23    2    1    2    0    0 -0.35527136788E-14  0.00000000000E+00  0.00000000000E+00  0.91188000000E+02  0.91188000000E+02 0.  0.
    9900012    2    3    3    0    0 -0.26682231426E+02 -0.37018924026E+01 -0.34029069912E+02  0.47787273275E+02  0.20000010169E+02 0.  0.
         12    1    3    3    0    0  0.26682231426E+02  0.37018924026E+01  0.34029069912E+02  0.43400726725E+02  0.00000000000E+00 0. -1.
         11    1    4    4    0    0 -0.97319684386E+01 -0.12357752516E+01 -0.50488354242E+01  0.11033090662E+02  0.51100000000E-03 0. -1.
        -11    1    4    4    0    0 -0.19494149400E+02 -0.10944507461E+01 -0.26675811988E+02  0.33057807379E+02  0.51100000000E-03 0.  1.
         12    1    4    4    0    0  0.25438864127E+01 -0.13716664048E+01 -0.23044224998E+01  0.36963752332E+01  0.00000000000E+00 0. -1.
</event>
<event>
 8    1  0.2994958E-010  0.9118800E+02  0.7816164E-02  0.1184000E+00
        -11   -1    0    0    0    0  0.00000000000E+00  0.00000000000E+00  0.45593999997E+02  0.45594000000E+02  0.51100000000E-03 0. -1.
         11   -1    0    0    0    0 -0.00000000000E+00 -0.00000000000E+00 -0.45593999997E+02  0.45594000000E+02  0.51100000000E-03 0.  1.
         23    2    1    2    0    0  0.00000000000E+00  0.00000000000E+00  0.00000000000E+00  0.91188000000E+02  0.91188000000E+02 0.  0.
    9900012    2    3    3    0    0  0.17545158511E+02 -0.14363054609E+02  0.37006688602E+02  0.47787252009E+02  0.19999913208E+02 0.  0.
        -12    1    3    3    0    0 -0.17545158511E+02  0.14363054609E+02 -0.37006688602E+02  0.43400747991E+02  0.00000000000E+00 0.  1.
         11    1    4    4    0    0  0.79201782808E+01 -0.27715716425E+01  0.73679207640E+01  0.11166785124E+02  0.51100000000E-03 0. -1.
        -11    1    4    4    0    0  0.67229145831E+01 -0.61433061595E+01  0.34897976854E+01  0.97527677716E+01  0.51100000000E-03 0.  1.
         12    1    4    4    0    0  0.29020656470E+01 -0.54481768075E+01  0.26148970153E+02  0.26867699113E+02  0.00000000000E+00 0. -1.
</event>
<event>
 8    1  0.2994958E-010  0.9118800E+02  0.7816164E-02  0.1184000E+00
        -11   -1    0    0    0    0  0.00000000000E+00  0.00000000000E+00  0.45593999997E+02  0.45594000000E+02  0.51100000000E-03 0. -1.
         11   -1    0    0    0    0 -0.00000000000E+00 -0.00000000000E+00 -0.45593999997E+02  0.45594000000E+02  0.51100000000E-03 0.  1.
         23    2    1    2    0    0 -0.17763568394E-14  0.00000000000E+00 -0.71054273576E-14  0.91188000000E+02  0.91188000000E+02 0.  0.
    9900012    2    3    3    0    0 -0.15191873832E+02 -0.17327216090E+02 -0.36777682851E+02  0.47787269547E+02  0.19999993174E+02 0.  0.
         12    1    3    3    0    0  0.15191873832E+02  0.17327216090E+02  0.36777682851E+02  0.43400730453E+02  0.00000000000E+00 0. -1.
         11    1    4    4    0    0 -0.62820697557E+01 -0.13628263492E+02 -0.31477469446E+02  0.34871550714E+02  0.51100000000E-03 0. -1.
        -11    1    4    4    0    0  0.71637399930E+00  0.86473541363E+00 -0.43661311642E+00  0.12048196201E+01  0.51100000000E-03 0.  1.
         12    1    4    4    0    0 -0.96261780754E+01 -0.45636880116E+01 -0.48636002881E+01  0.11710899213E+02  0.00000000000E+00 0. -1.
</event>
<event>
 8    1  0.2994958E-010  0.9118800E+02  0.7816164E-02  0.1184000E+00
        -11   -1    0    0    0    0  0.00000000000E+00  0.00000000000E+00  0.45593999997E+02  0.45594000000E+02  0.51100000000E-03 0. -1.
         11   -1    0    0    0    0 -0.00000000000E+00 -0.00000000000E+00 -0.45593999997E+02  0.45594000000E+02  0.51100000000E-03 0.  1.
         23    2    1    2    0    0  0.00000000000E+00 -0.27755575616E-15  0.35527136788E-14  0.91188000000E+02  0.91188000000E+02 0.  0.
    9900012    2    3    3    0    0  0.34773530363E+02  0.44341977293E+00  0.25965903788E+02  0.47787271958E+02  0.20000004167E+02 0.  0.
        -12    1    3    3    0    0 -0.34773530363E+02 -0.44341977293E+00 -0.25965903788E+02  0.43400728042E+02  0.00000000000E+00 0.  1.
         11    1    4    4    0    0  0.24888331831E+02  0.60907756451E+01  0.21318624717E+02  0.33331822173E+02  0.51100000000E-03 0. -1.
        -11    1    4    4    0    0  0.89096909401E+01 -0.33563269118E+01  0.63452330087E+01  0.11441569175E+02  0.51100000000E-03 0.  1.
        -12    1    4    4    0    0  0.97550759206E+00 -0.22910289604E+01 -0.16979539377E+01  0.30138806105E+01  0.00000000000E+00 0.  1.
</event>
<event>
 8    1  0.2994958E-010  0.9118800E+02  0.7816164E-02  0.1184000E+00
        -11   -1    0    0    0    0  0.00000000000E+00  0.00000000000E+00  0.45593999997E+02  0.45594000000E+02  0.51100000000E-03 0. -1.
         11   -1    0    0    0    0 -0.00000000000E+00 -0.00000000000E+00 -0.45593999997E+02  0.45594000000E+02  0.51100000000E-03 0.  1.
         23    2    1    2    0    0  0.00000000000E+00  0.00000000000E+00  0.00000000000E+00  0.91188000000E+02  0.91188000000E+02 0.  0.
    9900012    2    3    3    0    0  0.16448238773E+02  0.15368073186E+02 -0.37106621480E+02  0.47787267404E+02  0.19999983403E+02 0.  0.
         12    1    3    3    0    0 -0.16448238773E+02 -0.15368073186E+02  0.37106621480E+02  0.43400732596E+02  0.00000000000E+00 0. -1.
         11    1    4    4    0    0  0.61845433632E+00 -0.20268489433E+01 -0.89713026722E+01  0.92181817243E+01  0.51100000000E-03 0. -1.
        -11    1    4    4    0    0  0.28340164471E+01  0.10032816256E+02 -0.16987035584E+02  0.19931092028E+02  0.51100000000E-03 0.  1.
        -12    1    4    4    0    0  0.12995767990E+02  0.73621058734E+01 -0.11148283224E+02  0.18637993652E+02  0.00000000000E+00 0.  1.
</event>
<event>
 8    1  0.2994958E-010  0.9118800E+02  0.7816164E-02  0.1184000E+00
        -11   -1    0    0    0    0  0.00000000000E+00  0.00000000000E+00  0.45593999997E+02  0.45594000000E+02  0.51100000000E-03 0. -1.
         11   -1    0    0    0    0 -0.00000000000E+00 -0.00000000000E+00 -0.45593999997E+02  0.45594000000E+02  0.51100000000E-03 0.  1.
         23    2    1    2    0    0  0.35527136788E-14  0.00000000000E+00  0.00000000000E+00  0.91188000000E+02  0.91188000000E+02 0.  0.
    9900012    2    3    3    0    0  0.16007659991E+02 -0.22829641672E+02  0.33259375432E+02  0.47787265313E+02  0.19999973868E+02 0.  0.
        -12    1    3    3    0    0 -0.16007659991E+02  0.22829641672E+02 -0.33259375432E+02  0.43400734687E+02  0.00000000000E+00 0.  1.
         11    1    4    4    0    0  0.42191292422E+01 -0.46788030856E+00  0.97904774927E+01  0.10671148642E+02  0.51100000000E-03 0. -1.
        -11    1    4    4    0    0  0.12716018029E+02 -0.10211937785E+02  0.10936250913E+02  0.19636251479E+02  0.51100000000E-03 0.  1.
         12    1    4    4    0    0 -0.92748728087E+00 -0.12149823579E+02  0.12532647026E+02  0.17479865192E+02  0.00000000000E+00 0. -1.
</event>
<event>
 8    1  0.2994958E-010  0.9118800E+02  0.7816164E-02  0.1184000E+00
        -11   -1    0    0    0    0  0.00000000000E+00  0.00000000000E+00  0.45593999997E+02  0.45594000000E+02  0.51100000000E-03 0.  1.
         11   -1    0    0    0    0 -0.00000000000E+00 -0.00000000000E+00 -0.45593999997E+02  0.45594000000E+02  0.51100000000E-03 0. -1.
         23    2    1    2    0    0  0.71054273576E-14  0.17763568394E-14  0.00000000000E+00  0.91188000000E+02  0.91188000000E+02 0.  0.
    9900012    2    3    3    0    0 -0.40509625664E+02 -0.14231159532E+02 -0.63298921933E+01  0.47787271801E+02  0.20000003449E+02 0.  0.
         12    1    3    3    0    0  0.40509625664E+02  0.14231159532E+02  0.63298921933E+01  0.43400728199E+02  0.00000000000E+00 0. -1.
         11    1    4    4    0    0 -0.29758067962E+01  0.14119346424E+01 -0.46145952353E+01  0.56695215821E+01  0.51100000000E-03 0. -1.
        -11    1    4    4    0    0 -0.23703195103E+02 -0.53091531390E+01 -0.42759834428E+01  0.24663993996E+02  0.51100000000E-03 0.  1.
        -12    1    4    4    0    0 -0.13830623764E+02 -0.10333941035E+02  0.25606864848E+01  0.17453756223E+02  0.00000000000E+00 0.  1.
</event>
<event>
 8    1  0.2994958E-010  0.9118800E+02  0.7816164E-02  0.1184000E+00
        -11   -1    0    0    0    0  0.00000000000E+00  0.00000000000E+00  0.45593999997E+02  0.45594000000E+02  0.51100000000E-03 0. -1.
         11   -1    0    0    0    0 -0.00000000000E+00 -0.00000000000E+00 -0.45593999997E+02  0.45594000000E+02  0.51100000000E-03 0.  1.
         23    2    1    2    0    0  0.00000000000E+00  0.00000000000E+00 -0.35527136788E-14  0.91188000000E+02  0.91188000000E+02 0.  0.
    9900012    2    3    3    0    0 -0.29293494125E+02 -0.44076034799E+01  0.31718881948E+02  0.47787271452E+02  0.20000001857E+02 0.  0.
        -12    1    3    3    0    0  0.29293494125E+02  0.44076034799E+01 -0.31718881948E+02  0.43400728548E+02  0.00000000000E+00 0.  1.
         11    1    4    4    0    0 -0.25739930046E+02  0.53776874299E+00  0.23661538937E+02  0.34967150572E+02  0.51100000000E-03 0. -1.
        -11    1    4    4    0    0 -0.78020679777E+00  0.20463810105E+01  0.70207261911E+00  0.22998487148E+01  0.51100000000E-03 0.  1.
        -12    1    4    4    0    0 -0.27733572807E+01 -0.69917532334E+01  0.73552703920E+01  0.10520272165E+02  0.00000000000E+00 0.  1.
</event>
<event>
 8    1  0.2994958E-010  0.9118800E+02  0.7816164E-02  0.1184000E+00
        -11   -1    0    0    0    0  0.00000000000E+00  0.00000000000E+00  0.45593999997E+02  0.45594000000E+02  0.51100000000E-03 0. -1.
         11   -1    0    0    0    0 -0.00000000000E+00 -0.00000000000E+00 -0.45593999997E+02  0.45594000000E+02  0.51100000000E-03 0.  1.
         23    2    1    2    0    0  0.88817841970E-15  0.00000000000E+00  0.00000000000E+00  0.91188000000E+02  0.91188000000E+02 0.  0.
    9900012    2    3    3    0    0 -0.46994827057E+01 -0.42531579836E+02 -0.72527954919E+01  0.47787268860E+02  0.19999990039E+02 0.  0.
         12    1    3    3    0    0  0.46994827057E+01  0.42531579836E+02  0.72527954919E+01  0.43400731140E+02  0.00000000000E+00 0. -1.
         11    1    4    4    0    0 -0.24897862313E+01 -0.19975979762E+01 -0.68300936225E+00  0.32643429970E+01  0.51100000000E-03 0. -1.
        -11    1    4    4    0    0  0.74667365240E+01 -0.18611245334E+02 -0.23412479509E+01  0.20189404385E+02  0.51100000000E-03 0.  1.
        -12    1    4    4    0    0 -0.96764329985E+01 -0.21922736526E+02 -0.42285381787E+01  0.24333521477E+02  0.00000000000E+00 0.  1.
</event>
<event>
 8    1  0.2994958E-010  0.9118800E+02  0.7816164E-02  0.1184000E+00
        -11   -1    0    0    0    0  0.00000000000E+00  0.00000000000E+00  0.45593999997E+02  0.45594000000E+02  0.51100000000E-03 0. -1.
         11   -1    0    0    0    0 -0.00000000000E+00 -0.00000000000E+00 -0.45593999997E+02  0.45594000000E+02  0.51100000000E-03 0.  1.
         23    2    1    2    0    0 -0.35527136788E-14 -0.35527136788E-14  0.00000000000E+00  0.91188000000E+02  0.91188000000E+02 0.  0.
    9900012    2    3    3    0    0  0.19926142395E+02  0.21150867167E+02 -0.32236829927E+02  0.47787268020E+02  0.19999986212E+02 0.  0.
         12    1    3    3    0    0 -0.19926142395E+02 -0.21150867167E+02  0.32236829927E+02  0.43400731980E+02  0.00000000000E+00 0. -1.
         11    1    4    4    0    0  0.84971589993E+01  0.50215999152E+01 -0.93365984488E+01  0.13586399362E+02  0.51100000000E-03 0. -1.
        -11    1    4    4    0    0  0.14168815851E+02  0.16845142227E+02 -0.22244186910E+02  0.31294057117E+02  0.51100000000E-03 0.  1.
         12    1    4    4    0    0 -0.27398324552E+01 -0.71587497570E+00 -0.65604456781E+00  0.29068115416E+01  0.00000000000E+00 0. -1.
</event>
<event>
 8    1  0.2994958E-010  0.9118800E+02  0.7816164E-02  0.1184000E+00
        -11   -1    0    0    0    0  0.00000000000E+00  0.00000000000E+00  0.45593999997E+02  0.45594000000E+02  0.51100000000E-03 0. -1.
         11   -1    0    0    0    0 -0.00000000000E+00 -0.00000000000E+00 -0.45593999997E+02  0.45594000000E+02  0.51100000000E-03 0.  1.
         23    2    1    2    0    0  0.00000000000E+00 -0.17763568394E-14 -0.35527136788E-14  0.91188000000E+02  0.91188000000E+02 0.  0.
    9900012    2    3    3    0    0 -0.27697378516E+02 -0.13332892027E+02 -0.30638411279E+02  0.47787273830E+02  0.20000012699E+02 0.  0.
         12    1    3    3    0    0  0.27697378516E+02  0.13332892027E+02  0.30638411279E+02  0.43400726170E+02  0.00000000000E+00 0. -1.
         11    1    4    4    0    0 -0.77371632122E+01  0.41770467786E+01 -0.77584787037E+01  0.11726269928E+02  0.51100000000E-03 0.  1.
        -11    1    4    4    0    0 -0.31199547283E+01 -0.70723727749E+01 -0.90343726411E+01  0.11890015284E+02  0.51100000000E-03 0. -1.
        -12    1    4    4    0    0 -0.16840260575E+02 -0.10437566030E+02 -0.13845559934E+02  0.24170988618E+02  0.00000000000E+00 0.  1.
</event>
<event>
 8    1  0.2994958E-010  0.9118800E+02  0.7816164E-02  0.1184000E+00
        -11   -1    0    0    0    0  0.00000000000E+00  0.00000000000E+00  0.45593999997E+02  0.45594000000E+02  0.51100000000E-03 0. -1.
         11   -1    0    0    0    0 -0.00000000000E+00 -0.00000000000E+00 -0.45593999997E+02  0.45594000000E+02  0.51100000000E-03 0.  1.
         23    2    1    2    0    0  0.00000000000E+00  0.00000000000E+00  0.00000000000E+00  0.91188000000E+02  0.91188000000E+02 0.  0.
    9900012    2    3    3    0    0 -0.21692315888E+02 -0.37574469545E+02  0.11071711918E+01  0.47787272376E+02  0.20000006073E+02 0.  0.
        -12    1    3    3    0    0  0.21692315888E+02  0.37574469545E+02 -0.11071711918E+01  0.43400727624E+02  0.00000000000E+00 0.  1.
         11    1    4    4    0    0 -0.83428599115E+01 -0.51707955733E+01  0.38366702965E+01  0.10538523501E+02  0.51100000000E-03 0. -1.
        -11    1    4    4    0    0 -0.80542597982E+01 -0.76873584169E+01 -0.42698494232E+01  0.11924688452E+02  0.51100000000E-03 0.  1.
         12    1    4    4    0    0 -0.52951961787E+01 -0.24716315555E+02  0.15403503184E+01  0.25324060423E+02  0.00000000000E+00 0. -1.
</event>
<event>
 8    1  0.2994958E-010  0.9118800E+02  0.7816164E-02  0.1184000E+00
        -11   -1    0    0    0    0  0.00000000000E+00  0.00000000000E+00  0.45593999997E+02  0.45594000000E+02  0.51100000000E-03 0. -1.
         11   -1    0    0    0    0 -0.00000000000E+00 -0.00000000000E+00 -0.45593999997E+02  0.45594000000E+02  0.51100000000E-03 0.  1.
         23    2    1    2    0    0 -0.35527136788E-14  0.00000000000E+00 -0.35527136788E-14  0.91188000000E+02  0.91188000000E+02 0.  0.
    9900012    2    3    3    0    0 -0.14863759060E+02  0.36702129288E+02 -0.17766409811E+02  0.47787274830E+02  0.20000017261E+02 0.  0.
         12    1    3    3    0    0  0.14863759060E+02 -0.36702129288E+02  0.17766409811E+02  0.43400725170E+02  0.00000000000E+00 0. -1.
         11    1    4    4    0    0 -0.65219320991E+01  0.12664078243E+02 -0.69699586079E+01  0.15858587557E+02  0.51100000000E-03 0. -1.
        -11    1    4    4    0    0 -0.10317100444E+02  0.12706038260E+02 -0.12097058942E+02  0.20352513484E+02  0.51100000000E-03 0.  1.
         12    1    4    4    0    0  0.19752734823E+01  0.11332012785E+02  0.13006077393E+01  0.11576173789E+02  0.00000000000E+00 0. -1.
</event>
<event>
 8    1  0.2994958E-010  0.9118800E+02  0.7816164E-02  0.1184000E+00
        -11   -1    0    0    0    0  0.00000000000E+00  0.00000000000E+00  0.45593999997E+02  0.45594000000E+02  0.51100000000E-03 0. -1.
         11   -1    0    0    0    0 -0.00000000000E+00 -0.00000000000E+00 -0.45593999997E+02  0.45594000000E+02  0.51100000000E-03 0.  1.
         23    2    1    2    0    0  0.00000000000E+00  0.00000000000E+00  0.00000000000E+00  0.91188000000E+02  0.91188000000E+02 0.  0.
    9900012    2    3    3    0    0 -0.36244383100E+01 -0.26385306125E+02  0.34268098301E+02  0.47787268513E+02  0.19999988460E+02 0.  0.
        -12    1    3    3    0    0  0.36244383100E+01  0.26385306125E+02 -0.34268098301E+02  0.43400731487E+02  0.00000000000E+00 0.  1.
         11    1    4    4    0    0 -0.27908414149E+01 -0.22439111599E+01  0.60115269460E+00  0.36311593080E+01  0.51100000000E-03 0.  1.
        -11    1    4    4    0    0 -0.49503045906E+01 -0.77439390853E+01  0.40290323619E+01  0.10035298208E+02  0.51100000000E-03 0. -1.
         12    1    4    4    0    0  0.41167076954E+01 -0.16397455880E+02  0.29637913245E+02  0.34120810997E+02  0.00000000000E+00 0. -1.
</event>
<event>
 8    1  0.2994958E-010  0.9118800E+02  0.7816164E-02  0.1184000E+00
        -11   -1    0    0    0    0  0.00000000000E+00  0.00000000000E+00  0.45593999997E+02  0.45594000000E+02  0.51100000000E-03 0. -1.
         11   -1    0    0    0    0 -0.00000000000E+00 -0.00000000000E+00 -0.45593999997E+02  0.45594000000E+02  0.51100000000E-03 0.  1.
         23    2    1    2    0    0  0.00000000000E+00  0.00000000000E+00 -0.71054273576E-14  0.91188000000E+02  0.91188000000E+02 0.  0.
    9900012    2    3    3    0    0 -0.20029899381E+02 -0.51800318891E+01  0.38152243157E+02  0.47787271233E+02  0.20000000858E+02 0.  0.
        -12    1    3    3    0    0  0.20029899381E+02  0.51800318891E+01 -0.38152243157E+02  0.43400728767E+02  0.00000000000E+00 0.  1.
         11    1    4    4    0    0 -0.11888229045E+01 -0.69972054019E+00  0.24570341993E+01  0.28177874388E+01  0.51100000000E-03 0. -1.
        -11    1    4    4    0    0 -0.10814186617E+02  0.32372936301E+01  0.30804349070E+02  0.32807539135E+02  0.51100000000E-03 0.  1.
        -12    1    4    4    0    0 -0.80268898600E+01 -0.77176049791E+01  0.48908598885E+01  0.12161944659E+02  0.00000000000E+00 0.  1.
</event>
<event>
 8    1  0.2994958E-010  0.9118800E+02  0.7816164E-02  0.1184000E+00
        -11   -1    0    0    0    0  0.00000000000E+00  0.00000000000E+00  0.45593999997E+02  0.45594000000E+02  0.51100000000E-03 0. -1.
         11   -1    0    0    0    0 -0.00000000000E+00 -0.00000000000E+00 -0.45593999997E+02  0.45594000000E+02  0.51100000000E-03 0.  1.
         23    2    1    2    0    0 -0.88817841970E-15  0.00000000000E+00  0.00000000000E+00  0.91188000000E+02  0.91188000000E+02 0.  0.
    9900012    2    3    3    0    0  0.71489903286E+01  0.21589260400E+02  0.36965102432E+02  0.47787273910E+02  0.20000013065E+02 0.  0.
        -12    1    3    3    0    0 -0.71489903286E+01 -0.21589260400E+02 -0.36965102432E+02  0.43400726090E+02  0.00000000000E+00 0.  1.
         11    1    4    4    0    0  0.13573772959E-01  0.14239407138E+02  0.25241921058E+02  0.28981295328E+02  0.51100000000E-03 0. -1.
        -11    1    4    4    0    0  0.41488837147E+01  0.99160534350E+01  0.81588989237E+01  0.13494776164E+02  0.51100000000E-03 0.  1.
         12    1    4    4    0    0  0.29865328409E+01 -0.25662001739E+01  0.35642824506E+01  0.53112024185E+01  0.00000000000E+00 0. -1.
</event>
<event>
 8    1  0.3964561E-010  0.9118800E+02  0.7816164E-02  0.1184000E+00
        -11   -1    0    0    0    0  0.00000000000E+00  0.00000000000E+00  0.45593999997E+02  0.45594000000E+02  0.51100000000E-03 0. -1.
         11   -1    0    0    0    0 -0.00000000000E+00 -0.00000000000E+00 -0.45593999997E+02  0.45594000000E+02  0.51100000000E-03 0.  1.
         23    2    1    2    0    0  0.00000000000E+00  0.00000000000E+00  0.00000000000E+00  0.91188000000E+02  0.91188000000E+02 0.  0.
    9900012    2    3    3    0    0 -0.16360854957E+02  0.10949681156E+02  0.38678809286E+02  0.47787269821E+02  0.19999994420E+02 0.  0.
        -12    1    3    3    0    0  0.16360854957E+02 -0.10949681156E+02 -0.38678809286E+02  0.43400730179E+02  0.00000000000E+00 0.  1.
         11    1    4    4    0    0 -0.84374953844E+01 -0.22682382168E+00  0.84205067377E+01  0.11922571509E+02  0.51100000000E-03 0. -1.
        -11    1    4    4    0    0 -0.10698468410E+01  0.34863244650E+00 -0.13500553299E+01  0.17574886915E+01  0.51100000000E-03 0.  1.
         12    1    4    4    0    0 -0.68535127314E+01  0.10827872532E+02  0.31608357878E+02  0.34107209620E+02  0.00000000000E+00 0. -1.
</event>
<event>
 8    1  0.2994958E-010  0.9118800E+02  0.7816164E-02  0.1184000E+00
        -11   -1    0    0    0    0  0.00000000000E+00  0.00000000000E+00  0.45593999997E+02  0.45594000000E+02  0.51100000000E-03 0. -1.
         11   -1    0    0    0    0 -0.00000000000E+00 -0.00000000000E+00 -0.45593999997E+02  0.45594000000E+02  0.51100000000E-03 0.  1.
         23    2    1    2    0    0  0.88817841970E-15  0.35527136788E-14  0.00000000000E+00  0.91188000000E+02  0.91188000000E+02 0.  0.
    9900012    2    3    3    0    0  0.74981492199E+01  0.21679519382E+02 -0.36842902475E+02  0.47787271145E+02  0.20000000458E+02 0.  0.
         12    1    3    3    0    0 -0.74981492199E+01 -0.21679519382E+02  0.36842902475E+02  0.43400728855E+02  0.00000000000E+00 0. -1.
         11    1    4    4    0    0  0.17060784485E+01  0.12224524825E+02 -0.10081438184E+02  0.15936910208E+02  0.51100000000E-03 0. -1.
        -11    1    4    4    0    0 -0.19964319503E+01  0.17070728284E+00  0.45773469219E+00  0.20553352082E+01  0.51100000000E-03 0.  1.
        -12    1    4    4    0    0  0.77885027216E+01  0.92842872737E+01 -0.27219198984E+02  0.29795025728E+02  0.00000000000E+00 0.  1.
</event>
<event>
 8    1  0.2994958E-010  0.9118800E+02  0.7816164E-02  0.1184000E+00
        -11   -1    0    0    0    0  0.00000000000E+00  0.00000000000E+00  0.45593999997E+02  0.45594000000E+02  0.51100000000E-03 0. -1.
         11   -1    0    0    0    0 -0.00000000000E+00 -0.00000000000E+00 -0.45593999997E+02  0.45594000000E+02  0.51100000000E-03 0.  1.
         23    2    1    2    0    0  0.00000000000E+00  0.00000000000E+00  0.00000000000E+00  0.91188000000E+02  0.91188000000E+02 0.  0.
    9900012    2    3    3    0    0 -0.34102112309E+02  0.13819121024E+02  0.23015235276E+02  0.47787271612E+02  0.20000002588E+02 0.  0.
        -12    1    3    3    0    0  0.34102112309E+02 -0.13819121024E+02 -0.23015235276E+02  0.43400728388E+02  0.00000000000E+00 0.  1.
         11    1    4    4    0    0 -0.69978387508E+01  0.44998912000E+01  0.15833798404E+02  0.17886529573E+02  0.51100000000E-03 0. -1.
        -11    1    4    4    0    0 -0.62416651020E+01  0.16504166346E+01  0.35834015583E+01  0.73839708357E+01  0.51100000000E-03 0.  1.
        -12    1    4    4    0    0 -0.20862608456E+02  0.76688131896E+01  0.35980353139E+01  0.22516771204E+02  0.00000000000E+00 0.  1.
</event>
<event>
 8    1  0.2994958E-010  0.9118800E+02  0.7816164E-02  0.1184000E+00
        -11   -1    0    0    0    0  0.00000000000E+00  0.00000000000E+00  0.45593999997E+02  0.45594000000E+02  0.51100000000E-03 0. -1.
         11   -1    0    0    0    0 -0.00000000000E+00 -0.00000000000E+00 -0.45593999997E+02  0.45594000000E+02  0.51100000000E-03 0.  1.
         23    2    1    2    0    0 -0.17763568394E-14  0.11102230246E-15 -0.71054273576E-14  0.91188000000E+02  0.91188000000E+02 0.  0.
    9900012    2    3    3    0    0  0.12589982636E+02  0.79820937924E+00  0.41526815993E+02  0.47787294390E+02  0.20000106441E+02 0.  0.
        -12    1    3    3    0    0 -0.12589982636E+02 -0.79820937924E+00 -0.41526815993E+02  0.43400705610E+02  0.00000000000E+00 0.  1.
         11    1    4    4    0    0  0.51430431170E+01 -0.18917769753E+01  0.15291168002E+02  0.16243445809E+02  0.51100000000E-03 0. -1.
        -11    1    4    4    0    0 -0.43853046664E+01 -0.18591033900E+01  0.85010534234E+01  0.97444893145E+01  0.51100000000E-03 0.  1.
        -12    1    4    4    0    0  0.11832244185E+02  0.45490897445E+01  0.17734594567E+02  0.21799359266E+02  0.00000000000E+00 0.  1.
</event>
<event>
 8    1  0.2994958E-010  0.9118800E+02  0.7816164E-02  0.1184000E+00
        -11   -1    0    0    0    0  0.00000000000E+00  0.00000000000E+00  0.45593999997E+02  0.45594000000E+02  0.51100000000E-03 0. -1.
         11   -1    0    0    0    0 -0.00000000000E+00 -0.00000000000E+00 -0.45593999997E+02  0.45594000000E+02  0.51100000000E-03 0.  1.
         23    2    1    2    0    0 -0.35527136788E-14  0.35527136788E-14  0.00000000000E+00  0.91188000000E+02  0.91188000000E+02 0.  0.
    9900012    2    3    3    0    0 -0.28890510868E+02  0.29247435287E+02 -0.13912191031E+02  0.47787272490E+02  0.20000006591E+02 0.  0.
         12    1    3    3    0    0  0.28890510868E+02 -0.29247435287E+02  0.13912191031E+02  0.43400727510E+02  0.00000000000E+00 0. -1.
         11    1    4    4    0    0 -0.74419389906E+01  0.25203182303E+01  0.93139171037E+00  0.79121394516E+01  0.51100000000E-03 0. -1.
        -11    1    4    4    0    0 -0.45872245299E+01  0.35202448349E+01 -0.88476842417E+01  0.10569591728E+02  0.51100000000E-03 0.  1.
        -12    1    4    4    0    0 -0.16861347348E+02  0.23206872222E+02 -0.59958985000E+01  0.29305541311E+02  0.00000000000E+00 0.  1.
</event>
<event>
 8    1  0.2994958E-010  0.9118800E+02  0.7816164E-02  0.1184000E+00
        -11   -1    0    0    0    0  0.00000000000E+00  0.00000000000E+00  0.45593999997E+02  0.45594000000E+02  0.51100000000E-03 0. -1.
         11   -1    0    0    0    0 -0.00000000000E+00 -0.00000000000E+00 -0.45593999997E+02  0.45594000000E+02  0.51100000000E-03 0.  1.
         23    2    1    2    0    0  0.00000000000E+00  0.35527136788E-14  0.71054273576E-14  0.91188000000E+02  0.91188000000E+02 0.  0.
    9900012    2    3    3    0    0  0.26389731724E+01  0.28526038708E+02  0.32602516539E+02  0.47787272489E+02  0.20000006588E+02 0.  0.
        -12    1    3    3    0    0 -0.26389731724E+01 -0.28526038708E+02 -0.32602516539E+02  0.43400727511E+02  0.00000000000E+00 0.  1.
         11    1    4    4    0    0  0.63572273956E+00  0.17177040176E+02  0.18161996432E+02  0.25006258562E+02  0.51100000000E-03 0. -1.
        -11    1    4    4    0    0  0.17662352516E+01  0.91782765515E+01  0.17010142590E+02  0.19408897408E+02  0.51100000000E-03 0.  1.
        -12    1    4    4    0    0  0.23701518117E+00  0.21707219808E+01 -0.25696224829E+01  0.33721165192E+01  0.00000000000E+00 0.  1.
</event>
<event>
 8    1  0.2994958E-010  0.9118800E+02  0.7816164E-02  0.1184000E+00
        -11   -1    0    0    0    0  0.00000000000E+00  0.00000000000E+00  0.45593999997E+02  0.45594000000E+02  0.51100000000E-03 0.  1.
         11   -1    0    0    0    0 -0.00000000000E+00 -0.00000000000E+00 -0.45593999997E+02  0.45594000000E+02  0.51100000000E-03 0. -1.
         23    2    1    2    0    0  0.00000000000E+00  0.88817841970E-15  0.00000000000E+00  0.91188000000E+02  0.91188000000E+02 0.  0.
    9900012    2    3    3    0    0 -0.39983723125E+02 -0.37749348355E+01  0.16452204668E+02  0.47787270901E+02  0.19999999345E+02 0.  0.
        -12    1    3    3    0    0  0.39983723125E+02  0.37749348355E+01 -0.16452204668E+02  0.43400729099E+02  0.00000000000E+00 0.  1.
         11    1    4    4    0    0 -0.74459813101E+01  0.40289511477E+01  0.20538324523E+01  0.87116768205E+01  0.51100000000E-03 0. -1.
        -11    1    4    4    0    0 -0.13523904980E+01  0.30254070726E+01  0.13418035343E+01  0.35752601304E+01  0.51100000000E-03 0.  1.
         12    1    4    4    0    0 -0.31185351317E+02 -0.10829293056E+02  0.13056568681E+02  0.35500333950E+02  0.00000000000E+00 0. -1.
</event>
<event>
 8    1  0.2994958E-010  0.9118800E+02  0.7816164E-02  0.1184000E+00
        -11   -1    0    0    0    0  0.00000000000E+00  0.00000000000E+00  0.45593999997E+02  0.45594000000E+02  0.51100000000E-03 0. -1.
         11   -1    0    0    0    0 -0.00000000000E+00 -0.00000000000E+00 -0.45593999997E+02  0.45594000000E+02  0.51100000000E-03 0.  1.
         23    2    1    2    0    0  0.00000000000E+00  0.00000000000E+00  0.00000000000E+00  0.91188000000E+02  0.91188000000E+02 0.  0.
    9900012    2    3    3    0    0 -0.74196142597E+01  0.23299087662E+02  0.35857004136E+02  0.47787275268E+02  0.20000019257E+02 0.  0.
        -12    1    3    3    0    0  0.74196142597E+01 -0.23299087662E+02 -0.35857004136E+02  0.43400724732E+02  0.00000000000E+00 0.  1.
         11    1    4    4    0    0 -0.79146701628E+00 -0.59566445237E+00  0.60674726564E+00  0.11616276009E+01  0.51100000000E-03 0. -1.
        -11    1    4    4    0    0  0.12909951342E+01  0.16223198945E+01 -0.17539474509E+01  0.27156807983E+01  0.51100000000E-03 0.  1.
         12    1    4    4    0    0 -0.79191423776E+01  0.22272432220E+02  0.37004204321E+02  0.43909966869E+02  0.00000000000E+00 0. -1.
</event>
<event>
 8    1  0.2994958E-010  0.9118800E+02  0.7816164E-02  0.1184000E+00
        -11   -1    0    0    0    0  0.00000000000E+00  0.00000000000E+00  0.45593999997E+02  0.45594000000E+02  0.51100000000E-03 0. -1.
         11   -1    0    0    0    0 -0.00000000000E+00 -0.00000000000E+00 -0.45593999997E+02  0.45594000000E+02  0.51100000000E-03 0.  1.
         23    2    1    2    0    0  0.00000000000E+00  0.00000000000E+00  0.00000000000E+00  0.91188000000E+02  0.91188000000E+02 0.  0.
    9900012    2    3    3    0    0  0.93336849877E+01  0.51977426141E+01 -0.42065296516E+02  0.47787269882E+02  0.19999994702E+02 0.  0.
         12    1    3    3    0    0 -0.93336849877E+01 -0.51977426141E+01  0.42065296516E+02  0.43400730118E+02  0.00000000000E+00 0. -1.
         11    1    4    4    0    0  0.40747240475E+00 -0.20730991990E+01 -0.36549592164E+01  0.42216704258E+01  0.51100000000E-03 0. -1.
        -11    1    4    4    0    0  0.15921608629E+01  0.39792716079E+01  0.37720306141E-01  0.42861406679E+01  0.51100000000E-03 0.  1.
        -12    1    4    4    0    0  0.73340517201E+01  0.32915702052E+01 -0.38448057606E+02  0.39279458789E+02  0.00000000000E+00 0.  1.
</event>
<event>
 8    1  0.2994958E-010  0.9118800E+02  0.7816164E-02  0.1184000E+00
        -11   -1    0    0    0    0  0.00000000000E+00  0.00000000000E+00  0.45593999997E+02  0.45594000000E+02  0.51100000000E-03 0. -1.
         11   -1    0    0    0    0 -0.00000000000E+00 -0.00000000000E+00 -0.45593999997E+02  0.45594000000E+02  0.51100000000E-03 0.  1.
         23    2    1    2    0    0  0.00000000000E+00  0.44408920985E-15  0.00000000000E+00  0.91188000000E+02  0.91188000000E+02 0.  0.
    9900012    2    3    3    0    0  0.12752496069E+02 -0.29722438759E+01  0.41378336687E+02  0.47787226544E+02  0.19999797103E+02 0.  0.
        -12    1    3    3    0    0 -0.12752496069E+02  0.29722438759E+01 -0.41378336687E+02  0.43400773456E+02  0.00000000000E+00 0.  1.
         11    1    4    4    0    0  0.36841390525E+01 -0.46895448582E+01  0.53451447597E+01  0.80084508051E+01  0.51100000000E-03 0. -1.
        -11    1    4    4    0    0  0.87902338918E+01 -0.46926920820E+01  0.26267755439E+02  0.28094208423E+02  0.51100000000E-03 0.  1.
        -12    1    4    4    0    0  0.27812312432E+00  0.64099930642E+01  0.97654364881E+01  0.11684567316E+02  0.00000000000E+00 0.  1.
</event>
<event>
 8    1  0.2994958E-010  0.9118800E+02  0.7816164E-02  0.1184000E+00
        -11   -1    0    0    0    0  0.00000000000E+00  0.00000000000E+00  0.45593999997E+02  0.45594000000E+02  0.51100000000E-03 0. -1.
         11   -1    0    0    0    0 -0.00000000000E+00 -0.00000000000E+00 -0.45593999997E+02  0.45594000000E+02  0.51100000000E-03 0.  1.
         23    2    1    2    0    0 -0.35527136788E-14  0.00000000000E+00  0.71054273576E-14  0.91188000000E+02  0.91188000000E+02 0.  0.
    9900012    2    3    3    0    0  0.27510362779E+02  0.39559510019E+01 -0.33333962624E+02  0.47787277970E+02  0.20000031575E+02 0.  0.
         12    1    3    3    0    0 -0.27510362779E+02 -0.39559510019E+01  0.33333962624E+02  0.43400722030E+02  0.00000000000E+00 0. -1.
         11    1    4    4    0    0  0.89572869360E+01  0.84183334679E+00 -0.16223379275E+01  0.91418626795E+01  0.51100000000E-03 0. -1.
        -11    1    4    4    0    0  0.53728761233E+00 -0.25308339040E+01 -0.14179847396E+01  0.29503354404E+01  0.51100000000E-03 0.  1.
        -12    1    4    4    0    0  0.18015788230E+02  0.56449515591E+01 -0.30293639957E+02  0.35695079850E+02  0.00000000000E+00 0.  1.
</event>
<event>
 8    1  0.2994958E-010  0.9118800E+02  0.7816164E-02  0.1184000E+00
        -11   -1    0    0    0    0  0.00000000000E+00  0.00000000000E+00  0.45593999997E+02  0.45594000000E+02  0.51100000000E-03 0. -1.
         11   -1    0    0    0    0 -0.00000000000E+00 -0.00000000000E+00 -0.45593999997E+02  0.45594000000E+02  0.51100000000E-03 0.  1.
         23    2    1    2    0    0  0.88817841970E-15 -0.17763568394E-14  0.00000000000E+00  0.91188000000E+02  0.91188000000E+02 0.  0.
    9900012    2    3    3    0    0 -0.43175330240E+01  0.12085033540E+02 -0.41460029888E+02  0.47787271834E+02  0.20000003598E+02 0.  0.
         12    1    3    3    0    0  0.43175330240E+01 -0.12085033540E+02  0.41460029888E+02  0.43400728166E+02  0.00000000000E+00 0. -1.
         11    1    4    4    0    0 -0.17565919423E+01 -0.30391106431E+00 -0.29422299405E+00  0.18068050859E+01  0.51100000000E-03 0. -1.
        -11    1    4    4    0    0 -0.27913983443E+01  0.12082108489E+02 -0.13571717845E+02  0.18383709522E+02  0.51100000000E-03 0.  1.
         12    1    4    4    0    0  0.23045726266E+00  0.30683611524E+00 -0.27594089049E+02  0.27596757226E+02  0.00000000000E+00 0. -1.
</event>
<event>
 8    1  0.2994958E-010  0.9118800E+02  0.7816164E-02  0.1184000E+00
        -11   -1    0    0    0    0  0.00000000000E+00  0.00000000000E+00  0.45593999997E+02  0.45594000000E+02  0.51100000000E-03 0. -1.
         11   -1    0    0    0    0 -0.00000000000E+00 -0.00000000000E+00 -0.45593999997E+02  0.45594000000E+02  0.51100000000E-03 0.  1.
         23    2    1    2    0    0 -0.22204460493E-15  0.00000000000E+00  0.00000000000E+00  0.91188000000E+02  0.91188000000E+02 0.  0.
    9900012    2    3    3    0    0 -0.64722556610E+00  0.13577119663E+02  0.41217300599E+02  0.47787274800E+02  0.20000017121E+02 0.  0.
        -12    1    3    3    0    0  0.64722556610E+00 -0.13577119663E+02 -0.41217300599E+02  0.43400725200E+02  0.00000000000E+00 0.  1.
         11    1    4    4    0    0 -0.96254540257E+00  0.41785452994E+00  0.15904794393E+02  0.15939372039E+02  0.51100000000E-03 0. -1.
        -11    1    4    4    0    0 -0.43686115907E+00 -0.14998335567E+01 -0.90186085292E+00  0.18038019928E+01  0.51100000000E-03 0.  1.
         12    1    4    4    0    0  0.75218099554E+00  0.14659098689E+02  0.26214367059E+02  0.30044100768E+02  0.00000000000E+00 0. -1.
</event>
<event>
 8    1  0.3534047E-010  0.9118800E+02  0.7816164E-02  0.1184000E+00
        -11   -1    0    0    0    0  0.00000000000E+00  0.00000000000E+00  0.45593999997E+02  0.45594000000E+02  0.51100000000E-03 0. -1.
         11   -1    0    0    0    0 -0.00000000000E+00 -0.00000000000E+00 -0.45593999997E+02  0.45594000000E+02  0.51100000000E-03 0.  1.
         23    2    1    2    0    0  0.35527136788E-14  0.88817841970E-15  0.00000000000E+00  0.91188000000E+02  0.91188000000E+02 0.  0.
    9900012    2    3    3    0    0  0.23952703505E+02  0.41526849051E+01  0.35953395485E+02  0.47787269084E+02  0.19999991064E+02 0.  0.
        -12    1    3    3    0    0 -0.23952703505E+02 -0.41526849051E+01 -0.35953395485E+02  0.43400730916E+02  0.00000000000E+00 0.  1.
         11    1    4    4    0    0  0.21328261526E+01  0.24384064788E+01  0.22031959417E+01  0.39177603514E+01  0.51100000000E-03 0. -1.
        -11    1    4    4    0    0 -0.28504786661E+01 -0.13570215288E+01  0.41464150805E+01  0.52114771741E+01  0.51100000000E-03 0.  1.
         12    1    4    4    0    0  0.24670356019E+02  0.30712999552E+01  0.29603784462E+02  0.38658031559E+02  0.00000000000E+00 0. -1.
</event>
<event>
 8    1  0.2994958E-010  0.9118800E+02  0.7816164E-02  0.1184000E+00
        -11   -1    0    0    0    0  0.00000000000E+00  0.00000000000E+00  0.45593999997E+02  0.45594000000E+02  0.51100000000E-03 0. -1.
         11   -1    0    0    0    0 -0.00000000000E+00 -0.00000000000E+00 -0.45593999997E+02  0.45594000000E+02  0.51100000000E-03 0.  1.
         23    2    1    2    0    0  0.00000000000E+00 -0.17763568394E-14  0.00000000000E+00  0.91188000000E+02  0.91188000000E+02 0.  0.
    9900012    2    3    3    0    0 -0.31532678354E+02  0.12949735987E+02 -0.26862949508E+02  0.47787268179E+02  0.19999986937E+02 0.  0.
         12    1    3    3    0    0  0.31532678354E+02 -0.12949735987E+02  0.26862949508E+02  0.43400731821E+02  0.00000000000E+00 0. -1.
         11    1    4    4    0    0 -0.90993643682E+01  0.70572756883E+01 -0.31900732513E+01  0.11949064384E+02  0.51100000000E-03 0. -1.
        -11    1    4    4    0    0 -0.22345982949E+02  0.83033128310E+01 -0.18654513219E+02  0.30270097813E+02  0.51100000000E-03 0.  1.
        -12    1    4    4    0    0 -0.87331036652E-01 -0.24108525329E+01 -0.50183630383E+01  0.55681059822E+01  0.00000000000E+00 0.  1.
</event>
<event>
 8    1  0.2994958E-010  0.9118800E+02  0.7816164E-02  0.1184000E+00
        -11   -1    0    0    0    0  0.00000000000E+00  0.00000000000E+00  0.45593999997E+02  0.45594000000E+02  0.51100000000E-03 0.  1.
         11   -1    0    0    0    0 -0.00000000000E+00 -0.00000000000E+00 -0.45593999997E+02  0.45594000000E+02  0.51100000000E-03 0. -1.
         23    2    1    2    0    0  0.00000000000E+00  0.00000000000E+00  0.88817841970E-15  0.91188000000E+02  0.91188000000E+02 0.  0.
    9900012    2    3    3    0    0  0.42798182399E+02 -0.14147200108E+01  0.70666664990E+01  0.47787267002E+02  0.19999981569E+02 0.  0.
         12    1    3    3    0    0 -0.42798182399E+02  0.14147200108E+01 -0.70666664990E+01  0.43400732998E+02  0.00000000000E+00 0. -1.
         11    1    4    4    0    0  0.12743593754E+02 -0.67048438254E+01  0.32511018604E+01  0.14762241567E+02  0.51100000000E-03 0. -1.
        -11    1    4    4    0    0  0.14196370064E+02  0.77409749123E+00  0.75802584075E+01  0.16111997632E+02  0.51100000000E-03 0.  1.
         12    1    4    4    0    0  0.15858218581E+02  0.45160263233E+01 -0.37646937689E+01  0.16913027804E+02  0.00000000000E+00 0. -1.
</event>
<event>
 8    1  0.2994958E-010  0.9118800E+02  0.7816164E-02  0.1184000E+00
        -11   -1    0    0    0    0  0.00000000000E+00  0.00000000000E+00  0.45593999997E+02  0.45594000000E+02  0.51100000000E-03 0. -1.
         11   -1    0    0    0    0 -0.00000000000E+00 -0.00000000000E+00 -0.45593999997E+02  0.45594000000E+02  0.51100000000E-03 0.  1.
         23    2    1    2    0    0  0.22204460493E-15  0.00000000000E+00  0.00000000000E+00  0.91188000000E+02  0.91188000000E+02 0.  0.
    9900012    2    3    3    0    0  0.14579242113E+01 -0.12511393079E+02  0.41532673091E+02  0.47787269201E+02  0.19999991595E+02 0.  0.
        -12    1    3    3    0    0 -0.14579242113E+01  0.12511393079E+02 -0.41532673091E+02  0.43400730799E+02  0.00000000000E+00 0.  1.
         11    1    4    4    0    0  0.28200567446E+01 -0.23952963978E+01  0.39660496320E+01  0.54239943603E+01  0.51100000000E-03 0. -1.
        -11    1    4    4    0    0  0.45787526104E+01  0.27976006060E+01  0.10322732823E+02  0.11634017269E+02  0.51100000000E-03 0.  1.
         12    1    4    4    0    0 -0.59408851438E+01 -0.12913697287E+02  0.27243890636E+02  0.30729257571E+02  0.00000000000E+00 0. -1.
</event>
<event>
 8    1  0.2994958E-010  0.9118800E+02  0.7816164E-02  0.1184000E+00
        -11   -1    0    0    0    0  0.00000000000E+00  0.00000000000E+00  0.45593999997E+02  0.45594000000E+02  0.51100000000E-03 0. -1.
         11   -1    0    0    0    0 -0.00000000000E+00 -0.00000000000E+00 -0.45593999997E+02  0.45594000000E+02  0.51100000000E-03 0.  1.
         23    2    1    2    0    0  0.00000000000E+00  0.00000000000E+00  0.00000000000E+00  0.91188000000E+02  0.91188000000E+02 0.  0.
    9900012    2    3    3    0    0 -0.74235047796E+01 -0.31486175719E+02 -0.28933299040E+02  0.47787268693E+02  0.19999989279E+02 0.  0.
         12    1    3    3    0    0  0.74235047796E+01  0.31486175719E+02  0.28933299040E+02  0.43400731307E+02  0.00000000000E+00 0. -1.
         11    1    4    4    0    0 -0.97571413422E+01 -0.18623145502E+02 -0.15410840152E+02  0.26067553587E+02  0.51100000000E-03 0. -1.
        -11    1    4    4    0    0  0.65592630007E+00 -0.14566712226E+02 -0.12007222490E+02  0.18888958060E+02  0.51100000000E-03 0.  1.
         12    1    4    4    0    0  0.16777102625E+01  0.17036820091E+01 -0.15152363978E+01  0.28307570461E+01  0.00000000000E+00 0. -1.
</event>
<event>
 8    1  0.2994958E-010  0.9118800E+02  0.7816164E-02  0.1184000E+00
        -11   -1    0    0    0    0  0.00000000000E+00  0.00000000000E+00  0.45593999997E+02  0.45594000000E+02  0.51100000000E-03 0.  1.
         11   -1    0    0    0    0 -0.00000000000E+00 -0.00000000000E+00 -0.45593999997E+02  0.45594000000E+02  0.51100000000E-03 0. -1.
         23    2    1    2    0    0  0.00000000000E+00  0.00000000000E+00 -0.35527136788E-14  0.91188000000E+02  0.91188000000E+02 0.  0.
    9900012    2    3    3    0    0 -0.32546049258E+02  0.16935881584E+02 -0.23185265288E+02  0.47787240400E+02  0.19999860281E+02 0.  0.
         12    1    3    3    0    0  0.32546049258E+02 -0.16935881584E+02  0.23185265288E+02  0.43400759600E+02  0.00000000000E+00 0. -1.
         11    1    4    4    0    0 -0.72134470067E+01 -0.17335382515E+01 -0.53668137595E+01  0.91565093118E+01  0.51100000000E-03 0. -1.
        -11    1    4    4    0    0 -0.13219751010E+02  0.79874743609E+01 -0.12540828578E+01  0.15496266890E+02  0.51100000000E-03 0.  1.
        -12    1    4    4    0    0 -0.12112851241E+02  0.10681945474E+02 -0.16564368671E+02  0.23134464199E+02  0.00000000000E+00 0.  1.
</event>
<event>
 8    1  0.2994958E-010  0.9118800E+02  0.7816164E-02  0.1184000E+00
        -11   -1    0    0    0    0  0.00000000000E+00  0.00000000000E+00  0.45593999997E+02  0.45594000000E+02  0.51100000000E-03 0. -1.
         11   -1    0    0    0    0 -0.00000000000E+00 -0.00000000000E+00 -0.45593999997E+02  0.45594000000E+02  0.51100000000E-03 0.  1.
         23    2    1    2    0    0  0.00000000000E+00  0.88817841970E-15  0.00000000000E+00  0.91188000000E+02  0.91188000000E+02 0.  0.
    9900012    2    3    3    0    0  0.37772769088E+02  0.39337081061E+01 -0.21008729115E+02  0.47787276007E+02  0.20000022627E+02 0.  0.
         12    1    3    3    0    0 -0.37772769088E+02 -0.39337081061E+01  0.21008729115E+02  0.43400723993E+02  0.00000000000E+00 0. -1.
         11    1    4    4    0    0  0.69636808356E+01  0.35934744547E+01  0.10126956057E+01  0.79013582431E+01  0.51100000000E-03 0. -1.
        -11    1    4    4    0    0  0.27216570400E+02  0.46204577688E+01 -0.19196972003E+02  0.33624605108E+02  0.51100000000E-03 0.  1.
         12    1    4    4    0    0  0.35925178526E+01 -0.42802241174E+01 -0.28244527181E+01  0.62613126557E+01  0.00000000000E+00 0. -1.
</event>
<event>
 8    1  0.3337464E-010  0.9118800E+02  0.7816164E-02  0.1184000E+00
        -11   -1    0    0    0    0  0.00000000000E+00  0.00000000000E+00  0.45593999997E+02  0.45594000000E+02  0.51100000000E-03 0. -1.
         11   -1    0    0    0    0 -0.00000000000E+00 -0.00000000000E+00 -0.45593999997E+02  0.45594000000E+02  0.51100000000E-03 0.  1.
         23    2    1    2    0    0  0.44408920985E-15  0.00000000000E+00  0.00000000000E+00  0.91188000000E+02  0.91188000000E+02 0.  0.
    9900012    2    3    3    0    0  0.39836832071E+01  0.19939661623E+02  0.38342710415E+02  0.47787270980E+02  0.19999999704E+02 0.  0.
        -12    1    3    3    0    0 -0.39836832071E+01 -0.19939661623E+02 -0.38342710415E+02  0.43400729020E+02  0.00000000000E+00 0.  1.
         11    1    4    4    0    0  0.10094491828E+02  0.99644226962E+01  0.14662994123E+02  0.20400781403E+02  0.51100000000E-03 0. -1.
        -11    1    4    4    0    0 -0.21492435790E+01  0.16887442493E+01  0.98799787132E+00  0.29064144846E+01  0.51100000000E-03 0.  1.
         12    1    4    4    0    0 -0.39615650423E+01  0.82864946780E+01  0.22691718420E+02  0.24480075092E+02  0.00000000000E+00 0. -1.
</event>
<event>
 8    1  0.2994958E-010  0.9118800E+02  0.7816164E-02  0.1184000E+00
        -11   -1    0    0    0    0  0.00000000000E+00  0.00000000000E+00  0.45593999997E+02  0.45594000000E+02  0.51100000000E-03 0. -1.
         11   -1    0    0    0    0 -0.00000000000E+00 -0.00000000000E+00 -0.45593999997E+02  0.45594000000E+02  0.51100000000E-03 0.  1.
         23    2    1    2    0    0  0.00000000000E+00  0.00000000000E+00  0.00000000000E+00  0.91188000000E+02  0.91188000000E+02 0.  0.
    9900012    2    3    3    0    0  0.14087190028E+02 -0.15650030663E+02  0.37950661747E+02  0.47787249895E+02  0.19999903573E+02 0.  0.
        -12    1    3    3    0    0 -0.14087190028E+02  0.15650030663E+02 -0.37950661747E+02  0.43400750105E+02  0.00000000000E+00 0.  1.
         11    1    4    4    0    0  0.12935692304E+02 -0.30040485116E+00  0.18384168809E+02  0.22481104099E+02  0.51100000000E-03 0. -1.
        -11    1    4    4    0    0 -0.75098043344E+00 -0.80952327048E+00  0.29206100669E+01  0.31223809762E+01  0.51100000000E-03 0.  1.
         12    1    4    4    0    0  0.19024781574E+01 -0.14540102542E+02  0.16645882871E+02  0.22183764820E+02  0.00000000000E+00 0. -1.
</event>
<event>
 8    1  0.2994958E-010  0.9118800E+02  0.7816164E-02  0.1184000E+00
        -11   -1    0    0    0    0  0.00000000000E+00  0.00000000000E+00  0.45593999997E+02  0.45594000000E+02  0.51100000000E-03 0. -1.
         11   -1    0    0    0    0 -0.00000000000E+00 -0.00000000000E+00 -0.45593999997E+02  0.45594000000E+02  0.51100000000E-03 0.  1.
         23    2    1    2    0    0 -0.35527136788E-14  0.00000000000E+00  0.44408920985E-15  0.91188000000E+02  0.91188000000E+02 0.  0.
    9900012    2    3    3    0    0  0.21708599747E+02  0.37418949413E+02  0.34903008847E+01  0.47787270992E+02  0.19999999759E+02 0.  0.
        -12    1    3    3    0    0 -0.21708599747E+02 -0.37418949413E+02 -0.34903008847E+01  0.43400729008E+02  0.00000000000E+00 0.  1.
         11    1    4    4    0    0  0.15580121939E+02  0.35162278638E+02  0.58226713260E+01  0.38897680398E+02  0.51100000000E-03 0. -1.
        -11    1    4    4    0    0  0.54458139491E+01  0.29131843259E+01  0.20682471232E+00  0.61795071978E+01  0.51100000000E-03 0.  1.
         12    1    4    4    0    0  0.68266385894E+00 -0.65651355078E+00 -0.25391951536E+01  0.27100833963E+01  0.00000000000E+00 0. -1.
</event>
<event>
 8    1  0.2994958E-010  0.9118800E+02  0.7816164E-02  0.1184000E+00
        -11   -1    0    0    0    0  0.00000000000E+00  0.00000000000E+00  0.45593999997E+02  0.45594000000E+02  0.51100000000E-03 0. -1.
         11   -1    0    0    0    0 -0.00000000000E+00 -0.00000000000E+00 -0.45593999997E+02  0.45594000000E+02  0.51100000000E-03 0.  1.
         23    2    1    2    0    0  0.35527136788E-14  0.00000000000E+00 -0.35527136788E-14  0.91188000000E+02  0.91188000000E+02 0.  0.
    9900012    2    3    3    0    0 -0.80119989903E+01  0.36428528963E+02  0.22189942922E+02  0.47787269395E+02  0.19999992477E+02 0.  0.
        -12    1    3    3    0    0  0.80119989903E+01 -0.36428528963E+02 -0.22189942922E+02  0.43400730605E+02  0.00000000000E+00 0.  1.
         11    1    4    4    0    0 -0.29582447556E+00 -0.17193039798E+00 -0.50797664396E+00  0.61246445939E+00  0.51100000000E-03 0. -1.
        -11    1    4    4    0    0 -0.10516941296E+02  0.23823372435E+02  0.74523044248E+01  0.27086822809E+02  0.51100000000E-03 0.  1.
         12    1    4    4    0    0  0.28007667809E+01  0.12777086926E+02  0.15245615141E+02  0.20087982126E+02  0.00000000000E+00 0. -1.
</event>
<event>
 8    1  0.2994958E-010  0.9118800E+02  0.7816164E-02  0.1184000E+00
        -11   -1    0    0    0    0  0.00000000000E+00  0.00000000000E+00  0.45593999997E+02  0.45594000000E+02  0.51100000000E-03 0. -1.
         11   -1    0    0    0    0 -0.00000000000E+00 -0.00000000000E+00 -0.45593999997E+02  0.45594000000E+02  0.51100000000E-03 0.  1.
         23    2    1    2    0    0 -0.88817841970E-15  0.00000000000E+00  0.00000000000E+00  0.91188000000E+02  0.91188000000E+02 0.  0.
    9900012    2    3    3    0    0  0.46283894647E+01  0.42378759183E+02 -0.81389435290E+01  0.47787267049E+02  0.19999981784E+02 0.  0.
         12    1    3    3    0    0 -0.46283894647E+01 -0.42378759183E+02  0.81389435290E+01  0.43400732951E+02  0.00000000000E+00 0. -1.
         11    1    4    4    0    0 -0.91568345722E+00  0.66244950520E+01 -0.42520830513E+01  0.79248104976E+01  0.51100000000E-03 0. -1.
        -11    1    4    4    0    0  0.33691192272E+01  0.10084545612E+02 -0.85975876284E+01  0.13673607346E+02  0.51100000000E-03 0.  1.
        -12    1    4    4    0    0  0.21749536947E+01  0.25669718519E+02  0.47107271507E+01  0.26188849205E+02  0.00000000000E+00 0.  1.
</event>
<event>
 8    1  0.2994958E-010  0.9118800E+02  0.7816164E-02  0.1184000E+00
        -11   -1    0    0    0    0  0.00000000000E+00  0.00000000000E+00  0.45593999997E+02  0.45594000000E+02  0.51100000000E-03 0. -1.
         11   -1    0    0    0    0 -0.00000000000E+00 -0.00000000000E+00 -0.45593999997E+02  0.45594000000E+02  0.51100000000E-03 0.  1.
         23    2    1    2    0    0  0.00000000000E+00 -0.88817841970E-15  0.00000000000E+00  0.91188000000E+02  0.91188000000E+02 0.  0.
    9900012    2    3    3    0    0 -0.34441489284E+01  0.37415819745E+01  0.43101760654E+02  0.47787269949E+02  0.19999995004E+02 0.  0.
        -12    1    3    3    0    0  0.34441489284E+01 -0.37415819745E+01 -0.43101760654E+02  0.43400730051E+02  0.00000000000E+00 0.  1.
         11    1    4    4    0    0  0.35644333884E+01 -0.11309062365E+01  0.73724733860E+01  0.82666497678E+01  0.51100000000E-03 0.  1.
        -11    1    4    4    0    0 -0.30524911615E+01 -0.47928074603E+01  0.18697390270E+02  0.19541778548E+02  0.51100000000E-03 0. -1.
         12    1    4    4    0    0 -0.39560911554E+01  0.96652956712E+01  0.17031896998E+02  0.19978841633E+02  0.00000000000E+00 0. -1.
</event>
<event>
 8    1  0.2994958E-010  0.9118800E+02  0.7816164E-02  0.1184000E+00
        -11   -1    0    0    0    0  0.00000000000E+00  0.00000000000E+00  0.45593999997E+02  0.45594000000E+02  0.51100000000E-03 0. -1.
         11   -1    0    0    0    0 -0.00000000000E+00 -0.00000000000E+00 -0.45593999997E+02  0.45594000000E+02  0.51100000000E-03 0.  1.
         23    2    1    2    0    0  0.00000000000E+00  0.00000000000E+00  0.00000000000E+00  0.91188000000E+02  0.91188000000E+02 0.  0.
    9900012    2    3    3    0    0 -0.28869516271E+01  0.20365724750E+02  0.38216796262E+02  0.47787300112E+02  0.20000132529E+02 0.  0.
        -12    1    3    3    0    0  0.28869516271E+01 -0.20365724750E+02 -0.38216796262E+02  0.43400699888E+02  0.00000000000E+00 0.  1.
         11    1    4    4    0    0  0.21226763455E+00 -0.15779783965E+01  0.83336832235E+01  0.84844180531E+01  0.51100000000E-03 0.  1.
        -11    1    4    4    0    0 -0.54345143658E+01  0.30816321687E+01  0.10047211696E+02  0.11831181950E+02  0.51100000000E-03 0. -1.
         12    1    4    4    0    0  0.23352951042E+01  0.18862070977E+02  0.19835901342E+02  0.27471700108E+02  0.00000000000E+00 0. -1.
</event>
<event>
 8    1  0.2994958E-010  0.9118800E+02  0.7816164E-02  0.1184000E+00
        -11   -1    0    0    0    0  0.00000000000E+00  0.00000000000E+00  0.45593999997E+02  0.45594000000E+02  0.51100000000E-03 0. -1.
         11   -1    0    0    0    0 -0.00000000000E+00 -0.00000000000E+00 -0.45593999997E+02  0.45594000000E+02  0.51100000000E-03 0.  1.
         23    2    1    2    0    0 -0.17763568394E-14  0.00000000000E+00 -0.35527136788E-14  0.91188000000E+02  0.91188000000E+02 0.  0.
    9900012    2    3    3    0    0  0.93345187114E+01  0.36772207233E+02  0.21078291585E+02  0.47787276037E+02  0.20000022763E+02 0.  0.
        -12    1    3    3    0    0 -0.93345187114E+01 -0.36772207233E+02 -0.21078291585E+02  0.43400723963E+02  0.00000000000E+00 0.  1.
         11    1    4    4    0    0  0.29483510137E+01  0.21503774356E+02  0.90381397173E+01  0.23511551524E+02  0.51100000000E-03 0. -1.
        -11    1    4    4    0    0  0.22530098037E+01  0.12840972643E+02  0.20528754861E+01  0.13197762295E+02  0.51100000000E-03 0.  1.
         12    1    4    4    0    0  0.41331578939E+01  0.24274602345E+01  0.99872763821E+01  0.11077962218E+02  0.00000000000E+00 0. -1.
</event>
<event>
 8    1  0.2994958E-010  0.9118800E+02  0.7816164E-02  0.1184000E+00
        -11   -1    0    0    0    0  0.00000000000E+00  0.00000000000E+00  0.45593999997E+02  0.45594000000E+02  0.51100000000E-03 0. -1.
         11   -1    0    0    0    0 -0.00000000000E+00 -0.00000000000E+00 -0.45593999997E+02  0.45594000000E+02  0.51100000000E-03 0.  1.
         23    2    1    2    0    0  0.00000000000E+00  0.88817841970E-15  0.00000000000E+00  0.91188000000E+02  0.91188000000E+02 0.  0.
    9900012    2    3    3    0    0  0.29201999160E+02 -0.56400005464E+01 -0.31607853855E+02  0.47787276660E+02  0.20000025605E+02 0.  0.
         12    1    3    3    0    0 -0.29201999160E+02  0.56400005464E+01  0.31607853855E+02  0.43400723340E+02  0.00000000000E+00 0. -1.
         11    1    4    4    0    0  0.35099658715E+01 -0.73757909178E+01 -0.76657531422E+01  0.11202049972E+02  0.51100000000E-03 0. -1.
        -11    1    4    4    0    0  0.68843028179E+01 -0.58007242252E+00 -0.12492590228E+01  0.70207376871E+01  0.51100000000E-03 0.  1.
         12    1    4    4    0    0  0.18807730470E+02  0.23158627940E+01 -0.22692841690E+02  0.29564489001E+02  0.00000000000E+00 0. -1.
</event>
<event>
 8    1  0.2994958E-010  0.9118800E+02  0.7816164E-02  0.1184000E+00
        -11   -1    0    0    0    0  0.00000000000E+00  0.00000000000E+00  0.45593999997E+02  0.45594000000E+02  0.51100000000E-03 0. -1.
         11   -1    0    0    0    0 -0.00000000000E+00 -0.00000000000E+00 -0.45593999997E+02  0.45594000000E+02  0.51100000000E-03 0.  1.
         23    2    1    2    0    0 -0.88817841970E-15  0.00000000000E+00  0.00000000000E+00  0.91188000000E+02  0.91188000000E+02 0.  0.
    9900012    2    3    3    0    0  0.73020193613E+01  0.16998990732E+02  0.39259878382E+02  0.47787271627E+02  0.20000002658E+02 0.  0.
        -12    1    3    3    0    0 -0.73020193613E+01 -0.16998990732E+02 -0.39259878382E+02  0.43400728373E+02  0.00000000000E+00 0.  1.
         11    1    4    4    0    0  0.65900956911E+01  0.35786576113E+01  0.13071634195E+02  0.15069962585E+02  0.51100000000E-03 0. -1.
        -11    1    4    4    0    0 -0.15182603433E+01 -0.78909423378E+00  0.13283921084E+02  0.13393668049E+02  0.51100000000E-03 0.  1.
         12    1    4    4    0    0  0.22301840134E+01  0.14209427355E+02  0.12904323103E+02  0.19323640993E+02  0.00000000000E+00 0. -1.
</event>
<event>
 8    1  0.2994958E-010  0.9118800E+02  0.7816164E-02  0.1184000E+00
        -11   -1    0    0    0    0  0.00000000000E+00  0.00000000000E+00  0.45593999997E+02  0.45594000000E+02  0.51100000000E-03 0.  1.
         11   -1    0    0    0    0 -0.00000000000E+00 -0.00000000000E+00 -0.45593999997E+02  0.45594000000E+02  0.51100000000E-03 0. -1.
         23    2    1    2    0    0  0.71054273576E-14  0.35527136788E-14  0.66613381478E-15  0.91188000000E+02  0.91188000000E+02 0.  0.
    9900012    2    3    3    0    0 -0.35994678363E+02 -0.24235009066E+02  0.81919972394E+00  0.47787267021E+02  0.19999981657E+02 0.  0.
        -12    1    3    3    0    0  0.35994678363E+02  0.24235009066E+02 -0.81919972394E+00  0.43400732979E+02  0.00000000000E+00 0.  1.
         11    1    4    4    0    0 -0.96933351267E+01 -0.44213271922E+01  0.78234242110E+01  0.13217974378E+02  0.51100000000E-03 0. -1.
        -11    1    4    4    0    0 -0.66884377737E+01 -0.13695174281E+01 -0.25082143347E+01  0.72733704187E+01  0.51100000000E-03 0.  1.
         12    1    4    4    0    0 -0.19612905463E+02 -0.18444164446E+02 -0.44960101524E+01  0.27295922224E+02  0.00000000000E+00 0. -1.
</event>
<event>
 8    1  0.2994958E-010  0.9118800E+02  0.7816164E-02  0.1184000E+00
        -11   -1    0    0    0    0  0.00000000000E+00  0.00000000000E+00  0.45593999997E+02  0.45594000000E+02  0.51100000000E-03 0. -1.
         11   -1    0    0    0    0 -0.00000000000E+00 -0.00000000000E+00 -0.45593999997E+02  0.45594000000E+02  0.51100000000E-03 0.  1.
         23    2    1    2    0    0 -0.22204460493E-15  0.00000000000E+00  0.00000000000E+00  0.91188000000E+02  0.91188000000E+02 0.  0.
    9900012    2    3    3    0    0  0.15506723962E+01 -0.85594354737E+01 -0.42520050494E+02  0.47787271728E+02  0.20000003117E+02 0.  0.
         12    1    3    3    0    0 -0.15506723962E+01  0.85594354737E+01  0.42520050494E+02  0.43400728272E+02  0.00000000000E+00 0. -1.
         11    1    4    4    0    0 -0.11510798950E+01 -0.79325625028E+01 -0.45406324408E+01  0.92123762412E+01  0.51100000000E-03 0. -1.
        -11    1    4    4    0    0 -0.13987430019E+01 -0.19314894469E+01 -0.11106142583E+02  0.11359292971E+02  0.51100000000E-03 0.  1.
         12    1    4    4    0    0  0.41004952931E+01  0.13046164761E+01 -0.26873275470E+02  0.27215602516E+02  0.00000000000E+00 0. -1.
</event>
<event>
 8    1  0.2994958E-010  0.9118800E+02  0.7816164E-02  0.1184000E+00
        -11   -1    0    0    0    0  0.00000000000E+00  0.00000000000E+00  0.45593999997E+02  0.45594000000E+02  0.51100000000E-03 0. -1.
         11   -1    0    0    0    0 -0.00000000000E+00 -0.00000000000E+00 -0.45593999997E+02  0.45594000000E+02  0.51100000000E-03 0.  1.
         23    2    1    2    0    0 -0.17763568394E-14  0.10547118734E-14  0.71054273576E-14  0.91188000000E+02  0.91188000000E+02 0.  0.
    9900012    2    3    3    0    0 -0.10630773833E+02  0.34964339437E+00  0.42077160268E+02  0.47787273981E+02  0.20000013387E+02 0.  0.
        -12    1    3    3    0    0  0.10630773833E+02 -0.34964339437E+00 -0.42077160268E+02  0.43400726019E+02  0.00000000000E+00 0.  1.
         11    1    4    4    0    0 -0.22154567807E+01 -0.54739020453E+00  0.23311263652E+02  0.23422700487E+02  0.51100000000E-03 0. -1.
        -11    1    4    4    0    0 -0.29086140966E+01  0.40039629483E+01  0.17134358997E+02  0.17834741763E+02  0.51100000000E-03 0.  1.
        -12    1    4    4    0    0 -0.55067029560E+01 -0.31069293494E+01  0.16315376189E+01  0.65298317306E+01  0.00000000000E+00 0.  1.
</event>
<event>
 8    1  0.2994958E-010  0.9118800E+02  0.7816164E-02  0.1184000E+00
        -11   -1    0    0    0    0  0.00000000000E+00  0.00000000000E+00  0.45593999997E+02  0.45594000000E+02  0.51100000000E-03 0.  1.
         11   -1    0    0    0    0 -0.00000000000E+00 -0.00000000000E+00 -0.45593999997E+02  0.45594000000E+02  0.51100000000E-03 0. -1.
         23    2    1    2    0    0  0.00000000000E+00 -0.35527136788E-14  0.00000000000E+00  0.91188000000E+02  0.91188000000E+02 0.  0.
    9900012    2    3    3    0    0 -0.31323584379E+02 -0.25394186292E+02  0.16049667781E+02  0.47787268766E+02  0.19999989610E+02 0.  0.
        -12    1    3    3    0    0  0.31323584379E+02  0.25394186292E+02 -0.16049667781E+02  0.43400731234E+02  0.00000000000E+00 0.  1.
         11    1    4    4    0    0 -0.74279799403E+01 -0.10651806040E+02  0.10684932396E+02  0.16816766588E+02  0.51100000000E-03 0. -1.
        -11    1    4    4    0    0 -0.32426226221E+01 -0.82268339721E+01  0.17574119872E+01  0.90157581948E+01  0.51100000000E-03 0.  1.
        -12    1    4    4    0    0 -0.20652981817E+02 -0.65155462804E+01  0.36073233976E+01  0.21954743983E+02  0.00000000000E+00 0.  1.
</event>
<event>
 8    1  0.2994958E-010  0.9118800E+02  0.7816164E-02  0.1184000E+00
        -11   -1    0    0    0    0  0.00000000000E+00  0.00000000000E+00  0.45593999997E+02  0.45594000000E+02  0.51100000000E-03 0.  1.
         11   -1    0    0    0    0 -0.00000000000E+00 -0.00000000000E+00 -0.45593999997E+02  0.45594000000E+02  0.51100000000E-03 0. -1.
         23    2    1    2    0    0  0.71054273576E-14  0.00000000000E+00  0.44408920985E-15  0.91188000000E+02  0.91188000000E+02 0.  0.
    9900012    2    3    3    0    0  0.43102266126E+02  0.34225406805E+01  0.37555053043E+01  0.47787274776E+02  0.20000017013E+02 0.  0.
         12    1    3    3    0    0 -0.43102266126E+02 -0.34225406805E+01 -0.37555053043E+01  0.43400725224E+02  0.00000000000E+00 0. -1.
         11    1    4    4    0    0  0.14860213621E+02  0.64330225948E+01  0.58752222380E+01  0.17225793600E+02  0.51100000000E-03 0. -1.
        -11    1    4    4    0    0  0.24517940802E+02  0.91577179788E-01  0.14207754082E+01  0.24559242874E+02  0.51100000000E-03 0.  1.
         12    1    4    4    0    0  0.37241117035E+01 -0.31020590941E+01 -0.35404923418E+01  0.60022383013E+01  0.00000000000E+00 0. -1.
</event>
<event>
 8    1  0.2994958E-010  0.9118800E+02  0.7816164E-02  0.1184000E+00
        -11   -1    0    0    0    0  0.00000000000E+00  0.00000000000E+00  0.45593999997E+02  0.45594000000E+02  0.51100000000E-03 0.  1.
         11   -1    0    0    0    0 -0.00000000000E+00 -0.00000000000E+00 -0.45593999997E+02  0.45594000000E+02  0.51100000000E-03 0. -1.
         23    2    1    2    0    0  0.00000000000E+00 -0.35527136788E-14  0.00000000000E+00  0.91188000000E+02  0.91188000000E+02 0.  0.
    9900012    2    3    3    0    0  0.34964218380E+02 -0.17923814910E+02  0.18435393365E+02  0.47787269172E+02  0.19999991463E+02 0.  0.
        -12    1    3    3    0    0 -0.34964218380E+02  0.17923814910E+02 -0.18435393365E+02  0.43400730828E+02  0.00000000000E+00 0.  1.
         11    1    4    4    0    0  0.25654613062E+02 -0.73211997837E+01  0.50084514301E+01  0.27144865511E+02  0.51100000000E-03 0. -1.
        -11    1    4    4    0    0  0.66513921965E+01 -0.69771324074E+01  0.44805243064E+01  0.10629980861E+02  0.51100000000E-03 0.  1.
        -12    1    4    4    0    0  0.26582131217E+01 -0.36254827192E+01  0.89464176281E+01  0.10012422800E+02  0.00000000000E+00 0.  1.
</event>
<event>
 8    1  0.2994958E-010  0.9118800E+02  0.7816164E-02  0.1184000E+00
        -11   -1    0    0    0    0  0.00000000000E+00  0.00000000000E+00  0.45593999997E+02  0.45594000000E+02  0.51100000000E-03 0. -1.
         11   -1    0    0    0    0 -0.00000000000E+00 -0.00000000000E+00 -0.45593999997E+02  0.45594000000E+02  0.51100000000E-03 0.  1.
         23    2    1    2    0    0  0.00000000000E+00  0.00000000000E+00  0.00000000000E+00  0.91188000000E+02  0.91188000000E+02 0.  0.
    9900012    2    3    3    0    0 -0.15968486746E+02 -0.88184203056E+01 -0.39381036237E+02  0.47787272809E+02  0.20000008044E+02 0.  0.
         12    1    3    3    0    0  0.15968486746E+02  0.88184203056E+01  0.39381036237E+02  0.43400727191E+02  0.00000000000E+00 0. -1.
         11    1    4    4    0    0 -0.35458056056E+01 -0.16142195939E+01 -0.42716339065E+01  0.57814616475E+01  0.51100000000E-03 0.  1.
        -11    1    4    4    0    0 -0.35691519032E+01  0.20794723157E+01 -0.25866701984E+02  0.26194452126E+02  0.51100000000E-03 0. -1.
         12    1    4    4    0    0 -0.88535292370E+01 -0.92836730274E+01 -0.92427003465E+01  0.15811359035E+02  0.00000000000E+00 0. -1.
</event>
<event>
 8    1  0.2994958E-010  0.9118800E+02  0.7816164E-02  0.1184000E+00
        -11   -1    0    0    0    0  0.00000000000E+00  0.00000000000E+00  0.45593999997E+02  0.45594000000E+02  0.51100000000E-03 0. -1.
         11   -1    0    0    0    0 -0.00000000000E+00 -0.00000000000E+00 -0.45593999997E+02  0.45594000000E+02  0.51100000000E-03 0.  1.
         23    2    1    2    0    0 -0.11102230246E-15  0.00000000000E+00  0.00000000000E+00  0.91188000000E+02  0.91188000000E+02 0.  0.
    9900012    2    3    3    0    0 -0.31953455292E+00 -0.13214731131E+02  0.41338748375E+02  0.47787270301E+02  0.19999996610E+02 0.  0.
        -12    1    3    3    0    0  0.31953455292E+00  0.13214731131E+02 -0.41338748375E+02  0.43400729699E+02  0.00000000000E+00 0.  1.
         11    1    4    4    0    0 -0.34512949870E+01 -0.12325446238E+01  0.12953540060E+02  0.13461976218E+02  0.51100000000E-03 0. -1.
        -11    1    4    4    0    0  0.26264320218E+01  0.99250601476E-01  0.18559009478E+02  0.18744194539E+02  0.51100000000E-03 0.  1.
         12    1    4    4    0    0  0.50532841225E+00 -0.12081437109E+02  0.98261988363E+01  0.15581099544E+02  0.00000000000E+00 0. -1.
</event>
<event>
 8    1  0.2994958E-010  0.9118800E+02  0.7816164E-02  0.1184000E+00
        -11   -1    0    0    0    0  0.00000000000E+00  0.00000000000E+00  0.45593999997E+02  0.45594000000E+02  0.51100000000E-03 0. -1.
         11   -1    0    0    0    0 -0.00000000000E+00 -0.00000000000E+00 -0.45593999997E+02  0.45594000000E+02  0.51100000000E-03 0.  1.
         23    2    1    2    0    0  0.00000000000E+00  0.00000000000E+00  0.00000000000E+00  0.91188000000E+02  0.91188000000E+02 0.  0.
    9900012    2    3    3    0    0  0.54296155964E+01  0.40479354286E+02  0.14682103257E+02  0.47787274143E+02  0.20000014126E+02 0.  0.
        -12    1    3    3    0    0 -0.54296155964E+01 -0.40479354286E+02 -0.14682103257E+02  0.43400725857E+02  0.00000000000E+00 0.  1.
         11    1    4    4    0    0  0.17639343582E+01  0.13264083224E+02 -0.19916752394E+01  0.13528271831E+02  0.51100000000E-03 0. -1.
        -11    1    4    4    0    0 -0.16086667838E+01  0.15604916960E+02  0.38059134869E+01  0.16142683169E+02  0.51100000000E-03 0.  1.
        -12    1    4    4    0    0  0.52743480220E+01  0.11610354101E+02  0.12867865009E+02  0.18116319143E+02  0.00000000000E+00 0.  1.
</event>
<event>
 8    1  0.2994958E-010  0.9118800E+02  0.7816164E-02  0.1184000E+00
        -11   -1    0    0    0    0  0.00000000000E+00  0.00000000000E+00  0.45593999997E+02  0.45594000000E+02  0.51100000000E-03 0. -1.
         11   -1    0    0    0    0 -0.00000000000E+00 -0.00000000000E+00 -0.45593999997E+02  0.45594000000E+02  0.51100000000E-03 0.  1.
         23    2    1    2    0    0  0.44408920985E-15 -0.55511151231E-16  0.71054273576E-14  0.91188000000E+02  0.91188000000E+02 0.  0.
    9900012    2    3    3    0    0  0.33646503556E+01  0.39624365637E+00  0.43268284901E+02  0.47787281580E+02  0.20000048038E+02 0.  0.
        -12    1    3    3    0    0 -0.33646503556E+01 -0.39624365637E+00 -0.43268284901E+02  0.43400718420E+02  0.00000000000E+00 0.  1.
         11    1    4    4    0    0 -0.40930125616E+01 -0.19223804565E+01  0.54342376645E+01  0.70695995434E+01  0.51100000000E-03 0. -1.
        -11    1    4    4    0    0  0.52438706446E-02 -0.39260467605E+01  0.20226423456E+02  0.20603933527E+02  0.51100000000E-03 0.  1.
         12    1    4    4    0    0  0.74524190466E+01  0.62446708734E+01  0.17607623780E+02  0.20113748511E+02  0.00000000000E+00 0. -1.
</event>
<event>
 8    1  0.2994958E-010  0.9118800E+02  0.7816164E-02  0.1184000E+00
        -11   -1    0    0    0    0  0.00000000000E+00  0.00000000000E+00  0.45593999997E+02  0.45594000000E+02  0.51100000000E-03 0.  1.
         11   -1    0    0    0    0 -0.00000000000E+00 -0.00000000000E+00 -0.45593999997E+02  0.45594000000E+02  0.51100000000E-03 0. -1.
         23    2    1    2    0    0  0.71054273576E-14  0.00000000000E+00 -0.53290705182E-14  0.91188000000E+02  0.91188000000E+02 0.  0.
    9900012    2    3    3    0    0  0.33300045874E+02 -0.23735902408E+02 -0.14537437405E+02  0.47787271842E+02  0.20000003638E+02 0.  0.
        -12    1    3    3    0    0 -0.33300045874E+02  0.23735902408E+02  0.14537437405E+02  0.43400728158E+02  0.00000000000E+00 0.  1.
         11    1    4    4    0    0  0.95448092624E+01 -0.41074120471E+01 -0.18950750656E+01  0.10562458395E+02  0.51100000000E-03 0. -1.
        -11    1    4    4    0    0  0.17644165800E+02 -0.21100412278E+02 -0.13894312400E+02  0.30815513989E+02  0.51100000000E-03 0.  1.
         12    1    4    4    0    0  0.61110708117E+01  0.14719219173E+01  0.12519500604E+01  0.64092994586E+01  0.00000000000E+00 0. -1.
</event>
<event>
 8    1  0.2994958E-010  0.9118800E+02  0.7816164E-02  0.1184000E+00
        -11   -1    0    0    0    0  0.00000000000E+00  0.00000000000E+00  0.45593999997E+02  0.45594000000E+02  0.51100000000E-03 0. -1.
         11   -1    0    0    0    0 -0.00000000000E+00 -0.00000000000E+00 -0.45593999997E+02  0.45594000000E+02  0.51100000000E-03 0.  1.
         23    2    1    2    0    0  0.88817841970E-15 -0.71054273576E-14  0.00000000000E+00  0.91188000000E+02  0.91188000000E+02 0.  0.
    9900012    2    3    3    0    0 -0.40229060874E+01  0.39727475963E+02 -0.17004901997E+02  0.47787276369E+02  0.20000024275E+02 0.  0.
         12    1    3    3    0    0  0.40229060874E+01 -0.39727475963E+02  0.17004901997E+02  0.43400723631E+02  0.00000000000E+00 0. -1.
         11    1    4    4    0    0  0.16461729925E+01  0.10589365992E+01  0.47956992861E+00  0.20152468384E+01  0.51100000000E-03 0. -1.
        -11    1    4    4    0    0 -0.83810009727E+01  0.16568659517E+02 -0.13957601594E+02  0.23228781673E+02  0.51100000000E-03 0.  1.
        -12    1    4    4    0    0  0.27119218928E+01  0.22099879847E+02 -0.35268703315E+01  0.22543247857E+02  0.00000000000E+00 0.  1.
</event>
<event>
 8    1  0.2994958E-010  0.9118800E+02  0.7816164E-02  0.1184000E+00
        -11   -1    0    0    0    0  0.00000000000E+00  0.00000000000E+00  0.45593999997E+02  0.45594000000E+02  0.51100000000E-03 0. -1.
         11   -1    0    0    0    0 -0.00000000000E+00 -0.00000000000E+00 -0.45593999997E+02  0.45594000000E+02  0.51100000000E-03 0.  1.
         23    2    1    2    0    0  0.00000000000E+00  0.00000000000E+00  0.00000000000E+00  0.91188000000E+02  0.91188000000E+02 0.  0.
    9900012    2    3    3    0    0  0.10735428716E+02  0.28180414743E+02 -0.31212786635E+02  0.47787271270E+02  0.20000001027E+02 0.  0.
         12    1    3    3    0    0 -0.10735428716E+02 -0.28180414743E+02  0.31212786635E+02  0.43400728730E+02  0.00000000000E+00 0. -1.
         11    1    4    4    0    0  0.22343011064E+01  0.34829309870E+01 -0.13066877726E+02  0.13706429275E+02  0.51100000000E-03 0. -1.
        -11    1    4    4    0    0  0.33958373674E+01  0.15903364562E+01 -0.69600567169E+01  0.79059010387E+01  0.51100000000E-03 0.  1.
        -12    1    4    4    0    0  0.51052902417E+01  0.23107147300E+02 -0.11185852192E+02  0.26174940956E+02  0.00000000000E+00 0.  1.
</event>
<event>
 8    1  0.2994958E-010  0.9118800E+02  0.7816164E-02  0.1184000E+00
        -11   -1    0    0    0    0  0.00000000000E+00  0.00000000000E+00  0.45593999997E+02  0.45594000000E+02  0.51100000000E-03 0. -1.
         11   -1    0    0    0    0 -0.00000000000E+00 -0.00000000000E+00 -0.45593999997E+02  0.45594000000E+02  0.51100000000E-03 0.  1.
         23    2    1    2    0    0 -0.12767564783E-14  0.00000000000E+00  0.00000000000E+00  0.91188000000E+02  0.91188000000E+02 0.  0.
    9900012    2    3    3    0    0 -0.38816127084E+00 -0.23376438273E+02 -0.36565214601E+02  0.47787268965E+02  0.19999990520E+02 0.  0.
         12    1    3    3    0    0  0.38816127084E+00  0.23376438273E+02  0.36565214601E+02  0.43400731035E+02  0.00000000000E+00 0. -1.
         11    1    4    4    0    0 -0.36330764566E+01 -0.71561623491E+01 -0.10430328042E+02  0.13160609690E+02  0.51100000000E-03 0. -1.
        -11    1    4    4    0    0 -0.50156288459E+01 -0.11697157855E+02 -0.18736833585E+02  0.22650584267E+02  0.51100000000E-03 0.  1.
         12    1    4    4    0    0  0.82605440317E+01 -0.45231180693E+01 -0.73980529752E+01  0.11976075008E+02  0.00000000000E+00 0. -1.
</event>
<event>
 8    1  0.3347121E-010  0.9118800E+02  0.7816164E-02  0.1184000E+00
        -11   -1    0    0    0    0  0.00000000000E+00  0.00000000000E+00  0.45593999997E+02  0.45594000000E+02  0.51100000000E-03 0. -1.
         11   -1    0    0    0    0 -0.00000000000E+00 -0.00000000000E+00 -0.45593999997E+02  0.45594000000E+02  0.51100000000E-03 0.  1.
         23    2    1    2    0    0  0.00000000000E+00 -0.44408920985E-15  0.00000000000E+00  0.91188000000E+02  0.91188000000E+02 0.  0.
    9900012    2    3    3    0    0  0.57043530813E+01 -0.16366806966E+01  0.42993079797E+02  0.47787270995E+02  0.19999999772E+02 0.  0.
        -12    1    3    3    0    0 -0.57043530813E+01  0.16366806966E+01 -0.42993079797E+02  0.43400729005E+02  0.00000000000E+00 0.  1.
         11    1    4    4    0    0  0.25076114170E+01 -0.38028313382E+01  0.22710983610E+02  0.23163298945E+02  0.51100000000E-03 0. -1.
        -11    1    4    4    0    0  0.13070079806E+01 -0.52785882357E+01  0.44484958144E+01  0.70257297766E+01  0.51100000000E-03 0.  1.
         12    1    4    4    0    0  0.18897336837E+01  0.74447388773E+01  0.15833600372E+02  0.17598242273E+02  0.00000000000E+00 0. -1.
</event>
<event>
 8    1  0.2994958E-010  0.9118800E+02  0.7816164E-02  0.1184000E+00
        -11   -1    0    0    0    0  0.00000000000E+00  0.00000000000E+00  0.45593999997E+02  0.45594000000E+02  0.51100000000E-03 0. -1.
         11   -1    0    0    0    0 -0.00000000000E+00 -0.00000000000E+00 -0.45593999997E+02  0.45594000000E+02  0.51100000000E-03 0.  1.
         23    2    1    2    0    0 -0.17763568394E-14 -0.17763568394E-14  0.71054273576E-14  0.91188000000E+02  0.91188000000E+02 0.  0.
    9900012    2    3    3    0    0  0.12410377025E+02  0.11172509263E+02 -0.40059719787E+02  0.47787267627E+02  0.19999984417E+02 0.  0.
         12    1    3    3    0    0 -0.12410377025E+02 -0.11172509263E+02  0.40059719787E+02  0.43400732373E+02  0.00000000000E+00 0. -1.
         11    1    4    4    0    0 -0.10583249780E+01 -0.15433782284E+01 -0.57438323836E+01  0.60409998202E+01  0.51100000000E-03 0. -1.
        -11    1    4    4    0    0  0.18738313534E+01  0.10048211355E+02 -0.23662968954E+02  0.25776227330E+02  0.51100000000E-03 0.  1.
         12    1    4    4    0    0  0.11594870649E+02  0.26676761363E+01 -0.10652918449E+02  0.15970040477E+02  0.00000000000E+00 0. -1.
</event>
<event>
 8    1  0.2994958E-010  0.9118800E+02  0.7816164E-02  0.1184000E+00
        -11   -1    0    0    0    0  0.00000000000E+00  0.00000000000E+00  0.45593999997E+02  0.45594000000E+02  0.51100000000E-03 0. -1.
         11   -1    0    0    0    0 -0.00000000000E+00 -0.00000000000E+00 -0.45593999997E+02  0.45594000000E+02  0.51100000000E-03 0.  1.
         23    2    1    2    0    0  0.17763568394E-14  0.17763568394E-14  0.71054273576E-14  0.91188000000E+02  0.91188000000E+02 0.  0.
    9900012    2    3    3    0    0  0.11863925388E+02  0.87883823247E+01  0.40812190298E+02  0.47787271131E+02  0.20000000393E+02 0.  0.
        -12    1    3    3    0    0 -0.11863925388E+02 -0.87883823247E+01 -0.40812190298E+02  0.43400728869E+02  0.00000000000E+00 0.  1.
         11    1    4    4    0    0  0.43688091847E+01  0.10010506640E+01  0.54228896107E+01  0.70353626854E+01  0.51100000000E-03 0. -1.
        -11    1    4    4    0    0 -0.26101707761E+01  0.86849091748E+01  0.10498147967E+02  0.13872698002E+02  0.51100000000E-03 0.  1.
        -12    1    4    4    0    0  0.10105286979E+02 -0.89757751416E+00  0.24891152720E+02  0.26879210443E+02  0.00000000000E+00 0.  1.
</event>
<event>
 8    1  0.2994958E-010  0.9118800E+02  0.7816164E-02  0.1184000E+00
        -11   -1    0    0    0    0  0.00000000000E+00  0.00000000000E+00  0.45593999997E+02  0.45594000000E+02  0.51100000000E-03 0.  1.
         11   -1    0    0    0    0 -0.00000000000E+00 -0.00000000000E+00 -0.45593999997E+02  0.45594000000E+02  0.51100000000E-03 0. -1.
         23    2    1    2    0    0  0.00000000000E+00  0.17763568394E-14  0.99920072216E-15  0.91188000000E+02  0.91188000000E+02 0.  0.
    9900012    2    3    3    0    0 -0.40405588043E+02  0.15825607633E+02 -0.74938958730E+00  0.47787274351E+02  0.20000015078E+02 0.  0.
        -12    1    3    3    0    0  0.40405588043E+02 -0.15825607633E+02  0.74938958730E+00  0.43400725649E+02  0.00000000000E+00 0.  1.
         11    1    4    4    0    0 -0.29071746463E+02  0.11660874213E+02 -0.72022657233E+01  0.32140551670E+02  0.51100000000E-03 0. -1.
        -11    1    4    4    0    0 -0.30444172653E+01  0.32219846256E+01 -0.90333500496E+00  0.45239005078E+01  0.51100000000E-03 0.  1.
        -12    1    4    4    0    0 -0.82894243151E+01  0.94274879418E+00  0.73562111410E+01  0.11122822174E+02  0.00000000000E+00 0.  1.
</event>
<event>
 8    1  0.2994958E-010  0.9118800E+02  0.7816164E-02  0.1184000E+00
        -11   -1    0    0    0    0  0.00000000000E+00  0.00000000000E+00  0.45593999997E+02  0.45594000000E+02  0.51100000000E-03 0. -1.
         11   -1    0    0    0    0 -0.00000000000E+00 -0.00000000000E+00 -0.45593999997E+02  0.45594000000E+02  0.51100000000E-03 0.  1.
         23    2    1    2    0    0  0.88817841970E-15  0.00000000000E+00  0.71054273576E-14  0.91188000000E+02  0.91188000000E+02 0.  0.
    9900012    2    3    3    0    0 -0.68454066904E+01  0.20348487584E+02 -0.37718733877E+02  0.47787269304E+02  0.19999992063E+02 0.  0.
         12    1    3    3    0    0  0.68454066904E+01 -0.20348487584E+02  0.37718733877E+02  0.43400730696E+02  0.00000000000E+00 0. -1.
         11    1    4    4    0    0  0.28907584654E+00  0.41564502508E+01 -0.80091214627E+01  0.90280490914E+01  0.51100000000E-03 0. -1.
        -11    1    4    4    0    0  0.36571058155E+00  0.70979873954E+00 -0.17841473617E+02  0.17859332002E+02  0.51100000000E-03 0.  1.
         12    1    4    4    0    0 -0.75001931185E+01  0.15482238593E+02 -0.11868138797E+02  0.20899888210E+02  0.00000000000E+00 0. -1.
</event>
<event>
 8    1  0.2994958E-010  0.9118800E+02  0.7816164E-02  0.1184000E+00
        -11   -1    0    0    0    0  0.00000000000E+00  0.00000000000E+00  0.45593999997E+02  0.45594000000E+02  0.51100000000E-03 0. -1.
         11   -1    0    0    0    0 -0.00000000000E+00 -0.00000000000E+00 -0.45593999997E+02  0.45594000000E+02  0.51100000000E-03 0.  1.
         23    2    1    2    0    0  0.00000000000E+00  0.00000000000E+00  0.00000000000E+00  0.91188000000E+02  0.91188000000E+02 0.  0.
    9900012    2    3    3    0    0  0.89981670587E+01 -0.34665800585E+02 -0.24514040210E+02  0.47787275259E+02  0.20000019217E+02 0.  0.
         12    1    3    3    0    0 -0.89981670587E+01  0.34665800585E+02  0.24514040210E+02  0.43400724741E+02  0.00000000000E+00 0. -1.
         11    1    4    4    0    0  0.95187124269E+01 -0.18186267951E+02 -0.15915009332E+02  0.25973712683E+02  0.51100000000E-03 0. -1.
        -11    1    4    4    0    0  0.41071635477E+01 -0.36634232196E+01  0.34495065622E+00  0.55143860320E+01  0.51100000000E-03 0.  1.
         12    1    4    4    0    0 -0.46277089158E+01 -0.12816109414E+02 -0.89439815348E+01  0.16299176544E+02  0.00000000000E+00 0. -1.
</event>
<event>
 8    1  0.2994958E-010  0.9118800E+02  0.7816164E-02  0.1184000E+00
        -11   -1    0    0    0    0  0.00000000000E+00  0.00000000000E+00  0.45593999997E+02  0.45594000000E+02  0.51100000000E-03 0. -1.
         11   -1    0    0    0    0 -0.00000000000E+00 -0.00000000000E+00 -0.45593999997E+02  0.45594000000E+02  0.51100000000E-03 0.  1.
         23    2    1    2    0    0  0.00000000000E+00  0.00000000000E+00  0.00000000000E+00  0.91188000000E+02  0.91188000000E+02 0.  0.
    9900012    2    3    3    0    0 -0.10679547978E+02 -0.40565436459E+02  0.11136217390E+02  0.47787277450E+02  0.20000029206E+02 0.  0.
        -12    1    3    3    0    0  0.10679547978E+02  0.40565436459E+02 -0.11136217390E+02  0.43400722550E+02  0.00000000000E+00 0.  1.
         11    1    4    4    0    0 -0.38975878735E+01 -0.13275653743E+02 -0.15696125630E+01  0.13924721089E+02  0.51100000000E-03 0. -1.
        -11    1    4    4    0    0 -0.21731228749E+01  0.11046618285E+01  0.57154323260E-01  0.24384436968E+01  0.51100000000E-03 0.  1.
         12    1    4    4    0    0 -0.46088372291E+01 -0.28394444544E+02  0.12648675630E+02  0.31424112664E+02  0.00000000000E+00 0. -1.
</event>
<event>
 8    1  0.2994958E-010  0.9118800E+02  0.7816164E-02  0.1184000E+00
        -11   -1    0    0    0    0  0.00000000000E+00  0.00000000000E+00  0.45593999997E+02  0.45594000000E+02  0.51100000000E-03 0. -1.
         11   -1    0    0    0    0 -0.00000000000E+00 -0.00000000000E+00 -0.45593999997E+02  0.45594000000E+02  0.51100000000E-03 0.  1.
         23    2    1    2    0    0  0.88817841970E-15 -0.35527136788E-14 -0.71054273576E-14  0.91188000000E+02  0.91188000000E+02 0.  0.
    9900012    2    3    3    0    0 -0.78772671769E+01  0.23709356779E+02  0.35488564874E+02  0.47787272197E+02  0.20000005253E+02 0.  0.
        -12    1    3    3    0    0  0.78772671769E+01 -0.23709356779E+02 -0.35488564874E+02  0.43400727803E+02  0.00000000000E+00 0.  1.
         11    1    4    4    0    0 -0.72046200230E+01  0.11230273181E+02  0.18618161855E+02  0.22905491405E+02  0.51100000000E-03 0. -1.
        -11    1    4    4    0    0 -0.14777027723E-01  0.14735040495E+02  0.17038016646E+02  0.22525888401E+02  0.51100000000E-03 0.  1.
        -12    1    4    4    0    0 -0.65787012621E+00 -0.22559568976E+01 -0.16761362707E+00  0.23558923903E+01  0.00000000000E+00 0.  1.
</event>
<event>
 8    1  0.2994958E-010  0.9118800E+02  0.7816164E-02  0.1184000E+00
        -11   -1    0    0    0    0  0.00000000000E+00  0.00000000000E+00  0.45593999997E+02  0.45594000000E+02  0.51100000000E-03 0. -1.
         11   -1    0    0    0    0 -0.00000000000E+00 -0.00000000000E+00 -0.45593999997E+02  0.45594000000E+02  0.51100000000E-03 0.  1.
         23    2    1    2    0    0  0.17763568394E-14  0.00000000000E+00  0.00000000000E+00  0.91188000000E+02  0.91188000000E+02 0.  0.
    9900012    2    3    3    0    0  0.11520088930E+02 -0.18900140057E+02  0.37332220889E+02  0.47787280425E+02  0.20000042769E+02 0.  0.
        -12    1    3    3    0    0 -0.11520088930E+02  0.18900140057E+02 -0.37332220889E+02  0.43400719575E+02  0.00000000000E+00 0.  1.
         11    1    4    4    0    0  0.56253350063E+01 -0.68207125275E+01  0.20071674746E+02  0.21932593113E+02  0.51100000000E-03 0. -1.
        -11    1    4    4    0    0  0.69885179372E+01 -0.11166820090E+02  0.19299868018E+02  0.23367117059E+02  0.51100000000E-03 0.  1.
        -12    1    4    4    0    0 -0.10937640134E+01 -0.91260743901E+00 -0.20393218743E+01  0.24875702526E+01  0.00000000000E+00 0.  1.
</event>
<event>
 8    1  0.2994958E-010  0.9118800E+02  0.7816164E-02  0.1184000E+00
        -11   -1    0    0    0    0  0.00000000000E+00  0.00000000000E+00  0.45593999997E+02  0.45594000000E+02  0.51100000000E-03 0. -1.
         11   -1    0    0    0    0 -0.00000000000E+00 -0.00000000000E+00 -0.45593999997E+02  0.45594000000E+02  0.51100000000E-03 0.  1.
         23    2    1    2    0    0  0.00000000000E+00 -0.35527136788E-14  0.00000000000E+00  0.91188000000E+02  0.91188000000E+02 0.  0.
    9900012    2    3    3    0    0  0.19487993499E+02 -0.22370072880E+02  0.31676827942E+02  0.47787268672E+02  0.19999989185E+02 0.  0.
        -12    1    3    3    0    0 -0.19487993499E+02  0.22370072880E+02 -0.31676827942E+02  0.43400731328E+02  0.00000000000E+00 0.  1.
         11    1    4    4    0    0  0.62928117677E+01 -0.14868990821E+02  0.16271430887E+02  0.22922605248E+02  0.51100000000E-03 0. -1.
        -11    1    4    4    0    0 -0.82167790292E+00  0.15031930867E+01 -0.54760772744E+00  0.17985045222E+01  0.51100000000E-03 0.  1.
         12    1    4    4    0    0  0.14016859635E+02 -0.90042751461E+01  0.15953004782E+02  0.23066158902E+02  0.00000000000E+00 0. -1.
</event>
<event>
 8    1  0.2994958E-010  0.9118800E+02  0.7816164E-02  0.1184000E+00
        -11   -1    0    0    0    0  0.00000000000E+00  0.00000000000E+00  0.45593999997E+02  0.45594000000E+02  0.51100000000E-03 0. -1.
         11   -1    0    0    0    0 -0.00000000000E+00 -0.00000000000E+00 -0.45593999997E+02  0.45594000000E+02  0.51100000000E-03 0.  1.
         23    2    1    2    0    0  0.00000000000E+00  0.00000000000E+00  0.00000000000E+00  0.91188000000E+02  0.91188000000E+02 0.  0.
    9900012    2    3    3    0    0  0.70153797517E+01 -0.10720767584E+02 -0.41466528312E+02  0.47787269812E+02  0.19999994380E+02 0.  0.
         12    1    3    3    0    0 -0.70153797517E+01  0.10720767584E+02  0.41466528312E+02  0.43400730188E+02  0.00000000000E+00 0. -1.
         11    1    4    4    0    0  0.38627021759E+01 -0.77866562581E+01 -0.23943453118E+02  0.25472366032E+02  0.51100000000E-03 0. -1.
        -11    1    4    4    0    0  0.12304730070E+01 -0.56353445241E+01 -0.18057837050E+02  0.18956704643E+02  0.51100000000E-03 0.  1.
         12    1    4    4    0    0  0.19222045688E+01  0.27012331985E+01  0.53476185700E+00  0.33581991365E+01  0.00000000000E+00 0. -1.
</event>
<event>
 8    1  0.2994958E-010  0.9118800E+02  0.7816164E-02  0.1184000E+00
        -11   -1    0    0    0    0  0.00000000000E+00  0.00000000000E+00  0.45593999997E+02  0.45594000000E+02  0.51100000000E-03 0. -1.
         11   -1    0    0    0    0 -0.00000000000E+00 -0.00000000000E+00 -0.45593999997E+02  0.45594000000E+02  0.51100000000E-03 0.  1.
         23    2    1    2    0    0 -0.22204460493E-15  0.00000000000E+00  0.00000000000E+00  0.91188000000E+02  0.91188000000E+02 0.  0.
    9900012    2    3    3    0    0  0.19128285951E+01 -0.39012066112E+02  0.18921497530E+02  0.47787270924E+02  0.19999999449E+02 0.  0.
        -12    1    3    3    0    0 -0.19128285951E+01  0.39012066112E+02 -0.18921497530E+02  0.43400729076E+02  0.00000000000E+00 0.  1.
         11    1    4    4    0    0  0.43941489474E+01 -0.17107764061E+02  0.11333097666E+01  0.17699393419E+02  0.51100000000E-03 0. -1.
        -11    1    4    4    0    0  0.94315361839E+00 -0.17629154411E+02  0.92161225430E+01  0.19915158523E+02  0.51100000000E-03 0.  1.
        -12    1    4    4    0    0 -0.34244739706E+01 -0.42751476401E+01  0.85720652208E+01  0.10172718981E+02  0.00000000000E+00 0.  1.
</event>
<event>
 8    1  0.2994958E-010  0.9118800E+02  0.7816164E-02  0.1184000E+00
        -11   -1    0    0    0    0  0.00000000000E+00  0.00000000000E+00  0.45593999997E+02  0.45594000000E+02  0.51100000000E-03 0. -1.
         11   -1    0    0    0    0 -0.00000000000E+00 -0.00000000000E+00 -0.45593999997E+02  0.45594000000E+02  0.51100000000E-03 0.  1.
         23    2    1    2    0    0  0.00000000000E+00 -0.88817841970E-15  0.00000000000E+00  0.91188000000E+02  0.91188000000E+02 0.  0.
    9900012    2    3    3    0    0  0.23485706542E+02 -0.70351896522E+01 -0.35812726240E+02  0.47787266528E+02  0.19999979406E+02 0.  0.
         12    1    3    3    0    0 -0.23485706542E+02  0.70351896522E+01  0.35812726240E+02  0.43400733472E+02  0.00000000000E+00 0. -1.
         11    1    4    4    0    0  0.73874094954E+00 -0.11027051337E+01 -0.99685285852E+01  0.10056503330E+02  0.51100000000E-03 0.  1.
        -11    1    4    4    0    0  0.84847692803E+01  0.44226057280E+01 -0.65331717977E+01  0.11585900274E+02  0.51100000000E-03 0. -1.
        -12    1    4    4    0    0  0.14262196312E+02 -0.10355090247E+02 -0.19311025857E+02  0.26144862924E+02  0.00000000000E+00 0.  1.
</event>
<event>
 8    1  0.2994958E-010  0.9118800E+02  0.7816164E-02  0.1184000E+00
        -11   -1    0    0    0    0  0.00000000000E+00  0.00000000000E+00  0.45593999997E+02  0.45594000000E+02  0.51100000000E-03 0. -1.
         11   -1    0    0    0    0 -0.00000000000E+00 -0.00000000000E+00 -0.45593999997E+02  0.45594000000E+02  0.51100000000E-03 0.  1.
         23    2    1    2    0    0  0.00000000000E+00 -0.71054273576E-14  0.00000000000E+00  0.91188000000E+02  0.91188000000E+02 0.  0.
    9900012    2    3    3    0    0  0.27398934961E+02  0.31608793496E+02  0.11567249575E+02  0.47787323438E+02  0.20000238884E+02 0.  0.
        -12    1    3    3    0    0 -0.27398934961E+02 -0.31608793496E+02 -0.11567249575E+02  0.43400676562E+02  0.00000000000E+00 0.  1.
         11    1    4    4    0    0  0.16526626388E+01  0.19084277367E+01 -0.14617932087E+01  0.29172298281E+01  0.51100000000E-03 0. -1.
        -11    1    4    4    0    0  0.18467220276E+02  0.92134461729E+01  0.27477884787E+01  0.20820090223E+02  0.51100000000E-03 0.  1.
         12    1    4    4    0    0  0.72790520456E+01  0.20486919587E+02  0.10281254305E+02  0.24050003387E+02  0.00000000000E+00 0. -1.
</event>
<event>
 8    1  0.2994958E-010  0.9118800E+02  0.7816164E-02  0.1184000E+00
        -11   -1    0    0    0    0  0.00000000000E+00  0.00000000000E+00  0.45593999997E+02  0.45594000000E+02  0.51100000000E-03 0. -1.
         11   -1    0    0    0    0 -0.00000000000E+00 -0.00000000000E+00 -0.45593999997E+02  0.45594000000E+02  0.51100000000E-03 0.  1.
         23    2    1    2    0    0  0.00000000000E+00  0.00000000000E+00  0.00000000000E+00  0.91188000000E+02  0.91188000000E+02 0.  0.
    9900012    2    3    3    0    0 -0.83871833635E+01 -0.46259178425E+01 -0.42330593620E+02  0.47787272853E+02  0.20000008245E+02 0.  0.
         12    1    3    3    0    0  0.83871833635E+01  0.46259178425E+01  0.42330593620E+02  0.43400727147E+02  0.00000000000E+00 0. -1.
         11    1    4    4    0    0 -0.40873415974E+01  0.24903804363E+01 -0.32884014815E+01  0.58070595499E+01  0.51100000000E-03 0. -1.
        -11    1    4    4    0    0  0.24836829802E+01 -0.21303505331E+01 -0.16741790077E+01  0.36755884088E+01  0.51100000000E-03 0.  1.
        -12    1    4    4    0    0 -0.67835247463E+01 -0.49859477457E+01 -0.37368013131E+02  0.38304624894E+02  0.00000000000E+00 0.  1.
</event>
<event>
 8    1  0.2994958E-010  0.9118800E+02  0.7816164E-02  0.1184000E+00
        -11   -1    0    0    0    0  0.00000000000E+00  0.00000000000E+00  0.45593999997E+02  0.45594000000E+02  0.51100000000E-03 0. -1.
         11   -1    0    0    0    0 -0.00000000000E+00 -0.00000000000E+00 -0.45593999997E+02  0.45594000000E+02  0.51100000000E-03 0.  1.
         23    2    1    2    0    0  0.00000000000E+00 -0.71054273576E-14  0.00000000000E+00  0.91188000000E+02  0.91188000000E+02 0.  0.
    9900012    2    3    3    0    0 -0.18201977354E+02  0.35407670190E+02  0.17280281830E+02  0.47787271573E+02  0.20000002410E+02 0.  0.
        -12    1    3    3    0    0  0.18201977354E+02 -0.35407670190E+02 -0.17280281830E+02  0.43400728427E+02  0.00000000000E+00 0.  1.
         11    1    4    4    0    0 -0.15113119649E+01  0.37862864230E+01  0.43047857844E+01  0.59288455574E+01  0.51100000000E-03 0. -1.
        -11    1    4    4    0    0 -0.26476849043E+01 -0.93746301161E+00  0.46555477909E+01  0.54372049571E+01  0.51100000000E-03 0.  1.
         12    1    4    4    0    0 -0.14042980484E+02  0.32558846779E+02  0.83199482544E+01  0.36421221059E+02  0.00000000000E+00 0. -1.
</event>
<event>
 8    1  0.2994958E-010  0.9118800E+02  0.7816164E-02  0.1184000E+00
        -11   -1    0    0    0    0  0.00000000000E+00  0.00000000000E+00  0.45593999997E+02  0.45594000000E+02  0.51100000000E-03 0. -1.
         11   -1    0    0    0    0 -0.00000000000E+00 -0.00000000000E+00 -0.45593999997E+02  0.45594000000E+02  0.51100000000E-03 0.  1.
         23    2    1    2    0    0  0.00000000000E+00 -0.88817841970E-15  0.00000000000E+00  0.91188000000E+02  0.91188000000E+02 0.  0.
    9900012    2    3    3    0    0  0.38187110361E+02  0.59705891261E+01 -0.19741319414E+02  0.47787273919E+02  0.20000013104E+02 0.  0.
         12    1    3    3    0    0 -0.38187110361E+02 -0.59705891261E+01  0.19741319414E+02  0.43400726081E+02  0.00000000000E+00 0. -1.
         11    1    4    4    0    0  0.17820254747E+02  0.60412707941E+01 -0.12896962324E+02  0.22812059738E+02  0.51100000000E-03 0. -1.
        -11    1    4    4    0    0  0.21840232597E+02 -0.72094170251E+00 -0.76779901929E+01  0.23161758364E+02  0.51100000000E-03 0.  1.
         12    1    4    4    0    0 -0.14733769836E+01  0.65026003456E+00  0.83363310306E+00  0.18134558166E+01  0.00000000000E+00 0. -1.
</event>
<event>
 8    1  0.2994958E-010  0.9118800E+02  0.7816164E-02  0.1184000E+00
        -11   -1    0    0    0    0  0.00000000000E+00  0.00000000000E+00  0.45593999997E+02  0.45594000000E+02  0.51100000000E-03 0.  1.
         11   -1    0    0    0    0 -0.00000000000E+00 -0.00000000000E+00 -0.45593999997E+02  0.45594000000E+02  0.51100000000E-03 0. -1.
         23    2    1    2    0    0  0.00000000000E+00  0.00000000000E+00  0.17763568394E-14  0.91188000000E+02  0.91188000000E+02 0.  0.
    9900012    2    3    3    0    0  0.18860115816E+02 -0.36021018761E+02 -0.15179116162E+02  0.47787270414E+02  0.19999997125E+02 0.  0.
         12    1    3    3    0    0 -0.18860115816E+02  0.36021018761E+02  0.15179116162E+02  0.43400729586E+02  0.00000000000E+00 0. -1.
         11    1    4    4    0    0 -0.35137352185E-01 -0.80830498330E+01 -0.34526869599E+01  0.87896516848E+01  0.51100000000E-03 0.  1.
        -11    1    4    4    0    0 -0.28093292785E+00  0.12335258575E+01 -0.26355166360E+01  0.29234324947E+01  0.51100000000E-03 0. -1.
        -12    1    4    4    0    0  0.19176186096E+02 -0.29171494785E+02 -0.90909125659E+01  0.36074186234E+02  0.00000000000E+00 0.  1.
</event>
<event>
 8    1  0.2994958E-010  0.9118800E+02  0.7816164E-02  0.1184000E+00
        -11   -1    0    0    0    0  0.00000000000E+00  0.00000000000E+00  0.45593999997E+02  0.45594000000E+02  0.51100000000E-03 0. -1.
         11   -1    0    0    0    0 -0.00000000000E+00 -0.00000000000E+00 -0.45593999997E+02  0.45594000000E+02  0.51100000000E-03 0.  1.
         23    2    1    2    0    0  0.00000000000E+00 -0.13877787808E-15  0.00000000000E+00  0.91188000000E+02  0.91188000000E+02 0.  0.
    9900012    2    3    3    0    0  0.62547809937E+01  0.19173825337E+00 -0.42947225419E+02  0.47787271665E+02  0.20000002827E+02 0.  0.
         12    1    3    3    0    0 -0.62547809937E+01 -0.19173825337E+00  0.42947225419E+02  0.43400728335E+02  0.00000000000E+00 0. -1.
         11    1    4    4    0    0  0.45620046107E+01 -0.40510779708E+01 -0.98239291342E+01  0.11564285654E+02  0.51100000000E-03 0. -1.
        -11    1    4    4    0    0  0.45366659993E+01  0.60453400642E+01 -0.85159179975E+01  0.11386322254E+02  0.51100000000E-03 0.  1.
        -12    1    4    4    0    0 -0.28438896163E+01 -0.18025238400E+01 -0.24607378288E+02  0.24836663756E+02  0.00000000000E+00 0.  1.
</event>
<event>
 8    1  0.2994958E-010  0.9118800E+02  0.7816164E-02  0.1184000E+00
        -11   -1    0    0    0    0  0.00000000000E+00  0.00000000000E+00  0.45593999997E+02  0.45594000000E+02  0.51100000000E-03 0.  1.
         11   -1    0    0    0    0 -0.00000000000E+00 -0.00000000000E+00 -0.45593999997E+02  0.45594000000E+02  0.51100000000E-03 0. -1.
         23    2    1    2    0    0 -0.11102230246E-14  0.00000000000E+00  0.88817841970E-15  0.91188000000E+02  0.91188000000E+02 0.  0.
    9900012    2    3    3    0    0  0.26308429542E+00  0.43065715546E+02  0.53757119448E+01  0.47787270194E+02  0.19999996121E+02 0.  0.
        -12    1    3    3    0    0 -0.26308429542E+00 -0.43065715546E+02 -0.53757119448E+01  0.43400729806E+02  0.00000000000E+00 0.  1.
         11    1    4    4    0    0 -0.70021281055E+01  0.30947998364E+02  0.43125945613E+01  0.32021974843E+02  0.51100000000E-03 0. -1.
        -11    1    4    4    0    0  0.30430970358E+00 -0.33869584240E+00  0.14202020944E+01  0.14914065574E+01  0.51100000000E-03 0.  1.
        -12    1    4    4    0    0  0.69609026973E+01  0.12456413024E+02 -0.35708471095E+00  0.14273888793E+02  0.00000000000E+00 0.  1.
</event>
<event>
 8    1  0.2994958E-010  0.9118800E+02  0.7816164E-02  0.1184000E+00
        -11   -1    0    0    0    0  0.00000000000E+00  0.00000000000E+00  0.45593999997E+02  0.45594000000E+02  0.51100000000E-03 0.  1.
         11   -1    0    0    0    0 -0.00000000000E+00 -0.00000000000E+00 -0.45593999997E+02  0.45594000000E+02  0.51100000000E-03 0. -1.
         23    2    1    2    0    0  0.00000000000E+00  0.00000000000E+00  0.00000000000E+00  0.91188000000E+02  0.91188000000E+02 0.  0.
    9900012    2    3    3    0    0 -0.13422636965E+02  0.37163732325E+02 -0.17953094272E+02  0.47787265244E+02  0.19999973552E+02 0.  0.
         12    1    3    3    0    0  0.13422636965E+02 -0.37163732325E+02  0.17953094272E+02  0.43400734756E+02  0.00000000000E+00 0. -1.
         11    1    4    4    0    0  0.18052991990E+00  0.15902025635E+01  0.13444727313E+01  0.20902015289E+01  0.51100000000E-03 0. -1.
        -11    1    4    4    0    0  0.43758901149E+00 -0.14806123650E+01  0.16042859482E+00  0.15522353924E+01  0.51100000000E-03 0.  1.
        -12    1    4    4    0    0 -0.14040755897E+02  0.37054142127E+02 -0.19457995599E+02  0.44144828322E+02  0.00000000000E+00 0.  1.
</event>
<event>
 8    1  0.2994958E-010  0.9118800E+02  0.7816164E-02  0.1184000E+00
        -11   -1    0    0    0    0  0.00000000000E+00  0.00000000000E+00  0.45593999997E+02  0.45594000000E+02  0.51100000000E-03 0. -1.
         11   -1    0    0    0    0 -0.00000000000E+00 -0.00000000000E+00 -0.45593999997E+02  0.45594000000E+02  0.51100000000E-03 0.  1.
         23    2    1    2    0    0  0.00000000000E+00  0.00000000000E+00  0.00000000000E+00  0.91188000000E+02  0.91188000000E+02 0.  0.
    9900012    2    3    3    0    0 -0.55407823495E+01 -0.16139845834E+02 -0.39905247639E+02  0.47787266346E+02  0.19999978579E+02 0.  0.
         12    1    3    3    0    0  0.55407823495E+01  0.16139845834E+02  0.39905247639E+02  0.43400733654E+02  0.00000000000E+00 0. -1.
         11    1    4    4    0    0 -0.25154092012E+01  0.26545110569E+01 -0.50866700207E+01  0.62648164029E+01  0.51100000000E-03 0. -1.
        -11    1    4    4    0    0  0.32287553390E+00 -0.23639094338E+01 -0.16565622845E+02  0.16736552122E+02  0.51100000000E-03 0.  1.
         12    1    4    4    0    0 -0.33482486822E+01 -0.16430447457E+02 -0.18252954773E+02  0.24785897821E+02  0.00000000000E+00 0. -1.
</event>
<event>
 8    1  0.2994958E-010  0.9118800E+02  0.7816164E-02  0.1184000E+00
        -11   -1    0    0    0    0  0.00000000000E+00  0.00000000000E+00  0.45593999997E+02  0.45594000000E+02  0.51100000000E-03 0. -1.
         11   -1    0    0    0    0 -0.00000000000E+00 -0.00000000000E+00 -0.45593999997E+02  0.45594000000E+02  0.51100000000E-03 0.  1.
         23    2    1    2    0    0  0.00000000000E+00  0.00000000000E+00  0.00000000000E+00  0.91188000000E+02  0.91188000000E+02 0.  0.
    9900012    2    3    3    0    0  0.48045963615E+01 -0.33272876099E+02 -0.27449127255E+02  0.47787274002E+02  0.20000013485E+02 0.  0.
         12    1    3    3    0    0 -0.48045963615E+01  0.33272876099E+02  0.27449127255E+02  0.43400725998E+02  0.00000000000E+00 0. -1.
         11    1    4    4    0    0 -0.87817369856E+00  0.10388266341E+01  0.62402449134E+00  0.14965816541E+01  0.51100000000E-03 0. -1.
        -11    1    4    4    0    0  0.39490035737E+01 -0.43537981803E+01 -0.11799474743E+01  0.59952034264E+01  0.51100000000E-03 0.  1.
        -12    1    4    4    0    0  0.17337664863E+01 -0.29957904552E+02 -0.26893204272E+02  0.40295488922E+02  0.00000000000E+00 0.  1.
</event>
<event>
 8    1  0.2994958E-010  0.9118800E+02  0.7816164E-02  0.1184000E+00
        -11   -1    0    0    0    0  0.00000000000E+00  0.00000000000E+00  0.45593999997E+02  0.45594000000E+02  0.51100000000E-03 0. -1.
         11   -1    0    0    0    0 -0.00000000000E+00 -0.00000000000E+00 -0.45593999997E+02  0.45594000000E+02  0.51100000000E-03 0.  1.
         23    2    1    2    0    0  0.00000000000E+00 -0.16653345369E-15  0.00000000000E+00  0.91188000000E+02  0.91188000000E+02 0.  0.
    9900012    2    3    3    0    0  0.27552595720E+02  0.32806287041E+00 -0.33531625144E+02  0.47787273728E+02  0.20000012234E+02 0.  0.
         12    1    3    3    0    0 -0.27552595720E+02 -0.32806287041E+00  0.33531625144E+02  0.43400726272E+02  0.00000000000E+00 0. -1.
         11    1    4    4    0    0  0.87981629102E+01 -0.11294255816E+01 -0.11577995490E+01  0.89456007510E+01  0.51100000000E-03 0. -1.
        -11    1    4    4    0    0  0.28699332418E+01  0.37879803247E+01 -0.38754008366E+01  0.61322136017E+01  0.51100000000E-03 0.  1.
        -12    1    4    4    0    0  0.15884499568E+02 -0.23304918727E+01 -0.28498424758E+02  0.32709459375E+02  0.00000000000E+00 0.  1.
</event>
<event>
 8    1  0.2994958E-010  0.9118800E+02  0.7816164E-02  0.1184000E+00
        -11   -1    0    0    0    0  0.00000000000E+00  0.00000000000E+00  0.45593999997E+02  0.45594000000E+02  0.51100000000E-03 0. -1.
         11   -1    0    0    0    0 -0.00000000000E+00 -0.00000000000E+00 -0.45593999997E+02  0.45594000000E+02  0.51100000000E-03 0.  1.
         23    2    1    2    0    0  0.00000000000E+00  0.00000000000E+00  0.00000000000E+00  0.91188000000E+02  0.91188000000E+02 0.  0.
    9900012    2    3    3    0    0 -0.17382587961E+02 -0.26189657102E+02 -0.29926086507E+02  0.47787272391E+02  0.20000006140E+02 0.  0.
         12    1    3    3    0    0  0.17382587961E+02  0.26189657102E+02  0.29926086507E+02  0.43400727609E+02  0.00000000000E+00 0. -1.
         11    1    4    4    0    0 -0.53112566752E+00  0.81797527019E+00  0.43530786011E+00  0.10680221026E+01  0.51100000000E-03 0. -1.
        -11    1    4    4    0    0  0.28185753117E+01 -0.19161027287E+01 -0.46265065340E+01  0.57463361740E+01  0.51100000000E-03 0.  1.
        -12    1    4    4    0    0 -0.19670037605E+02 -0.25091529644E+02 -0.25734887833E+02  0.40972914115E+02  0.00000000000E+00 0.  1.
</event>
<event>
 8    1  0.2994958E-010  0.9118800E+02  0.7816164E-02  0.1184000E+00
        -11   -1    0    0    0    0  0.00000000000E+00  0.00000000000E+00  0.45593999997E+02  0.45594000000E+02  0.51100000000E-03 0. -1.
         11   -1    0    0    0    0 -0.00000000000E+00 -0.00000000000E+00 -0.45593999997E+02  0.45594000000E+02  0.51100000000E-03 0.  1.
         23    2    1    2    0    0  0.00000000000E+00 -0.17763568394E-14  0.35527136788E-14  0.91188000000E+02  0.91188000000E+02 0.  0.
    9900012    2    3    3    0    0 -0.27891040783E+02 -0.15222926741E+02  0.29563081760E+02  0.47787268927E+02  0.19999990347E+02 0.  0.
        -12    1    3    3    0    0  0.27891040783E+02  0.15222926741E+02 -0.29563081760E+02  0.43400731073E+02  0.00000000000E+00 0.  1.
         11    1    4    4    0    0 -0.36559995916E+00 -0.47832756892E+01  0.20204817475E+01  0.52053565106E+01  0.51100000000E-03 0.  1.
        -11    1    4    4    0    0 -0.15873375374E+02 -0.45459702485E+01  0.63519589896E+01  0.17691163741E+02  0.51100000000E-03 0. -1.
         12    1    4    4    0    0 -0.11652065450E+02 -0.58936808037E+01  0.21190641023E+02  0.24890748675E+02  0.00000000000E+00 0. -1.
</event>
<event>
 8    1  0.2994958E-010  0.9118800E+02  0.7816164E-02  0.1184000E+00
        -11   -1    0    0    0    0  0.00000000000E+00  0.00000000000E+00  0.45593999997E+02  0.45594000000E+02  0.51100000000E-03 0. -1.
         11   -1    0    0    0    0 -0.00000000000E+00 -0.00000000000E+00 -0.45593999997E+02  0.45594000000E+02  0.51100000000E-03 0.  1.
         23    2    1    2    0    0  0.00000000000E+00  0.00000000000E+00  0.00000000000E+00  0.91188000000E+02  0.91188000000E+02 0.  0.
    9900012    2    3    3    0    0 -0.12215154795E+02 -0.21787446798E+02  0.35492541171E+02  0.47787270474E+02  0.19999997398E+02 0.  0.
        -12    1    3    3    0    0  0.12215154795E+02  0.21787446798E+02 -0.35492541171E+02  0.43400729526E+02  0.00000000000E+00 0.  1.
         11    1    4    4    0    0 -0.62812958817E+01 -0.74621308801E+01  0.12295553414E+02  0.15694543932E+02  0.51100000000E-03 0. -1.
        -11    1    4    4    0    0 -0.26867054473E+01  0.32990615178E+01  0.42885453173E+01  0.60410110294E+01  0.51100000000E-03 0.  1.
        -12    1    4    4    0    0 -0.32471534661E+01 -0.17624377436E+02  0.18908442439E+02  0.26051715512E+02  0.00000000000E+00 0.  1.
</event>
<event>
 8    1  0.2994958E-010  0.9118800E+02  0.7816164E-02  0.1184000E+00
        -11   -1    0    0    0    0  0.00000000000E+00  0.00000000000E+00  0.45593999997E+02  0.45594000000E+02  0.51100000000E-03 0. -1.
         11   -1    0    0    0    0 -0.00000000000E+00 -0.00000000000E+00 -0.45593999997E+02  0.45594000000E+02  0.51100000000E-03 0.  1.
         23    2    1    2    0    0  0.00000000000E+00  0.00000000000E+00  0.00000000000E+00  0.91188000000E+02  0.91188000000E+02 0.  0.
    9900012    2    3    3    0    0 -0.13786801351E+02  0.10776058119E+02 -0.39716798425E+02  0.47787269624E+02  0.19999993524E+02 0.  0.
         12    1    3    3    0    0  0.13786801351E+02 -0.10776058119E+02  0.39716798425E+02  0.43400730376E+02  0.00000000000E+00 0. -1.
         11    1    4    4    0    0 -0.49896925095E+01 -0.69732414959E+00 -0.95589445180E+01  0.10805402023E+02  0.51100000000E-03 0.  1.
        -11    1    4    4    0    0 -0.94879157942E+01 -0.35898732361E+00 -0.12076125636E+02  0.15361713077E+02  0.51100000000E-03 0. -1.
         12    1    4    4    0    0  0.69080695309E+00  0.11832369593E+02 -0.18081728271E+02  0.21620154525E+02  0.00000000000E+00 0. -1.
</event>
<event>
 8    1  0.2994958E-010  0.9118800E+02  0.7816164E-02  0.1184000E+00
        -11   -1    0    0    0    0  0.00000000000E+00  0.00000000000E+00  0.45593999997E+02  0.45594000000E+02  0.51100000000E-03 0. -1.
         11   -1    0    0    0    0 -0.00000000000E+00 -0.00000000000E+00 -0.45593999997E+02  0.45594000000E+02  0.51100000000E-03 0.  1.
         23    2    1    2    0    0  0.35527136788E-14 -0.35527136788E-14  0.35527136788E-14  0.91188000000E+02  0.91188000000E+02 0.  0.
    9900012    2    3    3    0    0  0.30943430695E+02  0.15443389988E+02  0.26222718999E+02  0.47787248979E+02  0.19999899393E+02 0.  0.
        -12    1    3    3    0    0 -0.30943430695E+02 -0.15443389988E+02 -0.26222718999E+02  0.43400751021E+02  0.00000000000E+00 0.  1.
         11    1    4    4    0    0  0.19376524638E+02  0.85633466061E+01  0.14278906199E+02  0.25547363360E+02  0.51100000000E-03 0. -1.
        -11    1    4    4    0    0  0.10037656750E+02  0.56213346497E+01  0.14905986527E+01  0.11600682776E+02  0.51100000000E-03 0.  1.
         12    1    4    4    0    0  0.15292493073E+01  0.12587087327E+01  0.10453214147E+02  0.10639202842E+02  0.00000000000E+00 0. -1.
</event>
<event>
 8    1  0.2994958E-010  0.9118800E+02  0.7816164E-02  0.1184000E+00
        -11   -1    0    0    0    0  0.00000000000E+00  0.00000000000E+00  0.45593999997E+02  0.45594000000E+02  0.51100000000E-03 0. -1.
         11   -1    0    0    0    0 -0.00000000000E+00 -0.00000000000E+00 -0.45593999997E+02  0.45594000000E+02  0.51100000000E-03 0.  1.
         23    2    1    2    0    0 -0.88817841970E-15  0.00000000000E+00  0.00000000000E+00  0.91188000000E+02  0.91188000000E+02 0.  0.
    9900012    2    3    3    0    0 -0.60668051501E+01  0.37308132336E+02  0.21328884249E+02  0.47787260761E+02  0.19999953115E+02 0.  0.
        -12    1    3    3    0    0  0.60668051501E+01 -0.37308132336E+02 -0.21328884249E+02  0.43400739239E+02  0.00000000000E+00 0.  1.
         11    1    4    4    0    0  0.46481801083E+00  0.98914488042E+01  0.60184499013E+01  0.11587862387E+02  0.51100000000E-03 0. -1.
        -11    1    4    4    0    0 -0.11325499731E+02  0.20120301605E+02  0.69514186330E+01  0.24112563159E+02  0.51100000000E-03 0.  1.
        -12    1    4    4    0    0  0.47938765700E+01  0.72963819270E+01  0.83590157148E+01  0.12086835215E+02  0.00000000000E+00 0.  1.
</event>
<event>
 8    1  0.2994958E-010  0.9118800E+02  0.7816164E-02  0.1184000E+00
        -11   -1    0    0    0    0  0.00000000000E+00  0.00000000000E+00  0.45593999997E+02  0.45594000000E+02  0.51100000000E-03 0. -1.
         11   -1    0    0    0    0 -0.00000000000E+00 -0.00000000000E+00 -0.45593999997E+02  0.45594000000E+02  0.51100000000E-03 0.  1.
         23    2    1    2    0    0  0.00000000000E+00  0.00000000000E+00  0.00000000000E+00  0.91188000000E+02  0.91188000000E+02 0.  0.
    9900012    2    3    3    0    0 -0.41402163926E+02 -0.12403799804E+02  0.39534615585E+01  0.47787270909E+02  0.19999999383E+02 0.  0.
        -12    1    3    3    0    0  0.41402163926E+02  0.12403799804E+02 -0.39534615585E+01  0.43400729091E+02  0.00000000000E+00 0.  1.
         11    1    4    4    0    0 -0.50915522118E+01  0.29558887961E+01 -0.60677482174E+00  0.59185605046E+01  0.51100000000E-03 0. -1.
        -11    1    4    4    0    0 -0.78252499475E+01 -0.54741197273E+01  0.66613636948E+01  0.11643637321E+02  0.51100000000E-03 0.  1.
         12    1    4    4    0    0 -0.28485361767E+02 -0.98855688728E+01 -0.21011273146E+01  0.30225073083E+02  0.00000000000E+00 0. -1.
</event>
<event>
 8    1  0.2994958E-010  0.9118800E+02  0.7816164E-02  0.1184000E+00
        -11   -1    0    0    0    0  0.00000000000E+00  0.00000000000E+00  0.45593999997E+02  0.45594000000E+02  0.51100000000E-03 0. -1.
         11   -1    0    0    0    0 -0.00000000000E+00 -0.00000000000E+00 -0.45593999997E+02  0.45594000000E+02  0.51100000000E-03 0.  1.
         23    2    1    2    0    0  0.00000000000E+00 -0.71054273576E-14  0.00000000000E+00  0.91188000000E+02  0.91188000000E+02 0.  0.
    9900012    2    3    3    0    0  0.11969684421E+02 -0.41365669332E+02  0.54071196690E+01  0.47787206372E+02  0.19999705130E+02 0.  0.
         12    1    3    3    0    0 -0.11969684421E+02  0.41365669332E+02 -0.54071196690E+01  0.43400793628E+02  0.00000000000E+00 0. -1.
         11    1    4    4    0    0  0.56504884209E+01 -0.23594141250E+02  0.36281012297E+00  0.24264030006E+02  0.51100000000E-03 0. -1.
        -11    1    4    4    0    0  0.25592077764E+01 -0.18507622318E+02  0.23314928116E+01  0.18828634769E+02  0.51100000000E-03 0.  1.
         12    1    4    4    0    0  0.37599882234E+01  0.73609423496E+00  0.27128167344E+01  0.46945415961E+01  0.00000000000E+00 0. -1.
</event>
<event>
 8    1  0.2994958E-010  0.9118800E+02  0.7816164E-02  0.1184000E+00
        -11   -1    0    0    0    0  0.00000000000E+00  0.00000000000E+00  0.45593999997E+02  0.45594000000E+02  0.51100000000E-03 0. -1.
         11   -1    0    0    0    0 -0.00000000000E+00 -0.00000000000E+00 -0.45593999997E+02  0.45594000000E+02  0.51100000000E-03 0.  1.
         23    2    1    2    0    0  0.00000000000E+00  0.22204460493E-15  0.71054273576E-14  0.91188000000E+02  0.91188000000E+02 0.  0.
    9900012    2    3    3    0    0  0.77373363496E+01  0.12994679017E+01  0.42685688590E+02  0.47787274188E+02  0.20000014332E+02 0.  0.
        -12    1    3    3    0    0 -0.77373363496E+01 -0.12994679017E+01 -0.42685688590E+02  0.43400725812E+02  0.00000000000E+00 0.  1.
         11    1    4    4    0    0  0.11283015333E+01  0.57122528069E+01  0.23566737574E+02  0.24275378815E+02  0.51100000000E-03 0. -1.
        -11    1    4    4    0    0  0.51733204982E+01  0.38767039086E+00  0.17490033412E+02  0.18243212500E+02  0.51100000000E-03 0.  1.
        -12    1    4    4    0    0  0.14357143181E+01 -0.48004552961E+01  0.16289176043E+01  0.52686828729E+01  0.00000000000E+00 0.  1.
</event>
<event>
 8    1  0.2994958E-010  0.9118800E+02  0.7816164E-02  0.1184000E+00
        -11   -1    0    0    0    0  0.00000000000E+00  0.00000000000E+00  0.45593999997E+02  0.45594000000E+02  0.51100000000E-03 0. -1.
         11   -1    0    0    0    0 -0.00000000000E+00 -0.00000000000E+00 -0.45593999997E+02  0.45594000000E+02  0.51100000000E-03 0.  1.
         23    2    1    2    0    0  0.00000000000E+00  0.00000000000E+00  0.00000000000E+00  0.91188000000E+02  0.91188000000E+02 0.  0.
    9900012    2    3    3    0    0  0.18191150763E+02  0.88929548921E+01 -0.38387769328E+02  0.47787269052E+02  0.19999990917E+02 0.  0.
         12    1    3    3    0    0 -0.18191150763E+02 -0.88929548921E+01  0.38387769328E+02  0.43400730948E+02  0.00000000000E+00 0. -1.
         11    1    4    4    0    0  0.44382801901E+01  0.84610058769E+01 -0.70190676197E+01  0.11855558275E+02  0.51100000000E-03 0. -1.
        -11    1    4    4    0    0  0.76377739655E+00  0.36524861626E+01 -0.10474283831E+02  0.11119111166E+02  0.51100000000E-03 0.  1.
        -12    1    4    4    0    0  0.12989093177E+02 -0.32205371474E+01 -0.20894417877E+02  0.24812599612E+02  0.00000000000E+00 0.  1.
</event>
<event>
 8    1  0.2994958E-010  0.9118800E+02  0.7816164E-02  0.1184000E+00
        -11   -1    0    0    0    0  0.00000000000E+00  0.00000000000E+00  0.45593999997E+02  0.45594000000E+02  0.51100000000E-03 0. -1.
         11   -1    0    0    0    0 -0.00000000000E+00 -0.00000000000E+00 -0.45593999997E+02  0.45594000000E+02  0.51100000000E-03 0.  1.
         23    2    1    2    0    0  0.71054273576E-14  0.00000000000E+00  0.35527136788E-14  0.91188000000E+02  0.91188000000E+02 0.  0.
    9900012    2    3    3    0    0  0.38379202191E+02 -0.50551903501E+01  0.19624110926E+02  0.47787264523E+02  0.19999970268E+02 0.  0.
        -12    1    3    3    0    0 -0.38379202191E+02  0.50551903501E+01 -0.19624110926E+02  0.43400735477E+02  0.00000000000E+00 0.  1.
         11    1    4    4    0    0  0.12083991166E+02 -0.55449987988E+01  0.55828773264E+01  0.14420068435E+02  0.51100000000E-03 0. -1.
        -11    1    4    4    0    0  0.11436352370E+02 -0.37703352084E+01  0.13228249744E+02  0.17888325094E+02  0.51100000000E-03 0.  1.
         12    1    4    4    0    0  0.14858858655E+02  0.42601436571E+01  0.81298385557E+00  0.15478870994E+02  0.00000000000E+00 0. -1.
</event>
<event>
 8    1  0.2994958E-010  0.9118800E+02  0.7816164E-02  0.1184000E+00
        -11   -1    0    0    0    0  0.00000000000E+00  0.00000000000E+00  0.45593999997E+02  0.45594000000E+02  0.51100000000E-03 0.  1.
         11   -1    0    0    0    0 -0.00000000000E+00 -0.00000000000E+00 -0.45593999997E+02  0.45594000000E+02  0.51100000000E-03 0. -1.
         23    2    1    2    0    0  0.00000000000E+00  0.17763568394E-14  0.00000000000E+00  0.91188000000E+02  0.91188000000E+02 0.  0.
    9900012    2    3    3    0    0 -0.33595760816E+02  0.10295593052E+02 -0.25474476970E+02  0.47787270076E+02  0.19999995583E+02 0.  0.
         12    1    3    3    0    0  0.33595760816E+02 -0.10295593052E+02  0.25474476970E+02  0.43400729924E+02  0.00000000000E+00 0. -1.
         11    1    4    4    0    0  0.13359669886E-01 -0.14779450121E+01  0.19028811731E+01  0.24094515890E+01  0.51100000000E-03 0. -1.
        -11    1    4    4    0    0 -0.11078113754E+02  0.22865934111E+01 -0.55287839725E+01  0.12590495076E+02  0.51100000000E-03 0.  1.
         12    1    4    4    0    0 -0.22531006732E+02  0.94869446527E+01 -0.21848574170E+02  0.32787323411E+02  0.00000000000E+00 0. -1.
</event>
<event>
 8    1  0.2994958E-010  0.9118800E+02  0.7816164E-02  0.1184000E+00
        -11   -1    0    0    0    0  0.00000000000E+00  0.00000000000E+00  0.45593999997E+02  0.45594000000E+02  0.51100000000E-03 0. -1.
         11   -1    0    0    0    0 -0.00000000000E+00 -0.00000000000E+00 -0.45593999997E+02  0.45594000000E+02  0.51100000000E-03 0.  1.
         23    2    1    2    0    0  0.00000000000E+00  0.35527136788E-14  0.35527136788E-14  0.91188000000E+02  0.91188000000E+02 0.  0.
    9900012    2    3    3    0    0 -0.11970510197E+02  0.30173179289E+02  0.28808149826E+02  0.47787270062E+02  0.19999995520E+02 0.  0.
        -12    1    3    3    0    0  0.11970510197E+02 -0.30173179289E+02 -0.28808149826E+02  0.43400729938E+02  0.00000000000E+00 0.  1.
         11    1    4    4    0    0 -0.75429414515E+01  0.30191633289E+02  0.26645599791E+02  0.40968508331E+02  0.51100000000E-03 0. -1.
        -11    1    4    4    0    0  0.98749117758E+00  0.21346449954E+00  0.83777232499E-01  0.10137676283E+01  0.51100000000E-03 0.  1.
         12    1    4    4    0    0 -0.54150599235E+01 -0.23191849995E+00  0.20787728026E+01  0.58049941026E+01  0.00000000000E+00 0. -1.
</event>
<event>
 8    1  0.2994958E-010  0.9118800E+02  0.7816164E-02  0.1184000E+00
        -11   -1    0    0    0    0  0.00000000000E+00  0.00000000000E+00  0.45593999997E+02  0.45594000000E+02  0.51100000000E-03 0. -1.
         11   -1    0    0    0    0 -0.00000000000E+00 -0.00000000000E+00 -0.45593999997E+02  0.45594000000E+02  0.51100000000E-03 0.  1.
         23    2    1    2    0    0  0.00000000000E+00  0.00000000000E+00  0.00000000000E+00  0.91188000000E+02  0.91188000000E+02 0.  0.
    9900012    2    3    3    0    0  0.54868198795E+01  0.40381554049E+02 -0.14928105237E+02  0.47787269294E+02  0.19999992020E+02 0.  0.
         12    1    3    3    0    0 -0.54868198795E+01 -0.40381554049E+02  0.14928105237E+02  0.43400730706E+02  0.00000000000E+00 0. -1.
         11    1    4    4    0    0 -0.11184345912E+01  0.19960991934E+00 -0.19101204452E+01  0.22224536961E+01  0.51100000000E-03 0. -1.
        -11    1    4    4    0    0 -0.24602664498E+01  0.39572085083E+01  0.23083462383E+01  0.52000839223E+01  0.51100000000E-03 0.  1.
        -12    1    4    4    0    0  0.90655209205E+01  0.36224735622E+02 -0.15326331030E+02  0.40364731676E+02  0.00000000000E+00 0.  1.
</event>
<event>
 8    1  0.2994958E-010  0.9118800E+02  0.7816164E-02  0.1184000E+00
        -11   -1    0    0    0    0  0.00000000000E+00  0.00000000000E+00  0.45593999997E+02  0.45594000000E+02  0.51100000000E-03 0. -1.
         11   -1    0    0    0    0 -0.00000000000E+00 -0.00000000000E+00 -0.45593999997E+02  0.45594000000E+02  0.51100000000E-03 0.  1.
         23    2    1    2    0    0  0.33306690739E-15  0.00000000000E+00 -0.35527136788E-14  0.91188000000E+02  0.91188000000E+02 0.  0.
    9900012    2    3    3    0    0 -0.88994989265E+00 -0.35712736913E+02  0.24646129634E+02  0.47787270806E+02  0.19999998912E+02 0.  0.
        -12    1    3    3    0    0  0.88994989265E+00  0.35712736913E+02 -0.24646129634E+02  0.43400729194E+02  0.00000000000E+00 0.  1.
         11    1    4    4    0    0  0.13751162867E+01 -0.78574511474E+01  0.21346493532E+01  0.82575548110E+01  0.51100000000E-03 0. -1.
        -11    1    4    4    0    0  0.46319855457E+01 -0.19784609066E+02  0.86855006329E+01  0.22098053478E+02  0.51100000000E-03 0.  1.
         12    1    4    4    0    0 -0.68970517251E+01 -0.80706766996E+01  0.13825979648E+02  0.17431662517E+02  0.00000000000E+00 0. -1.
</event>
<event>
 8    1  0.2994958E-010  0.9118800E+02  0.7816164E-02  0.1184000E+00
        -11   -1    0    0    0    0  0.00000000000E+00  0.00000000000E+00  0.45593999997E+02  0.45594000000E+02  0.51100000000E-03 0.  1.
         11   -1    0    0    0    0 -0.00000000000E+00 -0.00000000000E+00 -0.45593999997E+02  0.45594000000E+02  0.51100000000E-03 0. -1.
         23    2    1    2    0    0 -0.71054273576E-14  0.00000000000E+00  0.00000000000E+00  0.91188000000E+02  0.91188000000E+02 0.  0.
    9900012    2    3    3    0    0  0.37142833399E+02 -0.15298810889E+01 -0.22398491578E+02  0.47787273808E+02  0.20000012600E+02 0.  0.
         12    1    3    3    0    0 -0.37142833399E+02  0.15298810889E+01  0.22398491578E+02  0.43400726192E+02  0.00000000000E+00 0. -1.
         11    1    4    4    0    0  0.95775195725E+01  0.64059337973E+00 -0.12181417571E+01  0.96759036085E+01  0.51100000000E-03 0.  1.
        -11    1    4    4    0    0 -0.15290482714E+01 -0.15413293207E+01 -0.33189189228E+01  0.39659687049E+01  0.51100000000E-03 0. -1.
         12    1    4    4    0    0  0.29094362098E+02 -0.62914514793E+00 -0.17861430898E+02  0.34145401494E+02  0.00000000000E+00 0. -1.
</event>
<event>
 8    1  0.2994958E-010  0.9118800E+02  0.7816164E-02  0.1184000E+00
        -11   -1    0    0    0    0  0.00000000000E+00  0.00000000000E+00  0.45593999997E+02  0.45594000000E+02  0.51100000000E-03 0. -1.
         11   -1    0    0    0    0 -0.00000000000E+00 -0.00000000000E+00 -0.45593999997E+02  0.45594000000E+02  0.51100000000E-03 0.  1.
         23    2    1    2    0    0  0.00000000000E+00  0.44408920985E-15  0.00000000000E+00  0.91188000000E+02  0.91188000000E+02 0.  0.
    9900012    2    3    3    0    0 -0.64944545748E+01  0.23384281303E+01  0.42848302207E+02  0.47787272029E+02  0.20000004490E+02 0.  0.
        -12    1    3    3    0    0  0.64944545748E+01 -0.23384281303E+01 -0.42848302207E+02  0.43400727971E+02  0.00000000000E+00 0.  1.
         11    1    4    4    0    0  0.12497628522E+01  0.53054562002E+01  0.23371486532E+02  0.23998669873E+02  0.51100000000E-03 0. -1.
        -11    1    4    4    0    0 -0.13644374965E+01 -0.18076422942E+01  0.16498198782E+02  0.16652922375E+02  0.51100000000E-03 0.  1.
        -12    1    4    4    0    0 -0.63797799305E+01 -0.11593857757E+01  0.29786168939E+01  0.71356797811E+01  0.00000000000E+00 0.  1.
</event>
<event>
 8    1  0.2994958E-010  0.9118800E+02  0.7816164E-02  0.1184000E+00
        -11   -1    0    0    0    0  0.00000000000E+00  0.00000000000E+00  0.45593999997E+02  0.45594000000E+02  0.51100000000E-03 0. -1.
         11   -1    0    0    0    0 -0.00000000000E+00 -0.00000000000E+00 -0.45593999997E+02  0.45594000000E+02  0.51100000000E-03 0.  1.
         23    2    1    2    0    0  0.00000000000E+00 -0.35527136788E-14  0.71054273576E-14  0.91188000000E+02  0.91188000000E+02 0.  0.
    9900012    2    3    3    0    0  0.13792072963E+02 -0.20763865404E+02 -0.35528352040E+02  0.47787272105E+02  0.20000004838E+02 0.  0.
         12    1    3    3    0    0 -0.13792072963E+02  0.20763865404E+02  0.35528352040E+02  0.43400727895E+02  0.00000000000E+00 0. -1.
         11    1    4    4    0    0  0.65506654062E+01 -0.26675565927E+01 -0.98248472161E+01  0.12105977801E+02  0.51100000000E-03 0. -1.
        -11    1    4    4    0    0 -0.20508450340E+01  0.18356787708E+01 -0.26501668404E+01  0.38208724719E+01  0.51100000000E-03 0.  1.
         12    1    4    4    0    0  0.92922525905E+01 -0.19931987582E+02 -0.23053337983E+02  0.31860421833E+02  0.00000000000E+00 0. -1.
</event>
<event>
 8    1  0.2994958E-010  0.9118800E+02  0.7816164E-02  0.1184000E+00
        -11   -1    0    0    0    0  0.00000000000E+00  0.00000000000E+00  0.45593999997E+02  0.45594000000E+02  0.51100000000E-03 0. -1.
         11   -1    0    0    0    0 -0.00000000000E+00 -0.00000000000E+00 -0.45593999997E+02  0.45594000000E+02  0.51100000000E-03 0.  1.
         23    2    1    2    0    0 -0.44408920985E-15 -0.71054273576E-14  0.00000000000E+00  0.91188000000E+02  0.91188000000E+02 0.  0.
    9900012    2    3    3    0    0 -0.24073064191E+01 -0.40771662952E+02 -0.14679895535E+02  0.47787274696E+02  0.20000016647E+02 0.  0.
         12    1    3    3    0    0  0.24073064191E+01  0.40771662952E+02  0.14679895535E+02  0.43400725304E+02  0.00000000000E+00 0. -1.
         11    1    4    4    0    0  0.71436506888E+00 -0.39893810925E+02 -0.10890183978E+02  0.41359673293E+02  0.51100000000E-03 0. -1.
        -11    1    4    4    0    0  0.76137362258E+00 -0.10448968561E+01 -0.76082964740E+00  0.15001204107E+01  0.51100000000E-03 0.  1.
         12    1    4    4    0    0 -0.38830451105E+01  0.16704482934E+00 -0.30288819093E+01  0.49274809919E+01  0.00000000000E+00 0. -1.
</event>
<event>
 8    1  0.2994958E-010  0.9118800E+02  0.7816164E-02  0.1184000E+00
        -11   -1    0    0    0    0  0.00000000000E+00  0.00000000000E+00  0.45593999997E+02  0.45594000000E+02  0.51100000000E-03 0. -1.
         11   -1    0    0    0    0 -0.00000000000E+00 -0.00000000000E+00 -0.45593999997E+02  0.45594000000E+02  0.51100000000E-03 0.  1.
         23    2    1    2    0    0  0.00000000000E+00 -0.35527136788E-14  0.00000000000E+00  0.91188000000E+02  0.91188000000E+02 0.  0.
    9900012    2    3    3    0    0  0.16952359974E+02 -0.17996220431E+02  0.35670390550E+02  0.47787271659E+02  0.20000002803E+02 0.  0.
        -12    1    3    3    0    0 -0.16952359974E+02  0.17996220431E+02 -0.35670390550E+02  0.43400728341E+02  0.00000000000E+00 0.  1.
         11    1    4    4    0    0  0.17035797343E+02 -0.88255368326E+01  0.17517199694E+02  0.25980007253E+02  0.51100000000E-03 0. -1.
        -11    1    4    4    0    0  0.30145474607E+01 -0.11320440522E+01  0.70772976792E+01  0.77754204279E+01  0.51100000000E-03 0.  1.
        -12    1    4    4    0    0 -0.30979848296E+01 -0.80386395463E+01  0.11075893177E+02  0.14031843978E+02  0.00000000000E+00 0.  1.
</event>
<event>
 8    1  0.2994958E-010  0.9118800E+02  0.7816164E-02  0.1184000E+00
        -11   -1    0    0    0    0  0.00000000000E+00  0.00000000000E+00  0.45593999997E+02  0.45594000000E+02  0.51100000000E-03 0. -1.
         11   -1    0    0    0    0 -0.00000000000E+00 -0.00000000000E+00 -0.45593999997E+02  0.45594000000E+02  0.51100000000E-03 0.  1.
         23    2    1    2    0    0 -0.22204460493E-15  0.00000000000E+00 -0.71054273576E-14  0.91188000000E+02  0.91188000000E+02 0.  0.
    9900012    2    3    3    0    0  0.17476802987E+01 -0.91102203088E+01  0.42397792870E+02  0.47787270274E+02  0.19999996489E+02 0.  0.
        -12    1    3    3    0    0 -0.17476802987E+01  0.91102203088E+01 -0.42397792870E+02  0.43400729726E+02  0.00000000000E+00 0.  1.
         11    1    4    4    0    0  0.24520265327E+01  0.24761790691E+01  0.24145101156E+02  0.24395282475E+02  0.51100000000E-03 0. -1.
        -11    1    4    4    0    0 -0.91441116568E+00 -0.41899365524E+01  0.14449271202E+02  0.15072264416E+02  0.51100000000E-03 0.  1.
        -12    1    4    4    0    0  0.21006493171E+00 -0.73964628255E+01  0.38034205113E+01  0.83197233843E+01  0.00000000000E+00 0.  1.
</event>
<event>
 8    1  0.2994958E-010  0.9118800E+02  0.7816164E-02  0.1184000E+00
        -11   -1    0    0    0    0  0.00000000000E+00  0.00000000000E+00  0.45593999997E+02  0.45594000000E+02  0.51100000000E-03 0. -1.
         11   -1    0    0    0    0 -0.00000000000E+00 -0.00000000000E+00 -0.45593999997E+02  0.45594000000E+02  0.51100000000E-03 0.  1.
         23    2    1    2    0    0 -0.17763568394E-14  0.00000000000E+00  0.00000000000E+00  0.91188000000E+02  0.91188000000E+02 0.  0.
    9900012    2    3    3    0    0 -0.14696844042E+02  0.20498620000E+02  0.35319011223E+02  0.47787271890E+02  0.20000003854E+02 0.  0.
        -12    1    3    3    0    0  0.14696844042E+02 -0.20498620000E+02 -0.35319011223E+02  0.43400728110E+02  0.00000000000E+00 0.  1.
         11    1    4    4    0    0  0.68106449362E+00  0.29988533052E+01  0.12836186240E+02  0.13199418451E+02  0.51100000000E-03 0. -1.
        -11    1    4    4    0    0  0.18301167628E+01  0.13891154109E+00  0.14126592865E+01  0.23160808066E+01  0.51100000000E-03 0.  1.
        -12    1    4    4    0    0 -0.17208025298E+02  0.17360855154E+02  0.21070165696E+02  0.32271772632E+02  0.00000000000E+00 0.  1.
</event>
<event>
 8    1  0.2994958E-010  0.9118800E+02  0.7816164E-02  0.1184000E+00
        -11   -1    0    0    0    0  0.00000000000E+00  0.00000000000E+00  0.45593999997E+02  0.45594000000E+02  0.51100000000E-03 0. -1.
         11   -1    0    0    0    0 -0.00000000000E+00 -0.00000000000E+00 -0.45593999997E+02  0.45594000000E+02  0.51100000000E-03 0.  1.
         23    2    1    2    0    0 -0.17763568394E-14  0.00000000000E+00  0.00000000000E+00  0.91188000000E+02  0.91188000000E+02 0.  0.
    9900012    2    3    3    0    0 -0.12437235249E+02  0.30841421117E+02 -0.27888092675E+02  0.47787265096E+02  0.19999972880E+02 0.  0.
         12    1    3    3    0    0  0.12437235249E+02 -0.30841421117E+02  0.27888092675E+02  0.43400734904E+02  0.00000000000E+00 0. -1.
         11    1    4    4    0    0 -0.88206221690E+01  0.93094428632E+01 -0.83101719166E+01  0.15281624894E+02  0.51100000000E-03 0. -1.
        -11    1    4    4    0    0 -0.54459263581E+01  0.10688196337E+02 -0.17650605513E+02  0.21341029265E+02  0.51100000000E-03 0.  1.
         12    1    4    4    0    0  0.18293132782E+01  0.10843781916E+02 -0.19273152451E+01  0.11164610937E+02  0.00000000000E+00 0. -1.
</event>
<event>
 8    1  0.2994958E-010  0.9118800E+02  0.7816164E-02  0.1184000E+00
        -11   -1    0    0    0    0  0.00000000000E+00  0.00000000000E+00  0.45593999997E+02  0.45594000000E+02  0.51100000000E-03 0. -1.
         11   -1    0    0    0    0 -0.00000000000E+00 -0.00000000000E+00 -0.45593999997E+02  0.45594000000E+02  0.51100000000E-03 0.  1.
         23    2    1    2    0    0 -0.35527136788E-14  0.14210854715E-13 -0.17763568394E-14  0.91188000000E+02  0.91188000000E+02 0.  0.
    9900012    2    3    3    0    0  0.23169684252E+02 -0.34139188268E+02  0.13464951976E+02  0.47787269872E+02  0.19999994654E+02 0.  0.
        -12    1    3    3    0    0 -0.23169684252E+02  0.34139188268E+02 -0.13464951976E+02  0.43400730128E+02  0.00000000000E+00 0.  1.
         11    1    4    4    0    0  0.24679495497E+01 -0.11381144329E+02  0.10720112686E+02  0.15828519750E+02  0.51100000000E-03 0. -1.
        -11    1    4    4    0    0  0.16504605680E+02 -0.16962271287E+02  0.54884309972E+01  0.24294928090E+02  0.51100000000E-03 0.  1.
        -12    1    4    4    0    0  0.41971290220E+01 -0.57957726526E+01 -0.27435917073E+01  0.76638220311E+01  0.00000000000E+00 0.  1.
</event>
<event>
 8    1  0.2994958E-010  0.9118800E+02  0.7816164E-02  0.1184000E+00
        -11   -1    0    0    0    0  0.00000000000E+00  0.00000000000E+00  0.45593999997E+02  0.45594000000E+02  0.51100000000E-03 0. -1.
         11   -1    0    0    0    0 -0.00000000000E+00 -0.00000000000E+00 -0.45593999997E+02  0.45594000000E+02  0.51100000000E-03 0.  1.
         23    2    1    2    0    0  0.35527136788E-14 -0.77715611724E-15  0.00000000000E+00  0.91188000000E+02  0.91188000000E+02 0.  0.
    9900012    2    3    3    0    0 -0.22117701795E+02 -0.36822996222E+00  0.37340261402E+02  0.47787269043E+02  0.19999990876E+02 0.  0.
        -12    1    3    3    0    0  0.22117701795E+02  0.36822996222E+00 -0.37340261402E+02  0.43400730957E+02  0.00000000000E+00 0.  1.
         11    1    4    4    0    0 -0.13406260746E+02 -0.60322638895E+01  0.31533581985E+02  0.34791993732E+02  0.51100000000E-03 0. -1.
        -11    1    4    4    0    0 -0.14319648453E+01  0.84209239211E+00 -0.98673012160E+00  0.19321696378E+01  0.51100000000E-03 0.  1.
         12    1    4    4    0    0 -0.72794762037E+01  0.48219415352E+01  0.67934095389E+01  0.11063105673E+02  0.00000000000E+00 0. -1.
</event>
<event>
 8    1  0.2994958E-010  0.9118800E+02  0.7816164E-02  0.1184000E+00
        -11   -1    0    0    0    0  0.00000000000E+00  0.00000000000E+00  0.45593999997E+02  0.45594000000E+02  0.51100000000E-03 0. -1.
         11   -1    0    0    0    0 -0.00000000000E+00 -0.00000000000E+00 -0.45593999997E+02  0.45594000000E+02  0.51100000000E-03 0.  1.
         23    2    1    2    0    0  0.00000000000E+00 -0.17763568394E-14  0.00000000000E+00  0.91188000000E+02  0.91188000000E+02 0.  0.
    9900012    2    3    3    0    0  0.10878098265E+02 -0.11506087570E+02  0.40409158313E+02  0.47787272488E+02  0.20000006580E+02 0.  0.
        -12    1    3    3    0    0 -0.10878098265E+02  0.11506087570E+02 -0.40409158313E+02  0.43400727512E+02  0.00000000000E+00 0.  1.
         11    1    4    4    0    0  0.19632336545E+01 -0.97772441035E+01  0.10680807871E+02  0.14612612555E+02  0.51100000000E-03 0.  1.
        -11    1    4    4    0    0 -0.25987409086E+00 -0.49718299119E+01  0.93883660024E+01  0.10626760733E+02  0.51100000000E-03 0. -1.
        -12    1    4    4    0    0  0.91747387013E+01  0.32429864454E+01  0.20339984440E+02  0.22547899200E+02  0.00000000000E+00 0.  1.
</event>
<event>
 8    1  0.2994958E-010  0.9118800E+02  0.7816164E-02  0.1184000E+00
        -11   -1    0    0    0    0  0.00000000000E+00  0.00000000000E+00  0.45593999997E+02  0.45594000000E+02  0.51100000000E-03 0. -1.
         11   -1    0    0    0    0 -0.00000000000E+00 -0.00000000000E+00 -0.45593999997E+02  0.45594000000E+02  0.51100000000E-03 0.  1.
         23    2    1    2    0    0 -0.27755575616E-16  0.71054273576E-14 -0.71054273576E-14  0.91188000000E+02  0.91188000000E+02 0.  0.
    9900012    2    3    3    0    0 -0.15133828355E+00 -0.28084267451E+02  0.33088882194E+02  0.47787272974E+02  0.20000008797E+02 0.  0.
        -12    1    3    3    0    0  0.15133828355E+00  0.28084267451E+02 -0.33088882194E+02  0.43400727026E+02  0.00000000000E+00 0.  1.
         11    1    4    4    0    0  0.45397315516E+01 -0.40593064301E+01  0.14291640850E+02  0.15535061303E+02  0.51100000000E-03 0. -1.
        -11    1    4    4    0    0  0.45900601024E+00 -0.13858174481E+02  0.14525699028E+02  0.20081225535E+02  0.51100000000E-03 0.  1.
        -12    1    4    4    0    0 -0.51500758454E+01 -0.10166786540E+02  0.42715423167E+01  0.12170986136E+02  0.00000000000E+00 0.  1.
</event>
<event>
 8    1  0.2994958E-010  0.9118800E+02  0.7816164E-02  0.1184000E+00
        -11   -1    0    0    0    0  0.00000000000E+00  0.00000000000E+00  0.45593999997E+02  0.45594000000E+02  0.51100000000E-03 0. -1.
         11   -1    0    0    0    0 -0.00000000000E+00 -0.00000000000E+00 -0.45593999997E+02  0.45594000000E+02  0.51100000000E-03 0.  1.
         23    2    1    2    0    0  0.00000000000E+00  0.00000000000E+00  0.00000000000E+00  0.91188000000E+02  0.91188000000E+02 0.  0.
    9900012    2    3    3    0    0 -0.64611921003E+01 -0.33104085282E+02 -0.27312916599E+02  0.47787275595E+02  0.20000020747E+02 0.  0.
         12    1    3    3    0    0  0.64611921003E+01  0.33104085282E+02  0.27312916599E+02  0.43400724405E+02  0.00000000000E+00 0. -1.
         11    1    4    4    0    0 -0.49607310030E+01 -0.15474320107E+01 -0.17840215346E+00  0.51995408933E+01  0.51100000000E-03 0. -1.
        -11    1    4    4    0    0 -0.55574162923E+00 -0.17567249270E+01  0.52787946190E+00  0.19166606938E+01  0.51100000000E-03 0.  1.
        -12    1    4    4    0    0 -0.94471946808E+00 -0.29799928345E+02 -0.27662393908E+02  0.40671074008E+02  0.00000000000E+00 0.  1.
</event>
<event>
 8    1  0.2994958E-010  0.9118800E+02  0.7816164E-02  0.1184000E+00
        -11   -1    0    0    0    0  0.00000000000E+00  0.00000000000E+00  0.45593999997E+02  0.45594000000E+02  0.51100000000E-03 0. -1.
         11   -1    0    0    0    0 -0.00000000000E+00 -0.00000000000E+00 -0.45593999997E+02  0.45594000000E+02  0.51100000000E-03 0.  1.
         23    2    1    2    0    0  0.00000000000E+00  0.00000000000E+00  0.71054273576E-14  0.91188000000E+02  0.91188000000E+02 0.  0.
    9900012    2    3    3    0    0  0.11105496798E+02 -0.25233357741E+02  0.33519678052E+02  0.47787271680E+02  0.20000002897E+02 0.  0.
        -12    1    3    3    0    0 -0.11105496798E+02  0.25233357741E+02 -0.33519678052E+02  0.43400728320E+02  0.00000000000E+00 0.  1.
         11    1    4    4    0    0 -0.80739054138E+00 -0.92487973092E+01  0.16662271460E+02  0.19074155856E+02  0.51100000000E-03 0. -1.
        -11    1    4    4    0    0  0.39182345912E+01 -0.14615622936E+02  0.10847694506E+02  0.18618310140E+02  0.51100000000E-03 0.  1.
        -12    1    4    4    0    0  0.79946527486E+01 -0.13689374960E+01  0.60097120855E+01  0.10094805684E+02  0.00000000000E+00 0.  1.
</event>
<event>
 8    1  0.2994958E-010  0.9118800E+02  0.7816164E-02  0.1184000E+00
        -11   -1    0    0    0    0  0.00000000000E+00  0.00000000000E+00  0.45593999997E+02  0.45594000000E+02  0.51100000000E-03 0. -1.
         11   -1    0    0    0    0 -0.00000000000E+00 -0.00000000000E+00 -0.45593999997E+02  0.45594000000E+02  0.51100000000E-03 0.  1.
         23    2    1    2    0    0 -0.17763568394E-14  0.00000000000E+00  0.00000000000E+00  0.91188000000E+02  0.91188000000E+02 0.  0.
    9900012    2    3    3    0    0  0.93817408217E+01 -0.29687434510E+02  0.30236765924E+02  0.47787276018E+02  0.20000022675E+02 0.  0.
        -12    1    3    3    0    0 -0.93817408217E+01  0.29687434510E+02 -0.30236765924E+02  0.43400723982E+02  0.00000000000E+00 0.  1.
         11    1    4    4    0    0  0.57344984935E+01 -0.19412505573E+02  0.16740929117E+02  0.26267633193E+02  0.51100000000E-03 0. -1.
        -11    1    4    4    0    0  0.37729491144E+01 -0.12135076059E+02  0.14597472311E+02  0.19354105872E+02  0.51100000000E-03 0.  1.
        -12    1    4    4    0    0 -0.12570678614E+00  0.18601471223E+01 -0.11016355032E+01  0.21655369530E+01  0.00000000000E+00 0.  1.
</event>
<event>
 8    1  0.2994958E-010  0.9118800E+02  0.7816164E-02  0.1184000E+00
        -11   -1    0    0    0    0  0.00000000000E+00  0.00000000000E+00  0.45593999997E+02  0.45594000000E+02  0.51100000000E-03 0. -1.
         11   -1    0    0    0    0 -0.00000000000E+00 -0.00000000000E+00 -0.45593999997E+02  0.45594000000E+02  0.51100000000E-03 0.  1.
         23    2    1    2    0    0  0.00000000000E+00  0.00000000000E+00 -0.71054273576E-14  0.91188000000E+02  0.91188000000E+02 0.  0.
    9900012    2    3    3    0    0 -0.52501909510E+01 -0.16483172450E+02 -0.39804048203E+02  0.47787288803E+02  0.20000080971E+02 0.  0.
         12    1    3    3    0    0  0.52501909510E+01  0.16483172450E+02  0.39804048203E+02  0.43400711197E+02  0.00000000000E+00 0. -1.
         11    1    4    4    0    0 -0.24780145166E+01 -0.43179486318E+01 -0.11343898647E+02  0.12388271595E+02  0.51100000000E-03 0.  1.
        -11    1    4    4    0    0  0.16309526129E+01  0.37948571384E+01 -0.86182550903E+01  0.95569486861E+01  0.51100000000E-03 0. -1.
         12    1    4    4    0    0 -0.44031290473E+01 -0.15960080957E+02 -0.19841894466E+02  0.25842068523E+02  0.00000000000E+00 0. -1.
</event>
<event>
 8    1  0.2994958E-010  0.9118800E+02  0.7816164E-02  0.1184000E+00
        -11   -1    0    0    0    0  0.00000000000E+00  0.00000000000E+00  0.45593999997E+02  0.45594000000E+02  0.51100000000E-03 0. -1.
         11   -1    0    0    0    0 -0.00000000000E+00 -0.00000000000E+00 -0.45593999997E+02  0.45594000000E+02  0.51100000000E-03 0.  1.
         23    2    1    2    0    0  0.00000000000E+00  0.00000000000E+00 -0.35527136788E-14  0.91188000000E+02  0.91188000000E+02 0.  0.
    9900012    2    3    3    0    0  0.26815544424E+02  0.12103442151E+02  0.31907006027E+02  0.47787265349E+02  0.19999974033E+02 0.  0.
        -12    1    3    3    0    0 -0.26815544424E+02 -0.12103442151E+02 -0.31907006027E+02  0.43400734651E+02  0.00000000000E+00 0.  1.
         11    1    4    4    0    0  0.16213091151E+02 -0.33714457120E+01  0.13540297601E+02  0.21390900641E+02  0.51100000000E-03 0. -1.
        -11    1    4    4    0    0  0.28627175597E+01  0.26762784585E+01  0.48627524203E+01  0.62453166114E+01  0.51100000000E-03 0.  1.
        -12    1    4    4    0    0  0.77397357130E+01  0.12798609404E+02  0.13503956005E+02  0.20151048097E+02  0.00000000000E+00 0.  1.
</event>
<event>
 8    1  0.2994958E-010  0.9118800E+02  0.7816164E-02  0.1184000E+00
        -11   -1    0    0    0    0  0.00000000000E+00  0.00000000000E+00  0.45593999997E+02  0.45594000000E+02  0.51100000000E-03 0. -1.
         11   -1    0    0    0    0 -0.00000000000E+00 -0.00000000000E+00 -0.45593999997E+02  0.45594000000E+02  0.51100000000E-03 0.  1.
         23    2    1    2    0    0  0.00000000000E+00 -0.35527136788E-14  0.00000000000E+00  0.91188000000E+02  0.91188000000E+02 0.  0.
    9900012    2    3    3    0    0  0.28982037999E+02 -0.31694837107E+02  0.62531722340E+01  0.47787269720E+02  0.19999993961E+02 0.  0.
        -12    1    3    3    0    0 -0.28982037999E+02  0.31694837107E+02 -0.62531722340E+01  0.43400730280E+02  0.00000000000E+00 0.  1.
         11    1    4    4    0    0  0.69867064727E+01 -0.13417970144E+02  0.41383096082E+01  0.15683800458E+02  0.51100000000E-03 0. -1.
        -11    1    4    4    0    0  0.16316291697E+02 -0.20264296695E+02  0.17789753483E+01  0.26077343592E+02  0.51100000000E-03 0.  1.
         12    1    4    4    0    0  0.56790398298E+01  0.19874297318E+01  0.33588727747E+00  0.60261256700E+01  0.00000000000E+00 0. -1.
</event>
<event>
 8    1  0.2994958E-010  0.9118800E+02  0.7816164E-02  0.1184000E+00
        -11   -1    0    0    0    0  0.00000000000E+00  0.00000000000E+00  0.45593999997E+02  0.45594000000E+02  0.51100000000E-03 0. -1.
         11   -1    0    0    0    0 -0.00000000000E+00 -0.00000000000E+00 -0.45593999997E+02  0.45594000000E+02  0.51100000000E-03 0.  1.
         23    2    1    2    0    0  0.00000000000E+00  0.00000000000E+00  0.00000000000E+00  0.91188000000E+02  0.91188000000E+02 0.  0.
    9900012    2    3    3    0    0 -0.11432533807E+02 -0.34643755046E+02 -0.23510224305E+02  0.47787271437E+02  0.20000001790E+02 0.  0.
         12    1    3    3    0    0  0.11432533807E+02  0.34643755046E+02  0.23510224305E+02  0.43400728563E+02  0.00000000000E+00 0. -1.
         11    1    4    4    0    0  0.48736193492E+01 -0.45446485418E+01 -0.63705739814E+01  0.92190134528E+01  0.51100000000E-03 0. -1.
        -11    1    4    4    0    0 -0.35351505652E+01 -0.31937466383E+01 -0.21646514477E+01  0.52328790603E+01  0.51100000000E-03 0.  1.
         12    1    4    4    0    0 -0.12771002591E+02 -0.26905359866E+02 -0.14974998876E+02  0.33335378924E+02  0.00000000000E+00 0. -1.
</event>
<event>
 8    1  0.2994958E-010  0.9118800E+02  0.7816164E-02  0.1184000E+00
        -11   -1    0    0    0    0  0.00000000000E+00  0.00000000000E+00  0.45593999997E+02  0.45594000000E+02  0.51100000000E-03 0. -1.
         11   -1    0    0    0    0 -0.00000000000E+00 -0.00000000000E+00 -0.45593999997E+02  0.45594000000E+02  0.51100000000E-03 0.  1.
         23    2    1    2    0    0  0.35527136788E-14  0.00000000000E+00 -0.71054273576E-14  0.91188000000E+02  0.91188000000E+02 0.  0.
    9900012    2    3    3    0    0  0.27860790257E+02  0.24482084324E+02 -0.22539452309E+02  0.47787274235E+02  0.20000014546E+02 0.  0.
         12    1    3    3    0    0 -0.27860790257E+02 -0.24482084324E+02  0.22539452309E+02  0.43400725765E+02  0.00000000000E+00 0. -1.
         11    1    4    4    0    0  0.84448314701E+01  0.23413452158E+01 -0.11325607032E+02  0.14320141441E+02  0.51100000000E-03 0. -1.
        -11    1    4    4    0    0  0.17056327357E+02  0.15723925253E+02 -0.12733709299E+02  0.26463323318E+02  0.51100000000E-03 0.  1.
         12    1    4    4    0    0  0.23596314301E+01  0.64168138544E+01  0.15198640220E+01  0.70038094758E+01  0.00000000000E+00 0. -1.
</event>
<event>
 8    1  0.2994958E-010  0.9118800E+02  0.7816164E-02  0.1184000E+00
        -11   -1    0    0    0    0  0.00000000000E+00  0.00000000000E+00  0.45593999997E+02  0.45594000000E+02  0.51100000000E-03 0. -1.
         11   -1    0    0    0    0 -0.00000000000E+00 -0.00000000000E+00 -0.45593999997E+02  0.45594000000E+02  0.51100000000E-03 0.  1.
         23    2    1    2    0    0  0.00000000000E+00  0.35527136788E-14  0.35527136788E-14  0.91188000000E+02  0.91188000000E+02 0.  0.
    9900012    2    3    3    0    0 -0.18364536220E+02 -0.31316769345E+02 -0.23782908537E+02  0.47787274531E+02  0.20000015897E+02 0.  0.
         12    1    3    3    0    0  0.18364536220E+02  0.31316769345E+02  0.23782908537E+02  0.43400725469E+02  0.00000000000E+00 0. -1.
         11    1    4    4    0    0 -0.39295677524E+01 -0.87182125342E+00  0.20764095308E+01  0.45291336720E+01  0.51100000000E-03 0. -1.
        -11    1    4    4    0    0 -0.47826816405E+01 -0.32409430031E+01 -0.36049695576E+01  0.68098135802E+01  0.51100000000E-03 0.  1.
        -12    1    4    4    0    0 -0.96522868266E+01 -0.27204005088E+02 -0.22254348510E+02  0.36448327279E+02  0.00000000000E+00 0.  1.
</event>
<event>
 8    1  0.2994958E-010  0.9118800E+02  0.7816164E-02  0.1184000E+00
        -11   -1    0    0    0    0  0.00000000000E+00  0.00000000000E+00  0.45593999997E+02  0.45594000000E+02  0.51100000000E-03 0. -1.
         11   -1    0    0    0    0 -0.00000000000E+00 -0.00000000000E+00 -0.45593999997E+02  0.45594000000E+02  0.51100000000E-03 0.  1.
         23    2    1    2    0    0 -0.71054273576E-14  0.17763568394E-14 -0.71054273576E-14  0.91188000000E+02  0.91188000000E+02 0.  0.
    9900012    2    3    3    0    0  0.23080488577E+02 -0.92337614667E+01  0.35576011725E+02  0.47787263669E+02  0.19999966373E+02 0.  0.
        -12    1    3    3    0    0 -0.23080488577E+02  0.92337614667E+01 -0.35576011725E+02  0.43400736331E+02  0.00000000000E+00 0.  1.
         11    1    4    4    0    0  0.19975307344E+02 -0.11218665357E+02  0.36028917431E+02  0.42696068290E+02  0.51100000000E-03 0. -1.
        -11    1    4    4    0    0  0.25415012254E+01 -0.43606634453E+00 -0.36085119604E+00  0.26037657695E+01  0.51100000000E-03 0.  1.
         12    1    4    4    0    0  0.56368000775E+00  0.24209702350E+01 -0.92054510147E-01  0.24874296096E+01  0.00000000000E+00 0. -1.
</event>
<event>
 8    1  0.2994958E-010  0.9118800E+02  0.7816164E-02  0.1184000E+00
        -11   -1    0    0    0    0  0.00000000000E+00  0.00000000000E+00  0.45593999997E+02  0.45594000000E+02  0.51100000000E-03 0.  1.
         11   -1    0    0    0    0 -0.00000000000E+00 -0.00000000000E+00 -0.45593999997E+02  0.45594000000E+02  0.51100000000E-03 0. -1.
         23    2    1    2    0    0  0.00000000000E+00  0.00000000000E+00  0.00000000000E+00  0.91188000000E+02  0.91188000000E+02 0.  0.
    9900012    2    3    3    0    0 -0.33596255623E+02  0.24943569437E+02 -0.11520983053E+02  0.47787273063E+02  0.20000009203E+02 0.  0.
         12    1    3    3    0    0  0.33596255623E+02 -0.24943569437E+02  0.11520983053E+02  0.43400726937E+02  0.00000000000E+00 0. -1.
         11    1    4    4    0    0 -0.20842725051E+02  0.48050527861E+01 -0.95782081111E+01  0.23436078826E+02  0.51100000000E-03 0. -1.
        -11    1    4    4    0    0 -0.69215871372E+01  0.10467762641E+02 -0.33025370304E+01  0.12976485438E+02  0.51100000000E-03 0.  1.
         12    1    4    4    0    0 -0.58319434344E+01  0.96707540100E+01  0.13597620885E+01  0.11374708800E+02  0.00000000000E+00 0. -1.
</event>
<event>
 8    1  0.2994958E-010  0.9118800E+02  0.7816164E-02  0.1184000E+00
        -11   -1    0    0    0    0  0.00000000000E+00  0.00000000000E+00  0.45593999997E+02  0.45594000000E+02  0.51100000000E-03 0. -1.
         11   -1    0    0    0    0 -0.00000000000E+00 -0.00000000000E+00 -0.45593999997E+02  0.45594000000E+02  0.51100000000E-03 0.  1.
         23    2    1    2    0    0  0.00000000000E+00  0.00000000000E+00  0.00000000000E+00  0.91188000000E+02  0.91188000000E+02 0.  0.
    9900012    2    3    3    0    0 -0.18604637358E+02 -0.19402462538E+02 -0.34073968008E+02  0.47787269826E+02  0.19999994446E+02 0.  0.
         12    1    3    3    0    0  0.18604637358E+02  0.19402462538E+02  0.34073968008E+02  0.43400730174E+02  0.00000000000E+00 0. -1.
         11    1    4    4    0    0 -0.11538662874E+02 -0.23922999305E+01 -0.19761294920E+02  0.23008098944E+02  0.51100000000E-03 0. -1.
        -11    1    4    4    0    0 -0.32420264377E+01 -0.58226562584E+01 -0.10349547610E+02  0.12309638391E+02  0.51100000000E-03 0.  1.
        -12    1    4    4    0    0 -0.38239480467E+01 -0.11187506350E+02 -0.39631254785E+01  0.12469532491E+02  0.00000000000E+00 0.  1.
</event>
<event>
 8    1  0.2994958E-010  0.9118800E+02  0.7816164E-02  0.1184000E+00
        -11   -1    0    0    0    0  0.00000000000E+00  0.00000000000E+00  0.45593999997E+02  0.45594000000E+02  0.51100000000E-03 0. -1.
         11   -1    0    0    0    0 -0.00000000000E+00 -0.00000000000E+00 -0.45593999997E+02  0.45594000000E+02  0.51100000000E-03 0.  1.
         23    2    1    2    0    0  0.35527136788E-14  0.00000000000E+00  0.00000000000E+00  0.91188000000E+02  0.91188000000E+02 0.  0.
    9900012    2    3    3    0    0  0.29894136193E+02  0.26373316040E+02  0.17158445890E+02  0.47787269095E+02  0.19999991113E+02 0.  0.
        -12    1    3    3    0    0 -0.29894136193E+02 -0.26373316040E+02 -0.17158445890E+02  0.43400730905E+02  0.00000000000E+00 0.  1.
         11    1    4    4    0    0  0.13948699211E+02  0.92475269578E+01  0.13842043877E+01  0.16792825449E+02  0.51100000000E-03 0. -1.
        -11    1    4    4    0    0  0.36069895813E+01  0.76181486510E+01 -0.52975752558E+00  0.84455435589E+01  0.51100000000E-03 0.  1.
        -12    1    4    4    0    0  0.12338447401E+02  0.95076404317E+01  0.16303999028E+02  0.22548900087E+02  0.00000000000E+00 0.  1.
</event>
<event>
 8    1  0.2994958E-010  0.9118800E+02  0.7816164E-02  0.1184000E+00
        -11   -1    0    0    0    0  0.00000000000E+00  0.00000000000E+00  0.45593999997E+02  0.45594000000E+02  0.51100000000E-03 0. -1.
         11   -1    0    0    0    0 -0.00000000000E+00 -0.00000000000E+00 -0.45593999997E+02  0.45594000000E+02  0.51100000000E-03 0.  1.
         23    2    1    2    0    0  0.00000000000E+00  0.88817841970E-15  0.00000000000E+00  0.91188000000E+02  0.91188000000E+02 0.  0.
    9900012    2    3    3    0    0 -0.28894123035E+01  0.65947479058E+01 -0.42799349885E+02  0.47787265513E+02  0.19999974780E+02 0.  0.
         12    1    3    3    0    0  0.28894123035E+01 -0.65947479058E+01  0.42799349885E+02  0.43400734487E+02  0.00000000000E+00 0. -1.
         11    1    4    4    0    0 -0.38658859175E+01  0.86220194323E+01 -0.14612151376E+02  0.17401128157E+02  0.51100000000E-03 0. -1.
        -11    1    4    4    0    0  0.44494391668E+01  0.12765193297E+01 -0.54561155501E+01  0.71551525250E+01  0.51100000000E-03 0.  1.
        -12    1    4    4    0    0 -0.34729655528E+01 -0.33037908562E+01 -0.22731082959E+02  0.23230984832E+02  0.00000000000E+00 0.  1.
</event>
<event>
 8    1  0.2994958E-010  0.9118800E+02  0.7816164E-02  0.1184000E+00
        -11   -1    0    0    0    0  0.00000000000E+00  0.00000000000E+00  0.45593999997E+02  0.45594000000E+02  0.51100000000E-03 0.  1.
         11   -1    0    0    0    0 -0.00000000000E+00 -0.00000000000E+00 -0.45593999997E+02  0.45594000000E+02  0.51100000000E-03 0. -1.
         23    2    1    2    0    0  0.71054273576E-14  0.17763568394E-14  0.17763568394E-14  0.91188000000E+02  0.91188000000E+02 0.  0.
    9900012    2    3    3    0    0 -0.40836125096E+02 -0.10756840332E+02 -0.10016189201E+02  0.47787276816E+02  0.20000026314E+02 0.  0.
         12    1    3    3    0    0  0.40836125096E+02  0.10756840332E+02  0.10016189201E+02  0.43400723184E+02  0.00000000000E+00 0. -1.
         11    1    4    4    0    0 -0.14730442467E+02 -0.51031356079E+01  0.12303364914E+01  0.15637827741E+02  0.51100000000E-03 0. -1.
        -11    1    4    4    0    0 -0.26151298393E+02 -0.78465812336E+01 -0.84204093207E+01  0.28572058695E+02  0.51100000000E-03 0.  1.
         12    1    4    4    0    0  0.45615764259E-01  0.21928765091E+01 -0.28261163712E+01  0.35773903793E+01  0.00000000000E+00 0. -1.
</event>
<event>
 8    1  0.2994958E-010  0.9118800E+02  0.7816164E-02  0.1184000E+00
        -11   -1    0    0    0    0  0.00000000000E+00  0.00000000000E+00  0.45593999997E+02  0.45594000000E+02  0.51100000000E-03 0. -1.
         11   -1    0    0    0    0 -0.00000000000E+00 -0.00000000000E+00 -0.45593999997E+02  0.45594000000E+02  0.51100000000E-03 0.  1.
         23    2    1    2    0    0  0.35527136788E-14  0.00000000000E+00  0.00000000000E+00  0.91188000000E+02  0.91188000000E+02 0.  0.
    9900012    2    3    3    0    0  0.24038484957E+02  0.30037232032E+02  0.20088287609E+02  0.47787269980E+02  0.19999995145E+02 0.  0.
        -12    1    3    3    0    0 -0.24038484957E+02 -0.30037232032E+02 -0.20088287609E+02  0.43400730020E+02  0.00000000000E+00 0.  1.
         11    1    4    4    0    0  0.11652852982E+02  0.68398557088E+01  0.45802278829E+01  0.14267133435E+02  0.51100000000E-03 0. -1.
        -11    1    4    4    0    0  0.14045325039E+02  0.12873181075E+02  0.80864966564E+01  0.20697376038E+02  0.51100000000E-03 0.  1.
        -12    1    4    4    0    0 -0.16596930633E+01  0.10324195249E+02  0.74215630702E+01  0.12822760507E+02  0.00000000000E+00 0.  1.
</event>
<event>
 8    1  0.2994958E-010  0.9118800E+02  0.7816164E-02  0.1184000E+00
        -11   -1    0    0    0    0  0.00000000000E+00  0.00000000000E+00  0.45593999997E+02  0.45594000000E+02  0.51100000000E-03 0. -1.
         11   -1    0    0    0    0 -0.00000000000E+00 -0.00000000000E+00 -0.45593999997E+02  0.45594000000E+02  0.51100000000E-03 0.  1.
         23    2    1    2    0    0  0.00000000000E+00  0.00000000000E+00 -0.26645352591E-14  0.91188000000E+02  0.91188000000E+02 0.  0.
    9900012    2    3    3    0    0 -0.10396634126E+02 -0.41927362316E+02 -0.41987813979E+01  0.47787268703E+02  0.19999989323E+02 0.  0.
        -12    1    3    3    0    0  0.10396634126E+02  0.41927362316E+02  0.41987813979E+01  0.43400731297E+02  0.00000000000E+00 0.  1.
         11    1    4    4    0    0  0.13429930225E+00 -0.18544130755E+02 -0.66768858737E+01  0.19709988001E+02  0.51100000000E-03 0. -1.
        -11    1    4    4    0    0  0.64564457941E+00 -0.65100630491E+01 -0.28695034600E+01  0.71436565003E+01  0.51100000000E-03 0.  1.
        -12    1    4    4    0    0 -0.11176578007E+02 -0.16873168511E+02  0.53476079358E+01  0.20933624201E+02  0.00000000000E+00 0.  1.
</event>
<event>
 8    1  0.2994958E-010  0.9118800E+02  0.7816164E-02  0.1184000E+00
        -11   -1    0    0    0    0  0.00000000000E+00  0.00000000000E+00  0.45593999997E+02  0.45594000000E+02  0.51100000000E-03 0. -1.
         11   -1    0    0    0    0 -0.00000000000E+00 -0.00000000000E+00 -0.45593999997E+02  0.45594000000E+02  0.51100000000E-03 0.  1.
         23    2    1    2    0    0  0.00000000000E+00  0.00000000000E+00  0.00000000000E+00  0.91188000000E+02  0.91188000000E+02 0.  0.
    9900012    2    3    3    0    0  0.19776797804E+02 -0.57935625469E+01 -0.38196022829E+02  0.47787271224E+02  0.20000000818E+02 0.  0.
         12    1    3    3    0    0 -0.19776797804E+02  0.57935625469E+01  0.38196022829E+02  0.43400728776E+02  0.00000000000E+00 0. -1.
         11    1    4    4    0    0  0.16067274817E+02 -0.19372346010E+01 -0.13134063798E+02  0.20842596528E+02  0.51100000000E-03 0. -1.
        -11    1    4    4    0    0  0.12943737051E+01  0.23902531295E+01 -0.39422877689E+01  0.47885641298E+01  0.51100000000E-03 0.  1.
        -12    1    4    4    0    0  0.24151492818E+01 -0.62465810753E+01 -0.21119671262E+02  0.22156110566E+02  0.00000000000E+00 0.  1.
</event>
<event>
 8    1  0.2994958E-010  0.9118800E+02  0.7816164E-02  0.1184000E+00
        -11   -1    0    0    0    0  0.00000000000E+00  0.00000000000E+00  0.45593999997E+02  0.45594000000E+02  0.51100000000E-03 0. -1.
         11   -1    0    0    0    0 -0.00000000000E+00 -0.00000000000E+00 -0.45593999997E+02  0.45594000000E+02  0.51100000000E-03 0.  1.
         23    2    1    2    0    0  0.00000000000E+00 -0.17763568394E-14  0.71054273576E-14  0.91188000000E+02  0.91188000000E+02 0.  0.
    9900012    2    3    3    0    0  0.16172689942E+02 -0.14613711492E+02 -0.37530079296E+02  0.47787270565E+02  0.19999997816E+02 0.  0.
         12    1    3    3    0    0 -0.16172689942E+02  0.14613711492E+02  0.37530079296E+02  0.43400729435E+02  0.00000000000E+00 0. -1.
         11    1    4    4    0    0  0.16407527867E+02 -0.68716171763E+01 -0.13784049801E+02  0.22503913492E+02  0.51100000000E-03 0. -1.
        -11    1    4    4    0    0  0.16249437933E+01 -0.41898020572E+01 -0.99768326609E+01  0.10942215215E+02  0.51100000000E-03 0.  1.
         12    1    4    4    0    0 -0.18597817178E+01 -0.35522922583E+01 -0.13769196834E+02  0.14341141858E+02  0.00000000000E+00 0. -1.
</event>
<event>
 8    1  0.2994958E-010  0.9118800E+02  0.7816164E-02  0.1184000E+00
        -11   -1    0    0    0    0  0.00000000000E+00  0.00000000000E+00  0.45593999997E+02  0.45594000000E+02  0.51100000000E-03 0. -1.
         11   -1    0    0    0    0 -0.00000000000E+00 -0.00000000000E+00 -0.45593999997E+02  0.45594000000E+02  0.51100000000E-03 0.  1.
         23    2    1    2    0    0  0.00000000000E+00 -0.35527136788E-14  0.35527136788E-14  0.91188000000E+02  0.91188000000E+02 0.  0.
    9900012    2    3    3    0    0  0.30819183231E+02  0.24692131924E+02 -0.18002762074E+02  0.47787275625E+02  0.20000020886E+02 0.  0.
         12    1    3    3    0    0 -0.30819183231E+02 -0.24692131924E+02  0.18002762074E+02  0.43400724375E+02  0.00000000000E+00 0. -1.
         11    1    4    4    0    0  0.64308179186E+01  0.83526071973E+01 -0.55673741155E+01  0.11921288559E+02  0.51100000000E-03 0. -1.
        -11    1    4    4    0    0  0.47774321455E+01 -0.32025435957E+01 -0.36845385010E+01  0.68305173752E+01  0.51100000000E-03 0.  1.
        -12    1    4    4    0    0  0.19610933167E+02  0.19542068322E+02 -0.87508494572E+01  0.29035469691E+02  0.00000000000E+00 0.  1.
</event>
<event>
 8    1  0.2994958E-010  0.9118800E+02  0.7816164E-02  0.1184000E+00
        -11   -1    0    0    0    0  0.00000000000E+00  0.00000000000E+00  0.45593999997E+02  0.45594000000E+02  0.51100000000E-03 0. -1.
         11   -1    0    0    0    0 -0.00000000000E+00 -0.00000000000E+00 -0.45593999997E+02  0.45594000000E+02  0.51100000000E-03 0.  1.
         23    2    1    2    0    0 -0.17763568394E-14  0.00000000000E+00  0.00000000000E+00  0.91188000000E+02  0.91188000000E+02 0.  0.
    9900012    2    3    3    0    0 -0.14303309208E+02  0.39712229171E+02  0.10098396487E+02  0.47787269458E+02  0.19999992765E+02 0.  0.
        -12    1    3    3    0    0  0.14303309208E+02 -0.39712229171E+02 -0.10098396487E+02  0.43400730542E+02  0.00000000000E+00 0.  1.
         11    1    4    4    0    0  0.12339539671E-01  0.12006682567E+02 -0.14303307397E+01  0.12091584876E+02  0.51100000000E-03 0. -1.
        -11    1    4    4    0    0  0.12595090269E+01  0.90115526570E+01  0.54840931658E+01  0.10624016302E+02  0.51100000000E-03 0.  1.
         12    1    4    4    0    0 -0.15575157775E+02  0.18693993947E+02  0.60446340604E+01  0.25071668279E+02  0.00000000000E+00 0. -1.
</event>
<event>
 8    1  0.2994958E-010  0.9118800E+02  0.7816164E-02  0.1184000E+00
        -11   -1    0    0    0    0  0.00000000000E+00  0.00000000000E+00  0.45593999997E+02  0.45594000000E+02  0.51100000000E-03 0. -1.
         11   -1    0    0    0    0 -0.00000000000E+00 -0.00000000000E+00 -0.45593999997E+02  0.45594000000E+02  0.51100000000E-03 0.  1.
         23    2    1    2    0    0  0.15265566589E-15  0.88817841970E-15  0.00000000000E+00  0.91188000000E+02  0.91188000000E+02 0.  0.
    9900012    2    3    3    0    0 -0.75972999314E-01  0.76536115399E+01  0.42720483026E+02  0.47787271763E+02  0.20000003278E+02 0.  0.
        -12    1    3    3    0    0  0.75972999314E-01 -0.76536115399E+01 -0.42720483026E+02  0.43400728237E+02  0.00000000000E+00 0.  1.
         11    1    4    4    0    0 -0.20320369250E+01 -0.56525438164E+01  0.15575968100E+02  0.16694047088E+02  0.51100000000E-03 0. -1.
        -11    1    4    4    0    0  0.34203388973E+00  0.31188231523E+01  0.15519729057E+01  0.35003807219E+01  0.51100000000E-03 0.  1.
         12    1    4    4    0    0  0.16140300360E+01  0.10187332204E+02  0.25592542020E+02  0.27592843954E+02  0.00000000000E+00 0. -1.
</event>
<event>
 8    1  0.2994958E-010  0.9118800E+02  0.7816164E-02  0.1184000E+00
        -11   -1    0    0    0    0  0.00000000000E+00  0.00000000000E+00  0.45593999997E+02  0.45594000000E+02  0.51100000000E-03 0. -1.
         11   -1    0    0    0    0 -0.00000000000E+00 -0.00000000000E+00 -0.45593999997E+02  0.45594000000E+02  0.51100000000E-03 0.  1.
         23    2    1    2    0    0  0.00000000000E+00  0.00000000000E+00  0.00000000000E+00  0.91188000000E+02  0.91188000000E+02 0.  0.
    9900012    2    3    3    0    0  0.42797760045E+01 -0.29457971025E+02  0.31583769275E+02  0.47787273956E+02  0.20000013273E+02 0.  0.
        -12    1    3    3    0    0 -0.42797760045E+01  0.29457971025E+02 -0.31583769275E+02  0.43400726044E+02  0.00000000000E+00 0.  1.
         11    1    4    4    0    0 -0.19588079332E+01 -0.47370107751E+01  0.80061375217E+01  0.95065471061E+01  0.51100000000E-03 0. -1.
        -11    1    4    4    0    0 -0.28747201285E+01 -0.17269188896E+02  0.18469417009E+02  0.25448148574E+02  0.51100000000E-03 0.  1.
         12    1    4    4    0    0  0.91133040663E+01 -0.74517713537E+01  0.51082147447E+01  0.12832578275E+02  0.00000000000E+00 0. -1.
</event>
<event>
 8    1  0.2994958E-010  0.9118800E+02  0.7816164E-02  0.1184000E+00
        -11   -1    0    0    0    0  0.00000000000E+00  0.00000000000E+00  0.45593999997E+02  0.45594000000E+02  0.51100000000E-03 0. -1.
         11   -1    0    0    0    0 -0.00000000000E+00 -0.00000000000E+00 -0.45593999997E+02  0.45594000000E+02  0.51100000000E-03 0.  1.
         23    2    1    2    0    0  0.00000000000E+00 -0.17763568394E-14  0.35527136788E-14  0.91188000000E+02  0.91188000000E+02 0.  0.
    9900012    2    3    3    0    0  0.30463413040E+02 -0.75094785209E+01 -0.29986853734E+02  0.47787271912E+02  0.20000003956E+02 0.  0.
         12    1    3    3    0    0 -0.30463413040E+02  0.75094785209E+01  0.29986853734E+02  0.43400728088E+02  0.00000000000E+00 0. -1.
         11    1    4    4    0    0  0.18410998361E+02 -0.90957209085E+01 -0.15374520761E+02  0.25652931380E+02  0.51100000000E-03 0. -1.
        -11    1    4    4    0    0  0.43574553137E+01 -0.46645223002E+01 -0.36460516616E+01  0.73511140707E+01  0.51100000000E-03 0.  1.
        -12    1    4    4    0    0  0.76949593654E+01  0.62507646878E+01 -0.10966281312E+02  0.14783226462E+02  0.00000000000E+00 0.  1.
</event>
<event>
 8    1  0.2994958E-010  0.9118800E+02  0.7816164E-02  0.1184000E+00
        -11   -1    0    0    0    0  0.00000000000E+00  0.00000000000E+00  0.45593999997E+02  0.45594000000E+02  0.51100000000E-03 0. -1.
         11   -1    0    0    0    0 -0.00000000000E+00 -0.00000000000E+00 -0.45593999997E+02  0.45594000000E+02  0.51100000000E-03 0.  1.
         23    2    1    2    0    0  0.00000000000E+00  0.00000000000E+00  0.00000000000E+00  0.91188000000E+02  0.91188000000E+02 0.  0.
    9900012    2    3    3    0    0 -0.16222203308E+02  0.55973582621E+01  0.39863929497E+02  0.47787272188E+02  0.20000005214E+02 0.  0.
        -12    1    3    3    0    0  0.16222203308E+02 -0.55973582621E+01 -0.39863929497E+02  0.43400727812E+02  0.00000000000E+00 0.  1.
         11    1    4    4    0    0 -0.10542783282E+02  0.10909848249E+02  0.27257876914E+02  0.31195623447E+02  0.51100000000E-03 0.  1.
        -11    1    4    4    0    0 -0.38171290941E+01  0.52775556448E+00  0.19999869769E+01  0.43415375878E+01  0.51100000000E-03 0. -1.
        -12    1    4    4    0    0 -0.18622909326E+01 -0.58402455518E+01  0.10606065606E+02  0.12250111153E+02  0.00000000000E+00 0.  1.
</event>
<event>
 8    1  0.2994958E-010  0.9118800E+02  0.7816164E-02  0.1184000E+00
        -11   -1    0    0    0    0  0.00000000000E+00  0.00000000000E+00  0.45593999997E+02  0.45594000000E+02  0.51100000000E-03 0. -1.
         11   -1    0    0    0    0 -0.00000000000E+00 -0.00000000000E+00 -0.45593999997E+02  0.45594000000E+02  0.51100000000E-03 0.  1.
         23    2    1    2    0    0  0.00000000000E+00 -0.88817841970E-15  0.00000000000E+00  0.91188000000E+02  0.91188000000E+02 0.  0.
    9900012    2    3    3    0    0  0.21380152366E+02 -0.55366025574E+01  0.37361184980E+02  0.47787273898E+02  0.20000013011E+02 0.  0.
        -12    1    3    3    0    0 -0.21380152366E+02  0.55366025574E+01 -0.37361184980E+02  0.43400726102E+02  0.00000000000E+00 0.  1.
         11    1    4    4    0    0  0.14754822456E+02 -0.12093641234E+01  0.12227080836E+02  0.19200751373E+02  0.51100000000E-03 0. -1.
        -11    1    4    4    0    0  0.88995146628E+01 -0.77793012175E+00  0.13279449824E+02  0.16004696948E+02  0.51100000000E-03 0.  1.
        -12    1    4    4    0    0 -0.22741847528E+01 -0.35493083122E+01  0.11854654321E+02  0.12581825577E+02  0.00000000000E+00 0.  1.
</event>
<event>
 8    1  0.2994958E-010  0.9118800E+02  0.7816164E-02  0.1184000E+00
        -11   -1    0    0    0    0  0.00000000000E+00  0.00000000000E+00  0.45593999997E+02  0.45594000000E+02  0.51100000000E-03 0. -1.
         11   -1    0    0    0    0 -0.00000000000E+00 -0.00000000000E+00 -0.45593999997E+02  0.45594000000E+02  0.51100000000E-03 0.  1.
         23    2    1    2    0    0  0.00000000000E+00  0.00000000000E+00  0.00000000000E+00  0.91188000000E+02  0.91188000000E+02 0.  0.
    9900012    2    3    3    0    0  0.22365140768E+02  0.22707011450E+02 -0.29458706613E+02  0.47787270906E+02  0.19999999371E+02 0.  0.
         12    1    3    3    0    0 -0.22365140768E+02 -0.22707011450E+02  0.29458706613E+02  0.43400729094E+02  0.00000000000E+00 0. -1.
         11    1    4    4    0    0  0.64673868931E+00  0.39406441725E+01  0.92263453580E+00  0.40985609882E+01  0.51100000000E-03 0. -1.
        -11    1    4    4    0    0  0.66454138033E+00  0.63716646887E+01 -0.99808312948E+01  0.11859878572E+02  0.51100000000E-03 0.  1.
        -12    1    4    4    0    0  0.21053860698E+02  0.12394702589E+02 -0.20400509854E+02  0.31828831346E+02  0.00000000000E+00 0.  1.
</event>
<event>
 8    1  0.2994958E-010  0.9118800E+02  0.7816164E-02  0.1184000E+00
        -11   -1    0    0    0    0  0.00000000000E+00  0.00000000000E+00  0.45593999997E+02  0.45594000000E+02  0.51100000000E-03 0. -1.
         11   -1    0    0    0    0 -0.00000000000E+00 -0.00000000000E+00 -0.45593999997E+02  0.45594000000E+02  0.51100000000E-03 0.  1.
         23    2    1    2    0    0  0.17763568394E-14  0.35527136788E-14 -0.71054273576E-14  0.91188000000E+02  0.91188000000E+02 0.  0.
    9900012    2    3    3    0    0 -0.13497401188E+02 -0.18786282781E+02  0.36722188056E+02  0.47787270108E+02  0.19999995729E+02 0.  0.
        -12    1    3    3    0    0  0.13497401188E+02  0.18786282781E+02 -0.36722188056E+02  0.43400729892E+02  0.00000000000E+00 0.  1.
         11    1    4    4    0    0  0.41772793336E+01 -0.23778136038E+01  0.93608144535E+01  0.10522761408E+02  0.51100000000E-03 0.  1.
        -11    1    4    4    0    0 -0.52845437168E+01 -0.29622303031E+01  0.11759987287E+02  0.13228700311E+02  0.51100000000E-03 0. -1.
        -12    1    4    4    0    0 -0.12390136805E+02 -0.13446238874E+02  0.15601386315E+02  0.24035808388E+02  0.00000000000E+00 0.  1.
</event>
<event>
 8    1  0.2994958E-010  0.9118800E+02  0.7816164E-02  0.1184000E+00
        -11   -1    0    0    0    0  0.00000000000E+00  0.00000000000E+00  0.45593999997E+02  0.45594000000E+02  0.51100000000E-03 0. -1.
         11   -1    0    0    0    0 -0.00000000000E+00 -0.00000000000E+00 -0.45593999997E+02  0.45594000000E+02  0.51100000000E-03 0.  1.
         23    2    1    2    0    0 -0.17763568394E-14  0.35527136788E-14 -0.35527136788E-14  0.91188000000E+02  0.91188000000E+02 0.  0.
    9900012    2    3    3    0    0  0.14478681708E+02 -0.31444417763E+02  0.26177113148E+02  0.47787252481E+02  0.19999915363E+02 0.  0.
        -12    1    3    3    0    0 -0.14478681708E+02  0.31444417763E+02 -0.26177113148E+02  0.43400747519E+02  0.00000000000E+00 0.  1.
         11    1    4    4    0    0  0.19687326710E+01 -0.73417142703E+01  0.18795618342E+01  0.78300338254E+01  0.51100000000E-03 0. -1.
        -11    1    4    4    0    0 -0.19365873159E+01 -0.17382328888E+00  0.65848730998E+01  0.68659405015E+01  0.51100000000E-03 0.  1.
         12    1    4    4    0    0  0.14446536353E+02 -0.23928880203E+02  0.17712678214E+02  0.33091278154E+02  0.00000000000E+00 0. -1.
</event>
<event>
 8    1  0.2994958E-010  0.9118800E+02  0.7816164E-02  0.1184000E+00
        -11   -1    0    0    0    0  0.00000000000E+00  0.00000000000E+00  0.45593999997E+02  0.45594000000E+02  0.51100000000E-03 0. -1.
         11   -1    0    0    0    0 -0.00000000000E+00 -0.00000000000E+00 -0.45593999997E+02  0.45594000000E+02  0.51100000000E-03 0.  1.
         23    2    1    2    0    0  0.00000000000E+00  0.00000000000E+00  0.71054273576E-14  0.91188000000E+02  0.91188000000E+02 0.  0.
    9900012    2    3    3    0    0 -0.70984571527E+01  0.22182330571E+02  0.36622115794E+02  0.47787271334E+02  0.20000001321E+02 0.  0.
        -12    1    3    3    0    0  0.70984571527E+01 -0.22182330571E+02 -0.36622115794E+02  0.43400728666E+02  0.00000000000E+00 0.  1.
         11    1    4    4    0    0 -0.14572584918E+01 -0.14198560187E-01  0.69629381310E+01  0.71138113265E+01  0.51100000000E-03 0.  1.
        -11    1    4    4    0    0  0.29146321587E+00  0.57831120280E+01  0.19798237998E+02  0.20627640767E+02  0.51100000000E-03 0. -1.
         12    1    4    4    0    0 -0.59326618768E+01  0.16413417103E+02  0.98609396650E+01  0.20045819240E+02  0.00000000000E+00 0. -1.
</event>
<event>
 8    1  0.2994958E-010  0.9118800E+02  0.7816164E-02  0.1184000E+00
        -11   -1    0    0    0    0  0.00000000000E+00  0.00000000000E+00  0.45593999997E+02  0.45594000000E+02  0.51100000000E-03 0. -1.
         11   -1    0    0    0    0 -0.00000000000E+00 -0.00000000000E+00 -0.45593999997E+02  0.45594000000E+02  0.51100000000E-03 0.  1.
         23    2    1    2    0    0  0.00000000000E+00  0.00000000000E+00  0.00000000000E+00  0.91188000000E+02  0.91188000000E+02 0.  0.
    9900012    2    3    3    0    0 -0.21633354958E+02  0.11284765332E+02  0.35892550547E+02  0.47787272355E+02  0.20000005977E+02 0.  0.
        -12    1    3    3    0    0  0.21633354958E+02 -0.11284765332E+02 -0.35892550547E+02  0.43400727645E+02  0.00000000000E+00 0.  1.
         11    1    4    4    0    0 -0.11827043032E+02 -0.20896861728E+01  0.10118067742E+02  0.15704172384E+02  0.51100000000E-03 0. -1.
        -11    1    4    4    0    0 -0.81095770459E+01  0.30849238720E+01  0.11695115586E+02  0.14562201894E+02  0.51100000000E-03 0.  1.
        -12    1    4    4    0    0 -0.16967348798E+01  0.10289527632E+02  0.14079367219E+02  0.17520898077E+02  0.00000000000E+00 0.  1.
</event>
<event>
 8    1  0.2994958E-010  0.9118800E+02  0.7816164E-02  0.1184000E+00
        -11   -1    0    0    0    0  0.00000000000E+00  0.00000000000E+00  0.45593999997E+02  0.45594000000E+02  0.51100000000E-03 0. -1.
         11   -1    0    0    0    0 -0.00000000000E+00 -0.00000000000E+00 -0.45593999997E+02  0.45594000000E+02  0.51100000000E-03 0.  1.
         23    2    1    2    0    0 -0.44408920985E-15  0.35527136788E-14 -0.35527136788E-14  0.91188000000E+02  0.91188000000E+02 0.  0.
    9900012    2    3    3    0    0  0.14309407025E+01 -0.29381472701E+02 -0.31910885616E+02  0.47787272469E+02  0.20000006496E+02 0.  0.
         12    1    3    3    0    0 -0.14309407025E+01  0.29381472701E+02  0.31910885616E+02  0.43400727531E+02  0.00000000000E+00 0. -1.
         11    1    4    4    0    0 -0.49183850886E+01 -0.75096342790E+01 -0.10008378381E+02  0.13444432192E+02  0.51100000000E-03 0.  1.
        -11    1    4    4    0    0  0.21897845936E+01 -0.16638172786E+02 -0.21983835799E+02  0.27657060345E+02  0.51100000000E-03 0. -1.
        -12    1    4    4    0    0  0.41595411975E+01 -0.52336656364E+01  0.81328563970E-01  0.66857799323E+01  0.00000000000E+00 0.  1.
</event>
<event>
 8    1  0.2994958E-010  0.9118800E+02  0.7816164E-02  0.1184000E+00
        -11   -1    0    0    0    0  0.00000000000E+00  0.00000000000E+00  0.45593999997E+02  0.45594000000E+02  0.51100000000E-03 0. -1.
         11   -1    0    0    0    0 -0.00000000000E+00 -0.00000000000E+00 -0.45593999997E+02  0.45594000000E+02  0.51100000000E-03 0.  1.
         23    2    1    2    0    0  0.35527136788E-14  0.00000000000E+00  0.00000000000E+00  0.91188000000E+02  0.91188000000E+02 0.  0.
    9900012    2    3    3    0    0 -0.18835392242E+02 -0.34032448671E+02 -0.19252111033E+02  0.47787270252E+02  0.19999996385E+02 0.  0.
         12    1    3    3    0    0  0.18835392242E+02  0.34032448671E+02  0.19252111033E+02  0.43400729748E+02  0.00000000000E+00 0. -1.
         11    1    4    4    0    0 -0.42372449909E+01  0.29945896828E+00 -0.37721113595E+01  0.56809105921E+01  0.51100000000E-03 0. -1.
        -11    1    4    4    0    0 -0.51300796365E+01 -0.34917088761E+01 -0.56203948560E+01  0.83724898657E+01  0.51100000000E-03 0.  1.
        -12    1    4    4    0    0 -0.94680676147E+01 -0.30840198763E+02 -0.98596048176E+01  0.33733869794E+02  0.00000000000E+00 0.  1.
</event>
<event>
 8    1  0.2994958E-010  0.9118800E+02  0.7816164E-02  0.1184000E+00
        -11   -1    0    0    0    0  0.00000000000E+00  0.00000000000E+00  0.45593999997E+02  0.45594000000E+02  0.51100000000E-03 0. -1.
         11   -1    0    0    0    0 -0.00000000000E+00 -0.00000000000E+00 -0.45593999997E+02  0.45594000000E+02  0.51100000000E-03 0.  1.
         23    2    1    2    0    0  0.00000000000E+00  0.00000000000E+00 -0.17763568394E-14  0.91188000000E+02  0.91188000000E+02 0.  0.
    9900012    2    3    3    0    0  0.19308867068E+02 -0.36488906253E+02  0.13392231159E+02  0.47787257121E+02  0.19999936519E+02 0.  0.
        -12    1    3    3    0    0 -0.19308867068E+02  0.36488906253E+02 -0.13392231159E+02  0.43400742879E+02  0.00000000000E+00 0.  1.
         11    1    4    4    0    0  0.10850095470E+02 -0.24433830676E+02  0.76142277307E+01  0.27797717845E+02  0.51100000000E-03 0. -1.
        -11    1    4    4    0    0  0.41616867229E+00 -0.93204693801E+01  0.66396310178E+01  0.11451159162E+02  0.51100000000E-03 0.  1.
         12    1    4    4    0    0  0.80426029259E+01 -0.27346061972E+01 -0.86162758940E+00  0.85383801146E+01  0.00000000000E+00 0. -1.
</event>
<event>
 8    1  0.2994958E-010  0.9118800E+02  0.7816164E-02  0.1184000E+00
        -11   -1    0    0    0    0  0.00000000000E+00  0.00000000000E+00  0.45593999997E+02  0.45594000000E+02  0.51100000000E-03 0. -1.
         11   -1    0    0    0    0 -0.00000000000E+00 -0.00000000000E+00 -0.45593999997E+02  0.45594000000E+02  0.51100000000E-03 0.  1.
         23    2    1    2    0    0  0.00000000000E+00  0.00000000000E+00  0.17763568394E-14  0.91188000000E+02  0.91188000000E+02 0.  0.
    9900012    2    3    3    0    0  0.19650846772E+02  0.38494687484E+02 -0.39531515746E+01  0.47787260943E+02  0.19999953945E+02 0.  0.
         12    1    3    3    0    0 -0.19650846772E+02 -0.38494687484E+02  0.39531515746E+01  0.43400739057E+02  0.00000000000E+00 0. -1.
         11    1    4    4    0    0  0.41902820733E+01  0.27041080564E+01 -0.41246794523E+01  0.64717574954E+01  0.51100000000E-03 0. -1.
        -11    1    4    4    0    0  0.67859525149E+01  0.10954998311E+02 -0.61212132135E+01  0.14266407782E+02  0.51100000000E-03 0.  1.
         12    1    4    4    0    0  0.86746121833E+01  0.24835581116E+02  0.62927410911E+01  0.27049095666E+02  0.00000000000E+00 0. -1.
</event>
<event>
 8    1  0.2994958E-010  0.9118800E+02  0.7816164E-02  0.1184000E+00
        -11   -1    0    0    0    0  0.00000000000E+00  0.00000000000E+00  0.45593999997E+02  0.45594000000E+02  0.51100000000E-03 0.  1.
         11   -1    0    0    0    0 -0.00000000000E+00 -0.00000000000E+00 -0.45593999997E+02  0.45594000000E+02  0.51100000000E-03 0. -1.
         23    2    1    2    0    0  0.00000000000E+00 -0.66613381478E-15  0.00000000000E+00  0.91188000000E+02  0.91188000000E+02 0.  0.
    9900012    2    3    3    0    0  0.23698113643E+02  0.11189197647E+01  0.36342405895E+02  0.47787273763E+02  0.20000012395E+02 0.  0.
        -12    1    3    3    0    0 -0.23698113643E+02 -0.11189197647E+01 -0.36342405895E+02  0.43400726237E+02  0.00000000000E+00 0.  1.
         11    1    4    4    0    0  0.12852984061E+02 -0.19575629729E+01  0.14734582860E+02  0.19650424534E+02  0.51100000000E-03 0. -1.
        -11    1    4    4    0    0  0.42798638913E+01 -0.51872522524E+01  0.12508428741E+02  0.14201605919E+02  0.51100000000E-03 0.  1.
         12    1    4    4    0    0  0.65652656906E+01  0.82637349900E+01  0.90993942938E+01  0.13935243309E+02  0.00000000000E+00 0. -1.
</event>
<event>
 8    1  0.2994958E-010  0.9118800E+02  0.7816164E-02  0.1184000E+00
        -11   -1    0    0    0    0  0.00000000000E+00  0.00000000000E+00  0.45593999997E+02  0.45594000000E+02  0.51100000000E-03 0. -1.
         11   -1    0    0    0    0 -0.00000000000E+00 -0.00000000000E+00 -0.45593999997E+02  0.45594000000E+02  0.51100000000E-03 0.  1.
         23    2    1    2    0    0  0.00000000000E+00  0.00000000000E+00  0.00000000000E+00  0.91188000000E+02  0.91188000000E+02 0.  0.
    9900012    2    3    3    0    0 -0.95085970783E+01 -0.18071812276E+02  0.38296468074E+02  0.47787270925E+02  0.19999999456E+02 0.  0.
        -12    1    3    3    0    0  0.95085970783E+01  0.18071812276E+02 -0.38296468074E+02  0.43400729075E+02  0.00000000000E+00 0.  1.
         11    1    4    4    0    0 -0.76783864992E+01 -0.79024473548E+01  0.21226332288E+02  0.23915757904E+02  0.51100000000E-03 0. -1.
        -11    1    4    4    0    0 -0.34107709710E+01 -0.99379562419E+01  0.18787580836E+02  0.21526019762E+02  0.51100000000E-03 0.  1.
        -12    1    4    4    0    0  0.15805603919E+01 -0.23140867891E+00 -0.17174450503E+01  0.23454932594E+01  0.00000000000E+00 0.  1.
</event>
<event>
 8    1  0.2994958E-010  0.9118800E+02  0.7816164E-02  0.1184000E+00
        -11   -1    0    0    0    0  0.00000000000E+00  0.00000000000E+00  0.45593999997E+02  0.45594000000E+02  0.51100000000E-03 0. -1.
         11   -1    0    0    0    0 -0.00000000000E+00 -0.00000000000E+00 -0.45593999997E+02  0.45594000000E+02  0.51100000000E-03 0.  1.
         23    2    1    2    0    0  0.00000000000E+00  0.00000000000E+00  0.00000000000E+00  0.91188000000E+02  0.91188000000E+02 0.  0.
    9900012    2    3    3    0    0 -0.53355272526E+01 -0.11230707840E+02  0.41581563893E+02  0.47787272984E+02  0.20000008845E+02 0.  0.
        -12    1    3    3    0    0  0.53355272526E+01  0.11230707840E+02 -0.41581563893E+02  0.43400727016E+02  0.00000000000E+00 0.  1.
         11    1    4    4    0    0 -0.36972702160E+01 -0.39338831290E+01  0.22058460330E+02  0.22709489557E+02  0.51100000000E-03 0. -1.
        -11    1    4    4    0    0  0.11198441158E+01  0.33917986061E+01  0.95685647852E+01  0.10213509727E+02  0.51100000000E-03 0.  1.
        -12    1    4    4    0    0 -0.27581011524E+01 -0.10688623317E+02  0.99545387782E+01  0.14864273701E+02  0.00000000000E+00 0.  1.
</event>
<event>
 8    1  0.2994958E-010  0.9118800E+02  0.7816164E-02  0.1184000E+00
        -11   -1    0    0    0    0  0.00000000000E+00  0.00000000000E+00  0.45593999997E+02  0.45594000000E+02  0.51100000000E-03 0. -1.
         11   -1    0    0    0    0 -0.00000000000E+00 -0.00000000000E+00 -0.45593999997E+02  0.45594000000E+02  0.51100000000E-03 0.  1.
         23    2    1    2    0    0  0.00000000000E+00  0.00000000000E+00  0.00000000000E+00  0.91188000000E+02  0.91188000000E+02 0.  0.
    9900012    2    3    3    0    0  0.16891870942E+02 -0.17370600042E+02  0.36007598509E+02  0.47787306456E+02  0.20000161455E+02 0.  0.
        -12    1    3    3    0    0 -0.16891870942E+02  0.17370600042E+02 -0.36007598509E+02  0.43400693544E+02  0.00000000000E+00 0.  1.
         11    1    4    4    0    0  0.55346993078E+01  0.42296850809E+00  0.16674102216E+02  0.17573772611E+02  0.51100000000E-03 0. -1.
        -11    1    4    4    0    0 -0.94368500166E+00 -0.19597485338E+01  0.53309214689E+01  0.57575932183E+01  0.51100000000E-03 0.  1.
        -12    1    4    4    0    0  0.12300856636E+02 -0.15833820016E+02  0.14002574823E+02  0.24455940627E+02  0.00000000000E+00 0.  1.
</event>
<event>
 8    1  0.2994958E-010  0.9118800E+02  0.7816164E-02  0.1184000E+00
        -11   -1    0    0    0    0  0.00000000000E+00  0.00000000000E+00  0.45593999997E+02  0.45594000000E+02  0.51100000000E-03 0. -1.
         11   -1    0    0    0    0 -0.00000000000E+00 -0.00000000000E+00 -0.45593999997E+02  0.45594000000E+02  0.51100000000E-03 0.  1.
         23    2    1    2    0    0  0.00000000000E+00 -0.88817841970E-15  0.35527136788E-14  0.91188000000E+02  0.91188000000E+02 0.  0.
    9900012    2    3    3    0    0 -0.38880381908E+02 -0.50190686191E+01  0.18621172891E+02  0.47787271585E+02  0.20000002466E+02 0.  0.
        -12    1    3    3    0    0  0.38880381908E+02  0.50190686191E+01 -0.18621172891E+02  0.43400728415E+02  0.00000000000E+00 0.  1.
         11    1    4    4    0    0 -0.14149231347E+02  0.10829758163E+01  0.66820340857E+01  0.15685125569E+02  0.51100000000E-03 0. -1.
        -11    1    4    4    0    0 -0.19185663722E+02  0.25965671093E+01  0.91616022522E+01  0.21418842389E+02  0.51100000000E-03 0.  1.
         12    1    4    4    0    0 -0.55454868386E+01 -0.86986115447E+01  0.27775365528E+01  0.10683303627E+02  0.00000000000E+00 0. -1.
</event>
<event>
 8    1  0.2994958E-010  0.9118800E+02  0.7816164E-02  0.1184000E+00
        -11   -1    0    0    0    0  0.00000000000E+00  0.00000000000E+00  0.45593999997E+02  0.45594000000E+02  0.51100000000E-03 0. -1.
         11   -1    0    0    0    0 -0.00000000000E+00 -0.00000000000E+00 -0.45593999997E+02  0.45594000000E+02  0.51100000000E-03 0.  1.
         23    2    1    2    0    0 -0.17763568394E-14  0.00000000000E+00  0.00000000000E+00  0.91188000000E+02  0.91188000000E+02 0.  0.
    9900012    2    3    3    0    0  0.15983969312E+02  0.24075246958E+02 -0.32380839484E+02  0.47787267786E+02  0.19999985142E+02 0.  0.
         12    1    3    3    0    0 -0.15983969312E+02 -0.24075246958E+02  0.32380839484E+02  0.43400732214E+02  0.00000000000E+00 0. -1.
         11    1    4    4    0    0  0.89993080984E+00  0.12632123905E+02 -0.14356315757E+02  0.19143777898E+02  0.51100000000E-03 0. -1.
        -11    1    4    4    0    0  0.27941202881E+01  0.54682233717E+01 -0.12455448527E+02  0.13886928144E+02  0.51100000000E-03 0.  1.
        -12    1    4    4    0    0  0.12289918214E+02  0.59748996811E+01 -0.55690752006E+01  0.14756561744E+02  0.00000000000E+00 0.  1.
</event>
<event>
 8    1  0.2994958E-010  0.9118800E+02  0.7816164E-02  0.1184000E+00
        -11   -1    0    0    0    0  0.00000000000E+00  0.00000000000E+00  0.45593999997E+02  0.45594000000E+02  0.51100000000E-03 0. -1.
         11   -1    0    0    0    0 -0.00000000000E+00 -0.00000000000E+00 -0.45593999997E+02  0.45594000000E+02  0.51100000000E-03 0.  1.
         23    2    1    2    0    0  0.00000000000E+00 -0.17763568394E-14  0.00000000000E+00  0.91188000000E+02  0.91188000000E+02 0.  0.
    9900012    2    3    3    0    0 -0.24104485232E+02  0.69207260156E+01 -0.35421781186E+02  0.47787248402E+02  0.19999896763E+02 0.  0.
         12    1    3    3    0    0  0.24104485232E+02 -0.69207260156E+01  0.35421781186E+02  0.43400751598E+02  0.00000000000E+00 0. -1.
         11    1    4    4    0    0 -0.20632075655E+01  0.55750989668E+01 -0.83652392211E+01  0.10262347755E+02  0.51100000000E-03 0. -1.
        -11    1    4    4    0    0 -0.14321009179E+02  0.37449838091E+01 -0.80037526478E+01  0.16827841939E+02  0.51100000000E-03 0.  1.
        -12    1    4    4    0    0 -0.77202684880E+01 -0.23993567603E+01 -0.19052789317E+02  0.20697058708E+02  0.00000000000E+00 0.  1.
</event>
<event>
 8    1  0.2994958E-010  0.9118800E+02  0.7816164E-02  0.1184000E+00
        -11   -1    0    0    0    0  0.00000000000E+00  0.00000000000E+00  0.45593999997E+02  0.45594000000E+02  0.51100000000E-03 0. -1.
         11   -1    0    0    0    0 -0.00000000000E+00 -0.00000000000E+00 -0.45593999997E+02  0.45594000000E+02  0.51100000000E-03 0.  1.
         23    2    1    2    0    0  0.88817841970E-15  0.00000000000E+00  0.00000000000E+00  0.91188000000E+02  0.91188000000E+02 0.  0.
    9900012    2    3    3    0    0  0.55874324041E+01 -0.32901152405E+02 -0.27747392091E+02  0.47787274219E+02  0.20000014475E+02 0.  0.
         12    1    3    3    0    0 -0.55874324041E+01  0.32901152405E+02  0.27747392091E+02  0.43400725781E+02  0.00000000000E+00 0. -1.
         11    1    4    4    0    0  0.26483175066E+01 -0.19093721698E+01  0.20151988660E+00  0.32710698899E+01  0.51100000000E-03 0. -1.
        -11    1    4    4    0    0 -0.47729799656E+01 -0.14931184390E+02 -0.74464644167E+01  0.17354291619E+02  0.51100000000E-03 0.  1.
        -12    1    4    4    0    0  0.77120948631E+01 -0.16060595845E+02 -0.20502447561E+02  0.27161912710E+02  0.00000000000E+00 0.  1.
</event>
<event>
 8    1  0.2994958E-010  0.9118800E+02  0.7816164E-02  0.1184000E+00
        -11   -1    0    0    0    0  0.00000000000E+00  0.00000000000E+00  0.45593999997E+02  0.45594000000E+02  0.51100000000E-03 0. -1.
         11   -1    0    0    0    0 -0.00000000000E+00 -0.00000000000E+00 -0.45593999997E+02  0.45594000000E+02  0.51100000000E-03 0.  1.
         23    2    1    2    0    0  0.00000000000E+00  0.17763568394E-14  0.00000000000E+00  0.91188000000E+02  0.91188000000E+02 0.  0.
    9900012    2    3    3    0    0  0.54744192250E+01 -0.74386012866E+01 -0.42406626681E+02  0.47787262202E+02  0.19999959684E+02 0.  0.
         12    1    3    3    0    0 -0.54744192250E+01  0.74386012866E+01  0.42406626681E+02  0.43400737798E+02  0.00000000000E+00 0. -1.
         11    1    4    4    0    0 -0.26628582470E+01 -0.53926106555E+01 -0.77342915468E+01  0.97974654742E+01  0.51100000000E-03 0.  1.
        -11    1    4    4    0    0  0.24660602637E+01 -0.67047326185E+01 -0.10289587260E+02  0.12526392097E+02  0.51100000000E-03 0. -1.
        -12    1    4    4    0    0  0.56712172084E+01  0.46587419874E+01 -0.24382747874E+02  0.25463404631E+02  0.00000000000E+00 0.  1.
</event>
<event>
 8    1  0.2994958E-010  0.9118800E+02  0.7816164E-02  0.1184000E+00
        -11   -1    0    0    0    0  0.00000000000E+00  0.00000000000E+00  0.45593999997E+02  0.45594000000E+02  0.51100000000E-03 0.  1.
         11   -1    0    0    0    0 -0.00000000000E+00 -0.00000000000E+00 -0.45593999997E+02  0.45594000000E+02  0.51100000000E-03 0. -1.
         23    2    1    2    0    0  0.00000000000E+00 -0.71054273576E-14  0.17763568394E-14  0.91188000000E+02  0.91188000000E+02 0.  0.
    9900012    2    3    3    0    0 -0.66404573443E+01 -0.40871576850E+02 -0.13001615354E+02  0.47787268787E+02  0.19999989708E+02 0.  0.
         12    1    3    3    0    0  0.66404573443E+01  0.40871576850E+02  0.13001615354E+02  0.43400731213E+02  0.00000000000E+00 0. -1.
         11    1    4    4    0    0 -0.10499081403E+02 -0.29031312934E+02 -0.66263484677E+01  0.31574615362E+02  0.51100000000E-03 0. -1.
        -11    1    4    4    0    0 -0.81218727743E+00 -0.59237936079E+01 -0.62840637911E+01  0.86741245595E+01  0.51100000000E-03 0.  1.
         12    1    4    4    0    0  0.46708113364E+01 -0.59164703082E+01 -0.91203095718E-01  0.75385288653E+01  0.00000000000E+00 0. -1.
</event>
<event>
 8    1  0.2994958E-010  0.9118800E+02  0.7816164E-02  0.1184000E+00
        -11   -1    0    0    0    0  0.00000000000E+00  0.00000000000E+00  0.45593999997E+02  0.45594000000E+02  0.51100000000E-03 0. -1.
         11   -1    0    0    0    0 -0.00000000000E+00 -0.00000000000E+00 -0.45593999997E+02  0.45594000000E+02  0.51100000000E-03 0.  1.
         23    2    1    2    0    0  0.00000000000E+00  0.17763568394E-14  0.00000000000E+00  0.91188000000E+02  0.91188000000E+02 0.  0.
    9900012    2    3    3    0    0  0.12625923759E+02 -0.12268416765E+02 -0.39669828448E+02  0.47787270862E+02  0.19999999166E+02 0.  0.
         12    1    3    3    0    0 -0.12625923759E+02  0.12268416765E+02  0.39669828448E+02  0.43400729138E+02  0.00000000000E+00 0. -1.
         11    1    4    4    0    0 -0.39182411311E+01 -0.41032391532E+01 -0.28883870938E+01  0.63664719723E+01  0.51100000000E-03 0. -1.
        -11    1    4    4    0    0  0.23662085344E+01 -0.45937745196E+00 -0.87555760274E+01  0.90813039980E+01  0.51100000000E-03 0.  1.
         12    1    4    4    0    0  0.14177956355E+02 -0.77058001601E+01 -0.28025865326E+02  0.32339494891E+02  0.00000000000E+00 0. -1.
</event>
<event>
 8    1  0.2994958E-010  0.9118800E+02  0.7816164E-02  0.1184000E+00
        -11   -1    0    0    0    0  0.00000000000E+00  0.00000000000E+00  0.45593999997E+02  0.45594000000E+02  0.51100000000E-03 0. -1.
         11   -1    0    0    0    0 -0.00000000000E+00 -0.00000000000E+00 -0.45593999997E+02  0.45594000000E+02  0.51100000000E-03 0.  1.
         23    2    1    2    0    0  0.00000000000E+00  0.00000000000E+00  0.00000000000E+00  0.91188000000E+02  0.91188000000E+02 0.  0.
    9900012    2    3    3    0    0  0.66016107898E+01 -0.39222320377E+02 -0.17368122839E+02  0.47787269917E+02  0.19999994862E+02 0.  0.
         12    1    3    3    0    0 -0.66016107898E+01  0.39222320377E+02  0.17368122839E+02  0.43400730083E+02  0.00000000000E+00 0. -1.
         11    1    4    4    0    0 -0.32347716491E+01 -0.22104588205E+01 -0.14033326863E+01  0.41616365421E+01  0.51100000000E-03 0. -1.
        -11    1    4    4    0    0 -0.15182009332E+01 -0.11048499656E+02 -0.92844428224E+01  0.14511207996E+02  0.51100000000E-03 0.  1.
         12    1    4    4    0    0  0.11354583372E+02 -0.25963361900E+02 -0.66803473302E+01  0.29114425379E+02  0.00000000000E+00 0. -1.
</event>
<event>
 8    1  0.2994958E-010  0.9118800E+02  0.7816164E-02  0.1184000E+00
        -11   -1    0    0    0    0  0.00000000000E+00  0.00000000000E+00  0.45593999997E+02  0.45594000000E+02  0.51100000000E-03 0.  1.
         11   -1    0    0    0    0 -0.00000000000E+00 -0.00000000000E+00 -0.45593999997E+02  0.45594000000E+02  0.51100000000E-03 0. -1.
         23    2    1    2    0    0 -0.35527136788E-14  0.00000000000E+00 -0.88817841970E-15  0.91188000000E+02  0.91188000000E+02 0.  0.
    9900012    2    3    3    0    0  0.17270473911E+02  0.39554158026E+02 -0.45631931148E+01  0.47787269388E+02  0.19999992445E+02 0.  0.
        -12    1    3    3    0    0 -0.17270473911E+02 -0.39554158026E+02  0.45631931148E+01  0.43400730612E+02  0.00000000000E+00 0.  1.
         11    1    4    4    0    0 -0.10004594827E+01  0.55485380639E+00 -0.99031904921E+00  0.15131140087E+01  0.51100000000E-03 0. -1.
        -11    1    4    4    0    0 -0.57355853043E+00  0.12862314077E+02  0.33782319093E+01  0.13310918221E+02  0.51100000000E-03 0.  1.
         12    1    4    4    0    0  0.18844491924E+02  0.26136990143E+02 -0.69511059749E+01  0.32963237158E+02  0.00000000000E+00 0. -1.
</event>
<event>
 8    1  0.2994958E-010  0.9118800E+02  0.7816164E-02  0.1184000E+00
        -11   -1    0    0    0    0  0.00000000000E+00  0.00000000000E+00  0.45593999997E+02  0.45594000000E+02  0.51100000000E-03 0. -1.
         11   -1    0    0    0    0 -0.00000000000E+00 -0.00000000000E+00 -0.45593999997E+02  0.45594000000E+02  0.51100000000E-03 0.  1.
         23    2    1    2    0    0  0.00000000000E+00  0.00000000000E+00  0.00000000000E+00  0.91188000000E+02  0.91188000000E+02 0.  0.
    9900012    2    3    3    0    0  0.29230821574E+02 -0.30864951262E+02 -0.87485252681E+01  0.47787276035E+02  0.20000022754E+02 0.  0.
         12    1    3    3    0    0 -0.29230821574E+02  0.30864951262E+02  0.87485252681E+01  0.43400723965E+02  0.00000000000E+00 0. -1.
         11    1    4    4    0    0  0.10228289625E+02 -0.18680313297E+01 -0.23640503301E+01  0.10662841269E+02  0.51100000000E-03 0. -1.
        -11    1    4    4    0    0  0.14287765572E+02 -0.11383761554E+02 -0.20492677774E+01  0.18382866231E+02  0.51100000000E-03 0.  1.
        -12    1    4    4    0    0  0.47147663774E+01 -0.17613158378E+02 -0.43352071606E+01  0.18741568535E+02  0.00000000000E+00 0.  1.
</event>
<event>
 8    1  0.2994958E-010  0.9118800E+02  0.7816164E-02  0.1184000E+00
        -11   -1    0    0    0    0  0.00000000000E+00  0.00000000000E+00  0.45593999997E+02  0.45594000000E+02  0.51100000000E-03 0. -1.
         11   -1    0    0    0    0 -0.00000000000E+00 -0.00000000000E+00 -0.45593999997E+02  0.45594000000E+02  0.51100000000E-03 0.  1.
         23    2    1    2    0    0  0.00000000000E+00  0.00000000000E+00 -0.55511151231E-15  0.91188000000E+02  0.91188000000E+02 0.  0.
    9900012    2    3    3    0    0 -0.32070509345E+02  0.29229499296E+02  0.86096753671E+00  0.47787280376E+02  0.20000042548E+02 0.  0.
        -12    1    3    3    0    0  0.32070509345E+02 -0.29229499296E+02 -0.86096753671E+00  0.43400719624E+02  0.00000000000E+00 0.  1.
         11    1    4    4    0    0 -0.15954688050E+02  0.10577366308E+02  0.50130203042E+01  0.19787953952E+02  0.51100000000E-03 0. -1.
        -11    1    4    4    0    0 -0.12640275284E+02  0.99177453406E+01  0.27981864079E+01  0.16308527810E+02  0.51100000000E-03 0.  1.
        -12    1    4    4    0    0 -0.34755460117E+01  0.87343876468E+01 -0.69502391754E+01  0.11690798614E+02  0.00000000000E+00 0.  1.
</event>
<event>
 8    1  0.2994958E-010  0.9118800E+02  0.7816164E-02  0.1184000E+00
        -11   -1    0    0    0    0  0.00000000000E+00  0.00000000000E+00  0.45593999997E+02  0.45594000000E+02  0.51100000000E-03 0. -1.
         11   -1    0    0    0    0 -0.00000000000E+00 -0.00000000000E+00 -0.45593999997E+02  0.45594000000E+02  0.51100000000E-03 0.  1.
         23    2    1    2    0    0  0.00000000000E+00  0.00000000000E+00  0.35527136788E-14  0.91188000000E+02  0.91188000000E+02 0.  0.
    9900012    2    3    3    0    0  0.28796517270E+02 -0.17683920572E+02 -0.27233477058E+02  0.47787277352E+02  0.20000028760E+02 0.  0.
         12    1    3    3    0    0 -0.28796517270E+02  0.17683920572E+02  0.27233477058E+02  0.43400722648E+02  0.00000000000E+00 0. -1.
         11    1    4    4    0    0  0.18392332614E+02 -0.10455569977E+02 -0.15101638702E+02  0.25993390203E+02  0.51100000000E-03 0. -1.
        -11    1    4    4    0    0  0.50374454915E+01 -0.16621830467E+01 -0.12973613624E+02  0.14016182086E+02  0.51100000000E-03 0.  1.
         12    1    4    4    0    0  0.53667391654E+01 -0.55661675478E+01  0.84177526780E+00  0.77777050626E+01  0.00000000000E+00 0. -1.
</event>
<event>
 8    1  0.2994958E-010  0.9118800E+02  0.7816164E-02  0.1184000E+00
        -11   -1    0    0    0    0  0.00000000000E+00  0.00000000000E+00  0.45593999997E+02  0.45594000000E+02  0.51100000000E-03 0. -1.
         11   -1    0    0    0    0 -0.00000000000E+00 -0.00000000000E+00 -0.45593999997E+02  0.45594000000E+02  0.51100000000E-03 0.  1.
         23    2    1    2    0    0  0.00000000000E+00  0.00000000000E+00  0.00000000000E+00  0.91188000000E+02  0.91188000000E+02 0.  0.
    9900012    2    3    3    0    0 -0.24386140735E+02  0.22665743761E+01 -0.35830194366E+02  0.47787262130E+02  0.19999959354E+02 0.  0.
         12    1    3    3    0    0  0.24386140735E+02 -0.22665743761E+01  0.35830194366E+02  0.43400737870E+02  0.00000000000E+00 0. -1.
         11    1    4    4    0    0  0.88818554821E+00 -0.14582877248E+01  0.12321160125E+01  0.21056084122E+01  0.51100000000E-03 0. -1.
        -11    1    4    4    0    0 -0.10320562554E+02  0.22444300003E+01 -0.22007508843E+02  0.24410692805E+02  0.51100000000E-03 0.  1.
        -12    1    4    4    0    0 -0.14953763729E+02  0.14804321005E+01 -0.15054801535E+02  0.21270960913E+02  0.00000000000E+00 0.  1.
</event>
<event>
 8    1  0.2994958E-010  0.9118800E+02  0.7816164E-02  0.1184000E+00
        -11   -1    0    0    0    0  0.00000000000E+00  0.00000000000E+00  0.45593999997E+02  0.45594000000E+02  0.51100000000E-03 0. -1.
         11   -1    0    0    0    0 -0.00000000000E+00 -0.00000000000E+00 -0.45593999997E+02  0.45594000000E+02  0.51100000000E-03 0.  1.
         23    2    1    2    0    0 -0.35527136788E-14  0.00000000000E+00  0.00000000000E+00  0.91188000000E+02  0.91188000000E+02 0.  0.
    9900012    2    3    3    0    0 -0.23447485443E+02 -0.36229473342E+01  0.36341613314E+02  0.47787272135E+02  0.20000004972E+02 0.  0.
        -12    1    3    3    0    0  0.23447485443E+02  0.36229473342E+01 -0.36341613314E+02  0.43400727865E+02  0.00000000000E+00 0.  1.
         11    1    4    4    0    0 -0.73630266647E+01  0.11340372658E+01  0.21720312738E+01  0.77600207668E+01  0.51100000000E-03 0. -1.
        -11    1    4    4    0    0 -0.97482201130E+01  0.31116101132E+01  0.12780021179E+02  0.16371892208E+02  0.51100000000E-03 0.  1.
        -12    1    4    4    0    0 -0.63362386651E+01 -0.78685947133E+01  0.21389560861E+02  0.23655359160E+02  0.00000000000E+00 0.  1.
</event>
<event>
 8    1  0.2994958E-010  0.9118800E+02  0.7816164E-02  0.1184000E+00
        -11   -1    0    0    0    0  0.00000000000E+00  0.00000000000E+00  0.45593999997E+02  0.45594000000E+02  0.51100000000E-03 0.  1.
         11   -1    0    0    0    0 -0.00000000000E+00 -0.00000000000E+00 -0.45593999997E+02  0.45594000000E+02  0.51100000000E-03 0. -1.
         23    2    1    2    0    0  0.71054273576E-14 -0.44408920985E-15  0.17763568394E-14  0.91188000000E+02  0.91188000000E+02 0.  0.
    9900012    2    3    3    0    0 -0.40978275877E+02  0.16129851185E+01 -0.14205728379E+02  0.47787268053E+02  0.19999986359E+02 0.  0.
         12    1    3    3    0    0  0.40978275877E+02 -0.16129851185E+01  0.14205728379E+02  0.43400731947E+02  0.00000000000E+00 0. -1.
         11    1    4    4    0    0 -0.10257971693E+02  0.30068802047E+01 -0.20845680201E+01  0.10890947430E+02  0.51100000000E-03 0. -1.
        -11    1    4    4    0    0 -0.23490545298E+02  0.61974560063E+01 -0.73775730984E+01  0.25389816156E+02  0.51100000000E-03 0.  1.
         12    1    4    4    0    0 -0.72297588852E+01 -0.75913510926E+01 -0.47435872604E+01  0.11506504467E+02  0.00000000000E+00 0. -1.
</event>
<event>
 8    1  0.2994958E-010  0.9118800E+02  0.7816164E-02  0.1184000E+00
        -11   -1    0    0    0    0  0.00000000000E+00  0.00000000000E+00  0.45593999997E+02  0.45594000000E+02  0.51100000000E-03 0. -1.
         11   -1    0    0    0    0 -0.00000000000E+00 -0.00000000000E+00 -0.45593999997E+02  0.45594000000E+02  0.51100000000E-03 0.  1.
         23    2    1    2    0    0  0.00000000000E+00  0.71054273576E-14 -0.22204460493E-15  0.91188000000E+02  0.91188000000E+02 0.  0.
    9900012    2    3    3    0    0 -0.41166559408E+01  0.43197721945E+02  0.79572414867E+00  0.47787271731E+02  0.20000003129E+02 0.  0.
         12    1    3    3    0    0  0.41166559408E+01 -0.43197721945E+02 -0.79572414867E+00  0.43400728269E+02  0.00000000000E+00 0. -1.
         11    1    4    4    0    0 -0.16178061171E+01  0.11348740472E+01 -0.10210572602E+01  0.22243637125E+01  0.51100000000E-03 0. -1.
        -11    1    4    4    0    0 -0.67664796137E+01  0.33547923645E+02 -0.39149998874E+01  0.34446707413E+02  0.51100000000E-03 0.  1.
         12    1    4    4    0    0  0.42676297900E+01  0.85149242531E+01  0.57317812963E+01  0.11116200605E+02  0.00000000000E+00 0. -1.
</event>
<event>
 8    1  0.2994958E-010  0.9118800E+02  0.7816164E-02  0.1184000E+00
        -11   -1    0    0    0    0  0.00000000000E+00  0.00000000000E+00  0.45593999997E+02  0.45594000000E+02  0.51100000000E-03 0. -1.
         11   -1    0    0    0    0 -0.00000000000E+00 -0.00000000000E+00 -0.45593999997E+02  0.45594000000E+02  0.51100000000E-03 0.  1.
         23    2    1    2    0    0  0.00000000000E+00 -0.17763568394E-14  0.00000000000E+00  0.91188000000E+02  0.91188000000E+02 0.  0.
    9900012    2    3    3    0    0 -0.69331957878E+01  0.11740637660E+02 -0.41203297296E+02  0.47787268617E+02  0.19999988933E+02 0.  0.
         12    1    3    3    0    0  0.69331957878E+01 -0.11740637660E+02  0.41203297296E+02  0.43400731383E+02  0.00000000000E+00 0. -1.
         11    1    4    4    0    0  0.18266631255E+01  0.19141084226E+01  0.84333529208E-01  0.26471912724E+01  0.51100000000E-03 0. -1.
        -11    1    4    4    0    0 -0.50393785730E+01 -0.21214585083E+01 -0.92491159583E+01  0.10744397092E+02  0.51100000000E-03 0.  1.
        -12    1    4    4    0    0 -0.37204803404E+01  0.11947987746E+02 -0.32038514867E+02  0.34395680252E+02  0.00000000000E+00 0.  1.
</event>
<event>
 8    1  0.2994958E-010  0.9118800E+02  0.7816164E-02  0.1184000E+00
        -11   -1    0    0    0    0  0.00000000000E+00  0.00000000000E+00  0.45593999997E+02  0.45594000000E+02  0.51100000000E-03 0. -1.
         11   -1    0    0    0    0 -0.00000000000E+00 -0.00000000000E+00 -0.45593999997E+02  0.45594000000E+02  0.51100000000E-03 0.  1.
         23    2    1    2    0    0  0.00000000000E+00  0.00000000000E+00  0.00000000000E+00  0.91188000000E+02  0.91188000000E+02 0.  0.
    9900012    2    3    3    0    0 -0.10133500917E+02 -0.40416924478E+02  0.12141157267E+02  0.47787270457E+02  0.19999997320E+02 0.  0.
        -12    1    3    3    0    0  0.10133500917E+02  0.40416924478E+02 -0.12141157267E+02  0.43400729543E+02  0.00000000000E+00 0.  1.
         11    1    4    4    0    0 -0.84294228906E+01 -0.21762472429E+02  0.66666214977E+01  0.24271469237E+02  0.51100000000E-03 0. -1.
        -11    1    4    4    0    0 -0.72176705750E+01 -0.13434098917E+02  0.41865755414E+01  0.15814461650E+02  0.51100000000E-03 0.  1.
         12    1    4    4    0    0  0.55135925485E+01 -0.52203531327E+01  0.12879602278E+01  0.77013395698E+01  0.00000000000E+00 0. -1.
</event>
<event>
 8    1  0.2994958E-010  0.9118800E+02  0.7816164E-02  0.1184000E+00
        -11   -1    0    0    0    0  0.00000000000E+00  0.00000000000E+00  0.45593999997E+02  0.45594000000E+02  0.51100000000E-03 0. -1.
         11   -1    0    0    0    0 -0.00000000000E+00 -0.00000000000E+00 -0.45593999997E+02  0.45594000000E+02  0.51100000000E-03 0.  1.
         23    2    1    2    0    0  0.00000000000E+00  0.00000000000E+00  0.35527136788E-14  0.91188000000E+02  0.91188000000E+02 0.  0.
    9900012    2    3    3    0    0 -0.54037356928E+01  0.31153610373E+02 -0.29730038997E+02  0.47787273998E+02  0.20000013467E+02 0.  0.
         12    1    3    3    0    0  0.54037356928E+01 -0.31153610373E+02  0.29730038997E+02  0.43400726002E+02  0.00000000000E+00 0. -1.
         11    1    4    4    0    0 -0.26927554264E+01  0.68683280286E+01 -0.25563401211E+01  0.78076716613E+01  0.51100000000E-03 0. -1.
        -11    1    4    4    0    0 -0.23888070308E+01  0.20552232381E+02 -0.11110073523E+02  0.23484769294E+02  0.51100000000E-03 0.  1.
        -12    1    4    4    0    0 -0.32217323555E+00  0.37330499640E+01 -0.16063625353E+02  0.16494833042E+02  0.00000000000E+00 0.  1.
</event>
<event>
 8    1  0.2994958E-010  0.9118800E+02  0.7816164E-02  0.1184000E+00
        -11   -1    0    0    0    0  0.00000000000E+00  0.00000000000E+00  0.45593999997E+02  0.45594000000E+02  0.51100000000E-03 0. -1.
         11   -1    0    0    0    0 -0.00000000000E+00 -0.00000000000E+00 -0.45593999997E+02  0.45594000000E+02  0.51100000000E-03 0.  1.
         23    2    1    2    0    0 -0.35527136788E-14  0.00000000000E+00  0.00000000000E+00  0.91188000000E+02  0.91188000000E+02 0.  0.
    9900012    2    3    3    0    0  0.28462039494E+02 -0.28045412462E+02 -0.16940794331E+02  0.47787269995E+02  0.19999995216E+02 0.  0.
         12    1    3    3    0    0 -0.28462039494E+02  0.28045412462E+02  0.16940794331E+02  0.43400730005E+02  0.00000000000E+00 0. -1.
         11    1    4    4    0    0  0.78403639308E+01 -0.38870700349E+01 -0.10304478429E+02  0.13518982801E+02  0.51100000000E-03 0. -1.
        -11    1    4    4    0    0  0.12023091493E+02 -0.99873935141E+01 -0.81432854607E+01  0.17624297336E+02  0.51100000000E-03 0.  1.
        -12    1    4    4    0    0  0.85985840711E+01 -0.14170948913E+02  0.15069695585E+01  0.16643989858E+02  0.00000000000E+00 0.  1.
</event>
<event>
 8    1  0.2994958E-010  0.9118800E+02  0.7816164E-02  0.1184000E+00
        -11   -1    0    0    0    0  0.00000000000E+00  0.00000000000E+00  0.45593999997E+02  0.45594000000E+02  0.51100000000E-03 0. -1.
         11   -1    0    0    0    0 -0.00000000000E+00 -0.00000000000E+00 -0.45593999997E+02  0.45594000000E+02  0.51100000000E-03 0.  1.
         23    2    1    2    0    0  0.00000000000E+00 -0.17763568394E-14  0.44408920985E-15  0.91188000000E+02  0.91188000000E+02 0.  0.
    9900012    2    3    3    0    0 -0.41474449234E+02  0.12320914696E+02 -0.34188769580E+01  0.47787267312E+02  0.19999982982E+02 0.  0.
        -12    1    3    3    0    0  0.41474449234E+02 -0.12320914696E+02  0.34188769580E+01  0.43400732688E+02  0.00000000000E+00 0.  1.
         11    1    4    4    0    0 -0.15613110933E+02 -0.49100307254E-03 -0.21750053897E+01  0.15763879027E+02  0.51100000000E-03 0. -1.
        -11    1    4    4    0    0 -0.36247044652E+01 -0.27789070170E+01 -0.23198341371E+01  0.51227372911E+01  0.51100000000E-03 0.  1.
        -12    1    4    4    0    0 -0.22236633836E+02  0.15100312716E+02  0.10759625688E+01  0.26900650994E+02  0.00000000000E+00 0.  1.
</event>
<event>
 8    1  0.2994958E-010  0.9118800E+02  0.7816164E-02  0.1184000E+00
        -11   -1    0    0    0    0  0.00000000000E+00  0.00000000000E+00  0.45593999997E+02  0.45594000000E+02  0.51100000000E-03 0.  1.
         11   -1    0    0    0    0 -0.00000000000E+00 -0.00000000000E+00 -0.45593999997E+02  0.45594000000E+02  0.51100000000E-03 0. -1.
         23    2    1    2    0    0  0.00000000000E+00  0.00000000000E+00  0.17763568394E-14  0.91188000000E+02  0.91188000000E+02 0.  0.
    9900012    2    3    3    0    0  0.43087549080E+02 -0.45302645620E+01  0.25617375619E+01  0.47787277863E+02  0.20000031087E+02 0.  0.
        -12    1    3    3    0    0 -0.43087549080E+02  0.45302645620E+01 -0.25617375619E+01  0.43400722137E+02  0.00000000000E+00 0.  1.
         11    1    4    4    0    0  0.67589899063E+01 -0.20063918423E+01 -0.36344864097E+01  0.79321525768E+01  0.51100000000E-03 0.  1.
        -11    1    4    4    0    0  0.11792168175E+02  0.99687207905E+00 -0.47579264682E+01  0.12754875489E+02  0.51100000000E-03 0. -1.
        -12    1    4    4    0    0  0.24536390999E+02 -0.35207447988E+01  0.10954150440E+02  0.27100249797E+02  0.00000000000E+00 0.  1.
</event>
<event>
 8    1  0.2994958E-010  0.9118800E+02  0.7816164E-02  0.1184000E+00
        -11   -1    0    0    0    0  0.00000000000E+00  0.00000000000E+00  0.45593999997E+02  0.45594000000E+02  0.51100000000E-03 0. -1.
         11   -1    0    0    0    0 -0.00000000000E+00 -0.00000000000E+00 -0.45593999997E+02  0.45594000000E+02  0.51100000000E-03 0.  1.
         23    2    1    2    0    0  0.88817841970E-15  0.00000000000E+00  0.00000000000E+00  0.91188000000E+02  0.91188000000E+02 0.  0.
    9900012    2    3    3    0    0 -0.50523626809E+01 -0.36319012055E+02  0.23216944822E+02  0.47787268069E+02  0.19999986434E+02 0.  0.
        -12    1    3    3    0    0  0.50523626809E+01  0.36319012055E+02 -0.23216944822E+02  0.43400731931E+02  0.00000000000E+00 0.  1.
         11    1    4    4    0    0 -0.60225307938E+01 -0.14726151422E+02  0.70378160270E+01  0.17397162629E+02  0.51100000000E-03 0.  1.
        -11    1    4    4    0    0 -0.42045865031E+01 -0.88150011353E+00  0.36483445731E+01  0.56361341802E+01  0.51100000000E-03 0. -1.
         12    1    4    4    0    0  0.51747546160E+01 -0.20711360520E+02  0.12530784221E+02  0.24753971260E+02  0.00000000000E+00 0. -1.
</event>
<event>
 8    1  0.2994958E-010  0.9118800E+02  0.7816164E-02  0.1184000E+00
        -11   -1    0    0    0    0  0.00000000000E+00  0.00000000000E+00  0.45593999997E+02  0.45594000000E+02  0.51100000000E-03 0. -1.
         11   -1    0    0    0    0 -0.00000000000E+00 -0.00000000000E+00 -0.45593999997E+02  0.45594000000E+02  0.51100000000E-03 0.  1.
         23    2    1    2    0    0 -0.88817841970E-15 -0.44408920985E-15  0.71054273576E-14  0.91188000000E+02  0.91188000000E+02 0.  0.
    9900012    2    3    3    0    0 -0.77727904897E+01  0.19225604368E+01 -0.42655724602E+02  0.47787270144E+02  0.19999995897E+02 0.  0.
         12    1    3    3    0    0  0.77727904897E+01 -0.19225604368E+01  0.42655724602E+02  0.43400729856E+02  0.00000000000E+00 0. -1.
         11    1    4    4    0    0 -0.22724644207E+01  0.64053778083E+01 -0.23827217020E+02  0.24777595335E+02  0.51100000000E-03 0. -1.
        -11    1    4    4    0    0 -0.87894754770E+01 -0.20457172300E+01 -0.11532787864E+02  0.14643941898E+02  0.51100000000E-03 0.  1.
        -12    1    4    4    0    0  0.32891494080E+01 -0.24371001416E+01 -0.72957197186E+01  0.83657329112E+01  0.00000000000E+00 0.  1.
</event>
<event>
 8    1  0.2994958E-010  0.9118800E+02  0.7816164E-02  0.1184000E+00
        -11   -1    0    0    0    0  0.00000000000E+00  0.00000000000E+00  0.45593999997E+02  0.45594000000E+02  0.51100000000E-03 0. -1.
         11   -1    0    0    0    0 -0.00000000000E+00 -0.00000000000E+00 -0.45593999997E+02  0.45594000000E+02  0.51100000000E-03 0.  1.
         23    2    1    2    0    0  0.35527136788E-14  0.00000000000E+00  0.00000000000E+00  0.91188000000E+02  0.91188000000E+02 0.  0.
    9900012    2    3    3    0    0 -0.29518969588E+02  0.14955481386E+02 -0.28081819466E+02  0.47787256072E+02  0.19999931734E+02 0.  0.
         12    1    3    3    0    0  0.29518969588E+02 -0.14955481386E+02  0.28081819466E+02  0.43400743928E+02  0.00000000000E+00 0. -1.
         11    1    4    4    0    0 -0.97541996888E+01  0.72464603921E+01 -0.51042907877E+01  0.13179885602E+02  0.51100000000E-03 0. -1.
        -11    1    4    4    0    0 -0.83142780877E+01  0.77436904877E+01 -0.32840835597E+01  0.11826967810E+02  0.51100000000E-03 0.  1.
         12    1    4    4    0    0 -0.11450491811E+02 -0.34669493778E-01 -0.19693445119E+02  0.22780402660E+02  0.00000000000E+00 0. -1.
</event>
<event>
 8    1  0.2994958E-010  0.9118800E+02  0.7816164E-02  0.1184000E+00
        -11   -1    0    0    0    0  0.00000000000E+00  0.00000000000E+00  0.45593999997E+02  0.45594000000E+02  0.51100000000E-03 0. -1.
         11   -1    0    0    0    0 -0.00000000000E+00 -0.00000000000E+00 -0.45593999997E+02  0.45594000000E+02  0.51100000000E-03 0.  1.
         23    2    1    2    0    0  0.00000000000E+00 -0.17763568394E-14  0.00000000000E+00  0.91188000000E+02  0.91188000000E+02 0.  0.
    9900012    2    3    3    0    0  0.19115589430E+02  0.85597996585E+01  0.38012441143E+02  0.47787290200E+02  0.20000087338E+02 0.  0.
        -12    1    3    3    0    0 -0.19115589430E+02 -0.85597996585E+01 -0.38012441143E+02  0.43400709800E+02  0.00000000000E+00 0.  1.
         11    1    4    4    0    0  0.49067294160E+01  0.25852086325E+01  0.84109828522E+01  0.10074915882E+02  0.51100000000E-03 0. -1.
        -11    1    4    4    0    0  0.44472569048E+01  0.10785624832E+02  0.10340459597E+02  0.15589512562E+02  0.51100000000E-03 0.  1.
         12    1    4    4    0    0  0.97616031093E+01 -0.48110338060E+01  0.19260998694E+02  0.22122861756E+02  0.00000000000E+00 0. -1.
</event>
<event>
 8    1  0.3662091E-010  0.9118800E+02  0.7816164E-02  0.1184000E+00
        -11   -1    0    0    0    0  0.00000000000E+00  0.00000000000E+00  0.45593999997E+02  0.45594000000E+02  0.51100000000E-03 0. -1.
         11   -1    0    0    0    0 -0.00000000000E+00 -0.00000000000E+00 -0.45593999997E+02  0.45594000000E+02  0.51100000000E-03 0.  1.
         23    2    1    2    0    0 -0.17763568394E-14  0.00000000000E+00  0.00000000000E+00  0.91188000000E+02  0.91188000000E+02 0.  0.
    9900012    2    3    3    0    0 -0.10986180570E+02  0.17616962394E+02  0.38112598047E+02  0.47787266626E+02  0.19999979854E+02 0.  0.
        -12    1    3    3    0    0  0.10986180570E+02 -0.17616962394E+02 -0.38112598047E+02  0.43400733374E+02  0.00000000000E+00 0.  1.
         11    1    4    4    0    0  0.91488878274E+00 -0.74866704709E+00  0.18199570854E+01  0.21701999645E+01  0.51100000000E-03 0. -1.
        -11    1    4    4    0    0  0.24206718836E+01  0.22536864898E+01 -0.11126508908E+00  0.33092499669E+01  0.51100000000E-03 0.  1.
         12    1    4    4    0    0 -0.14321741236E+02  0.16111942951E+02  0.36403906051E+02  0.42307816694E+02  0.00000000000E+00 0. -1.
</event>
<event>
 8    1  0.2994958E-010  0.9118800E+02  0.7816164E-02  0.1184000E+00
        -11   -1    0    0    0    0  0.00000000000E+00  0.00000000000E+00  0.45593999997E+02  0.45594000000E+02  0.51100000000E-03 0.  1.
         11   -1    0    0    0    0 -0.00000000000E+00 -0.00000000000E+00 -0.45593999997E+02  0.45594000000E+02  0.51100000000E-03 0. -1.
         23    2    1    2    0    0  0.35527136788E-14  0.00000000000E+00 -0.35527136788E-14  0.91188000000E+02  0.91188000000E+02 0.  0.
    9900012    2    3    3    0    0 -0.23273312849E+02  0.32832738365E+02 -0.16247691495E+02  0.47787270992E+02  0.19999999762E+02 0.  0.
        -12    1    3    3    0    0  0.23273312849E+02 -0.32832738365E+02  0.16247691495E+02  0.43400729008E+02  0.00000000000E+00 0.  1.
         11    1    4    4    0    0 -0.14222876483E+02  0.11751189463E+02 -0.10395762814E+02  0.21176698374E+02  0.51100000000E-03 0. -1.
        -11    1    4    4    0    0 -0.68969689285E+01  0.18131336136E+02 -0.93665067664E+01  0.21541703269E+02  0.51100000000E-03 0.  1.
        -12    1    4    4    0    0 -0.21534674372E+01  0.29502127657E+01  0.35145780852E+01  0.50688693496E+01  0.00000000000E+00 0.  1.
</event>
<event>
 8    1  0.2994958E-010  0.9118800E+02  0.7816164E-02  0.1184000E+00
        -11   -1    0    0    0    0  0.00000000000E+00  0.00000000000E+00  0.45593999997E+02  0.45594000000E+02  0.51100000000E-03 0. -1.
         11   -1    0    0    0    0 -0.00000000000E+00 -0.00000000000E+00 -0.45593999997E+02  0.45594000000E+02  0.51100000000E-03 0.  1.
         23    2    1    2    0    0  0.00000000000E+00  0.00000000000E+00  0.00000000000E+00  0.91188000000E+02  0.91188000000E+02 0.  0.
    9900012    2    3    3    0    0  0.26339063382E+02 -0.20356869966E+02 -0.27847349814E+02  0.47787270670E+02  0.19999998294E+02 0.  0.
         12    1    3    3    0    0 -0.26339063382E+02  0.20356869966E+02  0.27847349814E+02  0.43400729330E+02  0.00000000000E+00 0. -1.
         11    1    4    4    0    0  0.28468428603E+01 -0.15231898171E+01 -0.13945070408E+02  0.14313965574E+02  0.51100000000E-03 0.  1.
        -11    1    4    4    0    0  0.21139019699E+01 -0.25234150412E+01 -0.21079721440E+00  0.32985816247E+01  0.51100000000E-03 0. -1.
        -12    1    4    4    0    0  0.21378318552E+02 -0.16310265108E+02 -0.13691482191E+02  0.30174723472E+02  0.00000000000E+00 0.  1.
</event>
<event>
 8    1  0.2994958E-010  0.9118800E+02  0.7816164E-02  0.1184000E+00
        -11   -1    0    0    0    0  0.00000000000E+00  0.00000000000E+00  0.45593999997E+02  0.45594000000E+02  0.51100000000E-03 0. -1.
         11   -1    0    0    0    0 -0.00000000000E+00 -0.00000000000E+00 -0.45593999997E+02  0.45594000000E+02  0.51100000000E-03 0.  1.
         23    2    1    2    0    0  0.00000000000E+00  0.00000000000E+00  0.00000000000E+00  0.91188000000E+02  0.91188000000E+02 0.  0.
    9900012    2    3    3    0    0 -0.24023075200E+02  0.26250155833E+02  0.24848406512E+02  0.47787284228E+02  0.20000060110E+02 0.  0.
        -12    1    3    3    0    0  0.24023075200E+02 -0.26250155833E+02 -0.24848406512E+02  0.43400715772E+02  0.00000000000E+00 0.  1.
         11    1    4    4    0    0 -0.61868113209E+01  0.12703866392E+02  0.14803261367E+02  0.20464637866E+02  0.51100000000E-03 0. -1.
        -11    1    4    4    0    0 -0.16691257063E+02  0.10923273530E+02  0.12509550706E+02  0.23545802727E+02  0.51100000000E-03 0.  1.
        -12    1    4    4    0    0 -0.11450068164E+01  0.26230159109E+01 -0.24644055604E+01  0.37768436352E+01  0.00000000000E+00 0.  1.
</event>
<event>
 8    1  0.2994958E-010  0.9118800E+02  0.7816164E-02  0.1184000E+00
        -11   -1    0    0    0    0  0.00000000000E+00  0.00000000000E+00  0.45593999997E+02  0.45594000000E+02  0.51100000000E-03 0. -1.
         11   -1    0    0    0    0 -0.00000000000E+00 -0.00000000000E+00 -0.45593999997E+02  0.45594000000E+02  0.51100000000E-03 0.  1.
         23    2    1    2    0    0 -0.17763568394E-14 -0.88817841970E-15 -0.71054273576E-14  0.91188000000E+02  0.91188000000E+02 0.  0.
    9900012    2    3    3    0    0  0.13188065177E+02  0.47839635550E+01  0.41070815685E+02  0.47787271073E+02  0.20000000129E+02 0.  0.
        -12    1    3    3    0    0 -0.13188065177E+02 -0.47839635550E+01 -0.41070815685E+02  0.43400728927E+02  0.00000000000E+00 0.  1.
         11    1    4    4    0    0  0.56267028694E+01 -0.34026596446E+01  0.10240625442E+02  0.12169974837E+02  0.51100000000E-03 0. -1.
        -11    1    4    4    0    0  0.27068930544E+01 -0.36431839431E+00  0.22685554471E+02  0.22849384671E+02  0.51100000000E-03 0.  1.
        -12    1    4    4    0    0  0.48544692532E+01  0.85509415940E+01  0.81446357721E+01  0.12767911565E+02  0.00000000000E+00 0.  1.
</event>
<event>
 8    1  0.2994958E-010  0.9118800E+02  0.7816164E-02  0.1184000E+00
        -11   -1    0    0    0    0  0.00000000000E+00  0.00000000000E+00  0.45593999997E+02  0.45594000000E+02  0.51100000000E-03 0. -1.
         11   -1    0    0    0    0 -0.00000000000E+00 -0.00000000000E+00 -0.45593999997E+02  0.45594000000E+02  0.51100000000E-03 0.  1.
         23    2    1    2    0    0  0.88817841970E-15  0.71054273576E-14  0.00000000000E+00  0.91188000000E+02  0.91188000000E+02 0.  0.
    9900012    2    3    3    0    0 -0.75694488015E+01  0.41202832266E+02 -0.11342547321E+02  0.47787270494E+02  0.19999997491E+02 0.  0.
         12    1    3    3    0    0  0.75694488015E+01 -0.41202832266E+02  0.11342547321E+02  0.43400729506E+02  0.00000000000E+00 0. -1.
         11    1    4    4    0    0 -0.34317934579E+01  0.39656487055E+01 -0.11058232530E+01  0.53597034733E+01  0.51100000000E-03 0. -1.
        -11    1    4    4    0    0 -0.11214811342E+01  0.33058404741E+02 -0.25532802239E+01  0.33175820776E+02  0.51100000000E-03 0.  1.
         12    1    4    4    0    0 -0.30161742094E+01  0.41787788192E+01 -0.76834438440E+01  0.92517462452E+01  0.00000000000E+00 0. -1.
</event>
<event>
 8    1  0.2994958E-010  0.9118800E+02  0.7816164E-02  0.1184000E+00
        -11   -1    0    0    0    0  0.00000000000E+00  0.00000000000E+00  0.45593999997E+02  0.45594000000E+02  0.51100000000E-03 0. -1.
         11   -1    0    0    0    0 -0.00000000000E+00 -0.00000000000E+00 -0.45593999997E+02  0.45594000000E+02  0.51100000000E-03 0.  1.
         23    2    1    2    0    0  0.00000000000E+00  0.66613381478E-15  0.00000000000E+00  0.91188000000E+02  0.91188000000E+02 0.  0.
    9900012    2    3    3    0    0 -0.30246427962E+01  0.76762532616E+00  0.43288398671E+02  0.47787272216E+02  0.20000005341E+02 0.  0.
        -12    1    3    3    0    0  0.30246427962E+01 -0.76762532616E+00 -0.43288398671E+02  0.43400727784E+02  0.00000000000E+00 0.  1.
         11    1    4    4    0    0  0.17361251435E+01  0.58006081166E+01  0.11397466278E+02  0.12905945253E+02  0.51100000000E-03 0. -1.
        -11    1    4    4    0    0 -0.39099979803E+01  0.13336959203E+01  0.25456562243E+02  0.25789598494E+02  0.51100000000E-03 0.  1.
        -12    1    4    4    0    0 -0.85076995944E+00 -0.63666787108E+01  0.64343701500E+01  0.90917284692E+01  0.00000000000E+00 0.  1.
</event>
<event>
 8    1  0.2994958E-010  0.9118800E+02  0.7816164E-02  0.1184000E+00
        -11   -1    0    0    0    0  0.00000000000E+00  0.00000000000E+00  0.45593999997E+02  0.45594000000E+02  0.51100000000E-03 0. -1.
         11   -1    0    0    0    0 -0.00000000000E+00 -0.00000000000E+00 -0.45593999997E+02  0.45594000000E+02  0.51100000000E-03 0.  1.
         23    2    1    2    0    0  0.00000000000E+00  0.00000000000E+00 -0.71054273576E-14  0.91188000000E+02  0.91188000000E+02 0.  0.
    9900012    2    3    3    0    0 -0.57499238764E+01  0.17906074727E+02 -0.39114371191E+02  0.47787272237E+02  0.20000005436E+02 0.  0.
         12    1    3    3    0    0  0.57499238764E+01 -0.17906074727E+02  0.39114371191E+02  0.43400727763E+02  0.00000000000E+00 0. -1.
         11    1    4    4    0    0  0.34478403088E+01  0.71846994556E+00 -0.77833431778E+00  0.36068832015E+01  0.51100000000E-03 0. -1.
        -11    1    4    4    0    0 -0.40618274433E+00  0.51375992144E+01 -0.19411993249E+02  0.20084456484E+02  0.51100000000E-03 0.  1.
         12    1    4    4    0    0 -0.87915814409E+01  0.12050005567E+02 -0.18924043625E+02  0.24095932551E+02  0.00000000000E+00 0. -1.
</event>
<event>
 8    1  0.2994958E-010  0.9118800E+02  0.7816164E-02  0.1184000E+00
        -11   -1    0    0    0    0  0.00000000000E+00  0.00000000000E+00  0.45593999997E+02  0.45594000000E+02  0.51100000000E-03 0. -1.
         11   -1    0    0    0    0 -0.00000000000E+00 -0.00000000000E+00 -0.45593999997E+02  0.45594000000E+02  0.51100000000E-03 0.  1.
         23    2    1    2    0    0 -0.17763568394E-14  0.00000000000E+00  0.00000000000E+00  0.91188000000E+02  0.91188000000E+02 0.  0.
    9900012    2    3    3    0    0 -0.14034501544E+02 -0.10628948334E+02 -0.39669654997E+02  0.47787270699E+02  0.19999998424E+02 0.  0.
         12    1    3    3    0    0  0.14034501544E+02  0.10628948334E+02  0.39669654997E+02  0.43400729301E+02  0.00000000000E+00 0. -1.
         11    1    4    4    0    0  0.45092724767E+01 -0.11778086256E+01 -0.97526627546E+01  0.10809033375E+02  0.51100000000E-03 0. -1.
        -11    1    4    4    0    0 -0.46762240715E+01  0.43558489669E+00 -0.61016256915E+01  0.76997819521E+01  0.51100000000E-03 0.  1.
         12    1    4    4    0    0 -0.13867549949E+02 -0.98867246047E+01 -0.23815366551E+02  0.29278455372E+02  0.00000000000E+00 0. -1.
</event>
<event>
 8    1  0.2994958E-010  0.9118800E+02  0.7816164E-02  0.1184000E+00
        -11   -1    0    0    0    0  0.00000000000E+00  0.00000000000E+00  0.45593999997E+02  0.45594000000E+02  0.51100000000E-03 0. -1.
         11   -1    0    0    0    0 -0.00000000000E+00 -0.00000000000E+00 -0.45593999997E+02  0.45594000000E+02  0.51100000000E-03 0.  1.
         23    2    1    2    0    0  0.00000000000E+00  0.00000000000E+00  0.00000000000E+00  0.91188000000E+02  0.91188000000E+02 0.  0.
    9900012    2    3    3    0    0 -0.22291860306E+02 -0.27684889317E+02  0.24904671751E+02  0.47787276418E+02  0.20000024502E+02 0.  0.
        -12    1    3    3    0    0  0.22291860306E+02  0.27684889317E+02 -0.24904671751E+02  0.43400723582E+02  0.00000000000E+00 0.  1.
         11    1    4    4    0    0 -0.39242588554E+01 -0.31653162052E+01  0.18248935409E+01  0.53618346617E+01  0.51100000000E-03 0. -1.
        -11    1    4    4    0    0 -0.13933592491E+02 -0.14162189784E+02  0.23958903131E+02  0.31124614997E+02  0.51100000000E-03 0.  1.
         12    1    4    4    0    0 -0.44340089595E+01 -0.10357383327E+02 -0.87912492062E+00  0.11300826760E+02  0.00000000000E+00 0. -1.
</event>
<event>
 8    1  0.2994958E-010  0.9118800E+02  0.7816164E-02  0.1184000E+00
        -11   -1    0    0    0    0  0.00000000000E+00  0.00000000000E+00  0.45593999997E+02  0.45594000000E+02  0.51100000000E-03 0. -1.
         11   -1    0    0    0    0 -0.00000000000E+00 -0.00000000000E+00 -0.45593999997E+02  0.45594000000E+02  0.51100000000E-03 0.  1.
         23    2    1    2    0    0  0.00000000000E+00  0.00000000000E+00  0.00000000000E+00  0.91188000000E+02  0.91188000000E+02 0.  0.
    9900012    2    3    3    0    0  0.25385808215E+02  0.33470819622E+02  0.10903556261E+02  0.47787279222E+02  0.20000037287E+02 0.  0.
        -12    1    3    3    0    0 -0.25385808215E+02 -0.33470819622E+02 -0.10903556261E+02  0.43400720778E+02  0.00000000000E+00 0.  1.
         11    1    4    4    0    0 -0.13235574426E+01  0.13880270989E+01  0.28867400851E+01  0.34657888151E+01  0.51100000000E-03 0. -1.
        -11    1    4    4    0    0  0.11988117570E+02  0.91895202430E+01  0.80230083105E+01  0.17103534950E+02  0.51100000000E-03 0.  1.
         12    1    4    4    0    0  0.14721248088E+02  0.22893272280E+02 -0.61921348817E-02  0.27217955457E+02  0.00000000000E+00 0. -1.
</event>
<event>
 8    1  0.2994958E-010  0.9118800E+02  0.7816164E-02  0.1184000E+00
        -11   -1    0    0    0    0  0.00000000000E+00  0.00000000000E+00  0.45593999997E+02  0.45594000000E+02  0.51100000000E-03 0. -1.
         11   -1    0    0    0    0 -0.00000000000E+00 -0.00000000000E+00 -0.45593999997E+02  0.45594000000E+02  0.51100000000E-03 0.  1.
         23    2    1    2    0    0 -0.35527136788E-14  0.17763568394E-14  0.00000000000E+00  0.91188000000E+02  0.91188000000E+02 0.  0.
    9900012    2    3    3    0    0  0.20240983745E+02 -0.15396055559E+02 -0.35169412562E+02  0.47787268097E+02  0.19999986563E+02 0.  0.
         12    1    3    3    0    0 -0.20240983745E+02  0.15396055559E+02  0.35169412562E+02  0.43400731903E+02  0.00000000000E+00 0. -1.
         11    1    4    4    0    0  0.22487481193E+02 -0.12461346677E+02 -0.26097103438E+02  0.36633738269E+02  0.51100000000E-03 0. -1.
        -11    1    4    4    0    0  0.16848705038E+01 -0.15487972512E+01 -0.27073375837E+01  0.35450301259E+01  0.51100000000E-03 0.  1.
        -12    1    4    4    0    0 -0.39313679521E+01 -0.13859116304E+01 -0.63649715399E+01  0.76084997026E+01  0.00000000000E+00 0.  1.
</event>
<event>
 8    1  0.2994958E-010  0.9118800E+02  0.7816164E-02  0.1184000E+00
        -11   -1    0    0    0    0  0.00000000000E+00  0.00000000000E+00  0.45593999997E+02  0.45594000000E+02  0.51100000000E-03 0. -1.
         11   -1    0    0    0    0 -0.00000000000E+00 -0.00000000000E+00 -0.45593999997E+02  0.45594000000E+02  0.51100000000E-03 0.  1.
         23    2    1    2    0    0  0.00000000000E+00  0.00000000000E+00  0.00000000000E+00  0.91188000000E+02  0.91188000000E+02 0.  0.
    9900012    2    3    3    0    0 -0.20616868520E+02 -0.16146356140E+02 -0.34610163169E+02  0.47787268684E+02  0.19999989239E+02 0.  0.
         12    1    3    3    0    0  0.20616868520E+02  0.16146356140E+02  0.34610163169E+02  0.43400731316E+02  0.00000000000E+00 0. -1.
         11    1    4    4    0    0 -0.17956438806E+01 -0.38987087709E+00 -0.11389507547E+02  0.11536776789E+02  0.51100000000E-03 0. -1.
        -11    1    4    4    0    0  0.99746615906E+00 -0.53514183725E+01 -0.49203420474E+01  0.73377369441E+01  0.51100000000E-03 0.  1.
        -12    1    4    4    0    0 -0.19818690799E+02 -0.10405066890E+02 -0.18300313574E+02  0.28912754951E+02  0.00000000000E+00 0.  1.
</event>
<event>
 8    1  0.2994958E-010  0.9118800E+02  0.7816164E-02  0.1184000E+00
        -11   -1    0    0    0    0  0.00000000000E+00  0.00000000000E+00  0.45593999997E+02  0.45594000000E+02  0.51100000000E-03 0. -1.
         11   -1    0    0    0    0 -0.00000000000E+00 -0.00000000000E+00 -0.45593999997E+02  0.45594000000E+02  0.51100000000E-03 0.  1.
         23    2    1    2    0    0  0.00000000000E+00  0.00000000000E+00  0.00000000000E+00  0.91188000000E+02  0.91188000000E+02 0.  0.
    9900012    2    3    3    0    0 -0.27205093825E+02 -0.25558719275E+02  0.22141786472E+02  0.47787263034E+02  0.19999963478E+02 0.  0.
        -12    1    3    3    0    0  0.27205093825E+02  0.25558719275E+02 -0.22141786472E+02  0.43400736966E+02  0.00000000000E+00 0.  1.
         11    1    4    4    0    0 -0.19245174389E+01  0.16302122491E+01  0.13465538745E+01  0.28591199604E+01  0.51100000000E-03 0.  1.
        -11    1    4    4    0    0 -0.99744702665E+01 -0.18388730689E+01  0.64908701423E+01  0.12041715273E+02  0.51100000000E-03 0. -1.
        -12    1    4    4    0    0 -0.15306106119E+02 -0.25350058456E+02  0.14304362455E+02  0.32886427801E+02  0.00000000000E+00 0.  1.
</event>
<event>
 8    1  0.2994958E-010  0.9118800E+02  0.7816164E-02  0.1184000E+00
        -11   -1    0    0    0    0  0.00000000000E+00  0.00000000000E+00  0.45593999997E+02  0.45594000000E+02  0.51100000000E-03 0. -1.
         11   -1    0    0    0    0 -0.00000000000E+00 -0.00000000000E+00 -0.45593999997E+02  0.45594000000E+02  0.51100000000E-03 0.  1.
         23    2    1    2    0    0  0.35527136788E-14 -0.35527136788E-14  0.71054273576E-14  0.91188000000E+02  0.91188000000E+02 0.  0.
    9900012    2    3    3    0    0  0.17979167790E+02 -0.16970137691E+02 -0.35670533030E+02  0.47787274496E+02  0.20000015737E+02 0.  0.
         12    1    3    3    0    0 -0.17979167790E+02  0.16970137691E+02  0.35670533030E+02  0.43400725504E+02  0.00000000000E+00 0. -1.
         11    1    4    4    0    0  0.38000465668E+01 -0.12483441936E+02 -0.17438474992E+02  0.21780199420E+02  0.51100000000E-03 0. -1.
        -11    1    4    4    0    0  0.78179087399E+01 -0.77198915365E+01 -0.13668137571E+02  0.17536658956E+02  0.51100000000E-03 0.  1.
         12    1    4    4    0    0  0.63612124829E+01  0.32331957821E+01 -0.45639204668E+01  0.84704161200E+01  0.00000000000E+00 0. -1.
</event>
<event>
 8    1  0.2994958E-010  0.9118800E+02  0.7816164E-02  0.1184000E+00
        -11   -1    0    0    0    0  0.00000000000E+00  0.00000000000E+00  0.45593999997E+02  0.45594000000E+02  0.51100000000E-03 0. -1.
         11   -1    0    0    0    0 -0.00000000000E+00 -0.00000000000E+00 -0.45593999997E+02  0.45594000000E+02  0.51100000000E-03 0.  1.
         23    2    1    2    0    0 -0.35527136788E-14 -0.17763568394E-14  0.00000000000E+00  0.91188000000E+02  0.91188000000E+02 0.  0.
    9900012    2    3    3    0    0  0.20287474980E+02 -0.14900028607E+02 -0.35355773351E+02  0.47787271863E+02  0.20000003732E+02 0.  0.
         12    1    3    3    0    0 -0.20287474980E+02  0.14900028607E+02  0.35355773351E+02  0.43400728137E+02  0.00000000000E+00 0. -1.
         11    1    4    4    0    0  0.11403150525E+02 -0.10865363038E+01 -0.80901086441E+01  0.14023632239E+02  0.51100000000E-03 0. -1.
        -11    1    4    4    0    0  0.63046730094E+01 -0.10128389533E+02 -0.89786179853E+01  0.14931468698E+02  0.51100000000E-03 0.  1.
        -12    1    4    4    0    0  0.25796514463E+01 -0.36851027704E+01 -0.18287046722E+02  0.18832170927E+02  0.00000000000E+00 0.  1.
</event>
<event>
 8    1  0.2994958E-010  0.9118800E+02  0.7816164E-02  0.1184000E+00
        -11   -1    0    0    0    0  0.00000000000E+00  0.00000000000E+00  0.45593999997E+02  0.45594000000E+02  0.51100000000E-03 0. -1.
         11   -1    0    0    0    0 -0.00000000000E+00 -0.00000000000E+00 -0.45593999997E+02  0.45594000000E+02  0.51100000000E-03 0.  1.
         23    2    1    2    0    0 -0.44408920985E-15  0.00000000000E+00  0.00000000000E+00  0.91188000000E+02  0.91188000000E+02 0.  0.
    9900012    2    3    3    0    0 -0.21793759543E+01  0.19689035649E+02 -0.38616249799E+02  0.47787279351E+02  0.20000037872E+02 0.  0.
         12    1    3    3    0    0  0.21793759543E+01 -0.19689035649E+02  0.38616249799E+02  0.43400720649E+02  0.00000000000E+00 0. -1.
         11    1    4    4    0    0  0.31022450561E+01 -0.14524028171E+00 -0.17529218193E+02  0.17802205197E+02  0.51100000000E-03 0. -1.
        -11    1    4    4    0    0 -0.33758649378E+01  0.35689431196E+01 -0.55336080660E+01  0.73996376640E+01  0.51100000000E-03 0.  1.
         12    1    4    4    0    0 -0.19057560726E+01  0.16265332811E+02 -0.15553423539E+02  0.22585436490E+02  0.00000000000E+00 0. -1.
</event>
<event>
 8    1  0.2994958E-010  0.9118800E+02  0.7816164E-02  0.1184000E+00
        -11   -1    0    0    0    0  0.00000000000E+00  0.00000000000E+00  0.45593999997E+02  0.45594000000E+02  0.51100000000E-03 0. -1.
         11   -1    0    0    0    0 -0.00000000000E+00 -0.00000000000E+00 -0.45593999997E+02  0.45594000000E+02  0.51100000000E-03 0.  1.
         23    2    1    2    0    0  0.00000000000E+00 -0.17763568394E-14  0.00000000000E+00  0.91188000000E+02  0.91188000000E+02 0.  0.
    9900012    2    3    3    0    0 -0.36899338366E+02 -0.12723421176E+02  0.18978317168E+02  0.47787272577E+02  0.20000006988E+02 0.  0.
        -12    1    3    3    0    0  0.36899338366E+02  0.12723421176E+02 -0.18978317168E+02  0.43400727423E+02  0.00000000000E+00 0.  1.
         11    1    4    4    0    0 -0.52019208712E+00  0.12582461627E+01 -0.64084613983E+00  0.15048146894E+01  0.51100000000E-03 0. -1.
        -11    1    4    4    0    0 -0.10499572088E+02 -0.11487918885E+02  0.10301926643E+02  0.18663948863E+02  0.51100000000E-03 0.  1.
         12    1    4    4    0    0 -0.25879574191E+02 -0.24937484532E+01  0.93172366653E+01  0.27618509025E+02  0.00000000000E+00 0. -1.
</event>
<event>
 8    1  0.2994958E-010  0.9118800E+02  0.7816164E-02  0.1184000E+00
        -11   -1    0    0    0    0  0.00000000000E+00  0.00000000000E+00  0.45593999997E+02  0.45594000000E+02  0.51100000000E-03 0. -1.
         11   -1    0    0    0    0 -0.00000000000E+00 -0.00000000000E+00 -0.45593999997E+02  0.45594000000E+02  0.51100000000E-03 0.  1.
         23    2    1    2    0    0 -0.44408920985E-15  0.35527136788E-14  0.00000000000E+00  0.91188000000E+02  0.91188000000E+02 0.  0.
    9900012    2    3    3    0    0  0.23567558558E+01 -0.30729577134E+02 -0.30557496004E+02  0.47787288359E+02  0.20000078942E+02 0.  0.
         12    1    3    3    0    0 -0.23567558558E+01  0.30729577134E+02  0.30557496004E+02  0.43400711641E+02  0.00000000000E+00 0. -1.
         11    1    4    4    0    0 -0.22281898561E+01 -0.54795600871E+01 -0.39233614823E+00  0.59282659098E+01  0.51100000000E-03 0. -1.
        -11    1    4    4    0    0  0.13036664982E+00  0.13799338933E+01 -0.41100452509E+01  0.43374745231E+01  0.51100000000E-03 0.  1.
        -12    1    4    4    0    0  0.44545790620E+01 -0.26629950940E+02 -0.26055114604E+02  0.37521547926E+02  0.00000000000E+00 0.  1.
</event>
<event>
 8    1  0.2994958E-010  0.9118800E+02  0.7816164E-02  0.1184000E+00
        -11   -1    0    0    0    0  0.00000000000E+00  0.00000000000E+00  0.45593999997E+02  0.45594000000E+02  0.51100000000E-03 0. -1.
         11   -1    0    0    0    0 -0.00000000000E+00 -0.00000000000E+00 -0.45593999997E+02  0.45594000000E+02  0.51100000000E-03 0.  1.
         23    2    1    2    0    0  0.00000000000E+00  0.00000000000E+00  0.00000000000E+00  0.91188000000E+02  0.91188000000E+02 0.  0.
    9900012    2    3    3    0    0  0.20402597307E+02  0.18683199036E+01 -0.38260505889E+02  0.47787275271E+02  0.20000019269E+02 0.  0.
         12    1    3    3    0    0 -0.20402597307E+02 -0.18683199036E+01  0.38260505889E+02  0.43400724729E+02  0.00000000000E+00 0. -1.
         11    1    4    4    0    0  0.49886363184E+00 -0.85879513634E+00  0.20986366582E+01  0.23217816636E+01  0.51100000000E-03 0. -1.
        -11    1    4    4    0    0  0.58879184256E+01  0.30751956764E+01 -0.97440664351E+01  0.11792847103E+02  0.51100000000E-03 0.  1.
         12    1    4    4    0    0  0.14015815249E+02 -0.34808063645E+00 -0.30615076112E+02  0.33672646504E+02  0.00000000000E+00 0. -1.
</event>
<event>
 8    1  0.2994958E-010  0.9118800E+02  0.7816164E-02  0.1184000E+00
        -11   -1    0    0    0    0  0.00000000000E+00  0.00000000000E+00  0.45593999997E+02  0.45594000000E+02  0.51100000000E-03 0. -1.
         11   -1    0    0    0    0 -0.00000000000E+00 -0.00000000000E+00 -0.45593999997E+02  0.45594000000E+02  0.51100000000E-03 0.  1.
         23    2    1    2    0    0  0.00000000000E+00  0.17763568394E-14  0.17763568394E-14  0.91188000000E+02  0.91188000000E+02 0.  0.
    9900012    2    3    3    0    0  0.38145986765E+02 -0.14579883541E+02  0.14694690492E+02  0.47787271446E+02  0.20000001832E+02 0.  0.
        -12    1    3    3    0    0 -0.38145986765E+02  0.14579883541E+02 -0.14694690492E+02  0.43400728554E+02  0.00000000000E+00 0.  1.
         11    1    4    4    0    0  0.57064145873E+01 -0.66214997639E+01  0.76100625241E+01  0.11589671197E+02  0.51100000000E-03 0. -1.
        -11    1    4    4    0    0  0.11596111038E+02 -0.25720432438E+00  0.77791700646E+01  0.13966081499E+02  0.51100000000E-03 0.  1.
        -12    1    4    4    0    0  0.20843461140E+02 -0.77011794527E+01 -0.69454209686E+00  0.22231518751E+02  0.00000000000E+00 0.  1.
</event>
<event>
 8    1  0.4230213E-010  0.9118800E+02  0.7816164E-02  0.1184000E+00
        -11   -1    0    0    0    0  0.00000000000E+00  0.00000000000E+00  0.45593999997E+02  0.45594000000E+02  0.51100000000E-03 0. -1.
         11   -1    0    0    0    0 -0.00000000000E+00 -0.00000000000E+00 -0.45593999997E+02  0.45594000000E+02  0.51100000000E-03 0.  1.
         23    2    1    2    0    0  0.00000000000E+00  0.33306690739E-15  0.00000000000E+00  0.91188000000E+02  0.91188000000E+02 0.  0.
    9900012    2    3    3    0    0  0.89479065912E+01 -0.47237715124E+00  0.42465697762E+02  0.47787266608E+02  0.19999979773E+02 0.  0.
        -12    1    3    3    0    0 -0.89479065912E+01  0.47237715124E+00 -0.42465697762E+02  0.43400733392E+02  0.00000000000E+00 0.  1.
         11    1    4    4    0    0  0.38923600226E+01  0.42251073200E+01  0.62692681234E+01  0.85032771021E+01  0.51100000000E-03 0. -1.
        -11    1    4    4    0    0  0.33973479372E+01 -0.42700033520E+01  0.33710196682E+01  0.64139438333E+01  0.51100000000E-03 0.  1.
         12    1    4    4    0    0  0.16581986314E+01 -0.42748111928E+00  0.32825409970E+02  0.32870045673E+02  0.00000000000E+00 0. -1.
</event>
<event>
 8    1  0.2994958E-010  0.9118800E+02  0.7816164E-02  0.1184000E+00
        -11   -1    0    0    0    0  0.00000000000E+00  0.00000000000E+00  0.45593999997E+02  0.45594000000E+02  0.51100000000E-03 0. -1.
         11   -1    0    0    0    0 -0.00000000000E+00 -0.00000000000E+00 -0.45593999997E+02  0.45594000000E+02  0.51100000000E-03 0.  1.
         23    2    1    2    0    0  0.00000000000E+00  0.00000000000E+00  0.00000000000E+00  0.91188000000E+02  0.91188000000E+02 0.  0.
    9900012    2    3    3    0    0  0.74200282606E+01  0.21606032374E+02 -0.36901842423E+02  0.47787269263E+02  0.19999991876E+02 0.  0.
         12    1    3    3    0    0 -0.74200282606E+01 -0.21606032374E+02  0.36901842423E+02  0.43400730737E+02  0.00000000000E+00 0. -1.
         11    1    4    4    0    0 -0.65497013648E-01 -0.24113818616E+01  0.22374580874E+00  0.24226255983E+01  0.51100000000E-03 0. -1.
        -11    1    4    4    0    0  0.19497652042E+01  0.38828101397E+01 -0.27448751900E+01  0.51392741708E+01  0.51100000000E-03 0.  1.
        -12    1    4    4    0    0  0.55357600700E+01  0.20134604096E+02 -0.34380713041E+02  0.40225369494E+02  0.00000000000E+00 0.  1.
</event>
<event>
 8    1  0.2994958E-010  0.9118800E+02  0.7816164E-02  0.1184000E+00
        -11   -1    0    0    0    0  0.00000000000E+00  0.00000000000E+00  0.45593999997E+02  0.45594000000E+02  0.51100000000E-03 0. -1.
         11   -1    0    0    0    0 -0.00000000000E+00 -0.00000000000E+00 -0.45593999997E+02  0.45594000000E+02  0.51100000000E-03 0.  1.
         23    2    1    2    0    0  0.00000000000E+00  0.00000000000E+00  0.00000000000E+00  0.91188000000E+02  0.91188000000E+02 0.  0.
    9900012    2    3    3    0    0 -0.57453044314E+01  0.19155076595E+02  0.38518798073E+02  0.47787270889E+02  0.19999999292E+02 0.  0.
        -12    1    3    3    0    0  0.57453044314E+01 -0.19155076595E+02 -0.38518798073E+02  0.43400729111E+02  0.00000000000E+00 0.  1.
         11    1    4    4    0    0 -0.10597791965E+01  0.10633464052E+02  0.22514147610E+02  0.24921487366E+02  0.51100000000E-03 0. -1.
        -11    1    4    4    0    0 -0.76066895647E+00  0.94108215947E+01  0.16293222979E+02  0.18831125714E+02  0.51100000000E-03 0.  1.
        -12    1    4    4    0    0 -0.39248562784E+01 -0.88920905128E+00 -0.28857251565E+00  0.40346578095E+01  0.00000000000E+00 0.  1.
</event>
<event>
 8    1  0.2994958E-010  0.9118800E+02  0.7816164E-02  0.1184000E+00
        -11   -1    0    0    0    0  0.00000000000E+00  0.00000000000E+00  0.45593999997E+02  0.45594000000E+02  0.51100000000E-03 0. -1.
         11   -1    0    0    0    0 -0.00000000000E+00 -0.00000000000E+00 -0.45593999997E+02  0.45594000000E+02  0.51100000000E-03 0.  1.
         23    2    1    2    0    0  0.00000000000E+00  0.00000000000E+00  0.00000000000E+00  0.91188000000E+02  0.91188000000E+02 0.  0.
    9900012    2    3    3    0    0 -0.16074493203E+02  0.22011271383E+02 -0.33774809585E+02  0.47787272332E+02  0.20000005870E+02 0.  0.
         12    1    3    3    0    0  0.16074493203E+02 -0.22011271383E+02  0.33774809585E+02  0.43400727668E+02  0.00000000000E+00 0. -1.
         11    1    4    4    0    0 -0.10692779999E+01  0.11627284561E+02 -0.69784756657E+01  0.13602802086E+02  0.51100000000E-03 0. -1.
        -11    1    4    4    0    0 -0.90910271979E+01  0.10408726801E+02 -0.12196115438E+02  0.18431863746E+02  0.51100000000E-03 0.  1.
        -12    1    4    4    0    0 -0.59141880050E+01 -0.24739979172E-01 -0.14600218482E+02  0.15752606500E+02  0.00000000000E+00 0.  1.
</event>
<event>
 8    1  0.2994958E-010  0.9118800E+02  0.7816164E-02  0.1184000E+00
        -11   -1    0    0    0    0  0.00000000000E+00  0.00000000000E+00  0.45593999997E+02  0.45594000000E+02  0.51100000000E-03 0. -1.
         11   -1    0    0    0    0 -0.00000000000E+00 -0.00000000000E+00 -0.45593999997E+02  0.45594000000E+02  0.51100000000E-03 0.  1.
         23    2    1    2    0    0  0.00000000000E+00 -0.44408920985E-15  0.00000000000E+00  0.91188000000E+02  0.91188000000E+02 0.  0.
    9900012    2    3    3    0    0  0.30009246697E+02  0.22206106055E+01  0.31275178370E+02  0.47787276725E+02  0.20000025898E+02 0.  0.
        -12    1    3    3    0    0 -0.30009246697E+02 -0.22206106055E+01 -0.31275178370E+02  0.43400723275E+02  0.00000000000E+00 0.  1.
         11    1    4    4    0    0  0.11661478620E+02  0.23835698398E+01  0.12426858451E+02  0.17207507083E+02  0.51100000000E-03 0. -1.
        -11    1    4    4    0    0  0.20791709180E+02  0.59514251255E+00  0.18774017631E+02  0.28019869798E+02  0.51100000000E-03 0.  1.
        -12    1    4    4    0    0 -0.24439411037E+01 -0.75810174684E+00  0.74302287819E-01  0.25598998432E+01  0.00000000000E+00 0.  1.
</event>
<event>
 8    1  0.2994958E-010  0.9118800E+02  0.7816164E-02  0.1184000E+00
        -11   -1    0    0    0    0  0.00000000000E+00  0.00000000000E+00  0.45593999997E+02  0.45594000000E+02  0.51100000000E-03 0. -1.
         11   -1    0    0    0    0 -0.00000000000E+00 -0.00000000000E+00 -0.45593999997E+02  0.45594000000E+02  0.51100000000E-03 0.  1.
         23    2    1    2    0    0  0.00000000000E+00  0.00000000000E+00  0.00000000000E+00  0.91188000000E+02  0.91188000000E+02 0.  0.
    9900012    2    3    3    0    0  0.32324617648E+02 -0.12686310600E+02 -0.26034579435E+02  0.47787277551E+02  0.20000029667E+02 0.  0.
         12    1    3    3    0    0 -0.32324617648E+02  0.12686310600E+02  0.26034579435E+02  0.43400722449E+02  0.00000000000E+00 0. -1.
         11    1    4    4    0    0  0.10327565642E+02 -0.56472056092E+01 -0.73535760348E+00  0.11793654834E+02  0.51100000000E-03 0. -1.
        -11    1    4    4    0    0  0.59471079514E+01  0.18301867269E+01 -0.24291253757E+01  0.66796951123E+01  0.51100000000E-03 0.  1.
        -12    1    4    4    0    0  0.16049944055E+02 -0.88692917178E+01 -0.22870096455E+02  0.29313927605E+02  0.00000000000E+00 0.  1.
</event>
<event>
 8    1  0.2994958E-010  0.9118800E+02  0.7816164E-02  0.1184000E+00
        -11   -1    0    0    0    0  0.00000000000E+00  0.00000000000E+00  0.45593999997E+02  0.45594000000E+02  0.51100000000E-03 0. -1.
         11   -1    0    0    0    0 -0.00000000000E+00 -0.00000000000E+00 -0.45593999997E+02  0.45594000000E+02  0.51100000000E-03 0.  1.
         23    2    1    2    0    0  0.35527136788E-14  0.17763568394E-14  0.00000000000E+00  0.91188000000E+02  0.91188000000E+02 0.  0.
    9900012    2    3    3    0    0  0.30391028848E+02 -0.13220322704E+02 -0.28021986518E+02  0.47787270798E+02  0.19999998878E+02 0.  0.
         12    1    3    3    0    0 -0.30391028848E+02  0.13220322704E+02  0.28021986518E+02  0.43400729202E+02  0.00000000000E+00 0. -1.
         11    1    4    4    0    0 -0.19737826344E+00 -0.26806985564E+00 -0.41391164383E+00  0.53117109899E+00  0.51100000000E-03 0. -1.
        -11    1    4    4    0    0  0.94966250355E+01 -0.73909685199E+01 -0.21443078430E+02  0.24588979554E+02  0.51100000000E-03 0.  1.
         12    1    4    4    0    0  0.21091782076E+02 -0.55612843288E+01 -0.61649964442E+01  0.22667120145E+02  0.00000000000E+00 0. -1.
</event>
<event>
 8    1  0.2994958E-010  0.9118800E+02  0.7816164E-02  0.1184000E+00
        -11   -1    0    0    0    0  0.00000000000E+00  0.00000000000E+00  0.45593999997E+02  0.45594000000E+02  0.51100000000E-03 0. -1.
         11   -1    0    0    0    0 -0.00000000000E+00 -0.00000000000E+00 -0.45593999997E+02  0.45594000000E+02  0.51100000000E-03 0.  1.
         23    2    1    2    0    0 -0.17763568394E-14  0.00000000000E+00 -0.71054273576E-14  0.91188000000E+02  0.91188000000E+02 0.  0.
    9900012    2    3    3    0    0 -0.11391566269E+02 -0.14368231225E+02 -0.39337120405E+02  0.47787275440E+02  0.20000020041E+02 0.  0.
         12    1    3    3    0    0  0.11391566269E+02  0.14368231225E+02  0.39337120405E+02  0.43400724560E+02  0.00000000000E+00 0. -1.
         11    1    4    4    0    0 -0.12326693352E+01 -0.30070493922E+00  0.14835476844E+01  0.19521298993E+01  0.51100000000E-03 0. -1.
        -11    1    4    4    0    0 -0.22293268787E+01 -0.71202547209E+00 -0.20303934989E+00  0.23490644614E+01  0.51100000000E-03 0.  1.
        -12    1    4    4    0    0 -0.79295700550E+01 -0.13355500814E+02 -0.40617628739E+02  0.43486081079E+02  0.00000000000E+00 0.  1.
</event>
<event>
 8    1  0.2994958E-010  0.9118800E+02  0.7816164E-02  0.1184000E+00
        -11   -1    0    0    0    0  0.00000000000E+00  0.00000000000E+00  0.45593999997E+02  0.45594000000E+02  0.51100000000E-03 0.  1.
         11   -1    0    0    0    0 -0.00000000000E+00 -0.00000000000E+00 -0.45593999997E+02  0.45594000000E+02  0.51100000000E-03 0. -1.
         23    2    1    2    0    0  0.00000000000E+00  0.00000000000E+00  0.00000000000E+00  0.91188000000E+02  0.91188000000E+02 0.  0.
    9900012    2    3    3    0    0  0.35058555770E+02  0.22459330854E+02  0.12251518555E+02  0.47787267494E+02  0.19999983814E+02 0.  0.
         12    1    3    3    0    0 -0.35058555770E+02 -0.22459330854E+02 -0.12251518555E+02  0.43400732506E+02  0.00000000000E+00 0. -1.
         11    1    4    4    0    0  0.23025878542E+02  0.16139385725E+02  0.47599542035E+01  0.28518906334E+02  0.51100000000E-03 0. -1.
        -11    1    4    4    0    0  0.83387654600E+01  0.93533506652E+01  0.34189625597E+01  0.12988821475E+02  0.51100000000E-03 0.  1.
         12    1    4    4    0    0  0.36939117688E+01 -0.30334055364E+01  0.40726017920E+01  0.62795396854E+01  0.00000000000E+00 0. -1.
</event>
<event>
 8    1  0.2994958E-010  0.9118800E+02  0.7816164E-02  0.1184000E+00
        -11   -1    0    0    0    0  0.00000000000E+00  0.00000000000E+00  0.45593999997E+02  0.45594000000E+02  0.51100000000E-03 0. -1.
         11   -1    0    0    0    0 -0.00000000000E+00 -0.00000000000E+00 -0.45593999997E+02  0.45594000000E+02  0.51100000000E-03 0.  1.
         23    2    1    2    0    0  0.00000000000E+00 -0.35527136788E-14 -0.71054273576E-14  0.91188000000E+02  0.91188000000E+02 0.  0.
    9900012    2    3    3    0    0 -0.14435714900E+02 -0.17171936164E+02  0.37153172378E+02  0.47787268738E+02  0.19999989485E+02 0.  0.
        -12    1    3    3    0    0  0.14435714900E+02  0.17171936164E+02 -0.37153172378E+02  0.43400731262E+02  0.00000000000E+00 0.  1.
         11    1    4    4    0    0 -0.20428949346E+01 -0.10954120802E+02  0.16468248339E+02  0.19883897653E+02  0.51100000000E-03 0.  1.
        -11    1    4    4    0    0 -0.12737969137E+02 -0.82933899922E+01  0.20839282557E+02  0.25793640167E+02  0.51100000000E-03 0. -1.
        -12    1    4    4    0    0  0.34514917225E+00  0.20755746298E+01 -0.15435851806E+00  0.21097309181E+01  0.00000000000E+00 0.  1.
</event>
<event>
 8    1  0.2994958E-010  0.9118800E+02  0.7816164E-02  0.1184000E+00
        -11   -1    0    0    0    0  0.00000000000E+00  0.00000000000E+00  0.45593999997E+02  0.45594000000E+02  0.51100000000E-03 0. -1.
         11   -1    0    0    0    0 -0.00000000000E+00 -0.00000000000E+00 -0.45593999997E+02  0.45594000000E+02  0.51100000000E-03 0.  1.
         23    2    1    2    0    0  0.35527136788E-14  0.00000000000E+00  0.00000000000E+00  0.91188000000E+02  0.91188000000E+02 0.  0.
    9900012    2    3    3    0    0 -0.18414931678E+02 -0.20196109384E+02  0.33713956231E+02  0.47787269733E+02  0.19999994022E+02 0.  0.
        -12    1    3    3    0    0  0.18414931678E+02  0.20196109384E+02 -0.33713956231E+02  0.43400730267E+02  0.00000000000E+00 0.  1.
         11    1    4    4    0    0 -0.69005905405E+01 -0.41743207509E+01  0.94789412970E+01  0.12445618985E+02  0.51100000000E-03 0. -1.
        -11    1    4    4    0    0 -0.52987360440E+01 -0.50149062739E+00 -0.65008054818E+00  0.53619680616E+01  0.51100000000E-03 0.  1.
        -12    1    4    4    0    0 -0.62156050932E+01 -0.15520298006E+02  0.24885095482E+02  0.29979682687E+02  0.00000000000E+00 0.  1.
</event>
<event>
 8    1  0.2994958E-010  0.9118800E+02  0.7816164E-02  0.1184000E+00
        -11   -1    0    0    0    0  0.00000000000E+00  0.00000000000E+00  0.45593999997E+02  0.45594000000E+02  0.51100000000E-03 0.  1.
         11   -1    0    0    0    0 -0.00000000000E+00 -0.00000000000E+00 -0.45593999997E+02  0.45594000000E+02  0.51100000000E-03 0. -1.
         23    2    1    2    0    0  0.00000000000E+00  0.35527136788E-14  0.88817841970E-15  0.91188000000E+02  0.91188000000E+02 0.  0.
    9900012    2    3    3    0    0  0.30742875331E+02 -0.30084866677E+02 -0.57792381672E+01  0.47787272121E+02  0.20000004910E+02 0.  0.
         12    1    3    3    0    0 -0.30742875331E+02  0.30084866677E+02  0.57792381672E+01  0.43400727879E+02  0.00000000000E+00 0. -1.
         11    1    4    4    0    0  0.46054262044E+01 -0.69009929854E+01  0.32174305806E+01  0.88986243044E+01  0.51100000000E-03 0. -1.
        -11    1    4    4    0    0  0.21533751022E+02 -0.24183341286E+02 -0.51110173178E+01  0.32781990896E+02  0.51100000000E-03 0.  1.
         12    1    4    4    0    0  0.46036981051E+01  0.99946759411E+00 -0.38856514300E+01  0.61066569210E+01  0.00000000000E+00 0. -1.
</event>
<event>
 8    1  0.2994958E-010  0.9118800E+02  0.7816164E-02  0.1184000E+00
        -11   -1    0    0    0    0  0.00000000000E+00  0.00000000000E+00  0.45593999997E+02  0.45594000000E+02  0.51100000000E-03 0. -1.
         11   -1    0    0    0    0 -0.00000000000E+00 -0.00000000000E+00 -0.45593999997E+02  0.45594000000E+02  0.51100000000E-03 0.  1.
         23    2    1    2    0    0  0.00000000000E+00  0.17763568394E-14 -0.17763568394E-14  0.91188000000E+02  0.91188000000E+02 0.  0.
    9900012    2    3    3    0    0  0.38465431266E+02  0.15116100759E+02 -0.13249026735E+02  0.47787278646E+02  0.20000034657E+02 0.  0.
         12    1    3    3    0    0 -0.38465431266E+02 -0.15116100759E+02  0.13249026735E+02  0.43400721354E+02  0.00000000000E+00 0. -1.
         11    1    4    4    0    0  0.13359084111E+02 -0.37431305245E+01 -0.65598118503E+01  0.15346246648E+02  0.51100000000E-03 0. -1.
        -11    1    4    4    0    0  0.11225954059E+02  0.55973500982E+01 -0.24481942404E+01  0.12780689651E+02  0.51100000000E-03 0.  1.
         12    1    4    4    0    0  0.13880393096E+02  0.13261881185E+02 -0.42410206443E+01  0.19660342346E+02  0.00000000000E+00 0. -1.
</event>
<event>
 8    1  0.2994958E-010  0.9118800E+02  0.7816164E-02  0.1184000E+00
        -11   -1    0    0    0    0  0.00000000000E+00  0.00000000000E+00  0.45593999997E+02  0.45594000000E+02  0.51100000000E-03 0. -1.
         11   -1    0    0    0    0 -0.00000000000E+00 -0.00000000000E+00 -0.45593999997E+02  0.45594000000E+02  0.51100000000E-03 0.  1.
         23    2    1    2    0    0  0.00000000000E+00  0.00000000000E+00  0.00000000000E+00  0.91188000000E+02  0.91188000000E+02 0.  0.
    9900012    2    3    3    0    0  0.19848812312E+02 -0.26384022292E+02  0.28169724213E+02  0.47787247187E+02  0.19999891224E+02 0.  0.
        -12    1    3    3    0    0 -0.19848812312E+02  0.26384022292E+02 -0.28169724213E+02  0.43400752813E+02  0.00000000000E+00 0.  1.
         11    1    4    4    0    0  0.14902348007E+01  0.20803950488E+01  0.68976243675E+00  0.26503991776E+01  0.51100000000E-03 0. -1.
        -11    1    4    4    0    0  0.67573903954E+01 -0.25011240240E+01  0.38882878763E+01  0.81875960580E+01  0.51100000000E-03 0.  1.
         12    1    4    4    0    0  0.11601187116E+02 -0.25963293316E+02  0.23591673900E+02  0.36949251951E+02  0.00000000000E+00 0. -1.
</event>
<event>
 8    1  0.2994958E-010  0.9118800E+02  0.7816164E-02  0.1184000E+00
        -11   -1    0    0    0    0  0.00000000000E+00  0.00000000000E+00  0.45593999997E+02  0.45594000000E+02  0.51100000000E-03 0. -1.
         11   -1    0    0    0    0 -0.00000000000E+00 -0.00000000000E+00 -0.45593999997E+02  0.45594000000E+02  0.51100000000E-03 0.  1.
         23    2    1    2    0    0  0.00000000000E+00  0.00000000000E+00  0.00000000000E+00  0.91188000000E+02  0.91188000000E+02 0.  0.
    9900012    2    3    3    0    0 -0.13278038035E+02 -0.32867292068E+02  0.25041127622E+02  0.47787271267E+02  0.20000001015E+02 0.  0.
        -12    1    3    3    0    0  0.13278038035E+02  0.32867292068E+02 -0.25041127622E+02  0.43400728733E+02  0.00000000000E+00 0.  1.
         11    1    4    4    0    0 -0.10438727402E+02 -0.44139111968E+01  0.62605140109E+01  0.12947728672E+02  0.51100000000E-03 0. -1.
        -11    1    4    4    0    0 -0.13012903940E+01 -0.86289714272E+01  0.94893581140E+01  0.12891874273E+02  0.51100000000E-03 0.  1.
        -12    1    4    4    0    0 -0.15380202387E+01 -0.19824409444E+02  0.92912554974E+01  0.21947668322E+02  0.00000000000E+00 0.  1.
</event>
<event>
 8    1  0.2994958E-010  0.9118800E+02  0.7816164E-02  0.1184000E+00
        -11   -1    0    0    0    0  0.00000000000E+00  0.00000000000E+00  0.45593999997E+02  0.45594000000E+02  0.51100000000E-03 0. -1.
         11   -1    0    0    0    0 -0.00000000000E+00 -0.00000000000E+00 -0.45593999997E+02  0.45594000000E+02  0.51100000000E-03 0.  1.
         23    2    1    2    0    0 -0.22204460493E-14  0.00000000000E+00  0.71054273576E-14  0.91188000000E+02  0.91188000000E+02 0.  0.
    9900012    2    3    3    0    0  0.32077562062E+01 -0.27759776134E+02 -0.33207365770E+02  0.47787262538E+02  0.19999961214E+02 0.  0.
         12    1    3    3    0    0 -0.32077562062E+01  0.27759776134E+02  0.33207365770E+02  0.43400737462E+02  0.00000000000E+00 0. -1.
         11    1    4    4    0    0  0.15810211757E+00 -0.73989139446E+01 -0.44387131634E+01  0.86296638780E+01  0.51100000000E-03 0. -1.
        -11    1    4    4    0    0  0.92306580600E+01 -0.13850813033E+02 -0.13438975558E+02  0.21392899153E+02  0.51100000000E-03 0.  1.
         12    1    4    4    0    0 -0.61810039714E+01 -0.65100491569E+01 -0.15329677049E+02  0.17764699506E+02  0.00000000000E+00 0. -1.
</event>
<event>
 8    1  0.2994958E-010  0.9118800E+02  0.7816164E-02  0.1184000E+00
        -11   -1    0    0    0    0  0.00000000000E+00  0.00000000000E+00  0.45593999997E+02  0.45594000000E+02  0.51100000000E-03 0. -1.
         11   -1    0    0    0    0 -0.00000000000E+00 -0.00000000000E+00 -0.45593999997E+02  0.45594000000E+02  0.51100000000E-03 0.  1.
         23    2    1    2    0    0 -0.14210854715E-13  0.11102230246E-15  0.00000000000E+00  0.91188000000E+02  0.91188000000E+02 0.  0.
    9900012    2    3    3    0    0  0.36516638365E+02 -0.62701710483E-01  0.23455382132E+02  0.47787265444E+02  0.19999974467E+02 0.  0.
        -12    1    3    3    0    0 -0.36516638365E+02  0.62701710483E-01 -0.23455382132E+02  0.43400734556E+02  0.00000000000E+00 0.  1.
         11    1    4    4    0    0  0.10114174619E+02  0.31075528043E+01  0.27320312076E+01  0.10927827206E+02  0.51100000000E-03 0. -1.
        -11    1    4    4    0    0  0.27964706995E+02 -0.12879325349E+01  0.19559471952E+02  0.34150498545E+02  0.51100000000E-03 0.  1.
        -12    1    4    4    0    0 -0.15622432488E+01 -0.18823219799E+01  0.11638789720E+01  0.27089396940E+01  0.00000000000E+00 0.  1.
</event>
<event>
 8    1  0.2994958E-010  0.9118800E+02  0.7816164E-02  0.1184000E+00
        -11   -1    0    0    0    0  0.00000000000E+00  0.00000000000E+00  0.45593999997E+02  0.45594000000E+02  0.51100000000E-03 0. -1.
         11   -1    0    0    0    0 -0.00000000000E+00 -0.00000000000E+00 -0.45593999997E+02  0.45594000000E+02  0.51100000000E-03 0.  1.
         23    2    1    2    0    0  0.00000000000E+00  0.88817841970E-15  0.71054273576E-14  0.91188000000E+02  0.91188000000E+02 0.  0.
    9900012    2    3    3    0    0 -0.26889321681E+02  0.76445716331E+01 -0.33198613418E+02  0.47787273868E+02  0.20000012875E+02 0.  0.
         12    1    3    3    0    0  0.26889321681E+02 -0.76445716331E+01  0.33198613418E+02  0.43400726132E+02  0.00000000000E+00 0. -1.
         11    1    4    4    0    0 -0.17567196118E+02  0.69965992717E+00 -0.18924109038E+02  0.25830559548E+02  0.51100000000E-03 0.  1.
        -11    1    4    4    0    0  0.10963443685E+01 -0.24136644186E+01 -0.18235748680E+01  0.32176346064E+01  0.51100000000E-03 0. -1.
        -12    1    4    4    0    0 -0.10418469931E+02  0.93585761246E+01 -0.12450929512E+02  0.18739079714E+02  0.00000000000E+00 0.  1.
</event>
<event>
 8    1  0.2994958E-010  0.9118800E+02  0.7816164E-02  0.1184000E+00
        -11   -1    0    0    0    0  0.00000000000E+00  0.00000000000E+00  0.45593999997E+02  0.45594000000E+02  0.51100000000E-03 0. -1.
         11   -1    0    0    0    0 -0.00000000000E+00 -0.00000000000E+00 -0.45593999997E+02  0.45594000000E+02  0.51100000000E-03 0.  1.
         23    2    1    2    0    0  0.00000000000E+00  0.00000000000E+00 -0.71054273576E-14  0.91188000000E+02  0.91188000000E+02 0.  0.
    9900012    2    3    3    0    0  0.15177477644E+01  0.52688323422E+01  0.43052966242E+02  0.47787285089E+02  0.20000064035E+02 0.  0.
        -12    1    3    3    0    0 -0.15177477644E+01 -0.52688323422E+01 -0.43052966242E+02  0.43400714911E+02  0.00000000000E+00 0.  1.
         11    1    4    4    0    0  0.11626598206E+01  0.20432531813E+01 -0.12156523328E+01  0.26465963569E+01  0.51100000000E-03 0.  1.
        -11    1    4    4    0    0 -0.37201329088E+00  0.18468709634E+01  0.16820123159E+01  0.25255676463E+01  0.51100000000E-03 0. -1.
         12    1    4    4    0    0  0.72710123465E+00  0.13787081975E+01  0.42586606259E+02  0.42615121086E+02  0.00000000000E+00 0. -1.
</event>
<event>
 8    1  0.3773181E-010  0.9118800E+02  0.7816164E-02  0.1184000E+00
        -11   -1    0    0    0    0  0.00000000000E+00  0.00000000000E+00  0.45593999997E+02  0.45594000000E+02  0.51100000000E-03 0. -1.
         11   -1    0    0    0    0 -0.00000000000E+00 -0.00000000000E+00 -0.45593999997E+02  0.45594000000E+02  0.51100000000E-03 0.  1.
         23    2    1    2    0    0  0.00000000000E+00  0.00000000000E+00  0.00000000000E+00  0.91188000000E+02  0.91188000000E+02 0.  0.
    9900012    2    3    3    0    0  0.19156919758E+02 -0.11225189499E+02  0.37291162450E+02  0.47787271311E+02  0.20000001215E+02 0.  0.
        -12    1    3    3    0    0 -0.19156919758E+02  0.11225189499E+02 -0.37291162450E+02  0.43400728689E+02  0.00000000000E+00 0.  1.
         11    1    4    4    0    0  0.11435286051E+01  0.89670676795E+00 -0.12814376187E+01  0.19374786012E+01  0.51100000000E-03 0. -1.
        -11    1    4    4    0    0  0.38154669134E+01 -0.79090225824E+01  0.79998609998E+01  0.11878897350E+02  0.51100000000E-03 0.  1.
         12    1    4    4    0    0  0.14197924239E+02 -0.42128736846E+01  0.30572739068E+02  0.33970895360E+02  0.00000000000E+00 0. -1.
</event>
<event>
 8    1  0.2994958E-010  0.9118800E+02  0.7816164E-02  0.1184000E+00
        -11   -1    0    0    0    0  0.00000000000E+00  0.00000000000E+00  0.45593999997E+02  0.45594000000E+02  0.51100000000E-03 0. -1.
         11   -1    0    0    0    0 -0.00000000000E+00 -0.00000000000E+00 -0.45593999997E+02  0.45594000000E+02  0.51100000000E-03 0.  1.
         23    2    1    2    0    0  0.44408920985E-15  0.00000000000E+00 -0.71054273576E-14  0.91188000000E+02  0.91188000000E+02 0.  0.
    9900012    2    3    3    0    0  0.33024507202E+01  0.17028053614E+02  0.39783939500E+02  0.47787278431E+02  0.20000033676E+02 0.  0.
        -12    1    3    3    0    0 -0.33024507202E+01 -0.17028053614E+02 -0.39783939500E+02  0.43400721569E+02  0.00000000000E+00 0.  1.
         11    1    4    4    0    0  0.48198373920E+01  0.92209418689E+01  0.21953978384E+02  0.24294727176E+02  0.51100000000E-03 0. -1.
        -11    1    4    4    0    0  0.40469608028E+01  0.85989927945E+01  0.94502719928E+01  0.13402544901E+02  0.51100000000E-03 0.  1.
        -12    1    4    4    0    0 -0.55643474747E+01 -0.79188104927E+00  0.83796891228E+01  0.10090006353E+02  0.00000000000E+00 0.  1.
</event>
<event>
 8    1  0.3199887E-010  0.9118800E+02  0.7816164E-02  0.1184000E+00
        -11   -1    0    0    0    0  0.00000000000E+00  0.00000000000E+00  0.45593999997E+02  0.45594000000E+02  0.51100000000E-03 0. -1.
         11   -1    0    0    0    0 -0.00000000000E+00 -0.00000000000E+00 -0.45593999997E+02  0.45594000000E+02  0.51100000000E-03 0.  1.
         23    2    1    2    0    0  0.00000000000E+00 -0.11102230246E-14  0.35527136788E-14  0.91188000000E+02  0.91188000000E+02 0.  0.
    9900012    2    3    3    0    0  0.33114585803E+02  0.11421091790E+01  0.28031112784E+02  0.47787268552E+02  0.19999988637E+02 0.  0.
        -12    1    3    3    0    0 -0.33114585803E+02 -0.11421091790E+01 -0.28031112784E+02  0.43400731448E+02  0.00000000000E+00 0.  1.
         11    1    4    4    0    0  0.10933893401E+02  0.36835334310E+01  0.40284981100E+01  0.12220770873E+02  0.51100000000E-03 0. -1.
        -11    1    4    4    0    0  0.64083868552E+01  0.49970246813E+01  0.41854843442E+01  0.91408947706E+01  0.51100000000E-03 0.  1.
         12    1    4    4    0    0  0.15772305547E+02 -0.75384489332E+01  0.19817130330E+02  0.26425602909E+02  0.00000000000E+00 0. -1.
</event>
<event>
 8    1  0.2994958E-010  0.9118800E+02  0.7816164E-02  0.1184000E+00
        -11   -1    0    0    0    0  0.00000000000E+00  0.00000000000E+00  0.45593999997E+02  0.45594000000E+02  0.51100000000E-03 0. -1.
         11   -1    0    0    0    0 -0.00000000000E+00 -0.00000000000E+00 -0.45593999997E+02  0.45594000000E+02  0.51100000000E-03 0.  1.
         23    2    1    2    0    0  0.35527136788E-14 -0.99920072216E-15 -0.71054273576E-14  0.91188000000E+02  0.91188000000E+02 0.  0.
    9900012    2    3    3    0    0 -0.26170859471E+02  0.22664240664E+00  0.34621644983E+02  0.47787267822E+02  0.19999985307E+02 0.  0.
        -12    1    3    3    0    0  0.26170859471E+02 -0.22664240664E+00 -0.34621644983E+02  0.43400732178E+02  0.00000000000E+00 0.  1.
         11    1    4    4    0    0 -0.12664686760E+02  0.79027542737E+01  0.10280480873E+02  0.18125564904E+02  0.51100000000E-03 0. -1.
        -11    1    4    4    0    0  0.15348732519E+00  0.83465705323E+00  0.10314325492E+01  0.13356886315E+01  0.51100000000E-03 0.  1.
        -12    1    4    4    0    0 -0.13659660036E+02 -0.85107689203E+01  0.23309731561E+02  0.28326014286E+02  0.00000000000E+00 0.  1.
</event>
<event>
 8    1  0.2994958E-010  0.9118800E+02  0.7816164E-02  0.1184000E+00
        -11   -1    0    0    0    0  0.00000000000E+00  0.00000000000E+00  0.45593999997E+02  0.45594000000E+02  0.51100000000E-03 0. -1.
         11   -1    0    0    0    0 -0.00000000000E+00 -0.00000000000E+00 -0.45593999997E+02  0.45594000000E+02  0.51100000000E-03 0.  1.
         23    2    1    2    0    0 -0.17763568394E-14  0.00000000000E+00  0.00000000000E+00  0.91188000000E+02  0.91188000000E+02 0.  0.
    9900012    2    3    3    0    0 -0.87586969352E+01 -0.14174642709E+02  0.40074780539E+02  0.47787270706E+02  0.19999998458E+02 0.  0.
        -12    1    3    3    0    0  0.87586969352E+01  0.14174642709E+02 -0.40074780539E+02  0.43400729294E+02  0.00000000000E+00 0.  1.
         11    1    4    4    0    0 -0.58731536081E+00 -0.74363143784E+01  0.88282121193E+01  0.11557726435E+02  0.51100000000E-03 0. -1.
        -11    1    4    4    0    0 -0.21365002605E+01 -0.69750166385E+00 -0.12898634054E+01  0.25913104407E+01  0.51100000000E-03 0.  1.
        -12    1    4    4    0    0 -0.60348813138E+01 -0.60408266673E+01  0.32536431825E+02  0.33638233830E+02  0.00000000000E+00 0.  1.
</event>
<event>
 8    1  0.2994958E-010  0.9118800E+02  0.7816164E-02  0.1184000E+00
        -11   -1    0    0    0    0  0.00000000000E+00  0.00000000000E+00  0.45593999997E+02  0.45594000000E+02  0.51100000000E-03 0. -1.
         11   -1    0    0    0    0 -0.00000000000E+00 -0.00000000000E+00 -0.45593999997E+02  0.45594000000E+02  0.51100000000E-03 0.  1.
         23    2    1    2    0    0 -0.35527136788E-14  0.35527136788E-14  0.00000000000E+00  0.91188000000E+02  0.91188000000E+02 0.  0.
    9900012    2    3    3    0    0  0.25213218840E+02 -0.25962278609E+02  0.23955730640E+02  0.47787270221E+02  0.19999996248E+02 0.  0.
        -12    1    3    3    0    0 -0.25213218840E+02  0.25962278609E+02 -0.23955730640E+02  0.43400729779E+02  0.00000000000E+00 0.  1.
         11    1    4    4    0    0  0.85552965746E+01 -0.94855015888E+01  0.94982655038E+01  0.15918067964E+02  0.51100000000E-03 0. -1.
        -11    1    4    4    0    0  0.10815068254E+02 -0.89337769798E+01 -0.60304897160E+00  0.14040717246E+02  0.51100000000E-03 0.  1.
        -12    1    4    4    0    0  0.58428540109E+01 -0.75430000404E+01  0.15060514108E+02  0.17828485011E+02  0.00000000000E+00 0.  1.
</event>
<event>
 8    1  0.2994958E-010  0.9118800E+02  0.7816164E-02  0.1184000E+00
        -11   -1    0    0    0    0  0.00000000000E+00  0.00000000000E+00  0.45593999997E+02  0.45594000000E+02  0.51100000000E-03 0. -1.
         11   -1    0    0    0    0 -0.00000000000E+00 -0.00000000000E+00 -0.45593999997E+02  0.45594000000E+02  0.51100000000E-03 0.  1.
         23    2    1    2    0    0  0.00000000000E+00  0.35527136788E-14  0.00000000000E+00  0.91188000000E+02  0.91188000000E+02 0.  0.
    9900012    2    3    3    0    0 -0.20026499864E+02  0.19422638284E+02 -0.33246405251E+02  0.47787273775E+02  0.20000012452E+02 0.  0.
         12    1    3    3    0    0  0.20026499864E+02 -0.19422638284E+02  0.33246405251E+02  0.43400726225E+02  0.00000000000E+00 0. -1.
         11    1    4    4    0    0  0.20417017612E+01  0.74048535903E-01 -0.13248953123E+01  0.24350312354E+01  0.51100000000E-03 0. -1.
        -11    1    4    4    0    0 -0.19797889165E+01  0.66021463302E+01 -0.13869251691E+02  0.15487544772E+02  0.51100000000E-03 0.  1.
        -12    1    4    4    0    0 -0.20088412709E+02  0.12746443418E+02 -0.18052258247E+02  0.29864697768E+02  0.00000000000E+00 0.  1.
</event>
<event>
 8    1  0.2994958E-010  0.9118800E+02  0.7816164E-02  0.1184000E+00
        -11   -1    0    0    0    0  0.00000000000E+00  0.00000000000E+00  0.45593999997E+02  0.45594000000E+02  0.51100000000E-03 0. -1.
         11   -1    0    0    0    0 -0.00000000000E+00 -0.00000000000E+00 -0.45593999997E+02  0.45594000000E+02  0.51100000000E-03 0.  1.
         23    2    1    2    0    0  0.00000000000E+00 -0.71054273576E-14  0.00000000000E+00  0.91188000000E+02  0.91188000000E+02 0.  0.
    9900012    2    3    3    0    0 -0.83154150587E+01  0.22368198807E+02  0.36251084872E+02  0.47787267289E+02  0.19999982879E+02 0.  0.
        -12    1    3    3    0    0  0.83154150587E+01 -0.22368198807E+02 -0.36251084872E+02  0.43400732711E+02  0.00000000000E+00 0.  1.
         11    1    4    4    0    0 -0.47747341647E+01  0.59814799791E+01  0.88853036690E+01  0.11727097281E+02  0.51100000000E-03 0. -1.
        -11    1    4    4    0    0 -0.87716780796E+01  0.12793404920E+02  0.12586089848E+02  0.19975565166E+02  0.51100000000E-03 0.  1.
         12    1    4    4    0    0  0.52309971856E+01  0.35933139076E+01  0.14779691355E+02  0.16084604843E+02  0.00000000000E+00 0. -1.
</event>
<event>
 8    1  0.2994958E-010  0.9118800E+02  0.7816164E-02  0.1184000E+00
        -11   -1    0    0    0    0  0.00000000000E+00  0.00000000000E+00  0.45593999997E+02  0.45594000000E+02  0.51100000000E-03 0. -1.
         11   -1    0    0    0    0 -0.00000000000E+00 -0.00000000000E+00 -0.45593999997E+02  0.45594000000E+02  0.51100000000E-03 0.  1.
         23    2    1    2    0    0  0.00000000000E+00  0.00000000000E+00 -0.71054273576E-14  0.91188000000E+02  0.91188000000E+02 0.  0.
    9900012    2    3    3    0    0  0.23617434044E+02  0.68918009343E+01  0.35753924786E+02  0.47787271336E+02  0.20000001329E+02 0.  0.
        -12    1    3    3    0    0 -0.23617434044E+02 -0.68918009343E+01 -0.35753924786E+02  0.43400728664E+02  0.00000000000E+00 0.  1.
         11    1    4    4    0    0  0.14284490294E+02 -0.14512296101E+01  0.18854014543E+02  0.23698662304E+02  0.51100000000E-03 0. -1.
        -11    1    4    4    0    0  0.62086992408E+01  0.42351480344E+01  0.17350196410E+02  0.18908033765E+02  0.51100000000E-03 0.  1.
        -12    1    4    4    0    0  0.31242445092E+01  0.41078825100E+01 -0.45028616607E+00  0.51805752673E+01  0.00000000000E+00 0.  1.
</event>
<event>
 8    1  0.2994958E-010  0.9118800E+02  0.7816164E-02  0.1184000E+00
        -11   -1    0    0    0    0  0.00000000000E+00  0.00000000000E+00  0.45593999997E+02  0.45594000000E+02  0.51100000000E-03 0. -1.
         11   -1    0    0    0    0 -0.00000000000E+00 -0.00000000000E+00 -0.45593999997E+02  0.45594000000E+02  0.51100000000E-03 0.  1.
         23    2    1    2    0    0  0.00000000000E+00  0.00000000000E+00  0.00000000000E+00  0.91188000000E+02  0.91188000000E+02 0.  0.
    9900012    2    3    3    0    0 -0.10032577239E+02 -0.39790888057E+02  0.14129961458E+02  0.47787272020E+02  0.20000004447E+02 0.  0.
        -12    1    3    3    0    0  0.10032577239E+02  0.39790888057E+02 -0.14129961458E+02  0.43400727980E+02  0.00000000000E+00 0.  1.
         11    1    4    4    0    0 -0.14742625966E+01 -0.10530554384E+02  0.50574044924E+01  0.11774691771E+02  0.51100000000E-03 0. -1.
        -11    1    4    4    0    0 -0.10327014046E+02 -0.80265742891E+01  0.63315915298E+00  0.13094808311E+02  0.51100000000E-03 0.  1.
         12    1    4    4    0    0  0.17686994037E+01 -0.21233759383E+02  0.84393978129E+01  0.22917771937E+02  0.00000000000E+00 0. -1.
</event>
<event>
 8    1  0.2994958E-010  0.9118800E+02  0.7816164E-02  0.1184000E+00
        -11   -1    0    0    0    0  0.00000000000E+00  0.00000000000E+00  0.45593999997E+02  0.45594000000E+02  0.51100000000E-03 0. -1.
         11   -1    0    0    0    0 -0.00000000000E+00 -0.00000000000E+00 -0.45593999997E+02  0.45594000000E+02  0.51100000000E-03 0.  1.
         23    2    1    2    0    0  0.00000000000E+00  0.00000000000E+00  0.00000000000E+00  0.91188000000E+02  0.91188000000E+02 0.  0.
    9900012    2    3    3    0    0  0.13350213948E+02 -0.16092380437E+02  0.38031968575E+02  0.47787267814E+02  0.19999985270E+02 0.  0.
        -12    1    3    3    0    0 -0.13350213948E+02  0.16092380437E+02 -0.38031968575E+02  0.43400732186E+02  0.00000000000E+00 0.  1.
         11    1    4    4    0    0 -0.96265816758E+00 -0.22340311345E+01  0.68190853927E+01  0.72399952839E+01  0.51100000000E-03 0. -1.
        -11    1    4    4    0    0  0.17620762296E+02 -0.14095414328E+02  0.27216141395E+02  0.35353787939E+02  0.51100000000E-03 0.  1.
        -12    1    4    4    0    0 -0.33078901809E+01  0.23706502516E+00  0.39967417878E+01  0.51934845906E+01  0.00000000000E+00 0.  1.
</event>
<event>
 8    1  0.2994958E-010  0.9118800E+02  0.7816164E-02  0.1184000E+00
        -11   -1    0    0    0    0  0.00000000000E+00  0.00000000000E+00  0.45593999997E+02  0.45594000000E+02  0.51100000000E-03 0. -1.
         11   -1    0    0    0    0 -0.00000000000E+00 -0.00000000000E+00 -0.45593999997E+02  0.45594000000E+02  0.51100000000E-03 0.  1.
         23    2    1    2    0    0 -0.17763568394E-14  0.17763568394E-14 -0.71054273576E-14  0.91188000000E+02  0.91188000000E+02 0.  0.
    9900012    2    3    3    0    0  0.14446193416E+02 -0.90408345299E+01  0.39914836694E+02  0.47787269805E+02  0.19999994347E+02 0.  0.
        -12    1    3    3    0    0 -0.14446193416E+02  0.90408345299E+01 -0.39914836694E+02  0.43400730195E+02  0.00000000000E+00 0.  1.
         11    1    4    4    0    0  0.13582024307E+02 -0.66789777097E+01  0.22424524509E+02  0.27054379077E+02  0.51100000000E-03 0.  1.
        -11    1    4    4    0    0  0.17415415477E+01 -0.31522497063E+01  0.18699262925E+02  0.19042901023E+02  0.51100000000E-03 0. -1.
        -12    1    4    4    0    0 -0.87737243889E+00  0.79039288602E+00 -0.12089507399E+01  0.16899897048E+01  0.00000000000E+00 0.  1.
</event>
<event>
 8    1  0.2994958E-010  0.9118800E+02  0.7816164E-02  0.1184000E+00
        -11   -1    0    0    0    0  0.00000000000E+00  0.00000000000E+00  0.45593999997E+02  0.45594000000E+02  0.51100000000E-03 0. -1.
         11   -1    0    0    0    0 -0.00000000000E+00 -0.00000000000E+00 -0.45593999997E+02  0.45594000000E+02  0.51100000000E-03 0.  1.
         23    2    1    2    0    0  0.17763568394E-14  0.00000000000E+00 -0.71054273576E-14  0.91188000000E+02  0.91188000000E+02 0.  0.
    9900012    2    3    3    0    0  0.13306147663E+02  0.18828564858E+02 -0.36770300752E+02  0.47787269158E+02  0.19999991397E+02 0.  0.
         12    1    3    3    0    0 -0.13306147663E+02 -0.18828564858E+02  0.36770300752E+02  0.43400730842E+02  0.00000000000E+00 0. -1.
         11    1    4    4    0    0  0.43626848400E+01  0.10000840817E+02 -0.26506923388E+02  0.28664731358E+02  0.51100000000E-03 0. -1.
        -11    1    4    4    0    0  0.48632490591E+01  0.92132158676E+01 -0.10780346124E+02  0.14991677719E+02  0.51100000000E-03 0.  1.
         12    1    4    4    0    0  0.40802137638E+01 -0.38549182693E+00  0.51696875903E+00  0.41308600805E+01  0.00000000000E+00 0. -1.
</event>
<event>
 8    1  0.2994958E-010  0.9118800E+02  0.7816164E-02  0.1184000E+00
        -11   -1    0    0    0    0  0.00000000000E+00  0.00000000000E+00  0.45593999997E+02  0.45594000000E+02  0.51100000000E-03 0. -1.
         11   -1    0    0    0    0 -0.00000000000E+00 -0.00000000000E+00 -0.45593999997E+02  0.45594000000E+02  0.51100000000E-03 0.  1.
         23    2    1    2    0    0  0.00000000000E+00  0.00000000000E+00 -0.71054273576E-14  0.91188000000E+02  0.91188000000E+02 0.  0.
    9900012    2    3    3    0    0 -0.79564860566E+01 -0.25410134648E+02  0.34273056415E+02  0.47787274094E+02  0.20000013902E+02 0.  0.
        -12    1    3    3    0    0  0.79564860566E+01  0.25410134648E+02 -0.34273056415E+02  0.43400725906E+02  0.00000000000E+00 0.  1.
         11    1    4    4    0    0  0.29748811714E+01  0.79917822252E+00  0.13483745474E+01  0.33625463560E+01  0.51100000000E-03 0. -1.
        -11    1    4    4    0    0 -0.63044684952E+01 -0.50638465628E+01  0.74421844571E+01  0.10989766821E+02  0.51100000000E-03 0.  1.
         12    1    4    4    0    0 -0.46268987327E+01 -0.21145466307E+02  0.25482497410E+02  0.33434960917E+02  0.00000000000E+00 0. -1.
</event>
<event>
 8    1  0.2994958E-010  0.9118800E+02  0.7816164E-02  0.1184000E+00
        -11   -1    0    0    0    0  0.00000000000E+00  0.00000000000E+00  0.45593999997E+02  0.45594000000E+02  0.51100000000E-03 0. -1.
         11   -1    0    0    0    0 -0.00000000000E+00 -0.00000000000E+00 -0.45593999997E+02  0.45594000000E+02  0.51100000000E-03 0.  1.
         23    2    1    2    0    0 -0.44408920985E-15 -0.88817841970E-15  0.00000000000E+00  0.91188000000E+02  0.91188000000E+02 0.  0.
    9900012    2    3    3    0    0 -0.22972040799E+01 -0.72641313557E+01  0.42726790376E+02  0.47787269974E+02  0.19999995118E+02 0.  0.
        -12    1    3    3    0    0  0.22972040799E+01  0.72641313557E+01 -0.42726790376E+02  0.43400730026E+02  0.00000000000E+00 0.  1.
         11    1    4    4    0    0 -0.27688447295E+01 -0.59457774501E+00  0.23073044781E+02  0.23246191507E+02  0.51100000000E-03 0. -1.
        -11    1    4    4    0    0  0.34330090506E+01 -0.10994152941E+00  0.16196450596E+02  0.16556649735E+02  0.51100000000E-03 0.  1.
         12    1    4    4    0    0 -0.29613684011E+01 -0.65596120813E+01  0.34572949995E+01  0.79844287321E+01  0.00000000000E+00 0. -1.
</event>
<event>
 8    1  0.2994958E-010  0.9118800E+02  0.7816164E-02  0.1184000E+00
        -11   -1    0    0    0    0  0.00000000000E+00  0.00000000000E+00  0.45593999997E+02  0.45594000000E+02  0.51100000000E-03 0. -1.
         11   -1    0    0    0    0 -0.00000000000E+00 -0.00000000000E+00 -0.45593999997E+02  0.45594000000E+02  0.51100000000E-03 0.  1.
         23    2    1    2    0    0 -0.17763568394E-14  0.00000000000E+00  0.00000000000E+00  0.91188000000E+02  0.91188000000E+02 0.  0.
    9900012    2    3    3    0    0  0.11126901215E+02 -0.13054594396E+02  0.39867166677E+02  0.47787293274E+02  0.20000101352E+02 0.  0.
        -12    1    3    3    0    0 -0.11126901215E+02  0.13054594396E+02 -0.39867166677E+02  0.43400706726E+02  0.00000000000E+00 0.  1.
         11    1    4    4    0    0 -0.21239357246E+01  0.30786252504E+01  0.34205394414E+01  0.50684442116E+01  0.51100000000E-03 0. -1.
        -11    1    4    4    0    0  0.66583313043E+00 -0.62268517797E+01  0.98533555691E+01  0.11675000346E+02  0.51100000000E-03 0.  1.
         12    1    4    4    0    0  0.12585003809E+02 -0.99063678670E+01  0.26593271666E+02  0.31043848716E+02  0.00000000000E+00 0. -1.
</event>
<event>
 8    1  0.2994958E-010  0.9118800E+02  0.7816164E-02  0.1184000E+00
        -11   -1    0    0    0    0  0.00000000000E+00  0.00000000000E+00  0.45593999997E+02  0.45594000000E+02  0.51100000000E-03 0. -1.
         11   -1    0    0    0    0 -0.00000000000E+00 -0.00000000000E+00 -0.45593999997E+02  0.45594000000E+02  0.51100000000E-03 0.  1.
         23    2    1    2    0    0  0.00000000000E+00  0.00000000000E+00  0.00000000000E+00  0.91188000000E+02  0.91188000000E+02 0.  0.
    9900012    2    3    3    0    0  0.67602262952E+01 -0.16069984582E+02  0.39745166135E+02  0.47787270799E+02  0.19999998882E+02 0.  0.
        -12    1    3    3    0    0 -0.67602262952E+01  0.16069984582E+02 -0.39745166135E+02  0.43400729201E+02  0.00000000000E+00 0.  1.
         11    1    4    4    0    0  0.49450759401E+01 -0.78670242564E+00  0.11081185617E+02  0.12159989790E+02  0.51100000000E-03 0. -1.
        -11    1    4    4    0    0  0.10245148345E+01  0.63485289858E+00  0.13740653331E+02  0.13793412307E+02  0.51100000000E-03 0.  1.
        -12    1    4    4    0    0  0.79063552070E+00 -0.15918135055E+02  0.14923327188E+02  0.21833868702E+02  0.00000000000E+00 0.  1.
</event>
<event>
 8    1  0.2994958E-010  0.9118800E+02  0.7816164E-02  0.1184000E+00
        -11   -1    0    0    0    0  0.00000000000E+00  0.00000000000E+00  0.45593999997E+02  0.45594000000E+02  0.51100000000E-03 0.  1.
         11   -1    0    0    0    0 -0.00000000000E+00 -0.00000000000E+00 -0.45593999997E+02  0.45594000000E+02  0.51100000000E-03 0. -1.
         23    2    1    2    0    0  0.00000000000E+00  0.44408920985E-15  0.35527136788E-14  0.91188000000E+02  0.91188000000E+02 0.  0.
    9900012    2    3    3    0    0 -0.36367719014E+02 -0.38424049100E+01  0.23371955980E+02  0.47787269728E+02  0.19999994000E+02 0.  0.
        -12    1    3    3    0    0  0.36367719014E+02  0.38424049100E+01 -0.23371955980E+02  0.43400730272E+02  0.00000000000E+00 0.  1.
         11    1    4    4    0    0 -0.77172399861E+01 -0.56040976435E+01  0.53550846436E+01  0.10937944743E+02  0.51100000000E-03 0. -1.
        -11    1    4    4    0    0 -0.21540858622E+02 -0.52187848278E+01  0.11874971664E+02  0.25144766007E+02  0.51100000000E-03 0.  1.
        -12    1    4    4    0    0 -0.71096204057E+01  0.69804775613E+01  0.61418996727E+01  0.11704558979E+02  0.00000000000E+00 0.  1.
</event>
<event>
 8    1  0.2994958E-010  0.9118800E+02  0.7816164E-02  0.1184000E+00
        -11   -1    0    0    0    0  0.00000000000E+00  0.00000000000E+00  0.45593999997E+02  0.45594000000E+02  0.51100000000E-03 0. -1.
         11   -1    0    0    0    0 -0.00000000000E+00 -0.00000000000E+00 -0.45593999997E+02  0.45594000000E+02  0.51100000000E-03 0.  1.
         23    2    1    2    0    0  0.44408920985E-15  0.00000000000E+00  0.00000000000E+00  0.91188000000E+02  0.91188000000E+02 0.  0.
    9900012    2    3    3    0    0  0.12383507182E+00 -0.70754303359E+01 -0.42819927921E+02  0.47787271011E+02  0.19999999850E+02 0.  0.
         12    1    3    3    0    0 -0.12383507182E+00  0.70754303359E+01  0.42819927921E+02  0.43400728989E+02  0.00000000000E+00 0. -1.
         11    1    4    4    0    0  0.36509278425E+01  0.34407869979E+01 -0.56076087454E+01  0.75241986536E+01  0.51100000000E-03 0. -1.
        -11    1    4    4    0    0  0.77065957875E+00 -0.58539640787E+01 -0.60181231934E+01  0.84309322529E+01  0.51100000000E-03 0.  1.
        -12    1    4    4    0    0 -0.42977523495E+01 -0.46622532551E+01 -0.31194195982E+02  0.31832140105E+02  0.00000000000E+00 0.  1.
</event>
<event>
 8    1  0.2994958E-010  0.9118800E+02  0.7816164E-02  0.1184000E+00
        -11   -1    0    0    0    0  0.00000000000E+00  0.00000000000E+00  0.45593999997E+02  0.45594000000E+02  0.51100000000E-03 0. -1.
         11   -1    0    0    0    0 -0.00000000000E+00 -0.00000000000E+00 -0.45593999997E+02  0.45594000000E+02  0.51100000000E-03 0.  1.
         23    2    1    2    0    0 -0.71054273576E-14  0.00000000000E+00  0.00000000000E+00  0.91188000000E+02  0.91188000000E+02 0.  0.
    9900012    2    3    3    0    0 -0.39174093458E+02  0.60014157136E+01  0.17691709928E+02  0.47787272022E+02  0.20000004459E+02 0.  0.
        -12    1    3    3    0    0  0.39174093458E+02 -0.60014157136E+01 -0.17691709928E+02  0.43400727978E+02  0.00000000000E+00 0.  1.
         11    1    4    4    0    0 -0.19877183639E+02  0.59732323544E+01  0.11477686683E+02  0.23717487768E+02  0.51100000000E-03 0. -1.
        -11    1    4    4    0    0 -0.62895034885E+01  0.29014421273E+01  0.80535253975E+01  0.10622405196E+02  0.51100000000E-03 0.  1.
         12    1    4    4    0    0 -0.13007406330E+02 -0.28732587681E+01 -0.18395021520E+01  0.13447379059E+02  0.00000000000E+00 0. -1.
</event>
<event>
 8    1  0.2994958E-010  0.9118800E+02  0.7816164E-02  0.1184000E+00
        -11   -1    0    0    0    0  0.00000000000E+00  0.00000000000E+00  0.45593999997E+02  0.45594000000E+02  0.51100000000E-03 0.  1.
         11   -1    0    0    0    0 -0.00000000000E+00 -0.00000000000E+00 -0.45593999997E+02  0.45594000000E+02  0.51100000000E-03 0. -1.
         23    2    1    2    0    0  0.00000000000E+00  0.00000000000E+00 -0.44408920985E-15  0.91188000000E+02  0.91188000000E+02 0.  0.
    9900012    2    3    3    0    0 -0.37798355885E+02  0.21183616635E+02  0.24823402869E+01  0.47787270345E+02  0.19999996809E+02 0.  0.
         12    1    3    3    0    0  0.37798355885E+02 -0.21183616635E+02 -0.24823402869E+01  0.43400729655E+02  0.00000000000E+00 0. -1.
         11    1    4    4    0    0 -0.65792363806E+01  0.70828044632E+01  0.31988547407E+01  0.10182590158E+02  0.51100000000E-03 0. -1.
        -11    1    4    4    0    0 -0.28768416377E+02  0.12001183157E+02  0.44760137265E+01  0.31491028518E+02  0.51100000000E-03 0.  1.
         12    1    4    4    0    0 -0.24507031273E+01  0.20996290150E+01 -0.51925281802E+01  0.61136516683E+01  0.00000000000E+00 0. -1.
</event>
<event>
 8    1  0.2994958E-010  0.9118800E+02  0.7816164E-02  0.1184000E+00
        -11   -1    0    0    0    0  0.00000000000E+00  0.00000000000E+00  0.45593999997E+02  0.45594000000E+02  0.51100000000E-03 0. -1.
         11   -1    0    0    0    0 -0.00000000000E+00 -0.00000000000E+00 -0.45593999997E+02  0.45594000000E+02  0.51100000000E-03 0.  1.
         23    2    1    2    0    0  0.00000000000E+00  0.00000000000E+00 -0.71054273576E-14  0.91188000000E+02  0.91188000000E+02 0.  0.
    9900012    2    3    3    0    0  0.20885564766E+02  0.13137335469E+02  0.35704712629E+02  0.47787275320E+02  0.20000019495E+02 0.  0.
        -12    1    3    3    0    0 -0.20885564766E+02 -0.13137335469E+02 -0.35704712629E+02  0.43400724680E+02  0.00000000000E+00 0.  1.
         11    1    4    4    0    0  0.15364090630E+01  0.59431085728E+01  0.12827368065E+02  0.14220494508E+02  0.51100000000E-03 0. -1.
        -11    1    4    4    0    0 -0.20357412303E+01  0.10792500688E+01  0.25269054048E+01  0.34196892042E+01  0.51100000000E-03 0.  1.
         12    1    4    4    0    0  0.21384896933E+02  0.61149768275E+01  0.20350439160E+02  0.30147091608E+02  0.00000000000E+00 0. -1.
</event>
<event>
 8    1  0.2994958E-010  0.9118800E+02  0.7816164E-02  0.1184000E+00
        -11   -1    0    0    0    0  0.00000000000E+00  0.00000000000E+00  0.45593999997E+02  0.45594000000E+02  0.51100000000E-03 0. -1.
         11   -1    0    0    0    0 -0.00000000000E+00 -0.00000000000E+00 -0.45593999997E+02  0.45594000000E+02  0.51100000000E-03 0.  1.
         23    2    1    2    0    0  0.00000000000E+00  0.44408920985E-15  0.00000000000E+00  0.91188000000E+02  0.91188000000E+02 0.  0.
    9900012    2    3    3    0    0  0.34101033792E+02 -0.29588538842E+01 -0.26683116235E+02  0.47787262517E+02  0.19999961122E+02 0.  0.
         12    1    3    3    0    0 -0.34101033792E+02  0.29588538842E+01  0.26683116235E+02  0.43400737483E+02  0.00000000000E+00 0. -1.
         11    1    4    4    0    0  0.14480161646E+01  0.30071306756E+01 -0.35049562299E+01  0.48398661291E+01  0.51100000000E-03 0. -1.
        -11    1    4    4    0    0  0.36278367636E+01  0.16478595442E+01 -0.88276993119E+01  0.96852938037E+01  0.51100000000E-03 0.  1.
        -12    1    4    4    0    0  0.29025180864E+02 -0.76138441039E+01 -0.14350460694E+02  0.33262102585E+02  0.00000000000E+00 0.  1.
</event>
<event>
 8    1  0.2994958E-010  0.9118800E+02  0.7816164E-02  0.1184000E+00
        -11   -1    0    0    0    0  0.00000000000E+00  0.00000000000E+00  0.45593999997E+02  0.45594000000E+02  0.51100000000E-03 0. -1.
         11   -1    0    0    0    0 -0.00000000000E+00 -0.00000000000E+00 -0.45593999997E+02  0.45594000000E+02  0.51100000000E-03 0.  1.
         23    2    1    2    0    0  0.88817841970E-15  0.17763568394E-14  0.00000000000E+00  0.91188000000E+02  0.91188000000E+02 0.  0.
    9900012    2    3    3    0    0 -0.48564844669E+01 -0.93759359380E+01 -0.42096669836E+02  0.47787271580E+02  0.20000002441E+02 0.  0.
         12    1    3    3    0    0  0.48564844669E+01  0.93759359380E+01  0.42096669836E+02  0.43400728420E+02  0.00000000000E+00 0. -1.
         11    1    4    4    0    0 -0.36733654899E+01 -0.40516827593E+01 -0.30567227165E+01  0.62652455044E+01  0.51100000000E-03 0. -1.
        -11    1    4    4    0    0 -0.35570793290E+01  0.42716191650E+00 -0.22965192778E+01  0.42555001715E+01  0.51100000000E-03 0.  1.
        -12    1    4    4    0    0  0.23739603520E+01 -0.57514150952E+01 -0.36743427842E+02  0.37266525904E+02  0.00000000000E+00 0.  1.
</event>
<event>
 8    1  0.2994958E-010  0.9118800E+02  0.7816164E-02  0.1184000E+00
        -11   -1    0    0    0    0  0.00000000000E+00  0.00000000000E+00  0.45593999997E+02  0.45594000000E+02  0.51100000000E-03 0.  1.
         11   -1    0    0    0    0 -0.00000000000E+00 -0.00000000000E+00 -0.45593999997E+02  0.45594000000E+02  0.51100000000E-03 0. -1.
         23    2    1    2    0    0 -0.71054273576E-14 -0.55511151231E-15  0.00000000000E+00  0.91188000000E+02  0.91188000000E+02 0.  0.
    9900012    2    3    3    0    0  0.43166918877E+02 -0.91465293382E+00  0.44049688993E+01  0.47787271592E+02  0.20000002498E+02 0.  0.
         12    1    3    3    0    0 -0.43166918877E+02  0.91465293382E+00 -0.44049688993E+01  0.43400728408E+02  0.00000000000E+00 0. -1.
         11    1    4    4    0    0  0.18669632649E+02 -0.89209384706E+01 -0.65404124963E+00  0.20701838002E+02  0.51100000000E-03 0. -1.
        -11    1    4    4    0    0  0.56878390727E-01  0.13024546888E+00  0.10937698796E+01  0.11029650239E+01  0.51100000000E-03 0.  1.
        -12    1    4    4    0    0  0.24440407837E+02  0.78760400679E+01  0.39652402694E+01  0.25982468566E+02  0.00000000000E+00 0.  1.
</event>
<event>
 8    1  0.2994958E-010  0.9118800E+02  0.7816164E-02  0.1184000E+00
        -11   -1    0    0    0    0  0.00000000000E+00  0.00000000000E+00  0.45593999997E+02  0.45594000000E+02  0.51100000000E-03 0.  1.
         11   -1    0    0    0    0 -0.00000000000E+00 -0.00000000000E+00 -0.45593999997E+02  0.45594000000E+02  0.51100000000E-03 0. -1.
         23    2    1    2    0    0 -0.35527136788E-14  0.00000000000E+00  0.35527136788E-14  0.91188000000E+02  0.91188000000E+02 0.  0.
    9900012    2    3    3    0    0  0.24259453155E+02  0.31950572518E+02 -0.16560893257E+02  0.47787270316E+02  0.19999996681E+02 0.  0.
         12    1    3    3    0    0 -0.24259453155E+02 -0.31950572518E+02  0.16560893257E+02  0.43400729684E+02  0.00000000000E+00 0. -1.
         11    1    4    4    0    0  0.22243150973E+02  0.21776183936E+02 -0.19434756381E+02  0.36696998622E+02  0.51100000000E-03 0. -1.
        -11    1    4    4    0    0  0.21096192956E+01  0.65001778426E+01  0.82823235295E+00  0.68839505118E+01  0.51100000000E-03 0.  1.
         12    1    4    4    0    0 -0.93317113091E-01  0.36742107391E+01  0.20456307714E+01  0.42063211827E+01  0.00000000000E+00 0. -1.
</event>
<event>
 8    1  0.2994958E-010  0.9118800E+02  0.7816164E-02  0.1184000E+00
        -11   -1    0    0    0    0  0.00000000000E+00  0.00000000000E+00  0.45593999997E+02  0.45594000000E+02  0.51100000000E-03 0.  1.
         11   -1    0    0    0    0 -0.00000000000E+00 -0.00000000000E+00 -0.45593999997E+02  0.45594000000E+02  0.51100000000E-03 0. -1.
         23    2    1    2    0    0  0.17763568394E-14 -0.71054273576E-14 -0.44408920985E-15  0.91188000000E+02  0.91188000000E+02 0.  0.
    9900012    2    3    3    0    0 -0.12389985071E+02  0.41487692087E+02  0.29802383894E+01  0.47787284043E+02  0.20000059265E+02 0.  0.
        -12    1    3    3    0    0  0.12389985071E+02 -0.41487692087E+02 -0.29802383894E+01  0.43400715957E+02  0.00000000000E+00 0.  1.
         11    1    4    4    0    0  0.19543044113E+01  0.61668303447E+01 -0.21038839786E+01  0.68026046695E+01  0.51100000000E-03 0. -1.
        -11    1    4    4    0    0 -0.10401373726E+01  0.20862664000E+02  0.42660801360E+01  0.21319757853E+02  0.51100000000E-03 0.  1.
        -12    1    4    4    0    0 -0.13304152109E+02  0.14458197742E+02  0.81804223204E+00  0.19664921520E+02  0.00000000000E+00 0.  1.
</event>
<event>
 8    1  0.2994958E-010  0.9118800E+02  0.7816164E-02  0.1184000E+00
        -11   -1    0    0    0    0  0.00000000000E+00  0.00000000000E+00  0.45593999997E+02  0.45594000000E+02  0.51100000000E-03 0.  1.
         11   -1    0    0    0    0 -0.00000000000E+00 -0.00000000000E+00 -0.45593999997E+02  0.45594000000E+02  0.51100000000E-03 0. -1.
         23    2    1    2    0    0  0.00000000000E+00  0.00000000000E+00 -0.35527136788E-14  0.91188000000E+02  0.91188000000E+02 0.  0.
    9900012    2    3    3    0    0  0.14970066044E+02  0.34091501413E+02  0.22300002582E+02  0.47787268887E+02  0.19999990165E+02 0.  0.
        -12    1    3    3    0    0 -0.14970066044E+02 -0.34091501413E+02 -0.22300002582E+02  0.43400731113E+02  0.00000000000E+00 0.  1.
         11    1    4    4    0    0  0.22954628280E+01  0.16634392204E+02  0.77317837080E+01  0.18486552766E+02  0.51100000000E-03 0. -1.
        -11    1    4    4    0    0  0.69749686909E+01  0.18365912399E+02  0.11015364608E+02  0.22523214340E+02  0.51100000000E-03 0.  1.
        -12    1    4    4    0    0  0.56996345253E+01 -0.90880319041E+00  0.35528542660E+01  0.67775017814E+01  0.00000000000E+00 0.  1.
</event>
<event>
 8    1  0.2994958E-010  0.9118800E+02  0.7816164E-02  0.1184000E+00
        -11   -1    0    0    0    0  0.00000000000E+00  0.00000000000E+00  0.45593999997E+02  0.45594000000E+02  0.51100000000E-03 0. -1.
         11   -1    0    0    0    0 -0.00000000000E+00 -0.00000000000E+00 -0.45593999997E+02  0.45594000000E+02  0.51100000000E-03 0.  1.
         23    2    1    2    0    0 -0.35527136788E-14  0.00000000000E+00  0.00000000000E+00  0.91188000000E+02  0.91188000000E+02 0.  0.
    9900012    2    3    3    0    0  0.26292474371E+02 -0.12848040608E+02  0.32050848407E+02  0.47787271440E+02  0.20000001802E+02 0.  0.
        -12    1    3    3    0    0 -0.26292474371E+02  0.12848040608E+02 -0.32050848407E+02  0.43400728560E+02  0.00000000000E+00 0.  1.
         11    1    4    4    0    0  0.22287576421E+02 -0.15831556311E+02  0.32781744036E+02  0.42685090843E+02  0.51100000000E-03 0. -1.
        -11    1    4    4    0    0  0.16934867437E+00  0.37287983232E+00 -0.43658531062E-01  0.41185515818E+00  0.51100000000E-03 0.  1.
         12    1    4    4    0    0  0.38355492752E+01  0.26106358712E+01 -0.68723709783E+00  0.46903254389E+01  0.00000000000E+00 0. -1.
</event>
<event>
 8    1  0.2994958E-010  0.9118800E+02  0.7816164E-02  0.1184000E+00
        -11   -1    0    0    0    0  0.00000000000E+00  0.00000000000E+00  0.45593999997E+02  0.45594000000E+02  0.51100000000E-03 0.  1.
         11   -1    0    0    0    0 -0.00000000000E+00 -0.00000000000E+00 -0.45593999997E+02  0.45594000000E+02  0.51100000000E-03 0. -1.
         23    2    1    2    0    0  0.17763568394E-14  0.35527136788E-14  0.00000000000E+00  0.91188000000E+02  0.91188000000E+02 0.  0.
    9900012    2    3    3    0    0 -0.14504512111E+02  0.31534773890E+02 -0.26053802967E+02  0.47787268613E+02  0.19999988916E+02 0.  0.
         12    1    3    3    0    0  0.14504512111E+02 -0.31534773890E+02  0.26053802967E+02  0.43400731387E+02  0.00000000000E+00 0. -1.
         11    1    4    4    0    0 -0.21979141262E+01  0.65158306574E+01 -0.43262981449E+01  0.81242680631E+01  0.51100000000E-03 0. -1.
        -11    1    4    4    0    0 -0.10418760315E+01  0.20217197012E+02 -0.95150912568E+01  0.22368672794E+02  0.51100000000E-03 0.  1.
         12    1    4    4    0    0 -0.11264721953E+02  0.48017462206E+01 -0.12212413565E+02  0.17294327756E+02  0.00000000000E+00 0. -1.
</event>
<event>
 8    1  0.2994958E-010  0.9118800E+02  0.7816164E-02  0.1184000E+00
        -11   -1    0    0    0    0  0.00000000000E+00  0.00000000000E+00  0.45593999997E+02  0.45594000000E+02  0.51100000000E-03 0. -1.
         11   -1    0    0    0    0 -0.00000000000E+00 -0.00000000000E+00 -0.45593999997E+02  0.45594000000E+02  0.51100000000E-03 0.  1.
         23    2    1    2    0    0 -0.71054273576E-14 -0.17763568394E-14  0.00000000000E+00  0.91188000000E+02  0.91188000000E+02 0.  0.
    9900012    2    3    3    0    0 -0.38277623678E+02 -0.10465218155E+02  0.17576275414E+02  0.47787277392E+02  0.20000028939E+02 0.  0.
        -12    1    3    3    0    0  0.38277623678E+02  0.10465218155E+02 -0.17576275414E+02  0.43400722608E+02  0.00000000000E+00 0.  1.
         11    1    4    4    0    0 -0.60245977550E+01  0.24312382780E+01  0.30681708482E+01  0.71847317479E+01  0.51100000000E-03 0. -1.
        -11    1    4    4    0    0  0.11509748476E+01 -0.26834745978E+01  0.18117127005E+01  0.34362890139E+01  0.51100000000E-03 0.  1.
         12    1    4    4    0    0 -0.33404000771E+02 -0.10212981835E+02  0.12696391866E+02  0.37166256630E+02  0.00000000000E+00 0. -1.
</event>
<event>
 8    1  0.2994958E-010  0.9118800E+02  0.7816164E-02  0.1184000E+00
        -11   -1    0    0    0    0  0.00000000000E+00  0.00000000000E+00  0.45593999997E+02  0.45594000000E+02  0.51100000000E-03 0. -1.
         11   -1    0    0    0    0 -0.00000000000E+00 -0.00000000000E+00 -0.45593999997E+02  0.45594000000E+02  0.51100000000E-03 0.  1.
         23    2    1    2    0    0  0.71054273576E-14  0.00000000000E+00  0.00000000000E+00  0.91188000000E+02  0.91188000000E+02 0.  0.
    9900012    2    3    3    0    0  0.33267304891E+02 -0.23541034931E+02  0.14924106928E+02  0.47787275721E+02  0.20000021323E+02 0.  0.
        -12    1    3    3    0    0 -0.33267304891E+02  0.23541034931E+02 -0.14924106928E+02  0.43400724279E+02  0.00000000000E+00 0.  1.
         11    1    4    4    0    0  0.41061298722E+01 -0.70079261784E+01  0.35781877675E+01  0.88755146223E+01  0.51100000000E-03 0. -1.
        -11    1    4    4    0    0  0.23518994341E+02 -0.97558824732E+01  0.14788459222E+02  0.29445184056E+02  0.51100000000E-03 0.  1.
        -12    1    4    4    0    0  0.56421806773E+01 -0.67772262795E+01 -0.34425400614E+01  0.94665770431E+01  0.00000000000E+00 0.  1.
</event>
<event>
 8    1  0.2994958E-010  0.9118800E+02  0.7816164E-02  0.1184000E+00
        -11   -1    0    0    0    0  0.00000000000E+00  0.00000000000E+00  0.45593999997E+02  0.45594000000E+02  0.51100000000E-03 0. -1.
         11   -1    0    0    0    0 -0.00000000000E+00 -0.00000000000E+00 -0.45593999997E+02  0.45594000000E+02  0.51100000000E-03 0.  1.
         23    2    1    2    0    0  0.35527136788E-14  0.00000000000E+00  0.00000000000E+00  0.91188000000E+02  0.91188000000E+02 0.  0.
    9900012    2    3    3    0    0  0.26790783268E+02 -0.19454574383E+02 -0.28060590449E+02  0.47787271102E+02  0.20000000262E+02 0.  0.
         12    1    3    3    0    0 -0.26790783268E+02  0.19454574383E+02  0.28060590449E+02  0.43400728898E+02  0.00000000000E+00 0. -1.
         11    1    4    4    0    0  0.11718355851E+01 -0.58768804543E+01 -0.42151635939E+01  0.73265631026E+01  0.51100000000E-03 0. -1.
        -11    1    4    4    0    0  0.18343532874E+02 -0.52987270613E+01 -0.70124253589E+01  0.20340496956E+02  0.51100000000E-03 0.  1.
        -12    1    4    4    0    0  0.72754148096E+01 -0.82789668678E+01 -0.16833001496E+02  0.20120211043E+02  0.00000000000E+00 0.  1.
</event>
<event>
 8    1  0.2994958E-010  0.9118800E+02  0.7816164E-02  0.1184000E+00
        -11   -1    0    0    0    0  0.00000000000E+00  0.00000000000E+00  0.45593999997E+02  0.45594000000E+02  0.51100000000E-03 0. -1.
         11   -1    0    0    0    0 -0.00000000000E+00 -0.00000000000E+00 -0.45593999997E+02  0.45594000000E+02  0.51100000000E-03 0.  1.
         23    2    1    2    0    0 -0.88817841970E-15  0.00000000000E+00  0.00000000000E+00  0.91188000000E+02  0.91188000000E+02 0.  0.
    9900012    2    3    3    0    0  0.68910272827E+01  0.38465693692E+02 -0.18881932541E+02  0.47787271611E+02  0.20000002583E+02 0.  0.
         12    1    3    3    0    0 -0.68910272827E+01 -0.38465693692E+02  0.18881932541E+02  0.43400728389E+02  0.00000000000E+00 0. -1.
         11    1    4    4    0    0 -0.13944907208E+01  0.41025244935E+01 -0.30077977547E+00  0.43434756043E+01  0.51100000000E-03 0. -1.
        -11    1    4    4    0    0 -0.42057239977E+01  0.18953842016E+02 -0.98574889097E+01  0.21773982856E+02  0.51100000000E-03 0.  1.
         12    1    4    4    0    0  0.12491242001E+02  0.15409327182E+02 -0.87236638557E+01  0.21669813151E+02  0.00000000000E+00 0. -1.
</event>
<event>
 8    1  0.2994958E-010  0.9118800E+02  0.7816164E-02  0.1184000E+00
        -11   -1    0    0    0    0  0.00000000000E+00  0.00000000000E+00  0.45593999997E+02  0.45594000000E+02  0.51100000000E-03 0. -1.
         11   -1    0    0    0    0 -0.00000000000E+00 -0.00000000000E+00 -0.45593999997E+02  0.45594000000E+02  0.51100000000E-03 0.  1.
         23    2    1    2    0    0  0.00000000000E+00  0.44408920985E-15  0.00000000000E+00  0.91188000000E+02  0.91188000000E+02 0.  0.
    9900012    2    3    3    0    0 -0.29784431001E+02  0.31533980990E+01  0.31409668806E+02  0.47787267931E+02  0.19999985805E+02 0.  0.
        -12    1    3    3    0    0  0.29784431001E+02 -0.31533980990E+01 -0.31409668806E+02  0.43400732069E+02  0.00000000000E+00 0.  1.
         11    1    4    4    0    0  0.13157023796E+01 -0.27629332473E+01  0.18661947318E+01  0.35843487440E+01  0.51100000000E-03 0. -1.
        -11    1    4    4    0    0 -0.58081043777E+01  0.48216070816E+01  0.62233431176E+01  0.97832495180E+01  0.51100000000E-03 0.  1.
         12    1    4    4    0    0 -0.25292029003E+02  0.10947242647E+01  0.23320130957E+02  0.34419669669E+02  0.00000000000E+00 0. -1.
</event>
<event>
 8    1  0.2994958E-010  0.9118800E+02  0.7816164E-02  0.1184000E+00
        -11   -1    0    0    0    0  0.00000000000E+00  0.00000000000E+00  0.45593999997E+02  0.45594000000E+02  0.51100000000E-03 0. -1.
         11   -1    0    0    0    0 -0.00000000000E+00 -0.00000000000E+00 -0.45593999997E+02  0.45594000000E+02  0.51100000000E-03 0.  1.
         23    2    1    2    0    0  0.00000000000E+00  0.00000000000E+00  0.00000000000E+00  0.91188000000E+02  0.91188000000E+02 0.  0.
    9900012    2    3    3    0    0 -0.22035587687E+02 -0.69145824064E+01 -0.36745677901E+02  0.47787269373E+02  0.19999992379E+02 0.  0.
         12    1    3    3    0    0  0.22035587687E+02  0.69145824064E+01  0.36745677901E+02  0.43400730627E+02  0.00000000000E+00 0. -1.
         11    1    4    4    0    0 -0.18031059071E+01  0.42669104972E+00  0.16130230423E+01  0.24566440036E+01  0.51100000000E-03 0. -1.
        -11    1    4    4    0    0 -0.44813441685E+01  0.25209440864E+01 -0.51603136227E+01  0.72846716871E+01  0.51100000000E-03 0.  1.
        -12    1    4    4    0    0 -0.15751137612E+02 -0.98622175425E+01 -0.33198387320E+02  0.38045953682E+02  0.00000000000E+00 0.  1.
</event>
<event>
 8    1  0.2994958E-010  0.9118800E+02  0.7816164E-02  0.1184000E+00
        -11   -1    0    0    0    0  0.00000000000E+00  0.00000000000E+00  0.45593999997E+02  0.45594000000E+02  0.51100000000E-03 0. -1.
         11   -1    0    0    0    0 -0.00000000000E+00 -0.00000000000E+00 -0.45593999997E+02  0.45594000000E+02  0.51100000000E-03 0.  1.
         23    2    1    2    0    0 -0.17763568394E-14  0.00000000000E+00 -0.71054273576E-14  0.91188000000E+02  0.91188000000E+02 0.  0.
    9900012    2    3    3    0    0 -0.85658228752E+01  0.10586329892E+02 -0.41208991949E+02  0.47787254390E+02  0.19999924064E+02 0.  0.
         12    1    3    3    0    0  0.85658228752E+01 -0.10586329892E+02  0.41208991949E+02  0.43400745610E+02  0.00000000000E+00 0. -1.
         11    1    4    4    0    0 -0.24488359467E+01  0.51204511593E+01 -0.25432766916E+02  0.26058423798E+02  0.51100000000E-03 0. -1.
        -11    1    4    4    0    0 -0.62624508268E+01 -0.90340982793E+00 -0.13594228387E+02  0.14994581868E+02  0.51100000000E-03 0.  1.
         12    1    4    4    0    0  0.14546389837E+00  0.63692885608E+01 -0.21819966450E+01  0.67342487239E+01  0.00000000000E+00 0. -1.
</event>
<event>
 8    1  0.2994958E-010  0.9118800E+02  0.7816164E-02  0.1184000E+00
        -11   -1    0    0    0    0  0.00000000000E+00  0.00000000000E+00  0.45593999997E+02  0.45594000000E+02  0.51100000000E-03 0. -1.
         11   -1    0    0    0    0 -0.00000000000E+00 -0.00000000000E+00 -0.45593999997E+02  0.45594000000E+02  0.51100000000E-03 0.  1.
         23    2    1    2    0    0 -0.71054273576E-14  0.17763568394E-14  0.00000000000E+00  0.91188000000E+02  0.91188000000E+02 0.  0.
    9900012    2    3    3    0    0  0.37466471640E+02 -0.13518277659E+02  0.17237831696E+02  0.47787272246E+02  0.20000005476E+02 0.  0.
        -12    1    3    3    0    0 -0.37466471640E+02  0.13518277659E+02 -0.17237831696E+02  0.43400727754E+02  0.00000000000E+00 0.  1.
         11    1    4    4    0    0  0.69729319091E+01 -0.47351874132E+01  0.35805914201E+01  0.91577516032E+01  0.51100000000E-03 0. -1.
        -11    1    4    4    0    0  0.25029407128E+02 -0.13107990463E+02  0.72648398603E+01  0.29173078919E+02  0.51100000000E-03 0.  1.
        -12    1    4    4    0    0  0.54641326028E+01  0.43249002169E+01  0.63924004158E+01  0.94564417232E+01  0.00000000000E+00 0.  1.
</event>
<event>
 8    1  0.2994958E-010  0.9118800E+02  0.7816164E-02  0.1184000E+00
        -11   -1    0    0    0    0  0.00000000000E+00  0.00000000000E+00  0.45593999997E+02  0.45594000000E+02  0.51100000000E-03 0. -1.
         11   -1    0    0    0    0 -0.00000000000E+00 -0.00000000000E+00 -0.45593999997E+02  0.45594000000E+02  0.51100000000E-03 0.  1.
         23    2    1    2    0    0  0.44408920985E-15  0.35527136788E-14  0.00000000000E+00  0.91188000000E+02  0.91188000000E+02 0.  0.
    9900012    2    3    3    0    0 -0.28457986274E+00  0.22838471050E+02 -0.36904555124E+02  0.47787274954E+02  0.20000017826E+02 0.  0.
         12    1    3    3    0    0  0.28457986274E+00 -0.22838471050E+02  0.36904555124E+02  0.43400725046E+02  0.00000000000E+00 0. -1.
         11    1    4    4    0    0 -0.46373409774E+01  0.15115149890E+02 -0.14222321269E+02  0.21266102371E+02  0.51100000000E-03 0. -1.
        -11    1    4    4    0    0 -0.10936519255E+01  0.77637651729E+01 -0.16589080571E+02  0.18348561759E+02  0.51100000000E-03 0.  1.
         12    1    4    4    0    0  0.54464130401E+01 -0.40444013082E-01 -0.60931532847E+01  0.81726108235E+01  0.00000000000E+00 0. -1.
</event>
<event>
 8    1  0.2994958E-010  0.9118800E+02  0.7816164E-02  0.1184000E+00
        -11   -1    0    0    0    0  0.00000000000E+00  0.00000000000E+00  0.45593999997E+02  0.45594000000E+02  0.51100000000E-03 0. -1.
         11   -1    0    0    0    0 -0.00000000000E+00 -0.00000000000E+00 -0.45593999997E+02  0.45594000000E+02  0.51100000000E-03 0.  1.
         23    2    1    2    0    0  0.17763568394E-14  0.00000000000E+00  0.00000000000E+00  0.91188000000E+02  0.91188000000E+02 0.  0.
    9900012    2    3    3    0    0  0.12667473260E+02  0.18494938253E+02 -0.37163093301E+02  0.47787272777E+02  0.20000007901E+02 0.  0.
         12    1    3    3    0    0 -0.12667473260E+02 -0.18494938253E+02  0.37163093301E+02  0.43400727223E+02  0.00000000000E+00 0. -1.
         11    1    4    4    0    0  0.53839573774E+01  0.71363597746E+01 -0.69542332685E+01  0.11325899015E+02  0.51100000000E-03 0. -1.
        -11    1    4    4    0    0  0.10938826665E+02  0.10976343950E+02 -0.28428231492E+02  0.32377498380E+02  0.51100000000E-03 0.  1.
         12    1    4    4    0    0 -0.36553107817E+01  0.38223452905E+00 -0.17806285397E+01  0.40838753829E+01  0.00000000000E+00 0. -1.
</event>
<event>
 8    1  0.2994958E-010  0.9118800E+02  0.7816164E-02  0.1184000E+00
        -11   -1    0    0    0    0  0.00000000000E+00  0.00000000000E+00  0.45593999997E+02  0.45594000000E+02  0.51100000000E-03 0. -1.
         11   -1    0    0    0    0 -0.00000000000E+00 -0.00000000000E+00 -0.45593999997E+02  0.45594000000E+02  0.51100000000E-03 0.  1.
         23    2    1    2    0    0 -0.88817841970E-15  0.00000000000E+00  0.00000000000E+00  0.91188000000E+02  0.91188000000E+02 0.  0.
    9900012    2    3    3    0    0  0.76075697176E+01 -0.74496208014E+01 -0.42074355025E+02  0.47787270538E+02  0.19999997690E+02 0.  0.
         12    1    3    3    0    0 -0.76075697176E+01  0.74496208014E+01  0.42074355025E+02  0.43400729462E+02  0.00000000000E+00 0. -1.
         11    1    4    4    0    0 -0.41824381046E+01 -0.59219967974E+01 -0.17063712128E+02  0.18540040626E+02  0.51100000000E-03 0. -1.
        -11    1    4    4    0    0 -0.15257558359E+01 -0.16089892906E+00 -0.12644925585E+01  0.19881551820E+01  0.51100000000E-03 0.  1.
        -12    1    4    4    0    0  0.13315763658E+02 -0.13667250749E+01 -0.23746150339E+02  0.27259074730E+02  0.00000000000E+00 0.  1.
</event>
<event>
 8    1  0.2994958E-010  0.9118800E+02  0.7816164E-02  0.1184000E+00
        -11   -1    0    0    0    0  0.00000000000E+00  0.00000000000E+00  0.45593999997E+02  0.45594000000E+02  0.51100000000E-03 0.  1.
         11   -1    0    0    0    0 -0.00000000000E+00 -0.00000000000E+00 -0.45593999997E+02  0.45594000000E+02  0.51100000000E-03 0. -1.
         23    2    1    2    0    0  0.00000000000E+00  0.00000000000E+00  0.00000000000E+00  0.91188000000E+02  0.91188000000E+02 0.  0.
    9900012    2    3    3    0    0  0.10082942841E+02 -0.42210450788E+02 -0.48506208643E+00  0.47787272157E+02  0.20000005074E+02 0.  0.
         12    1    3    3    0    0 -0.10082942841E+02  0.42210450788E+02  0.48506208643E+00  0.43400727843E+02  0.00000000000E+00 0. -1.
         11    1    4    4    0    0  0.66830025304E+00  0.13876329018E+00 -0.21993784366E+01  0.23028561065E+01  0.51100000000E-03 0. -1.
        -11    1    4    4    0    0  0.78692262449E+01 -0.85659796199E+01  0.60791128001E+00  0.11647758794E+02  0.51100000000E-03 0.  1.
        -12    1    4    4    0    0  0.15454163427E+01 -0.33783234458E+02  0.11064050702E+01  0.33836657257E+02  0.00000000000E+00 0.  1.
</event>
<event>
 8    1  0.2994958E-010  0.9118800E+02  0.7816164E-02  0.1184000E+00
        -11   -1    0    0    0    0  0.00000000000E+00  0.00000000000E+00  0.45593999997E+02  0.45594000000E+02  0.51100000000E-03 0. -1.
         11   -1    0    0    0    0 -0.00000000000E+00 -0.00000000000E+00 -0.45593999997E+02  0.45594000000E+02  0.51100000000E-03 0.  1.
         23    2    1    2    0    0  0.00000000000E+00  0.00000000000E+00  0.71054273576E-14  0.91188000000E+02  0.91188000000E+02 0.  0.
    9900012    2    3    3    0    0 -0.16211147012E+02  0.18098730438E+02  0.35961895354E+02  0.47787271338E+02  0.20000001338E+02 0.  0.
        -12    1    3    3    0    0  0.16211147012E+02 -0.18098730438E+02 -0.35961895354E+02  0.43400728662E+02  0.00000000000E+00 0.  1.
         11    1    4    4    0    0 -0.16517080784E+00  0.61630611031E+01  0.17697166703E+02  0.18740339195E+02  0.51100000000E-03 0. -1.
        -11    1    4    4    0    0 -0.30194206960E+01  0.22879506780E+00 -0.82672939011E+00  0.31389059031E+01  0.51100000000E-03 0.  1.
        -12    1    4    4    0    0 -0.13026555508E+02  0.11706874267E+02  0.19091458041E+02  0.25908026240E+02  0.00000000000E+00 0.  1.
</event>
<event>
 8    1  0.2994958E-010  0.9118800E+02  0.7816164E-02  0.1184000E+00
        -11   -1    0    0    0    0  0.00000000000E+00  0.00000000000E+00  0.45593999997E+02  0.45594000000E+02  0.51100000000E-03 0. -1.
         11   -1    0    0    0    0 -0.00000000000E+00 -0.00000000000E+00 -0.45593999997E+02  0.45594000000E+02  0.51100000000E-03 0.  1.
         23    2    1    2    0    0  0.71054273576E-14  0.00000000000E+00  0.00000000000E+00  0.91188000000E+02  0.91188000000E+02 0.  0.
    9900012    2    3    3    0    0 -0.36484459125E+02  0.17957272832E+02 -0.15167201897E+02  0.47787269377E+02  0.19999992398E+02 0.  0.
         12    1    3    3    0    0  0.36484459125E+02 -0.17957272832E+02  0.15167201897E+02  0.43400730623E+02  0.00000000000E+00 0. -1.
         11    1    4    4    0    0 -0.22321276931E+02  0.15185600358E+01 -0.11275287679E+02  0.25053493587E+02  0.51100000000E-03 0. -1.
        -11    1    4    4    0    0  0.16028997638E+00  0.19313739723E+01 -0.86929418119E+00  0.21240458875E+01  0.51100000000E-03 0.  1.
         12    1    4    4    0    0 -0.14323472171E+02  0.14507338824E+02 -0.30226200370E+01  0.20609729903E+02  0.00000000000E+00 0. -1.
</event>
<event>
 8    1  0.2994958E-010  0.9118800E+02  0.7816164E-02  0.1184000E+00
        -11   -1    0    0    0    0  0.00000000000E+00  0.00000000000E+00  0.45593999997E+02  0.45594000000E+02  0.51100000000E-03 0. -1.
         11   -1    0    0    0    0 -0.00000000000E+00 -0.00000000000E+00 -0.45593999997E+02  0.45594000000E+02  0.51100000000E-03 0.  1.
         23    2    1    2    0    0  0.00000000000E+00  0.16653345369E-15  0.00000000000E+00  0.91188000000E+02  0.91188000000E+02 0.  0.
    9900012    2    3    3    0    0 -0.21472533623E+02  0.38196401089E+00 -0.37714814649E+02  0.47787276035E+02  0.20000022752E+02 0.  0.
         12    1    3    3    0    0  0.21472533623E+02 -0.38196401089E+00  0.37714814649E+02  0.43400723965E+02  0.00000000000E+00 0. -1.
         11    1    4    4    0    0 -0.93290917291E+01  0.20380879495E+01 -0.20337803619E+02  0.22468021971E+02  0.51100000000E-03 0. -1.
        -11    1    4    4    0    0 -0.81748093066E+01 -0.19203677859E+01 -0.19190939383E+02  0.20947731961E+02  0.51100000000E-03 0.  1.
        -12    1    4    4    0    0 -0.39686325877E+01  0.26424384734E+00  0.18139283531E+01  0.43715221030E+01  0.00000000000E+00 0.  1.
</event>
<event>
 8    1  0.2994958E-010  0.9118800E+02  0.7816164E-02  0.1184000E+00
        -11   -1    0    0    0    0  0.00000000000E+00  0.00000000000E+00  0.45593999997E+02  0.45594000000E+02  0.51100000000E-03 0. -1.
         11   -1    0    0    0    0 -0.00000000000E+00 -0.00000000000E+00 -0.45593999997E+02  0.45594000000E+02  0.51100000000E-03 0.  1.
         23    2    1    2    0    0  0.66613381478E-15 -0.17763568394E-14  0.00000000000E+00  0.91188000000E+02  0.91188000000E+02 0.  0.
    9900012    2    3    3    0    0 -0.13358930180E+01 -0.14875673113E+02  0.40749888458E+02  0.47787266481E+02  0.19999979191E+02 0.  0.
        -12    1    3    3    0    0  0.13358930180E+01  0.14875673113E+02 -0.40749888458E+02  0.43400733519E+02  0.00000000000E+00 0.  1.
         11    1    4    4    0    0  0.16644007892E+00 -0.62465889836E+01  0.23672179468E+02  0.24483048365E+02  0.51100000000E-03 0. -1.
        -11    1    4    4    0    0  0.58591501114E+01 -0.29916527468E+01  0.67738790470E+01  0.94427254429E+01  0.51100000000E-03 0.  1.
        -12    1    4    4    0    0 -0.73614832083E+01 -0.56374313824E+01  0.10303829942E+02  0.13861492672E+02  0.00000000000E+00 0.  1.
</event>
<event>
 8    1  0.2994958E-010  0.9118800E+02  0.7816164E-02  0.1184000E+00
        -11   -1    0    0    0    0  0.00000000000E+00  0.00000000000E+00  0.45593999997E+02  0.45594000000E+02  0.51100000000E-03 0.  1.
         11   -1    0    0    0    0 -0.00000000000E+00 -0.00000000000E+00 -0.45593999997E+02  0.45594000000E+02  0.51100000000E-03 0. -1.
         23    2    1    2    0    0  0.00000000000E+00  0.17763568394E-14  0.00000000000E+00  0.91188000000E+02  0.91188000000E+02 0.  0.
    9900012    2    3    3    0    0  0.40731679587E+02  0.72939351924E+01  0.13090181774E+02  0.47787261856E+02  0.19999958108E+02 0.  0.
        -12    1    3    3    0    0 -0.40731679587E+02 -0.72939351924E+01 -0.13090181774E+02  0.43400738144E+02  0.00000000000E+00 0.  1.
         11    1    4    4    0    0  0.32752738023E+01  0.41810293651E+01  0.29521418953E+01  0.60764765335E+01  0.51100000000E-03 0. -1.
        -11    1    4    4    0    0  0.18079808083E+02  0.30354683244E+01  0.12502616490E+02  0.22190289489E+02  0.51100000000E-03 0.  1.
        -12    1    4    4    0    0  0.19376597701E+02  0.77437502908E-01 -0.23645766112E+01  0.19520495834E+02  0.00000000000E+00 0.  1.
</event>
<event>
 8    1  0.2994958E-010  0.9118800E+02  0.7816164E-02  0.1184000E+00
        -11   -1    0    0    0    0  0.00000000000E+00  0.00000000000E+00  0.45593999997E+02  0.45594000000E+02  0.51100000000E-03 0. -1.
         11   -1    0    0    0    0 -0.00000000000E+00 -0.00000000000E+00 -0.45593999997E+02  0.45594000000E+02  0.51100000000E-03 0.  1.
         23    2    1    2    0    0  0.00000000000E+00  0.35527136788E-14 -0.35527136788E-14  0.91188000000E+02  0.91188000000E+02 0.  0.
    9900012    2    3    3    0    0 -0.32219706461E+02 -0.17684876384E+02  0.23081570829E+02  0.47787271330E+02  0.20000001301E+02 0.  0.
        -12    1    3    3    0    0  0.32219706461E+02  0.17684876384E+02 -0.23081570829E+02  0.43400728670E+02  0.00000000000E+00 0.  1.
         11    1    4    4    0    0 -0.11415539209E+02 -0.64628002499E+01  0.48714413343E+01  0.13993329248E+02  0.51100000000E-03 0. -1.
        -11    1    4    4    0    0  0.17454810116E+01 -0.27920532362E+01 -0.46538780799E+00  0.33254851238E+01  0.51100000000E-03 0.  1.
        -12    1    4    4    0    0 -0.22549648263E+02 -0.84300228981E+01  0.18675517303E+02  0.30468456958E+02  0.00000000000E+00 0.  1.
</event>
<event>
 8    1  0.2994958E-010  0.9118800E+02  0.7816164E-02  0.1184000E+00
        -11   -1    0    0    0    0  0.00000000000E+00  0.00000000000E+00  0.45593999997E+02  0.45594000000E+02  0.51100000000E-03 0.  1.
         11   -1    0    0    0    0 -0.00000000000E+00 -0.00000000000E+00 -0.45593999997E+02  0.45594000000E+02  0.51100000000E-03 0. -1.
         23    2    1    2    0    0 -0.71054273576E-14  0.00000000000E+00  0.00000000000E+00  0.91188000000E+02  0.91188000000E+02 0.  0.
    9900012    2    3    3    0    0 -0.22029800731E+02  0.36459957503E+02 -0.83056125094E+01  0.47787264747E+02  0.19999971287E+02 0.  0.
         12    1    3    3    0    0  0.22029800731E+02 -0.36459957503E+02  0.83056125094E+01  0.43400735253E+02  0.00000000000E+00 0. -1.
         11    1    4    4    0    0 -0.82549044407E+01  0.16955850984E+01 -0.26540452522E+01  0.88352935782E+01  0.51100000000E-03 0. -1.
        -11    1    4    4    0    0 -0.64942204515E+01  0.12671154513E+02 -0.65498000717E+01  0.15672681239E+02  0.51100000000E-03 0.  1.
        -12    1    4    4    0    0 -0.72806758391E+01  0.22093217891E+02  0.89823281448E+00  0.23279289930E+02  0.00000000000E+00 0.  1.
</event>
<event>
 8    1  0.2994958E-010  0.9118800E+02  0.7816164E-02  0.1184000E+00
        -11   -1    0    0    0    0  0.00000000000E+00  0.00000000000E+00  0.45593999997E+02  0.45594000000E+02  0.51100000000E-03 0. -1.
         11   -1    0    0    0    0 -0.00000000000E+00 -0.00000000000E+00 -0.45593999997E+02  0.45594000000E+02  0.51100000000E-03 0.  1.
         23    2    1    2    0    0  0.00000000000E+00  0.00000000000E+00  0.00000000000E+00  0.91188000000E+02  0.91188000000E+02 0.  0.
    9900012    2    3    3    0    0  0.40230079056E+02  0.93587553530E+01 -0.13325818704E+02  0.47787274122E+02  0.20000014031E+02 0.  0.
         12    1    3    3    0    0 -0.40230079056E+02 -0.93587553530E+01  0.13325818704E+02  0.43400725878E+02  0.00000000000E+00 0. -1.
         11    1    4    4    0    0  0.62030069714E+01  0.14431459540E+01  0.23985522133E+01  0.68053669051E+01  0.51100000000E-03 0. -1.
        -11    1    4    4    0    0  0.54923202537E+01 -0.38557505588E+01 -0.47502003061E+01  0.82217271512E+01  0.51100000000E-03 0.  1.
        -12    1    4    4    0    0  0.28534751831E+02  0.11771359958E+02 -0.10974170611E+02  0.32760180065E+02  0.00000000000E+00 0.  1.
</event>
<event>
 8    1  0.2994958E-010  0.9118800E+02  0.7816164E-02  0.1184000E+00
        -11   -1    0    0    0    0  0.00000000000E+00  0.00000000000E+00  0.45593999997E+02  0.45594000000E+02  0.51100000000E-03 0. -1.
         11   -1    0    0    0    0 -0.00000000000E+00 -0.00000000000E+00 -0.45593999997E+02  0.45594000000E+02  0.51100000000E-03 0.  1.
         23    2    1    2    0    0  0.00000000000E+00  0.35527136788E-14  0.00000000000E+00  0.91188000000E+02  0.91188000000E+02 0.  0.
    9900012    2    3    3    0    0  0.15009501549E+01  0.24399268255E+02  0.35861483138E+02  0.47787272868E+02  0.20000008315E+02 0.  0.
        -12    1    3    3    0    0 -0.15009501549E+01 -0.24399268255E+02 -0.35861483138E+02  0.43400727132E+02  0.00000000000E+00 0.  1.
         11    1    4    4    0    0  0.40094289585E+01  0.23812109227E+01  0.32601567911E+01  0.56898425808E+01  0.51100000000E-03 0. -1.
        -11    1    4    4    0    0 -0.54013349498E+01  0.34309109658E+01  0.31026570610E+01  0.71114028430E+01  0.51100000000E-03 0.  1.
        -12    1    4    4    0    0  0.28928561462E+01  0.18587146366E+02  0.29498669285E+02  0.34986027444E+02  0.00000000000E+00 0.  1.
</event>
<event>
 8    1  0.2994958E-010  0.9118800E+02  0.7816164E-02  0.1184000E+00
        -11   -1    0    0    0    0  0.00000000000E+00  0.00000000000E+00  0.45593999997E+02  0.45594000000E+02  0.51100000000E-03 0. -1.
         11   -1    0    0    0    0 -0.00000000000E+00 -0.00000000000E+00 -0.45593999997E+02  0.45594000000E+02  0.51100000000E-03 0.  1.
         23    2    1    2    0    0  0.00000000000E+00  0.00000000000E+00  0.00000000000E+00  0.91188000000E+02  0.91188000000E+02 0.  0.
    9900012    2    3    3    0    0 -0.33072198616E+02  0.60259438301E+01  0.27450697662E+02  0.47787272789E+02  0.20000007953E+02 0.  0.
        -12    1    3    3    0    0  0.33072198616E+02 -0.60259438301E+01 -0.27450697662E+02  0.43400727211E+02  0.00000000000E+00 0.  1.
         11    1    4    4    0    0 -0.86887267733E+01  0.71802169559E+00  0.21169144328E+01  0.89716695812E+01  0.51100000000E-03 0. -1.
        -11    1    4    4    0    0 -0.18196380277E+02  0.25772104507E+01  0.76934791327E+01  0.19923350379E+02  0.51100000000E-03 0.  1.
         12    1    4    4    0    0 -0.61870915663E+01  0.27307116837E+01  0.17640304096E+02  0.18892252829E+02  0.00000000000E+00 0. -1.
</event>
<event>
 8    1  0.2994958E-010  0.9118800E+02  0.7816164E-02  0.1184000E+00
        -11   -1    0    0    0    0  0.00000000000E+00  0.00000000000E+00  0.45593999997E+02  0.45594000000E+02  0.51100000000E-03 0. -1.
         11   -1    0    0    0    0 -0.00000000000E+00 -0.00000000000E+00 -0.45593999997E+02  0.45594000000E+02  0.51100000000E-03 0.  1.
         23    2    1    2    0    0  0.00000000000E+00  0.13322676296E-14 -0.71054273576E-14  0.91188000000E+02  0.91188000000E+02 0.  0.
    9900012    2    3    3    0    0 -0.95187556134E+01 -0.34000936618E+01  0.42207291085E+02  0.47787276894E+02  0.20000026672E+02 0.  0.
        -12    1    3    3    0    0  0.95187556134E+01  0.34000936618E+01 -0.42207291085E+02  0.43400723106E+02  0.00000000000E+00 0.  1.
         11    1    4    4    0    0 -0.42253848839E+01 -0.10464169681E+01  0.22129015808E+02  0.22553097498E+02  0.51100000000E-03 0. -1.
        -11    1    4    4    0    0 -0.65871062203E+01 -0.74682051987E+01  0.12122890971E+02  0.15688484408E+02  0.51100000000E-03 0.  1.
         12    1    4    4    0    0  0.12937354908E+01  0.51145285050E+01  0.79553843063E+01  0.95456949883E+01  0.00000000000E+00 0. -1.
</event>
<event>
 8    1  0.2994958E-010  0.9118800E+02  0.7816164E-02  0.1184000E+00
        -11   -1    0    0    0    0  0.00000000000E+00  0.00000000000E+00  0.45593999997E+02  0.45594000000E+02  0.51100000000E-03 0. -1.
         11   -1    0    0    0    0 -0.00000000000E+00 -0.00000000000E+00 -0.45593999997E+02  0.45594000000E+02  0.51100000000E-03 0.  1.
         23    2    1    2    0    0  0.00000000000E+00  0.88817841970E-15 -0.71054273576E-14  0.91188000000E+02  0.91188000000E+02 0.  0.
    9900012    2    3    3    0    0 -0.26522344452E+01 -0.60101922447E+01  0.42900655748E+02  0.47787273947E+02  0.20000013232E+02 0.  0.
        -12    1    3    3    0    0  0.26522344452E+01  0.60101922447E+01 -0.42900655748E+02  0.43400726053E+02  0.00000000000E+00 0.  1.
         11    1    4    4    0    0 -0.16249734187E+01 -0.76492618494E+01  0.31906754968E+02  0.32851069363E+02  0.51100000000E-03 0. -1.
        -11    1    4    4    0    0 -0.16350514721E+01  0.17488631652E+01  0.12802820750E+02  0.13024750866E+02  0.51100000000E-03 0.  1.
        -12    1    4    4    0    0  0.60779044562E+00 -0.10979356046E+00 -0.18089199710E+01  0.19114537172E+01  0.00000000000E+00 0.  1.
</event>
<event>
 8    1  0.2994958E-010  0.9118800E+02  0.7816164E-02  0.1184000E+00
        -11   -1    0    0    0    0  0.00000000000E+00  0.00000000000E+00  0.45593999997E+02  0.45594000000E+02  0.51100000000E-03 0. -1.
         11   -1    0    0    0    0 -0.00000000000E+00 -0.00000000000E+00 -0.45593999997E+02  0.45594000000E+02  0.51100000000E-03 0.  1.
         23    2    1    2    0    0  0.00000000000E+00  0.17763568394E-14  0.71054273576E-14  0.91188000000E+02  0.91188000000E+02 0.  0.
    9900012    2    3    3    0    0 -0.18255872278E+02  0.96157564946E+01  0.38182232531E+02  0.47787279653E+02  0.20000039251E+02 0.  0.
        -12    1    3    3    0    0  0.18255872278E+02 -0.96157564946E+01 -0.38182232531E+02  0.43400720347E+02  0.00000000000E+00 0.  1.
         11    1    4    4    0    0 -0.36343957154E+01 -0.88563019142E+00  0.86513464271E+01  0.94254426058E+01  0.51100000000E-03 0. -1.
        -11    1    4    4    0    0  0.60450895370E+00 -0.93384890750E+00 -0.15522590907E+01  0.19097155293E+01  0.51100000000E-03 0.  1.
        -12    1    4    4    0    0 -0.15225985516E+02  0.11435235594E+02  0.31083145194E+02  0.36452121518E+02  0.00000000000E+00 0.  1.
</event>
<event>
 8    1  0.2994958E-010  0.9118800E+02  0.7816164E-02  0.1184000E+00
        -11   -1    0    0    0    0  0.00000000000E+00  0.00000000000E+00  0.45593999997E+02  0.45594000000E+02  0.51100000000E-03 0. -1.
         11   -1    0    0    0    0 -0.00000000000E+00 -0.00000000000E+00 -0.45593999997E+02  0.45594000000E+02  0.51100000000E-03 0.  1.
         23    2    1    2    0    0  0.00000000000E+00  0.35527136788E-14  0.00000000000E+00  0.91188000000E+02  0.91188000000E+02 0.  0.
    9900012    2    3    3    0    0 -0.33770455859E+02  0.17061560129E+02  0.21262239188E+02  0.47787270303E+02  0.19999996619E+02 0.  0.
        -12    1    3    3    0    0  0.33770455859E+02 -0.17061560129E+02 -0.21262239188E+02  0.43400729697E+02  0.00000000000E+00 0.  1.
         11    1    4    4    0    0 -0.31475706045E+01  0.71319848278E+01  0.60445370074E+01  0.98645241238E+01  0.51100000000E-03 0. -1.
        -11    1    4    4    0    0 -0.82171800202E+01  0.23518593974E+01  0.10945952579E+02  0.13887662446E+02  0.51100000000E-03 0.  1.
        -12    1    4    4    0    0 -0.22405705235E+02  0.75777159034E+01  0.42717496019E+01  0.24035083733E+02  0.00000000000E+00 0.  1.
</event>
<event>
 8    1  0.3250212E-010  0.9118800E+02  0.7816164E-02  0.1184000E+00
        -11   -1    0    0    0    0  0.00000000000E+00  0.00000000000E+00  0.45593999997E+02  0.45594000000E+02  0.51100000000E-03 0. -1.
         11   -1    0    0    0    0 -0.00000000000E+00 -0.00000000000E+00 -0.45593999997E+02  0.45594000000E+02  0.51100000000E-03 0.  1.
         23    2    1    2    0    0 -0.17763568394E-14  0.17763568394E-14  0.00000000000E+00  0.91188000000E+02  0.91188000000E+02 0.  0.
    9900012    2    3    3    0    0  0.14575186112E+02 -0.15151481986E+02  0.37968657844E+02  0.47787280708E+02  0.20000044059E+02 0.  0.
        -12    1    3    3    0    0 -0.14575186112E+02  0.15151481986E+02 -0.37968657844E+02  0.43400719292E+02  0.00000000000E+00 0.  1.
         11    1    4    4    0    0  0.13344742872E+02 -0.77462285772E+01  0.16863808990E+02  0.22857696152E+02  0.51100000000E-03 0. -1.
        -11    1    4    4    0    0 -0.21493644050E+00 -0.45970340576E-01 -0.12919033959E+01  0.13104676994E+01  0.51100000000E-03 0.  1.
         12    1    4    4    0    0  0.14453796812E+01 -0.73592830687E+01  0.22396752250E+02  0.23619116856E+02  0.00000000000E+00 0. -1.
</event>
<event>
 8    1  0.2994958E-010  0.9118800E+02  0.7816164E-02  0.1184000E+00
        -11   -1    0    0    0    0  0.00000000000E+00  0.00000000000E+00  0.45593999997E+02  0.45594000000E+02  0.51100000000E-03 0. -1.
         11   -1    0    0    0    0 -0.00000000000E+00 -0.00000000000E+00 -0.45593999997E+02  0.45594000000E+02  0.51100000000E-03 0.  1.
         23    2    1    2    0    0  0.35527136788E-14  0.00000000000E+00  0.00000000000E+00  0.91188000000E+02  0.91188000000E+02 0.  0.
    9900012    2    3    3    0    0  0.30325646531E+02  0.21712639511E+02 -0.22193227428E+02  0.47787275401E+02  0.20000019864E+02 0.  0.
         12    1    3    3    0    0 -0.30325646531E+02 -0.21712639511E+02  0.22193227428E+02  0.43400724599E+02  0.00000000000E+00 0. -1.
         11    1    4    4    0    0  0.15225661381E+02  0.86544409664E+01 -0.13754467271E+02  0.22268935383E+02  0.51100000000E-03 0. -1.
        -11    1    4    4    0    0  0.16983039866E+02  0.81738138084E+01 -0.66421809801E+01  0.19983829556E+02  0.51100000000E-03 0.  1.
         12    1    4    4    0    0 -0.18830547169E+01  0.48843847360E+01 -0.17965791770E+01  0.55345104621E+01  0.00000000000E+00 0. -1.
</event>
<event>
 8    1  0.2994958E-010  0.9118800E+02  0.7816164E-02  0.1184000E+00
        -11   -1    0    0    0    0  0.00000000000E+00  0.00000000000E+00  0.45593999997E+02  0.45594000000E+02  0.51100000000E-03 0. -1.
         11   -1    0    0    0    0 -0.00000000000E+00 -0.00000000000E+00 -0.45593999997E+02  0.45594000000E+02  0.51100000000E-03 0.  1.
         23    2    1    2    0    0  0.35527136788E-14  0.00000000000E+00  0.35527136788E-14  0.91188000000E+02  0.91188000000E+02 0.  0.
    9900012    2    3    3    0    0 -0.28489012940E+02  0.13369898006E+02  0.29887209722E+02  0.47787270329E+02  0.19999996739E+02 0.  0.
        -12    1    3    3    0    0  0.28489012940E+02 -0.13369898006E+02 -0.29887209722E+02  0.43400729671E+02  0.00000000000E+00 0.  1.
         11    1    4    4    0    0 -0.60334884107E+00  0.44711688359E+01  0.45104236104E+01  0.63796004569E+01  0.51100000000E-03 0. -1.
        -11    1    4    4    0    0 -0.44651844957E+01  0.52774281634E+00  0.12739682551E+02  0.13509844441E+02  0.51100000000E-03 0.  1.
         12    1    4    4    0    0 -0.23420479603E+02  0.83709863538E+01  0.12637103560E+02  0.27897825431E+02  0.00000000000E+00 0. -1.
</event>
<event>
 8    1  0.2994958E-010  0.9118800E+02  0.7816164E-02  0.1184000E+00
        -11   -1    0    0    0    0  0.00000000000E+00  0.00000000000E+00  0.45593999997E+02  0.45594000000E+02  0.51100000000E-03 0. -1.
         11   -1    0    0    0    0 -0.00000000000E+00 -0.00000000000E+00 -0.45593999997E+02  0.45594000000E+02  0.51100000000E-03 0.  1.
         23    2    1    2    0    0  0.00000000000E+00  0.00000000000E+00  0.00000000000E+00  0.91188000000E+02  0.91188000000E+02 0.  0.
    9900012    2    3    3    0    0 -0.91567853582E+01  0.13523318186E+02  0.40210652318E+02  0.47787269445E+02  0.19999992707E+02 0.  0.
        -12    1    3    3    0    0  0.91567853582E+01 -0.13523318186E+02 -0.40210652318E+02  0.43400730555E+02  0.00000000000E+00 0.  1.
         11    1    4    4    0    0 -0.10526526534E+00  0.11722439581E+02  0.29862603122E+02  0.32081174168E+02  0.51100000000E-03 0. -1.
        -11    1    4    4    0    0  0.52874803048E+00  0.97759688635E+00 -0.49237756708E+00  0.12156093458E+01  0.51100000000E-03 0.  1.
         12    1    4    4    0    0 -0.95802681233E+01  0.82328171809E+00  0.10840426763E+02  0.14490485931E+02  0.00000000000E+00 0. -1.
</event>
<event>
 8    1  0.2994958E-010  0.9118800E+02  0.7816164E-02  0.1184000E+00
        -11   -1    0    0    0    0  0.00000000000E+00  0.00000000000E+00  0.45593999997E+02  0.45594000000E+02  0.51100000000E-03 0. -1.
         11   -1    0    0    0    0 -0.00000000000E+00 -0.00000000000E+00 -0.45593999997E+02  0.45594000000E+02  0.51100000000E-03 0.  1.
         23    2    1    2    0    0  0.00000000000E+00  0.00000000000E+00  0.00000000000E+00  0.91188000000E+02  0.91188000000E+02 0.  0.
    9900012    2    3    3    0    0 -0.36555705376E+02  0.13990408882E+02  0.18750247201E+02  0.47787275279E+02  0.20000019305E+02 0.  0.
        -12    1    3    3    0    0  0.36555705376E+02 -0.13990408882E+02 -0.18750247201E+02  0.43400724721E+02  0.00000000000E+00 0.  1.
         11    1    4    4    0    0 -0.39748226891E+01  0.26106420864E+01  0.82785311315E+01  0.95471852118E+01  0.51100000000E-03 0. -1.
        -11    1    4    4    0    0 -0.80438678944E+01 -0.19516430060E+01  0.53328941834E+01  0.98464451331E+01  0.51100000000E-03 0.  1.
         12    1    4    4    0    0 -0.24537014793E+02  0.13331409801E+02  0.51388218865E+01  0.28393644934E+02  0.00000000000E+00 0. -1.
</event>
<event>
 8    1  0.2994958E-010  0.9118800E+02  0.7816164E-02  0.1184000E+00
        -11   -1    0    0    0    0  0.00000000000E+00  0.00000000000E+00  0.45593999997E+02  0.45594000000E+02  0.51100000000E-03 0.  1.
         11   -1    0    0    0    0 -0.00000000000E+00 -0.00000000000E+00 -0.45593999997E+02  0.45594000000E+02  0.51100000000E-03 0. -1.
         23    2    1    2    0    0  0.13322676296E-14  0.00000000000E+00  0.30531133177E-15  0.91188000000E+02  0.91188000000E+02 0.  0.
    9900012    2    3    3    0    0  0.12714329227E+01 -0.43381695094E+02  0.18958775836E+00  0.47787263204E+02  0.19999964252E+02 0.  0.
         12    1    3    3    0    0 -0.12714329227E+01  0.43381695094E+02 -0.18958775836E+00  0.43400736796E+02  0.00000000000E+00 0. -1.
         11    1    4    4    0    0  0.27717446849E+01 -0.55355735593E+01 -0.38014626506E+01  0.72647272333E+01  0.51100000000E-03 0. -1.
        -11    1    4    4    0    0  0.19923707358E+01 -0.29121605179E+02 -0.21942332426E+01  0.29272035958E+02  0.51100000000E-03 0.  1.
        -12    1    4    4    0    0 -0.34926824980E+01 -0.87245163558E+01  0.61852836516E+01  0.11250500012E+02  0.00000000000E+00 0.  1.
</event>
<event>
 8    1  0.2994958E-010  0.9118800E+02  0.7816164E-02  0.1184000E+00
        -11   -1    0    0    0    0  0.00000000000E+00  0.00000000000E+00  0.45593999997E+02  0.45594000000E+02  0.51100000000E-03 0.  1.
         11   -1    0    0    0    0 -0.00000000000E+00 -0.00000000000E+00 -0.45593999997E+02  0.45594000000E+02  0.51100000000E-03 0. -1.
         23    2    1    2    0    0  0.00000000000E+00  0.00000000000E+00 -0.44408920985E-15  0.91188000000E+02  0.91188000000E+02 0.  0.
    9900012    2    3    3    0    0  0.42475533739E+02 -0.84042938605E+01 -0.29700095069E+01  0.47787261779E+02  0.19999957753E+02 0.  0.
         12    1    3    3    0    0 -0.42475533739E+02  0.84042938605E+01  0.29700095069E+01  0.43400738221E+02  0.00000000000E+00 0. -1.
         11    1    4    4    0    0  0.12454380689E+02 -0.14136090536E+01 -0.48060953788E+01  0.13424173790E+02  0.51100000000E-03 0. -1.
        -11    1    4    4    0    0  0.31476573169E+02 -0.50373292893E+01  0.16398835334E+01  0.31919250666E+02  0.51100000000E-03 0.  1.
        -12    1    4    4    0    0 -0.14554201188E+01 -0.19533555176E+01  0.19620233862E+00  0.24438373223E+01  0.00000000000E+00 0.  1.
</event>
<event>
 8    1  0.2994958E-010  0.9118800E+02  0.7816164E-02  0.1184000E+00
        -11   -1    0    0    0    0  0.00000000000E+00  0.00000000000E+00  0.45593999997E+02  0.45594000000E+02  0.51100000000E-03 0. -1.
         11   -1    0    0    0    0 -0.00000000000E+00 -0.00000000000E+00 -0.45593999997E+02  0.45594000000E+02  0.51100000000E-03 0.  1.
         23    2    1    2    0    0  0.00000000000E+00  0.35527136788E-14  0.00000000000E+00  0.91188000000E+02  0.91188000000E+02 0.  0.
    9900012    2    3    3    0    0 -0.24762327852E+02  0.25751012574E+02 -0.24644183379E+02  0.47787270701E+02  0.19999998435E+02 0.  0.
         12    1    3    3    0    0  0.24762327852E+02 -0.25751012574E+02  0.24644183379E+02  0.43400729299E+02  0.00000000000E+00 0. -1.
         11    1    4    4    0    0 -0.63858383384E+01 -0.12891475552E+01 -0.55634788475E+01  0.85669790388E+01  0.51100000000E-03 0. -1.
        -11    1    4    4    0    0 -0.10987057334E+02  0.73137048503E+01 -0.71326877129E+01  0.15002697816E+02  0.51100000000E-03 0.  1.
        -12    1    4    4    0    0 -0.73894321799E+01  0.19726455278E+02 -0.11948016819E+02  0.24217593846E+02  0.00000000000E+00 0.  1.
</event>
<event>
 8    1  0.2994958E-010  0.9118800E+02  0.7816164E-02  0.1184000E+00
        -11   -1    0    0    0    0  0.00000000000E+00  0.00000000000E+00  0.45593999997E+02  0.45594000000E+02  0.51100000000E-03 0. -1.
         11   -1    0    0    0    0 -0.00000000000E+00 -0.00000000000E+00 -0.45593999997E+02  0.45594000000E+02  0.51100000000E-03 0.  1.
         23    2    1    2    0    0  0.71054273576E-14  0.17763568394E-14  0.00000000000E+00  0.91188000000E+02  0.91188000000E+02 0.  0.
    9900012    2    3    3    0    0  0.40491227023E+02  0.93589473872E+01  0.12509758506E+02  0.47787269362E+02  0.19999992328E+02 0.  0.
        -12    1    3    3    0    0 -0.40491227023E+02 -0.93589473872E+01 -0.12509758506E+02  0.43400730638E+02  0.00000000000E+00 0.  1.
         11    1    4    4    0    0  0.23016710528E+02  0.67869483165E+01  0.12432249257E+02  0.27025773862E+02  0.51100000000E-03 0. -1.
        -11    1    4    4    0    0  0.31925064163E+01  0.12067146513E+01  0.45914945500E+01  0.57210208819E+01  0.51100000000E-03 0.  1.
        -12    1    4    4    0    0  0.14282010079E+02  0.13652844194E+01 -0.45139853005E+01  0.15040474618E+02  0.00000000000E+00 0.  1.
</event>
<event>
 8    1  0.2994958E-010  0.9118800E+02  0.7816164E-02  0.1184000E+00
        -11   -1    0    0    0    0  0.00000000000E+00  0.00000000000E+00  0.45593999997E+02  0.45594000000E+02  0.51100000000E-03 0. -1.
         11   -1    0    0    0    0 -0.00000000000E+00 -0.00000000000E+00 -0.45593999997E+02  0.45594000000E+02  0.51100000000E-03 0.  1.
         23    2    1    2    0    0  0.71054273576E-14 -0.35527136788E-14 -0.53290705182E-14  0.91188000000E+02  0.91188000000E+02 0.  0.
    9900012    2    3    3    0    0  0.35054176307E+02 -0.22640769163E+02 -0.11925693481E+02  0.47787287219E+02  0.20000073748E+02 0.  0.
         12    1    3    3    0    0 -0.35054176307E+02  0.22640769163E+02  0.11925693481E+02  0.43400712781E+02  0.00000000000E+00 0. -1.
         11    1    4    4    0    0  0.75189883723E+00  0.10423841803E+00 -0.38806514494E+01  0.39541969402E+01  0.51100000000E-03 0.  1.
        -11    1    4    4    0    0  0.34656376320E+02 -0.20694633877E+02 -0.92738305592E+01  0.41416617733E+02  0.51100000000E-03 0. -1.
         12    1    4    4    0    0 -0.35409885014E+00 -0.20503737044E+01  0.12287885273E+01  0.24164725465E+01  0.00000000000E+00 0. -1.
</event>
<event>
 8    1  0.2994958E-010  0.9118800E+02  0.7816164E-02  0.1184000E+00
        -11   -1    0    0    0    0  0.00000000000E+00  0.00000000000E+00  0.45593999997E+02  0.45594000000E+02  0.51100000000E-03 0.  1.
         11   -1    0    0    0    0 -0.00000000000E+00 -0.00000000000E+00 -0.45593999997E+02  0.45594000000E+02  0.51100000000E-03 0. -1.
         23    2    1    2    0    0 -0.71054273576E-14  0.35527136788E-14  0.00000000000E+00  0.91188000000E+02  0.91188000000E+02 0.  0.
    9900012    2    3    3    0    0 -0.32948887237E+02 -0.26963894965E+02 -0.84227210462E+01  0.47787273834E+02  0.20000012720E+02 0.  0.
         12    1    3    3    0    0  0.32948887237E+02  0.26963894965E+02  0.84227210462E+01  0.43400726166E+02  0.00000000000E+00 0. -1.
         11    1    4    4    0    0 -0.70942171067E-01 -0.29898528869E+01  0.31839835704E+01  0.43682954015E+01  0.51100000000E-03 0. -1.
        -11    1    4    4    0    0 -0.64373090200E+01 -0.79604940965E+01  0.42932425049E+00  0.10246596179E+02  0.51100000000E-03 0.  1.
        -12    1    4    4    0    0 -0.26440636046E+02 -0.16013547982E+02 -0.12036028867E+02  0.33172382254E+02  0.00000000000E+00 0.  1.
</event>
<event>
 8    1  0.2994958E-010  0.9118800E+02  0.7816164E-02  0.1184000E+00
        -11   -1    0    0    0    0  0.00000000000E+00  0.00000000000E+00  0.45593999997E+02  0.45594000000E+02  0.51100000000E-03 0. -1.
         11   -1    0    0    0    0 -0.00000000000E+00 -0.00000000000E+00 -0.45593999997E+02  0.45594000000E+02  0.51100000000E-03 0.  1.
         23    2    1    2    0    0  0.00000000000E+00  0.00000000000E+00  0.00000000000E+00  0.91188000000E+02  0.91188000000E+02 0.  0.
    9900012    2    3    3    0    0  0.20269505284E+02  0.20592585550E+02 -0.32383833559E+02  0.47787307608E+02  0.20000166709E+02 0.  0.
         12    1    3    3    0    0 -0.20269505284E+02 -0.20592585550E+02  0.32383833559E+02  0.43400692392E+02  0.00000000000E+00 0. -1.
         11    1    4    4    0    0  0.58808900024E+00 -0.21778598349E+00 -0.67163296173E+01  0.67455439511E+01  0.51100000000E-03 0. -1.
        -11    1    4    4    0    0  0.98143389005E+00  0.46390939302E+01 -0.11750814183E+02  0.12671465550E+02  0.51100000000E-03 0.  1.
         12    1    4    4    0    0  0.18699982394E+02  0.16171277603E+02 -0.13916689759E+02  0.28370298107E+02  0.00000000000E+00 0. -1.
</event>
<event>
 8    1  0.2994958E-010  0.9118800E+02  0.7816164E-02  0.1184000E+00
        -11   -1    0    0    0    0  0.00000000000E+00  0.00000000000E+00  0.45593999997E+02  0.45594000000E+02  0.51100000000E-03 0. -1.
         11   -1    0    0    0    0 -0.00000000000E+00 -0.00000000000E+00 -0.45593999997E+02  0.45594000000E+02  0.51100000000E-03 0.  1.
         23    2    1    2    0    0 -0.35527136788E-14  0.00000000000E+00  0.00000000000E+00  0.91188000000E+02  0.91188000000E+02 0.  0.
    9900012    2    3    3    0    0  0.13723059898E+02  0.25011159445E+02  0.32706930026E+02  0.47787265657E+02  0.19999975439E+02 0.  0.
        -12    1    3    3    0    0 -0.13723059898E+02 -0.25011159445E+02 -0.32706930026E+02  0.43400734343E+02  0.00000000000E+00 0.  1.
         11    1    4    4    0    0  0.16967869484E+02  0.21073521558E+02  0.18791761339E+02  0.32941344845E+02  0.51100000000E-03 0. -1.
        -11    1    4    4    0    0 -0.84612628336E+00  0.63412446949E+00  0.22267408540E+01  0.24650392739E+01  0.51100000000E-03 0.  1.
         12    1    4    4    0    0 -0.23986833023E+01  0.33035134177E+01  0.11688427832E+02  0.12380881539E+02  0.00000000000E+00 0. -1.
</event>
<event>
 8    1  0.2994958E-010  0.9118800E+02  0.7816164E-02  0.1184000E+00
        -11   -1    0    0    0    0  0.00000000000E+00  0.00000000000E+00  0.45593999997E+02  0.45594000000E+02  0.51100000000E-03 0.  1.
         11   -1    0    0    0    0 -0.00000000000E+00 -0.00000000000E+00 -0.45593999997E+02  0.45594000000E+02  0.51100000000E-03 0. -1.
         23    2    1    2    0    0  0.00000000000E+00 -0.88817841970E-15  0.00000000000E+00  0.91188000000E+02  0.91188000000E+02 0.  0.
    9900012    2    3    3    0    0 -0.28885054207E+02  0.68098143491E+01  0.31668657049E+02  0.47787265360E+02  0.19999974081E+02 0.  0.
        -12    1    3    3    0    0  0.28885054207E+02 -0.68098143491E+01 -0.31668657049E+02  0.43400734640E+02  0.00000000000E+00 0.  1.
         11    1    4    4    0    0  0.50009262862E+00  0.25953783828E+01  0.42502147145E+01  0.50050381584E+01  0.51100000000E-03 0. -1.
        -11    1    4    4    0    0 -0.81987729572E+01  0.76819392486E+01  0.11314854411E+02  0.15945469552E+02  0.51100000000E-03 0.  1.
         12    1    4    4    0    0 -0.21186373878E+02 -0.34675032823E+01  0.16103587924E+02  0.26836757650E+02  0.00000000000E+00 0. -1.
</event>
<event>
 8    1  0.2994958E-010  0.9118800E+02  0.7816164E-02  0.1184000E+00
        -11   -1    0    0    0    0  0.00000000000E+00  0.00000000000E+00  0.45593999997E+02  0.45594000000E+02  0.51100000000E-03 0. -1.
         11   -1    0    0    0    0 -0.00000000000E+00 -0.00000000000E+00 -0.45593999997E+02  0.45594000000E+02  0.51100000000E-03 0.  1.
         23    2    1    2    0    0  0.35527136788E-14  0.00000000000E+00  0.35527136788E-14  0.91188000000E+02  0.91188000000E+02 0.  0.
    9900012    2    3    3    0    0  0.29879039041E+02 -0.81974372673E+01  0.30391912876E+02  0.47787270513E+02  0.19999997576E+02 0.  0.
        -12    1    3    3    0    0 -0.29879039041E+02  0.81974372673E+01 -0.30391912876E+02  0.43400729487E+02  0.00000000000E+00 0.  1.
         11    1    4    4    0    0  0.80007992714E+01 -0.70957532792E+01  0.19258176360E+02  0.22028160626E+02  0.51100000000E-03 0. -1.
        -11    1    4    4    0    0  0.16876545930E+01 -0.19041620699E+01  0.31089853845E+01  0.40174371925E+01  0.51100000000E-03 0.  1.
        -12    1    4    4    0    0  0.20190585176E+02  0.80247808177E+00  0.80247511319E+01  0.21741672695E+02  0.00000000000E+00 0.  1.
</event>
<event>
 8    1  0.2994958E-010  0.9118800E+02  0.7816164E-02  0.1184000E+00
        -11   -1    0    0    0    0  0.00000000000E+00  0.00000000000E+00  0.45593999997E+02  0.45594000000E+02  0.51100000000E-03 0. -1.
         11   -1    0    0    0    0 -0.00000000000E+00 -0.00000000000E+00 -0.45593999997E+02  0.45594000000E+02  0.51100000000E-03 0.  1.
         23    2    1    2    0    0  0.00000000000E+00  0.00000000000E+00  0.22204460493E-15  0.91188000000E+02  0.91188000000E+02 0.  0.
    9900012    2    3    3    0    0 -0.40435422936E+02  0.15698904286E+02 -0.14644143534E+01  0.47787268057E+02  0.19999986378E+02 0.  0.
         12    1    3    3    0    0  0.40435422936E+02 -0.15698904286E+02  0.14644143534E+01  0.43400731943E+02  0.00000000000E+00 0. -1.
         11    1    4    4    0    0 -0.14139328631E+02  0.12194539722E+02 -0.53304906372E+01  0.19417557618E+02  0.51100000000E-03 0.  1.
        -11    1    4    4    0    0  0.34603685467E+00 -0.98465465730E+00  0.45135692456E+00  0.11371058145E+01  0.51100000000E-03 0. -1.
         12    1    4    4    0    0 -0.26642131160E+02  0.44890192217E+01  0.34147193592E+01  0.27232604625E+02  0.00000000000E+00 0. -1.
</event>
<event>
 8    1  0.2994958E-010  0.9118800E+02  0.7816164E-02  0.1184000E+00
        -11   -1    0    0    0    0  0.00000000000E+00  0.00000000000E+00  0.45593999997E+02  0.45594000000E+02  0.51100000000E-03 0. -1.
         11   -1    0    0    0    0 -0.00000000000E+00 -0.00000000000E+00 -0.45593999997E+02  0.45594000000E+02  0.51100000000E-03 0.  1.
         23    2    1    2    0    0  0.00000000000E+00  0.00000000000E+00  0.71054273576E-14  0.91188000000E+02  0.91188000000E+02 0.  0.
    9900012    2    3    3    0    0 -0.24550671102E+02  0.67231946059E+01 -0.35152331294E+02  0.47787271980E+02  0.20000004265E+02 0.  0.
         12    1    3    3    0    0  0.24550671102E+02 -0.67231946059E+01  0.35152331294E+02  0.43400728020E+02  0.00000000000E+00 0. -1.
         11    1    4    4    0    0 -0.17119916091E+02  0.10975728022E+02 -0.18476807003E+02  0.27476363112E+02  0.51100000000E-03 0. -1.
        -11    1    4    4    0    0 -0.79809828303E+01 -0.97013293954E+00 -0.98288861383E+01  0.12698198606E+02  0.51100000000E-03 0.  1.
        -12    1    4    4    0    0  0.55022781842E+00 -0.32824004767E+01 -0.68466381529E+01  0.76127102623E+01  0.00000000000E+00 0.  1.
</event>
<event>
 8    1  0.2994958E-010  0.9118800E+02  0.7816164E-02  0.1184000E+00
        -11   -1    0    0    0    0  0.00000000000E+00  0.00000000000E+00  0.45593999997E+02  0.45594000000E+02  0.51100000000E-03 0. -1.
         11   -1    0    0    0    0 -0.00000000000E+00 -0.00000000000E+00 -0.45593999997E+02  0.45594000000E+02  0.51100000000E-03 0.  1.
         23    2    1    2    0    0  0.00000000000E+00  0.44408920985E-15  0.00000000000E+00  0.91188000000E+02  0.91188000000E+02 0.  0.
    9900012    2    3    3    0    0  0.14961263600E+02  0.14416847768E+01 -0.40714923586E+02  0.47787275742E+02  0.20000021418E+02 0.  0.
         12    1    3    3    0    0 -0.14961263600E+02 -0.14416847768E+01  0.40714923586E+02  0.43400724258E+02  0.00000000000E+00 0. -1.
         11    1    4    4    0    0  0.50322532654E+00 -0.29285838407E+01 -0.40716472346E+01  0.50406498099E+01  0.51100000000E-03 0. -1.
        -11    1    4    4    0    0  0.74481627237E+01 -0.56607561424E+01 -0.20085491161E+02  0.22157306774E+02  0.51100000000E-03 0.  1.
        -12    1    4    4    0    0  0.70098755500E+01  0.10031024760E+02 -0.16557785191E+02  0.20589319158E+02  0.00000000000E+00 0.  1.
</event>
<event>
 8    1  0.2994958E-010  0.9118800E+02  0.7816164E-02  0.1184000E+00
        -11   -1    0    0    0    0  0.00000000000E+00  0.00000000000E+00  0.45593999997E+02  0.45594000000E+02  0.51100000000E-03 0. -1.
         11   -1    0    0    0    0 -0.00000000000E+00 -0.00000000000E+00 -0.45593999997E+02  0.45594000000E+02  0.51100000000E-03 0.  1.
         23    2    1    2    0    0  0.00000000000E+00  0.22204460493E-15 -0.71054273576E-14  0.91188000000E+02  0.91188000000E+02 0.  0.
    9900012    2    3    3    0    0 -0.14617000532E+01 -0.14877965997E+01  0.43350586037E+02  0.47787269412E+02  0.19999992559E+02 0.  0.
        -12    1    3    3    0    0  0.14617000532E+01  0.14877965997E+01 -0.43350586037E+02  0.43400730588E+02  0.00000000000E+00 0.  1.
         11    1    4    4    0    0  0.20546159665E+00  0.31684111213E+01  0.26803240914E+02  0.26990642216E+02  0.51100000000E-03 0. -1.
        -11    1    4    4    0    0 -0.52441836715E+01 -0.63620542136E+01  0.85868904668E+01  0.11904280085E+02  0.51100000000E-03 0.  1.
        -12    1    4    4    0    0  0.35770220216E+01  0.17058464925E+01  0.79604546568E+01  0.88923471110E+01  0.00000000000E+00 0.  1.
</event>
<event>
 8    1  0.2994958E-010  0.9118800E+02  0.7816164E-02  0.1184000E+00
        -11   -1    0    0    0    0  0.00000000000E+00  0.00000000000E+00  0.45593999997E+02  0.45594000000E+02  0.51100000000E-03 0. -1.
         11   -1    0    0    0    0 -0.00000000000E+00 -0.00000000000E+00 -0.45593999997E+02  0.45594000000E+02  0.51100000000E-03 0.  1.
         23    2    1    2    0    0  0.00000000000E+00  0.00000000000E+00 -0.71054273576E-14  0.91188000000E+02  0.91188000000E+02 0.  0.
    9900012    2    3    3    0    0  0.16525371019E+02  0.21258469650E+02  0.34038402496E+02  0.47787271162E+02  0.20000000535E+02 0.  0.
        -12    1    3    3    0    0 -0.16525371019E+02 -0.21258469650E+02 -0.34038402496E+02  0.43400728838E+02  0.00000000000E+00 0.  1.
         11    1    4    4    0    0  0.58451722337E+01  0.25442090730E+01  0.65622234469E+01  0.91488696065E+01  0.51100000000E-03 0. -1.
        -11    1    4    4    0    0  0.93758206022E+01  0.27130671133E+01  0.16566785192E+02  0.19228237490E+02  0.51100000000E-03 0.  1.
         12    1    4    4    0    0  0.13043781835E+01  0.16001193463E+02  0.10909393858E+02  0.19410164065E+02  0.00000000000E+00 0. -1.
</event>
<event>
 8    1  0.2994958E-010  0.9118800E+02  0.7816164E-02  0.1184000E+00
        -11   -1    0    0    0    0  0.00000000000E+00  0.00000000000E+00  0.45593999997E+02  0.45594000000E+02  0.51100000000E-03 0. -1.
         11   -1    0    0    0    0 -0.00000000000E+00 -0.00000000000E+00 -0.45593999997E+02  0.45594000000E+02  0.51100000000E-03 0.  1.
         23    2    1    2    0    0  0.00000000000E+00  0.00000000000E+00  0.00000000000E+00  0.91188000000E+02  0.91188000000E+02 0.  0.
    9900012    2    3    3    0    0  0.33083866286E+02 -0.21691780246E+02  0.17847883636E+02  0.47787280087E+02  0.20000041228E+02 0.  0.
        -12    1    3    3    0    0 -0.33083866286E+02  0.21691780246E+02 -0.17847883636E+02  0.43400719913E+02  0.00000000000E+00 0.  1.
         11    1    4    4    0    0  0.49915028579E+01 -0.66343643329E+01  0.66993915019E+01  0.10668258416E+02  0.51100000000E-03 0. -1.
        -11    1    4    4    0    0  0.29364757642E+02 -0.12785311167E+02  0.12251808420E+02  0.34290814847E+02  0.51100000000E-03 0.  1.
         12    1    4    4    0    0 -0.12723942140E+01 -0.22721047459E+01 -0.11033162855E+01  0.28282068237E+01  0.00000000000E+00 0. -1.
</event>
<event>
 8    1  0.2994958E-010  0.9118800E+02  0.7816164E-02  0.1184000E+00
        -11   -1    0    0    0    0  0.00000000000E+00  0.00000000000E+00  0.45593999997E+02  0.45594000000E+02  0.51100000000E-03 0.  1.
         11   -1    0    0    0    0 -0.00000000000E+00 -0.00000000000E+00 -0.45593999997E+02  0.45594000000E+02  0.51100000000E-03 0. -1.
         23    2    1    2    0    0 -0.35527136788E-14  0.00000000000E+00  0.00000000000E+00  0.91188000000E+02  0.91188000000E+02 0.  0.
    9900012    2    3    3    0    0  0.27067385202E+02  0.21910316531E+02 -0.25902087064E+02  0.47787269287E+02  0.19999991985E+02 0.  0.
         12    1    3    3    0    0 -0.27067385202E+02 -0.21910316531E+02  0.25902087064E+02  0.43400730713E+02  0.00000000000E+00 0. -1.
         11    1    4    4    0    0 -0.94368474325E-01  0.37492313982E+00 -0.26996111780E+01  0.27271548440E+01  0.51100000000E-03 0. -1.
        -11    1    4    4    0    0  0.87992797774E+01  0.15622433981E+02 -0.51876417524E+01  0.18665459954E+02  0.51100000000E-03 0.  1.
        -12    1    4    4    0    0  0.18362473899E+02  0.59129594098E+01 -0.18014834134E+02  0.26394654488E+02  0.00000000000E+00 0.  1.
</event>
<event>
 8    1  0.2994958E-010  0.9118800E+02  0.7816164E-02  0.1184000E+00
        -11   -1    0    0    0    0  0.00000000000E+00  0.00000000000E+00  0.45593999997E+02  0.45594000000E+02  0.51100000000E-03 0. -1.
         11   -1    0    0    0    0 -0.00000000000E+00 -0.00000000000E+00 -0.45593999997E+02  0.45594000000E+02  0.51100000000E-03 0.  1.
         23    2    1    2    0    0  0.00000000000E+00  0.00000000000E+00  0.00000000000E+00  0.91188000000E+02  0.91188000000E+02 0.  0.
    9900012    2    3    3    0    0  0.40353833324E+02  0.13502015225E+02  0.85373765893E+01  0.47787273300E+02  0.20000010284E+02 0.  0.
        -12    1    3    3    0    0 -0.40353833324E+02 -0.13502015225E+02 -0.85373765893E+01  0.43400726700E+02  0.00000000000E+00 0.  1.
         11    1    4    4    0    0  0.12195815673E+02 -0.13990588016E+00 -0.30932912053E+01  0.12582763780E+02  0.51100000000E-03 0. -1.
        -11    1    4    4    0    0  0.33772393675E+01 -0.44649308209E+00 -0.16169971879E+01  0.37709126196E+01  0.51100000000E-03 0.  1.
         12    1    4    4    0    0  0.24780778283E+02  0.14088414187E+02  0.13247664982E+02  0.31433596901E+02  0.00000000000E+00 0. -1.
</event>
<event>
 8    1  0.2994958E-010  0.9118800E+02  0.7816164E-02  0.1184000E+00
        -11   -1    0    0    0    0  0.00000000000E+00  0.00000000000E+00  0.45593999997E+02  0.45594000000E+02  0.51100000000E-03 0. -1.
         11   -1    0    0    0    0 -0.00000000000E+00 -0.00000000000E+00 -0.45593999997E+02  0.45594000000E+02  0.51100000000E-03 0.  1.
         23    2    1    2    0    0 -0.71054273576E-14 -0.35527136788E-14  0.00000000000E+00  0.91188000000E+02  0.91188000000E+02 0.  0.
    9900012    2    3    3    0    0  0.32476128927E+02  0.17177775084E+02  0.23105159650E+02  0.47787270635E+02  0.19999998134E+02 0.  0.
        -12    1    3    3    0    0 -0.32476128927E+02 -0.17177775084E+02 -0.23105159650E+02  0.43400729365E+02  0.00000000000E+00 0.  1.
         11    1    4    4    0    0  0.21613335792E+02  0.12634948852E+02  0.14988999090E+02  0.29179587223E+02  0.51100000000E-03 0. -1.
        -11    1    4    4    0    0  0.10853147736E+02  0.15951928174E+01  0.11332570340E+01  0.11028133462E+02  0.51100000000E-03 0.  1.
        -12    1    4    4    0    0  0.96453995668E-02  0.29476334146E+01  0.69829035263E+01  0.75795499496E+01  0.00000000000E+00 0.  1.
</event>
<event>
 8    1  0.2994958E-010  0.9118800E+02  0.7816164E-02  0.1184000E+00
        -11   -1    0    0    0    0  0.00000000000E+00  0.00000000000E+00  0.45593999997E+02  0.45594000000E+02  0.51100000000E-03 0. -1.
         11   -1    0    0    0    0 -0.00000000000E+00 -0.00000000000E+00 -0.45593999997E+02  0.45594000000E+02  0.51100000000E-03 0.  1.
         23    2    1    2    0    0  0.00000000000E+00  0.00000000000E+00  0.00000000000E+00  0.91188000000E+02  0.91188000000E+02 0.  0.
    9900012    2    3    3    0    0 -0.31487755962E+02  0.23712554819E+01 -0.29774508003E+02  0.47787274720E+02  0.20000016757E+02 0.  0.
         12    1    3    3    0    0  0.31487755962E+02 -0.23712554819E+01  0.29774508003E+02  0.43400725280E+02  0.00000000000E+00 0. -1.
         11    1    4    4    0    0  0.58376017812E+00  0.19408565718E+01  0.48203737848E+00  0.20832811796E+01  0.51100000000E-03 0. -1.
        -11    1    4    4    0    0 -0.20241388734E+01  0.27528718266E+01 -0.69123724739E+00  0.34861512683E+01  0.51100000000E-03 0.  1.
        -12    1    4    4    0    0 -0.30047377266E+02 -0.23224729165E+01 -0.29565308134E+02  0.42217842272E+02  0.00000000000E+00 0.  1.
</event>
<event>
 8    1  0.2994958E-010  0.9118800E+02  0.7816164E-02  0.1184000E+00
        -11   -1    0    0    0    0  0.00000000000E+00  0.00000000000E+00  0.45593999997E+02  0.45594000000E+02  0.51100000000E-03 0. -1.
         11   -1    0    0    0    0 -0.00000000000E+00 -0.00000000000E+00 -0.45593999997E+02  0.45594000000E+02  0.51100000000E-03 0.  1.
         23    2    1    2    0    0  0.00000000000E+00 -0.88817841970E-15  0.00000000000E+00  0.91188000000E+02  0.91188000000E+02 0.  0.
    9900012    2    3    3    0    0 -0.21931713902E+02 -0.43363501951E+01  0.37199702881E+02  0.47787286848E+02  0.20000072053E+02 0.  0.
        -12    1    3    3    0    0  0.21931713902E+02  0.43363501951E+01 -0.37199702881E+02  0.43400713152E+02  0.00000000000E+00 0.  1.
         11    1    4    4    0    0 -0.91525635781E+01  0.32027279108E+00  0.51709265720E+01  0.10517151543E+02  0.51100000000E-03 0. -1.
        -11    1    4    4    0    0 -0.72972264555E+01  0.33123687179E+01  0.78046037541E+01  0.11186292526E+02  0.51100000000E-03 0.  1.
        -12    1    4    4    0    0 -0.54819238681E+01 -0.79689917041E+01  0.24224172555E+02  0.26083842778E+02  0.00000000000E+00 0.  1.
</event>
<event>
 8    1  0.2994958E-010  0.9118800E+02  0.7816164E-02  0.1184000E+00
        -11   -1    0    0    0    0  0.00000000000E+00  0.00000000000E+00  0.45593999997E+02  0.45594000000E+02  0.51100000000E-03 0. -1.
         11   -1    0    0    0    0 -0.00000000000E+00 -0.00000000000E+00 -0.45593999997E+02  0.45594000000E+02  0.51100000000E-03 0.  1.
         23    2    1    2    0    0  0.00000000000E+00 -0.35527136788E-14 -0.71054273576E-14  0.91188000000E+02  0.91188000000E+02 0.  0.
    9900012    2    3    3    0    0 -0.92295758052E+01  0.27139105249E+02 -0.32586912803E+02  0.47787274323E+02  0.20000014950E+02 0.  0.
         12    1    3    3    0    0  0.92295758052E+01 -0.27139105249E+02  0.32586912803E+02  0.43400725677E+02  0.00000000000E+00 0. -1.
         11    1    4    4    0    0 -0.14221760161E+02  0.25094600020E+02 -0.25235630494E+02  0.38325376175E+02  0.51100000000E-03 0. -1.
        -11    1    4    4    0    0 -0.16727429636E+00  0.42626520667E+00 -0.20832537610E+00  0.50307299678E+00  0.51100000000E-03 0.  1.
         12    1    4    4    0    0  0.51594586524E+01  0.16182400215E+01 -0.71429569323E+01  0.89588251512E+01  0.00000000000E+00 0. -1.
</event>
<event>
 8    1  0.2994958E-010  0.9118800E+02  0.7816164E-02  0.1184000E+00
        -11   -1    0    0    0    0  0.00000000000E+00  0.00000000000E+00  0.45593999997E+02  0.45594000000E+02  0.51100000000E-03 0. -1.
         11   -1    0    0    0    0 -0.00000000000E+00 -0.00000000000E+00 -0.45593999997E+02  0.45594000000E+02  0.51100000000E-03 0.  1.
         23    2    1    2    0    0  0.00000000000E+00 -0.27755575616E-16  0.00000000000E+00  0.91188000000E+02  0.91188000000E+02 0.  0.
    9900012    2    3    3    0    0 -0.23687572773E+02 -0.42848453761E-01  0.36366475248E+02  0.47787268879E+02  0.19999990127E+02 0.  0.
        -12    1    3    3    0    0  0.23687572773E+02  0.42848453761E-01 -0.36366475248E+02  0.43400731121E+02  0.00000000000E+00 0.  1.
         11    1    4    4    0    0 -0.12389449950E+02 -0.18703160516E+01  0.16727153918E+02  0.20899622739E+02  0.51100000000E-03 0. -1.
        -11    1    4    4    0    0 -0.97918934189E+01  0.11388629276E+01  0.21939977999E+02  0.24052875512E+02  0.51100000000E-03 0.  1.
        -12    1    4    4    0    0 -0.15062294032E+01  0.68860467026E+00 -0.23006566685E+01  0.28347706280E+01  0.00000000000E+00 0.  1.
</event>
<event>
 8    1  0.2994958E-010  0.9118800E+02  0.7816164E-02  0.1184000E+00
        -11   -1    0    0    0    0  0.00000000000E+00  0.00000000000E+00  0.45593999997E+02  0.45594000000E+02  0.51100000000E-03 0. -1.
         11   -1    0    0    0    0 -0.00000000000E+00 -0.00000000000E+00 -0.45593999997E+02  0.45594000000E+02  0.51100000000E-03 0.  1.
         23    2    1    2    0    0 -0.17763568394E-14 -0.88817841970E-15  0.00000000000E+00  0.91188000000E+02  0.91188000000E+02 0.  0.
    9900012    2    3    3    0    0  0.15864275585E+02  0.24503810657E+01  0.40322992631E+02  0.47787270260E+02  0.19999996424E+02 0.  0.
        -12    1    3    3    0    0 -0.15864275585E+02 -0.24503810657E+01 -0.40322992631E+02  0.43400729740E+02  0.00000000000E+00 0.  1.
         11    1    4    4    0    0  0.10286364300E+01 -0.17324652500E+01  0.19275490767E+01  0.27883641175E+01  0.51100000000E-03 0. -1.
        -11    1    4    4    0    0  0.27136938666E+01 -0.49656735843E+01  0.21716976011E+02  0.22442127704E+02  0.51100000000E-03 0.  1.
         12    1    4    4    0    0  0.12121945288E+02  0.91485199000E+01  0.16678467544E+02  0.22556778439E+02  0.00000000000E+00 0. -1.
</event>
<event>
 8    1  0.2994958E-010  0.9118800E+02  0.7816164E-02  0.1184000E+00
        -11   -1    0    0    0    0  0.00000000000E+00  0.00000000000E+00  0.45593999997E+02  0.45594000000E+02  0.51100000000E-03 0. -1.
         11   -1    0    0    0    0 -0.00000000000E+00 -0.00000000000E+00 -0.45593999997E+02  0.45594000000E+02  0.51100000000E-03 0.  1.
         23    2    1    2    0    0  0.35527136788E-14  0.17763568394E-14 -0.35527136788E-14  0.91188000000E+02  0.91188000000E+02 0.  0.
    9900012    2    3    3    0    0 -0.30830611835E+02 -0.14611728882E+02  0.26825258774E+02  0.47787265498E+02  0.19999974710E+02 0.  0.
        -12    1    3    3    0    0  0.30830611835E+02  0.14611728882E+02 -0.26825258774E+02  0.43400734502E+02  0.00000000000E+00 0.  1.
         11    1    4    4    0    0 -0.12021010245E+02 -0.12168367924E+02  0.86730517442E+01  0.19178000211E+02  0.51100000000E-03 0. -1.
        -11    1    4    4    0    0 -0.84978740687E+01 -0.42521910357E+01  0.14853004743E+02  0.17632547815E+02  0.51100000000E-03 0.  1.
        -12    1    4    4    0    0 -0.10311727522E+02  0.18088300777E+01  0.32992022862E+01  0.10976717472E+02  0.00000000000E+00 0.  1.
</event>
<event>
 8    1  0.2994958E-010  0.9118800E+02  0.7816164E-02  0.1184000E+00
        -11   -1    0    0    0    0  0.00000000000E+00  0.00000000000E+00  0.45593999997E+02  0.45594000000E+02  0.51100000000E-03 0. -1.
         11   -1    0    0    0    0 -0.00000000000E+00 -0.00000000000E+00 -0.45593999997E+02  0.45594000000E+02  0.51100000000E-03 0.  1.
         23    2    1    2    0    0 -0.71054273576E-14 -0.35527136788E-14  0.00000000000E+00  0.91188000000E+02  0.91188000000E+02 0.  0.
    9900012    2    3    3    0    0  0.33987753531E+02  0.21000626086E+02 -0.16953747928E+02  0.47787271263E+02  0.20000000999E+02 0.  0.
         12    1    3    3    0    0 -0.33987753531E+02 -0.21000626086E+02  0.16953747928E+02  0.43400728737E+02  0.00000000000E+00 0. -1.
         11    1    4    4    0    0  0.68523318597E+01  0.50912490500E+01 -0.49703762196E+00  0.85511587205E+01  0.51100000000E-03 0. -1.
        -11    1    4    4    0    0  0.27479910705E+02  0.11992793103E+02 -0.18046692947E+02  0.34995081159E+02  0.51100000000E-03 0.  1.
         12    1    4    4    0    0 -0.34448903387E+00  0.39165839329E+01  0.15899826411E+01  0.42410313837E+01  0.00000000000E+00 0. -1.
</event>
<event>
 8    1  0.2994958E-010  0.9118800E+02  0.7816164E-02  0.1184000E+00
        -11   -1    0    0    0    0  0.00000000000E+00  0.00000000000E+00  0.45593999997E+02  0.45594000000E+02  0.51100000000E-03 0.  1.
         11   -1    0    0    0    0 -0.00000000000E+00 -0.00000000000E+00 -0.45593999997E+02  0.45594000000E+02  0.51100000000E-03 0. -1.
         23    2    1    2    0    0  0.35527136788E-14  0.00000000000E+00 -0.88817841970E-15  0.91188000000E+02  0.91188000000E+02 0.  0.
    9900012    2    3    3    0    0  0.26093808795E+02  0.34636037743E+02  0.17553174577E+01  0.47787272963E+02  0.20000008746E+02 0.  0.
         12    1    3    3    0    0 -0.26093808795E+02 -0.34636037743E+02 -0.17553174577E+01  0.43400727037E+02  0.00000000000E+00 0. -1.
         11    1    4    4    0    0  0.81607910208E+01  0.85397774742E+01 -0.27144965799E+01  0.12120016557E+02  0.51100000000E-03 0. -1.
        -11    1    4    4    0    0  0.17264800484E+02  0.14495013189E+02 -0.15197477727E+01  0.22593989835E+02  0.51100000000E-03 0.  1.
         12    1    4    4    0    0  0.66821729048E+00  0.11601247080E+02  0.59895618103E+01  0.13073266571E+02  0.00000000000E+00 0. -1.
</event>
<event>
 8    1  0.2994958E-010  0.9118800E+02  0.7816164E-02  0.1184000E+00
        -11   -1    0    0    0    0  0.00000000000E+00  0.00000000000E+00  0.45593999997E+02  0.45594000000E+02  0.51100000000E-03 0.  1.
         11   -1    0    0    0    0 -0.00000000000E+00 -0.00000000000E+00 -0.45593999997E+02  0.45594000000E+02  0.51100000000E-03 0. -1.
         23    2    1    2    0    0  0.00000000000E+00 -0.35527136788E-14  0.00000000000E+00  0.91188000000E+02  0.91188000000E+02 0.  0.
    9900012    2    3    3    0    0  0.39073986168E+02 -0.18750636044E+02 -0.22935370945E+01  0.47787273514E+02  0.20000011261E+02 0.  0.
        -12    1    3    3    0    0 -0.39073986168E+02  0.18750636044E+02  0.22935370945E+01  0.43400726486E+02  0.00000000000E+00 0.  1.
         11    1    4    4    0    0 -0.20643043685E-01 -0.11349473730E+01  0.15866414248E+01  0.19508877330E+01  0.51100000000E-03 0. -1.
        -11    1    4    4    0    0  0.14960863249E+02  0.10313377183E+01 -0.31808742459E+01  0.15330004823E+02  0.51100000000E-03 0.  1.
         12    1    4    4    0    0  0.24133765962E+02 -0.18647026390E+02 -0.69930427337E+00  0.30506380958E+02  0.00000000000E+00 0. -1.
</event>
<event>
 8    1  0.2994958E-010  0.9118800E+02  0.7816164E-02  0.1184000E+00
        -11   -1    0    0    0    0  0.00000000000E+00  0.00000000000E+00  0.45593999997E+02  0.45594000000E+02  0.51100000000E-03 0. -1.
         11   -1    0    0    0    0 -0.00000000000E+00 -0.00000000000E+00 -0.45593999997E+02  0.45594000000E+02  0.51100000000E-03 0.  1.
         23    2    1    2    0    0  0.17763568394E-14  0.35527136788E-14  0.00000000000E+00  0.91188000000E+02  0.91188000000E+02 0.  0.
    9900012    2    3    3    0    0  0.98486747525E+01  0.30789004585E+02  0.28959698473E+02  0.47787270359E+02  0.19999996876E+02 0.  0.
        -12    1    3    3    0    0 -0.98486747525E+01 -0.30789004585E+02 -0.28959698473E+02  0.43400729641E+02  0.00000000000E+00 0.  1.
         11    1    4    4    0    0  0.70145847791E+01  0.94825085735E+01  0.83393843041E+01  0.14445334863E+02  0.51100000000E-03 0. -1.
        -11    1    4    4    0    0  0.33257205690E+00  0.14615789495E+02  0.38564069691E+01  0.15119648862E+02  0.51100000000E-03 0.  1.
        -12    1    4    4    0    0  0.25015179166E+01  0.66907065160E+01  0.16763907200E+02  0.18222286634E+02  0.00000000000E+00 0.  1.
</event>
<event>
 8    1  0.2994958E-010  0.9118800E+02  0.7816164E-02  0.1184000E+00
        -11   -1    0    0    0    0  0.00000000000E+00  0.00000000000E+00  0.45593999997E+02  0.45594000000E+02  0.51100000000E-03 0. -1.
         11   -1    0    0    0    0 -0.00000000000E+00 -0.00000000000E+00 -0.45593999997E+02  0.45594000000E+02  0.51100000000E-03 0.  1.
         23    2    1    2    0    0  0.00000000000E+00  0.00000000000E+00  0.00000000000E+00  0.91188000000E+02  0.91188000000E+02 0.  0.
    9900012    2    3    3    0    0  0.62054483717E+01 -0.17284418390E+02  0.39323841736E+02  0.47787271464E+02  0.20000001915E+02 0.  0.
        -12    1    3    3    0    0 -0.62054483717E+01  0.17284418390E+02 -0.39323841736E+02  0.43400728536E+02  0.00000000000E+00 0.  1.
         11    1    4    4    0    0  0.68169317447E+00 -0.87562100553E+00  0.63690592707E+01  0.64650084288E+01  0.51100000000E-03 0. -1.
        -11    1    4    4    0    0  0.30362159825E+01 -0.12565381568E+02  0.64905435747E+01  0.14464943055E+02  0.51100000000E-03 0.  1.
        -12    1    4    4    0    0  0.24875392147E+01 -0.38434158166E+01  0.26464238890E+02  0.26857319980E+02  0.00000000000E+00 0.  1.
</event>
<event>
 8    1  0.2994958E-010  0.9118800E+02  0.7816164E-02  0.1184000E+00
        -11   -1    0    0    0    0  0.00000000000E+00  0.00000000000E+00  0.45593999997E+02  0.45594000000E+02  0.51100000000E-03 0. -1.
         11   -1    0    0    0    0 -0.00000000000E+00 -0.00000000000E+00 -0.45593999997E+02  0.45594000000E+02  0.51100000000E-03 0.  1.
         23    2    1    2    0    0  0.00000000000E+00 -0.71054273576E-14  0.35527136788E-14  0.91188000000E+02  0.91188000000E+02 0.  0.
    9900012    2    3    3    0    0 -0.12641523653E+01 -0.29907381965E+02  0.31425673079E+02  0.47787279894E+02  0.20000040349E+02 0.  0.
        -12    1    3    3    0    0  0.12641523653E+01  0.29907381965E+02 -0.31425673079E+02  0.43400720106E+02  0.00000000000E+00 0.  1.
         11    1    4    4    0    0  0.21735330895E-01 -0.16649213206E+02  0.25046672490E+02  0.30075448058E+02  0.51100000000E-03 0. -1.
        -11    1    4    4    0    0  0.15275048386E+01 -0.40997979831E+01  0.68404842491E+01  0.81199654899E+01  0.51100000000E-03 0.  1.
        -12    1    4    4    0    0 -0.28133925348E+01 -0.91583707764E+01 -0.46148366023E+00  0.95918663461E+01  0.00000000000E+00 0.  1.
</event>
<event>
 8    1  0.2994958E-010  0.9118800E+02  0.7816164E-02  0.1184000E+00
        -11   -1    0    0    0    0  0.00000000000E+00  0.00000000000E+00  0.45593999997E+02  0.45594000000E+02  0.51100000000E-03 0. -1.
         11   -1    0    0    0    0 -0.00000000000E+00 -0.00000000000E+00 -0.45593999997E+02  0.45594000000E+02  0.51100000000E-03 0.  1.
         23    2    1    2    0    0  0.00000000000E+00  0.44408920985E-15  0.00000000000E+00  0.91188000000E+02  0.91188000000E+02 0.  0.
    9900012    2    3    3    0    0  0.20960473835E+02  0.23544850897E+01 -0.37930705977E+02  0.47787268217E+02  0.19999987106E+02 0.  0.
         12    1    3    3    0    0 -0.20960473835E+02 -0.23544850897E+01  0.37930705977E+02  0.43400731783E+02  0.00000000000E+00 0. -1.
         11    1    4    4    0    0  0.74524745787E+01 -0.36048503432E+01 -0.19873927411E+01  0.85137567214E+01  0.51100000000E-03 0. -1.
        -11    1    4    4    0    0  0.28072748767E+01 -0.10909407478E+01 -0.67233175296E+01  0.73670850961E+01  0.51100000000E-03 0.  1.
        -12    1    4    4    0    0  0.10700724380E+02  0.70502761808E+01 -0.29219995706E+02  0.31906426399E+02  0.00000000000E+00 0.  1.
</event>
<event>
 8    1  0.2994958E-010  0.9118800E+02  0.7816164E-02  0.1184000E+00
        -11   -1    0    0    0    0  0.00000000000E+00  0.00000000000E+00  0.45593999997E+02  0.45594000000E+02  0.51100000000E-03 0. -1.
         11   -1    0    0    0    0 -0.00000000000E+00 -0.00000000000E+00 -0.45593999997E+02  0.45594000000E+02  0.51100000000E-03 0.  1.
         23    2    1    2    0    0  0.17763568394E-14  0.41633363423E-16 -0.71054273576E-14  0.91188000000E+02  0.91188000000E+02 0.  0.
    9900012    2    3    3    0    0 -0.99489982740E+01  0.12138508117E+00  0.42244841953E+02  0.47787262995E+02  0.19999963298E+02 0.  0.
        -12    1    3    3    0    0  0.99489982740E+01 -0.12138508117E+00 -0.42244841953E+02  0.43400737005E+02  0.00000000000E+00 0.  1.
         11    1    4    4    0    0 -0.43559234738E+01 -0.10527724256E+01  0.23679385425E+02  0.24099703182E+02  0.51100000000E-03 0. -1.
        -11    1    4    4    0    0  0.66400753924E-01  0.34751755837E-01 -0.21660064553E+01  0.21673026946E+01  0.51100000000E-03 0.  1.
        -12    1    4    4    0    0 -0.56594755541E+01  0.11394057509E+01  0.20731462983E+02  0.21520257118E+02  0.00000000000E+00 0.  1.
</event>
<event>
 8    1  0.2994958E-010  0.9118800E+02  0.7816164E-02  0.1184000E+00
        -11   -1    0    0    0    0  0.00000000000E+00  0.00000000000E+00  0.45593999997E+02  0.45594000000E+02  0.51100000000E-03 0. -1.
         11   -1    0    0    0    0 -0.00000000000E+00 -0.00000000000E+00 -0.45593999997E+02  0.45594000000E+02  0.51100000000E-03 0.  1.
         23    2    1    2    0    0  0.00000000000E+00  0.00000000000E+00  0.00000000000E+00  0.91188000000E+02  0.91188000000E+02 0.  0.
    9900012    2    3    3    0    0 -0.28411153211E+02 -0.21744197310E+02 -0.24568670405E+02  0.47787270641E+02  0.19999998159E+02 0.  0.
         12    1    3    3    0    0  0.28411153211E+02  0.21744197310E+02  0.24568670405E+02  0.43400729359E+02  0.00000000000E+00 0. -1.
         11    1    4    4    0    0 -0.21181343417E+01 -0.21906458625E+01 -0.72799287862E+01  0.78919443597E+01  0.51100000000E-03 0. -1.
        -11    1    4    4    0    0 -0.84595717807E+01 -0.11060022994E+02 -0.14226095206E+02  0.19906537831E+02  0.51100000000E-03 0.  1.
        -12    1    4    4    0    0 -0.17833447089E+02 -0.84935284538E+01 -0.30626464133E+01  0.19988788450E+02  0.00000000000E+00 0.  1.
</event>
<event>
 8    1  0.2994958E-010  0.9118800E+02  0.7816164E-02  0.1184000E+00
        -11   -1    0    0    0    0  0.00000000000E+00  0.00000000000E+00  0.45593999997E+02  0.45594000000E+02  0.51100000000E-03 0. -1.
         11   -1    0    0    0    0 -0.00000000000E+00 -0.00000000000E+00 -0.45593999997E+02  0.45594000000E+02  0.51100000000E-03 0.  1.
         23    2    1    2    0    0 -0.17763568394E-14 -0.35527136788E-14  0.00000000000E+00  0.91188000000E+02  0.91188000000E+02 0.  0.
    9900012    2    3    3    0    0 -0.14054638781E+02 -0.11732924112E+02 -0.39350078179E+02  0.47787273829E+02  0.20000012694E+02 0.  0.
         12    1    3    3    0    0  0.14054638781E+02  0.11732924112E+02  0.39350078179E+02  0.43400726171E+02  0.00000000000E+00 0. -1.
         11    1    4    4    0    0 -0.40900187843E+01  0.15163206180E+01 -0.14636677461E+02  0.15272845486E+02  0.51100000000E-03 0. -1.
        -11    1    4    4    0    0 -0.99978574901E+01 -0.82940234088E+01 -0.24284454581E+02  0.27540564868E+02  0.51100000000E-03 0.  1.
         12    1    4    4    0    0  0.33237493563E-01 -0.49552213216E+01 -0.42894613754E+00  0.49738634748E+01  0.00000000000E+00 0. -1.
</event>
<event>
 8    1  0.2994958E-010  0.9118800E+02  0.7816164E-02  0.1184000E+00
        -11   -1    0    0    0    0  0.00000000000E+00  0.00000000000E+00  0.45593999997E+02  0.45594000000E+02  0.51100000000E-03 0.  1.
         11   -1    0    0    0    0 -0.00000000000E+00 -0.00000000000E+00 -0.45593999997E+02  0.45594000000E+02  0.51100000000E-03 0. -1.
         23    2    1    2    0    0  0.88817841970E-15  0.00000000000E+00  0.00000000000E+00  0.91188000000E+02  0.91188000000E+02 0.  0.
    9900012    2    3    3    0    0  0.34076373051E+01 -0.43104221660E+02 -0.37466172311E+01  0.47787273537E+02  0.20000011363E+02 0.  0.
         12    1    3    3    0    0 -0.34076373051E+01  0.43104221660E+02  0.37466172311E+01  0.43400726463E+02  0.00000000000E+00 0. -1.
         11    1    4    4    0    0  0.57310094093E+01 -0.64414100038E+01  0.14133930428E+01  0.87369280552E+01  0.51100000000E-03 0. -1.
        -11    1    4    4    0    0  0.25641911915E+01 -0.20048111337E+01 -0.21911881386E+01  0.39237290769E+01  0.51100000000E-03 0.  1.
        -12    1    4    4    0    0 -0.48875632958E+01 -0.34658000522E+02 -0.29688221353E+01  0.35126616405E+02  0.00000000000E+00 0.  1.
</event>
<event>
 8    1  0.2994958E-010  0.9118800E+02  0.7816164E-02  0.1184000E+00
        -11   -1    0    0    0    0  0.00000000000E+00  0.00000000000E+00  0.45593999997E+02  0.45594000000E+02  0.51100000000E-03 0. -1.
         11   -1    0    0    0    0 -0.00000000000E+00 -0.00000000000E+00 -0.45593999997E+02  0.45594000000E+02  0.51100000000E-03 0.  1.
         23    2    1    2    0    0  0.00000000000E+00  0.00000000000E+00  0.00000000000E+00  0.91188000000E+02  0.91188000000E+02 0.  0.
    9900012    2    3    3    0    0 -0.18454134587E+02 -0.11037512975E+02  0.37699356227E+02  0.47787271481E+02  0.20000001992E+02 0.  0.
        -12    1    3    3    0    0  0.18454134587E+02  0.11037512975E+02 -0.37699356227E+02  0.43400728519E+02  0.00000000000E+00 0.  1.
         11    1    4    4    0    0 -0.15968395824E+02 -0.40310672459E+01  0.23637408825E+02  0.28809135089E+02  0.51100000000E-03 0. -1.
        -11    1    4    4    0    0 -0.46895923715E+01  0.40573341594E+00  0.33975926256E+01  0.58052159414E+01  0.51100000000E-03 0.  1.
        -12    1    4    4    0    0  0.22038536092E+01 -0.74121791451E+01  0.10664354777E+02  0.13172920451E+02  0.00000000000E+00 0.  1.
</event>
<event>
 8    1  0.2994958E-010  0.9118800E+02  0.7816164E-02  0.1184000E+00
        -11   -1    0    0    0    0  0.00000000000E+00  0.00000000000E+00  0.45593999997E+02  0.45594000000E+02  0.51100000000E-03 0. -1.
         11   -1    0    0    0    0 -0.00000000000E+00 -0.00000000000E+00 -0.45593999997E+02  0.45594000000E+02  0.51100000000E-03 0.  1.
         23    2    1    2    0    0  0.00000000000E+00  0.00000000000E+00  0.00000000000E+00  0.91188000000E+02  0.91188000000E+02 0.  0.
    9900012    2    3    3    0    0  0.14683999285E+02  0.13618136919E+02  0.38503901504E+02  0.47787263610E+02  0.19999966105E+02 0.  0.
        -12    1    3    3    0    0 -0.14683999285E+02 -0.13618136919E+02 -0.38503901504E+02  0.43400736390E+02  0.00000000000E+00 0.  1.
         11    1    4    4    0    0  0.94455038288E+01  0.12149046675E+02  0.12454005177E+02  0.19796947313E+02  0.51100000000E-03 0. -1.
        -11    1    4    4    0    0  0.22345973129E+01  0.30598223451E+00  0.59526829659E+00  0.23326797647E+01  0.51100000000E-03 0.  1.
        -12    1    4    4    0    0  0.30038981429E+01  0.11631080093E+01  0.25454628030E+02  0.25657636533E+02  0.00000000000E+00 0.  1.
</event>
<event>
 8    1  0.2994958E-010  0.9118800E+02  0.7816164E-02  0.1184000E+00
        -11   -1    0    0    0    0  0.00000000000E+00  0.00000000000E+00  0.45593999997E+02  0.45594000000E+02  0.51100000000E-03 0. -1.
         11   -1    0    0    0    0 -0.00000000000E+00 -0.00000000000E+00 -0.45593999997E+02  0.45594000000E+02  0.51100000000E-03 0.  1.
         23    2    1    2    0    0  0.88817841970E-15 -0.88817841970E-15  0.71054273576E-14  0.91188000000E+02  0.91188000000E+02 0.  0.
    9900012    2    3    3    0    0 -0.40548378544E+01 -0.66341686038E+01 -0.42698585712E+02  0.47787272761E+02  0.20000007827E+02 0.  0.
         12    1    3    3    0    0  0.40548378544E+01  0.66341686038E+01  0.42698585712E+02  0.43400727239E+02  0.00000000000E+00 0. -1.
         11    1    4    4    0    0  0.26887452126E+00 -0.42349511643E+00  0.83009279981E+00  0.96989480834E+00  0.51100000000E-03 0. -1.
        -11    1    4    4    0    0 -0.69642147490E+01  0.19317477208E+01 -0.10853312556E+02  0.13039414482E+02  0.51100000000E-03 0.  1.
        -12    1    4    4    0    0  0.26405023734E+01 -0.81424212082E+01 -0.32675365955E+02  0.33777963471E+02  0.00000000000E+00 0.  1.
</event>
<event>
 8    1  0.2994958E-010  0.9118800E+02  0.7816164E-02  0.1184000E+00
        -11   -1    0    0    0    0  0.00000000000E+00  0.00000000000E+00  0.45593999997E+02  0.45594000000E+02  0.51100000000E-03 0. -1.
         11   -1    0    0    0    0 -0.00000000000E+00 -0.00000000000E+00 -0.45593999997E+02  0.45594000000E+02  0.51100000000E-03 0.  1.
         23    2    1    2    0    0  0.00000000000E+00  0.00000000000E+00  0.00000000000E+00  0.91188000000E+02  0.91188000000E+02 0.  0.
    9900012    2    3    3    0    0  0.32571009279E+02 -0.63630848319E+01  0.27968980479E+02  0.47787270017E+02  0.19999995316E+02 0.  0.
        -12    1    3    3    0    0 -0.32571009279E+02  0.63630848319E+01 -0.27968980479E+02  0.43400729983E+02  0.00000000000E+00 0.  1.
         11    1    4    4    0    0  0.17264032318E+02 -0.50328098373E+01  0.11891598353E+02  0.21558898357E+02  0.51100000000E-03 0. -1.
        -11    1    4    4    0    0  0.89888319376E+01  0.12578814986E+01  0.35032883571E+00  0.90831765380E+01  0.51100000000E-03 0.  1.
        -12    1    4    4    0    0  0.63181450232E+01 -0.25881564932E+01  0.15727053291E+02  0.17145195122E+02  0.00000000000E+00 0.  1.
</event>
<event>
 8    1  0.2994958E-010  0.9118800E+02  0.7816164E-02  0.1184000E+00
        -11   -1    0    0    0    0  0.00000000000E+00  0.00000000000E+00  0.45593999997E+02  0.45594000000E+02  0.51100000000E-03 0. -1.
         11   -1    0    0    0    0 -0.00000000000E+00 -0.00000000000E+00 -0.45593999997E+02  0.45594000000E+02  0.51100000000E-03 0.  1.
         23    2    1    2    0    0 -0.71054273576E-14 -0.35527136788E-14  0.00000000000E+00  0.91188000000E+02  0.91188000000E+02 0.  0.
    9900012    2    3    3    0    0 -0.26507921453E+02 -0.31005369492E+02 -0.14819596732E+02  0.47787270924E+02  0.19999999450E+02 0.  0.
         12    1    3    3    0    0  0.26507921453E+02  0.31005369492E+02  0.14819596732E+02  0.43400729076E+02  0.00000000000E+00 0. -1.
         11    1    4    4    0    0 -0.47945023685E+01 -0.36238705456E+01 -0.72761448599E+01  0.94372652276E+01  0.51100000000E-03 0.  1.
        -11    1    4    4    0    0 -0.18774715939E+02 -0.28183827413E+02 -0.89010072690E+01  0.35014939910E+02  0.51100000000E-03 0. -1.
         12    1    4    4    0    0 -0.29387031446E+01  0.80232846675E+00  0.13575553971E+01  0.33350657860E+01  0.00000000000E+00 0. -1.
</event>
<event>
 8    1  0.2994958E-010  0.9118800E+02  0.7816164E-02  0.1184000E+00
        -11   -1    0    0    0    0  0.00000000000E+00  0.00000000000E+00  0.45593999997E+02  0.45594000000E+02  0.51100000000E-03 0.  1.
         11   -1    0    0    0    0 -0.00000000000E+00 -0.00000000000E+00 -0.45593999997E+02  0.45594000000E+02  0.51100000000E-03 0. -1.
         23    2    1    2    0    0  0.00000000000E+00  0.00000000000E+00  0.88817841970E-15  0.91188000000E+02  0.91188000000E+02 0.  0.
    9900012    2    3    3    0    0  0.41097325905E+02 -0.13918689777E+02 -0.95027328966E+00  0.47787272576E+02  0.20000006983E+02 0.  0.
         12    1    3    3    0    0 -0.41097325905E+02  0.13918689777E+02  0.95027328966E+00  0.43400727424E+02  0.00000000000E+00 0. -1.
         11    1    4    4    0    0  0.20937803924E+02 -0.82741801236E+01 -0.82320619356E+01  0.23971243895E+02  0.51100000000E-03 0. -1.
        -11    1    4    4    0    0  0.15190558199E+02 -0.64835756366E+01  0.22051203616E+01  0.16662903934E+02  0.51100000000E-03 0.  1.
         12    1    4    4    0    0  0.49689637814E+01  0.83906598340E+00  0.50766682844E+01  0.71531247476E+01  0.00000000000E+00 0. -1.
</event>
<event>
 8    1  0.2994958E-010  0.9118800E+02  0.7816164E-02  0.1184000E+00
        -11   -1    0    0    0    0  0.00000000000E+00  0.00000000000E+00  0.45593999997E+02  0.45594000000E+02  0.51100000000E-03 0. -1.
         11   -1    0    0    0    0 -0.00000000000E+00 -0.00000000000E+00 -0.45593999997E+02  0.45594000000E+02  0.51100000000E-03 0.  1.
         23    2    1    2    0    0  0.00000000000E+00  0.00000000000E+00  0.00000000000E+00  0.91188000000E+02  0.91188000000E+02 0.  0.
    9900012    2    3    3    0    0  0.25426801252E+02 -0.27019175738E+02 -0.22518106802E+02  0.47787271741E+02  0.20000003176E+02 0.  0.
         12    1    3    3    0    0 -0.25426801252E+02  0.27019175738E+02  0.22518106802E+02  0.43400728259E+02  0.00000000000E+00 0. -1.
         11    1    4    4    0    0  0.26631240834E+01 -0.21721680834E+01 -0.87336773587E+01  0.93855028919E+01  0.51100000000E-03 0. -1.
        -11    1    4    4    0    0  0.68329916349E+01 -0.12566487883E+01 -0.51735507002E+01  0.86622495905E+01  0.51100000000E-03 0.  1.
         12    1    4    4    0    0  0.15930685534E+02 -0.23590358866E+02 -0.86108787434E+01  0.29739519259E+02  0.00000000000E+00 0. -1.
</event>
<event>
 8    1  0.2994958E-010  0.9118800E+02  0.7816164E-02  0.1184000E+00
        -11   -1    0    0    0    0  0.00000000000E+00  0.00000000000E+00  0.45593999997E+02  0.45594000000E+02  0.51100000000E-03 0. -1.
         11   -1    0    0    0    0 -0.00000000000E+00 -0.00000000000E+00 -0.45593999997E+02  0.45594000000E+02  0.51100000000E-03 0.  1.
         23    2    1    2    0    0  0.44408920985E-15 -0.44408920985E-15  0.71054273576E-14  0.91188000000E+02  0.91188000000E+02 0.  0.
    9900012    2    3    3    0    0  0.13391830276E+01  0.18057807361E+01 -0.43342465126E+02  0.47787267996E+02  0.19999986103E+02 0.  0.
         12    1    3    3    0    0 -0.13391830276E+01 -0.18057807361E+01  0.43342465126E+02  0.43400732004E+02  0.00000000000E+00 0. -1.
         11    1    4    4    0    0  0.20498973366E+01  0.52862839319E+01 -0.24960716284E+02  0.25596566851E+02  0.51100000000E-03 0.  1.
        -11    1    4    4    0    0 -0.28689526591E+01  0.26652121328E+01 -0.13484040702E+02  0.14041139519E+02  0.51100000000E-03 0. -1.
         12    1    4    4    0    0  0.21582383501E+01 -0.61457153286E+01 -0.48977081400E+01  0.81495616262E+01  0.00000000000E+00 0. -1.
</event>
<event>
 8    1  0.2994958E-010  0.9118800E+02  0.7816164E-02  0.1184000E+00
        -11   -1    0    0    0    0  0.00000000000E+00  0.00000000000E+00  0.45593999997E+02  0.45594000000E+02  0.51100000000E-03 0. -1.
         11   -1    0    0    0    0 -0.00000000000E+00 -0.00000000000E+00 -0.45593999997E+02  0.45594000000E+02  0.51100000000E-03 0.  1.
         23    2    1    2    0    0  0.00000000000E+00 -0.71054273576E-14  0.00000000000E+00  0.91188000000E+02  0.91188000000E+02 0.  0.
    9900012    2    3    3    0    0  0.70007911140E+01  0.35459257377E+02  0.24026098233E+02  0.47787269519E+02  0.19999993045E+02 0.  0.
        -12    1    3    3    0    0 -0.70007911140E+01 -0.35459257377E+02 -0.24026098233E+02  0.43400730481E+02  0.00000000000E+00 0.  1.
         11    1    4    4    0    0 -0.21385735973E+01  0.29580798258E+02  0.15040776121E+02  0.33253903067E+02  0.51100000000E-03 0.  1.
        -11    1    4    4    0    0  0.23441707568E+01  0.34556150442E+01  0.27689832572E+01  0.50103573136E+01  0.51100000000E-03 0. -1.
        -12    1    4    4    0    0  0.67951939545E+01  0.24228440753E+01  0.62163388547E+01  0.95230091383E+01  0.00000000000E+00 0.  1.
</event>
<event>
 8    1  0.2994958E-010  0.9118800E+02  0.7816164E-02  0.1184000E+00
        -11   -1    0    0    0    0  0.00000000000E+00  0.00000000000E+00  0.45593999997E+02  0.45594000000E+02  0.51100000000E-03 0. -1.
         11   -1    0    0    0    0 -0.00000000000E+00 -0.00000000000E+00 -0.45593999997E+02  0.45594000000E+02  0.51100000000E-03 0.  1.
         23    2    1    2    0    0  0.00000000000E+00 -0.17763568394E-14  0.00000000000E+00  0.91188000000E+02  0.91188000000E+02 0.  0.
    9900012    2    3    3    0    0  0.80855564833E+01  0.15254628800E+02 -0.39818884152E+02  0.47787268917E+02  0.19999990300E+02 0.  0.
         12    1    3    3    0    0 -0.80855564833E+01 -0.15254628800E+02  0.39818884152E+02  0.43400731083E+02  0.00000000000E+00 0. -1.
         11    1    4    4    0    0 -0.11821592045E+00 -0.80180612741E+00 -0.21442858877E+01  0.22923416628E+01  0.51100000000E-03 0.  1.
        -11    1    4    4    0    0 -0.54522456358E+00 -0.38823554515E-01  0.18511593120E+01  0.19301730887E+01  0.51100000000E-03 0. -1.
         12    1    4    4    0    0  0.87489969673E+01  0.16095258482E+02 -0.39525757576E+02  0.43564754165E+02  0.00000000000E+00 0. -1.
</event>
<event>
 8    1  0.2994958E-010  0.9118800E+02  0.7816164E-02  0.1184000E+00
        -11   -1    0    0    0    0  0.00000000000E+00  0.00000000000E+00  0.45593999997E+02  0.45594000000E+02  0.51100000000E-03 0. -1.
         11   -1    0    0    0    0 -0.00000000000E+00 -0.00000000000E+00 -0.45593999997E+02  0.45594000000E+02  0.51100000000E-03 0.  1.
         23    2    1    2    0    0  0.00000000000E+00 -0.35527136788E-14  0.00000000000E+00  0.91188000000E+02  0.91188000000E+02 0.  0.
    9900012    2    3    3    0    0 -0.71464260883E+01  0.21439967461E+02 -0.37052395228E+02  0.47787267256E+02  0.19999982726E+02 0.  0.
         12    1    3    3    0    0  0.71464260883E+01 -0.21439967461E+02  0.37052395228E+02  0.43400732744E+02  0.00000000000E+00 0. -1.
         11    1    4    4    0    0 -0.50976484344E+01  0.57713978321E+00 -0.64888674062E+01  0.82719109260E+01  0.51100000000E-03 0. -1.
        -11    1    4    4    0    0 -0.45904940727E+01  0.15737641265E+02 -0.29423320748E+02  0.33682009924E+02  0.51100000000E-03 0.  1.
         12    1    4    4    0    0  0.25417164189E+01  0.51251864132E+01 -0.11402070746E+01  0.58333464064E+01  0.00000000000E+00 0. -1.
</event>
<event>
 8    1  0.2994958E-010  0.9118800E+02  0.7816164E-02  0.1184000E+00
        -11   -1    0    0    0    0  0.00000000000E+00  0.00000000000E+00  0.45593999997E+02  0.45594000000E+02  0.51100000000E-03 0.  1.
         11   -1    0    0    0    0 -0.00000000000E+00 -0.00000000000E+00 -0.45593999997E+02  0.45594000000E+02  0.51100000000E-03 0. -1.
         23    2    1    2    0    0  0.35527136788E-14  0.00000000000E+00  0.00000000000E+00  0.91188000000E+02  0.91188000000E+02 0.  0.
    9900012    2    3    3    0    0 -0.24306284270E+02  0.17286304745E+02 -0.31527940192E+02  0.47787276509E+02  0.20000024915E+02 0.  0.
         12    1    3    3    0    0  0.24306284270E+02 -0.17286304745E+02  0.31527940192E+02  0.43400723491E+02  0.00000000000E+00 0. -1.
         11    1    4    4    0    0 -0.17107903688E+02  0.87140499870E+01 -0.19287180200E+02  0.27214157274E+02  0.51100000000E-03 0. -1.
        -11    1    4    4    0    0 -0.95256552012E+01  0.41934634139E+01 -0.44084356895E+01  0.11302988450E+02  0.51100000000E-03 0.  1.
         12    1    4    4    0    0  0.23272746193E+01  0.43787913442E+01 -0.78323243026E+01  0.92701307850E+01  0.00000000000E+00 0. -1.
</event>
<event>
 8    1  0.2994958E-010  0.9118800E+02  0.7816164E-02  0.1184000E+00
        -11   -1    0    0    0    0  0.00000000000E+00  0.00000000000E+00  0.45593999997E+02  0.45594000000E+02  0.51100000000E-03 0. -1.
         11   -1    0    0    0    0 -0.00000000000E+00 -0.00000000000E+00 -0.45593999997E+02  0.45594000000E+02  0.51100000000E-03 0.  1.
         23    2    1    2    0    0  0.00000000000E+00  0.00000000000E+00  0.00000000000E+00  0.91188000000E+02  0.91188000000E+02 0.  0.
    9900012    2    3    3    0    0  0.13032307484E+02  0.36822919034E+02 -0.18917057322E+02  0.47787268874E+02  0.19999990105E+02 0.  0.
         12    1    3    3    0    0 -0.13032307484E+02 -0.36822919034E+02  0.18917057322E+02  0.43400731126E+02  0.00000000000E+00 0. -1.
         11    1    4    4    0    0  0.84002359515E+01  0.15609862345E+02 -0.12493154679E+02  0.21686647518E+02  0.51100000000E-03 0. -1.
        -11    1    4    4    0    0  0.41371524871E+01  0.46258436408E+01 -0.71780724727E+01  0.94888979747E+01  0.51100000000E-03 0.  1.
         12    1    4    4    0    0  0.49491904504E+00  0.16587213048E+02  0.75416983023E+00  0.16611723381E+02  0.00000000000E+00 0. -1.
</event>
<event>
 8    1  0.2994958E-010  0.9118800E+02  0.7816164E-02  0.1184000E+00
        -11   -1    0    0    0    0  0.00000000000E+00  0.00000000000E+00  0.45593999997E+02  0.45594000000E+02  0.51100000000E-03 0. -1.
         11   -1    0    0    0    0 -0.00000000000E+00 -0.00000000000E+00 -0.45593999997E+02  0.45594000000E+02  0.51100000000E-03 0.  1.
         23    2    1    2    0    0  0.00000000000E+00  0.00000000000E+00  0.00000000000E+00  0.91188000000E+02  0.91188000000E+02 0.  0.
    9900012    2    3    3    0    0 -0.24023476445E+02  0.19222626804E+02  0.30610254527E+02  0.47787257104E+02  0.19999936438E+02 0.  0.
        -12    1    3    3    0    0  0.24023476445E+02 -0.19222626804E+02 -0.30610254527E+02  0.43400742896E+02  0.00000000000E+00 0.  1.
         11    1    4    4    0    0 -0.29115773164E+01  0.13895530029E+00  0.33178764742E+01  0.44164347164E+01  0.51100000000E-03 0. -1.
        -11    1    4    4    0    0 -0.16105276530E+02  0.98546307594E+01  0.63090992408E+01  0.19907245239E+02  0.51100000000E-03 0.  1.
         12    1    4    4    0    0 -0.50066225990E+01  0.92290407444E+01  0.20983278812E+02  0.23463577149E+02  0.00000000000E+00 0. -1.
</event>
<event>
 8    1  0.2994958E-010  0.9118800E+02  0.7816164E-02  0.1184000E+00
        -11   -1    0    0    0    0  0.00000000000E+00  0.00000000000E+00  0.45593999997E+02  0.45594000000E+02  0.51100000000E-03 0.  1.
         11   -1    0    0    0    0 -0.00000000000E+00 -0.00000000000E+00 -0.45593999997E+02  0.45594000000E+02  0.51100000000E-03 0. -1.
         23    2    1    2    0    0  0.35527136788E-14  0.00000000000E+00  0.17763568394E-14  0.91188000000E+02  0.91188000000E+02 0.  0.
    9900012    2    3    3    0    0  0.27583393353E+02 -0.30905316993E+02 -0.12947636087E+02  0.47787268583E+02  0.19999988778E+02 0.  0.
         12    1    3    3    0    0 -0.27583393353E+02  0.30905316993E+02  0.12947636087E+02  0.43400731417E+02  0.00000000000E+00 0. -1.
         11    1    4    4    0    0  0.30490846705E+01 -0.40897611258E+00 -0.19123631079E+01  0.36223351179E+01  0.51100000000E-03 0. -1.
        -11    1    4    4    0    0  0.40916574738E+01 -0.17383694226E+02 -0.10003093926E+01  0.17886729857E+02  0.51100000000E-03 0.  1.
        -12    1    4    4    0    0  0.20442651208E+02 -0.13112646654E+02 -0.10034963587E+02  0.26278203608E+02  0.00000000000E+00 0.  1.
</event>
<event>
 8    1  0.2994958E-010  0.9118800E+02  0.7816164E-02  0.1184000E+00
        -11   -1    0    0    0    0  0.00000000000E+00  0.00000000000E+00  0.45593999997E+02  0.45594000000E+02  0.51100000000E-03 0. -1.
         11   -1    0    0    0    0 -0.00000000000E+00 -0.00000000000E+00 -0.45593999997E+02  0.45594000000E+02  0.51100000000E-03 0.  1.
         23    2    1    2    0    0  0.26645352591E-14  0.00000000000E+00  0.00000000000E+00  0.91188000000E+02  0.91188000000E+02 0.  0.
    9900012    2    3    3    0    0  0.60252209150E+01  0.32882107755E+02  0.27678278344E+02  0.47787269711E+02  0.19999993923E+02 0.  0.
        -12    1    3    3    0    0 -0.60252209150E+01 -0.32882107755E+02 -0.27678278344E+02  0.43400730289E+02  0.00000000000E+00 0.  1.
         11    1    4    4    0    0  0.96735220494E+01  0.12865664757E+02  0.13037734031E+02  0.20714363795E+02  0.51100000000E-03 0. -1.
        -11    1    4    4    0    0 -0.16676084595E+00  0.32243988538E+01 -0.14660645311E+01  0.35459699123E+01  0.51100000000E-03 0.  1.
         12    1    4    4    0    0 -0.34815402885E+01  0.16792044143E+02  0.16106608844E+02  0.23526936004E+02  0.00000000000E+00 0. -1.
</event>
<event>
 8    1  0.2994958E-010  0.9118800E+02  0.7816164E-02  0.1184000E+00
        -11   -1    0    0    0    0  0.00000000000E+00  0.00000000000E+00  0.45593999997E+02  0.45594000000E+02  0.51100000000E-03 0. -1.
         11   -1    0    0    0    0 -0.00000000000E+00 -0.00000000000E+00 -0.45593999997E+02  0.45594000000E+02  0.51100000000E-03 0.  1.
         23    2    1    2    0    0  0.17763568394E-14 -0.35527136788E-14  0.71054273576E-14  0.91188000000E+02  0.91188000000E+02 0.  0.
    9900012    2    3    3    0    0 -0.78731822320E+01  0.24088399752E+02 -0.35233306373E+02  0.47787264072E+02  0.19999968211E+02 0.  0.
         12    1    3    3    0    0  0.78731822320E+01 -0.24088399752E+02  0.35233306373E+02  0.43400735928E+02  0.00000000000E+00 0. -1.
         11    1    4    4    0    0 -0.23765299913E+01 -0.21565269614E+01 -0.70327767196E+01  0.77303591109E+01  0.51100000000E-03 0. -1.
        -11    1    4    4    0    0  0.59131997777E+00  0.14790256145E+02 -0.10661332829E+02  0.18241857199E+02  0.51100000000E-03 0.  1.
        -12    1    4    4    0    0 -0.60879722185E+01  0.11454670569E+02 -0.17539196825E+02  0.21815047762E+02  0.00000000000E+00 0.  1.
</event>
<event>
 8    1  0.2994958E-010  0.9118800E+02  0.7816164E-02  0.1184000E+00
        -11   -1    0    0    0    0  0.00000000000E+00  0.00000000000E+00  0.45593999997E+02  0.45594000000E+02  0.51100000000E-03 0. -1.
         11   -1    0    0    0    0 -0.00000000000E+00 -0.00000000000E+00 -0.45593999997E+02  0.45594000000E+02  0.51100000000E-03 0.  1.
         23    2    1    2    0    0  0.00000000000E+00 -0.44408920985E-15  0.71054273576E-14  0.91188000000E+02  0.91188000000E+02 0.  0.
    9900012    2    3    3    0    0  0.54347146590E+01  0.37954069403E+01 -0.42891510046E+02  0.47787275682E+02  0.20000021145E+02 0.  0.
         12    1    3    3    0    0 -0.54347146590E+01 -0.37954069403E+01  0.42891510046E+02  0.43400724318E+02  0.00000000000E+00 0. -1.
         11    1    4    4    0    0 -0.47313378054E+01 -0.18036340769E+01 -0.15106402817E+02  0.15932421650E+02  0.51100000000E-03 0. -1.
        -11    1    4    4    0    0 -0.11059409881E+01  0.29926396224E+01 -0.25160360620E+01  0.40631804174E+01  0.51100000000E-03 0.  1.
        -12    1    4    4    0    0  0.11271993452E+02  0.26064013948E+01 -0.25269071167E+02  0.27791673614E+02  0.00000000000E+00 0.  1.
</event>
<event>
 8    1  0.2994958E-010  0.9118800E+02  0.7816164E-02  0.1184000E+00
        -11   -1    0    0    0    0  0.00000000000E+00  0.00000000000E+00  0.45593999997E+02  0.45594000000E+02  0.51100000000E-03 0. -1.
         11   -1    0    0    0    0 -0.00000000000E+00 -0.00000000000E+00 -0.45593999997E+02  0.45594000000E+02  0.51100000000E-03 0.  1.
         23    2    1    2    0    0  0.00000000000E+00  0.00000000000E+00  0.00000000000E+00  0.91188000000E+02  0.91188000000E+02 0.  0.
    9900012    2    3    3    0    0 -0.27042036593E+02 -0.82677826939E+01  0.32924067702E+02  0.47787283326E+02  0.20000055996E+02 0.  0.
        -12    1    3    3    0    0  0.27042036593E+02  0.82677826939E+01 -0.32924067702E+02  0.43400716674E+02  0.00000000000E+00 0.  1.
         11    1    4    4    0    0 -0.46820121438E+01  0.14456848734E+01  0.19758403020E+01  0.52834825285E+01  0.51100000000E-03 0. -1.
        -11    1    4    4    0    0 -0.13822066436E+02 -0.11114916561E+02  0.11288293561E+02  0.21024187559E+02  0.51100000000E-03 0.  1.
         12    1    4    4    0    0 -0.85379580128E+01  0.14014489939E+01  0.19659933839E+02  0.21479613239E+02  0.00000000000E+00 0. -1.
</event>
<event>
 8    1  0.2994958E-010  0.9118800E+02  0.7816164E-02  0.1184000E+00
        -11   -1    0    0    0    0  0.00000000000E+00  0.00000000000E+00  0.45593999997E+02  0.45594000000E+02  0.51100000000E-03 0. -1.
         11   -1    0    0    0    0 -0.00000000000E+00 -0.00000000000E+00 -0.45593999997E+02  0.45594000000E+02  0.51100000000E-03 0.  1.
         23    2    1    2    0    0  0.35527136788E-14  0.00000000000E+00 -0.71054273576E-14  0.91188000000E+02  0.91188000000E+02 0.  0.
    9900012    2    3    3    0    0 -0.23904000129E+02 -0.16184078199E+02  0.32408294951E+02  0.47787272000E+02  0.20000004358E+02 0.  0.
        -12    1    3    3    0    0  0.23904000129E+02  0.16184078199E+02 -0.32408294951E+02  0.43400728000E+02  0.00000000000E+00 0.  1.
         11    1    4    4    0    0 -0.16029230449E+02 -0.12772935982E+02  0.24196012010E+02  0.31710110688E+02  0.51100000000E-03 0. -1.
        -11    1    4    4    0    0 -0.94927201781E+01 -0.33744321322E+01  0.96216994824E+01  0.13931102964E+02  0.51100000000E-03 0.  1.
        -12    1    4    4    0    0  0.16179504985E+01 -0.36710085131E-01 -0.14094165421E+01  0.21460583485E+01  0.00000000000E+00 0.  1.
</event>
<event>
 8    1  0.2994958E-010  0.9118800E+02  0.7816164E-02  0.1184000E+00
        -11   -1    0    0    0    0  0.00000000000E+00  0.00000000000E+00  0.45593999997E+02  0.45594000000E+02  0.51100000000E-03 0. -1.
         11   -1    0    0    0    0 -0.00000000000E+00 -0.00000000000E+00 -0.45593999997E+02  0.45594000000E+02  0.51100000000E-03 0.  1.
         23    2    1    2    0    0  0.00000000000E+00 -0.88817841970E-15  0.00000000000E+00  0.91188000000E+02  0.91188000000E+02 0.  0.
    9900012    2    3    3    0    0 -0.15113339876E+02 -0.48638067545E+01  0.40392493144E+02  0.47787272348E+02  0.20000005943E+02 0.  0.
        -12    1    3    3    0    0  0.15113339876E+02  0.48638067545E+01 -0.40392493144E+02  0.43400727652E+02  0.00000000000E+00 0.  1.
         11    1    4    4    0    0  0.17960231230E+01  0.26737589786E+01  0.26572408745E+01  0.41755976171E+01  0.51100000000E-03 0. -1.
        -11    1    4    4    0    0 -0.10008824975E+02 -0.11415494616E+01  0.94871696062E+01  0.13837850265E+02  0.51100000000E-03 0.  1.
        -12    1    4    4    0    0 -0.69005380237E+01 -0.63960162715E+01  0.28248082663E+02  0.29773824466E+02  0.00000000000E+00 0.  1.
</event>
<event>
 8    1  0.2994958E-010  0.9118800E+02  0.7816164E-02  0.1184000E+00
        -11   -1    0    0    0    0  0.00000000000E+00  0.00000000000E+00  0.45593999997E+02  0.45594000000E+02  0.51100000000E-03 0. -1.
         11   -1    0    0    0    0 -0.00000000000E+00 -0.00000000000E+00 -0.45593999997E+02  0.45594000000E+02  0.51100000000E-03 0.  1.
         23    2    1    2    0    0  0.00000000000E+00  0.35527136788E-14  0.00000000000E+00  0.91188000000E+02  0.91188000000E+02 0.  0.
    9900012    2    3    3    0    0  0.91391575432E+00 -0.19073820432E+02  0.38974062723E+02  0.47787269211E+02  0.19999991643E+02 0.  0.
        -12    1    3    3    0    0 -0.91391575432E+00  0.19073820432E+02 -0.38974062723E+02  0.43400730789E+02  0.00000000000E+00 0.  1.
         11    1    4    4    0    0 -0.33228822345E+01 -0.37178136126E+01  0.61256446628E+01  0.78985572859E+01  0.51100000000E-03 0. -1.
        -11    1    4    4    0    0  0.36222466379E+01 -0.18664858068E+02  0.29794720924E+02  0.35344348808E+02  0.51100000000E-03 0.  1.
         12    1    4    4    0    0  0.61455135087E+00  0.33088512491E+01  0.30536971355E+01  0.45443631179E+01  0.00000000000E+00 0. -1.
</event>
<event>
 8    1  0.2994958E-010  0.9118800E+02  0.7816164E-02  0.1184000E+00
        -11   -1    0    0    0    0  0.00000000000E+00  0.00000000000E+00  0.45593999997E+02  0.45594000000E+02  0.51100000000E-03 0. -1.
         11   -1    0    0    0    0 -0.00000000000E+00 -0.00000000000E+00 -0.45593999997E+02  0.45594000000E+02  0.51100000000E-03 0.  1.
         23    2    1    2    0    0  0.00000000000E+00  0.00000000000E+00  0.00000000000E+00  0.91188000000E+02  0.91188000000E+02 0.  0.
    9900012    2    3    3    0    0  0.20042351865E+02  0.12163535770E+02  0.36523630799E+02  0.47787273307E+02  0.20000010316E+02 0.  0.
        -12    1    3    3    0    0 -0.20042351865E+02 -0.12163535770E+02 -0.36523630799E+02  0.43400726693E+02  0.00000000000E+00 0.  1.
         11    1    4    4    0    0  0.12127063462E+02  0.70781108047E+01  0.17733626377E+02  0.22619611525E+02  0.51100000000E-03 0. -1.
        -11    1    4    4    0    0  0.10015144680E+02  0.78729348287E+00  0.64640617308E+01  0.11946005538E+02  0.51100000000E-03 0.  1.
        -12    1    4    4    0    0 -0.20998562769E+01  0.42981314821E+01  0.12325942691E+02  0.13221656244E+02  0.00000000000E+00 0.  1.
</event>
<event>
 8    1  0.2994958E-010  0.9118800E+02  0.7816164E-02  0.1184000E+00
        -11   -1    0    0    0    0  0.00000000000E+00  0.00000000000E+00  0.45593999997E+02  0.45594000000E+02  0.51100000000E-03 0. -1.
         11   -1    0    0    0    0 -0.00000000000E+00 -0.00000000000E+00 -0.45593999997E+02  0.45594000000E+02  0.51100000000E-03 0.  1.
         23    2    1    2    0    0  0.00000000000E+00  0.00000000000E+00  0.00000000000E+00  0.91188000000E+02  0.91188000000E+02 0.  0.
    9900012    2    3    3    0    0  0.86040520230E+01  0.24386982416E+02 -0.34854960456E+02  0.47787275456E+02  0.20000020112E+02 0.  0.
         12    1    3    3    0    0 -0.86040520230E+01 -0.24386982416E+02  0.34854960456E+02  0.43400724544E+02  0.00000000000E+00 0. -1.
         11    1    4    4    0    0 -0.22048225939E+01  0.37456849275E+00 -0.10741213611E+01  0.24809839148E+01  0.51100000000E-03 0. -1.
        -11    1    4    4    0    0 -0.85633368251E+00 -0.73886409571E+00  0.66742501489E+00  0.13132722259E+01  0.51100000000E-03 0.  1.
        -12    1    4    4    0    0  0.11665208299E+02  0.24751278019E+02 -0.34448264110E+02  0.43993019315E+02  0.00000000000E+00 0.  1.
</event>
<event>
 8    1  0.2994958E-010  0.9118800E+02  0.7816164E-02  0.1184000E+00
        -11   -1    0    0    0    0  0.00000000000E+00  0.00000000000E+00  0.45593999997E+02  0.45594000000E+02  0.51100000000E-03 0. -1.
         11   -1    0    0    0    0 -0.00000000000E+00 -0.00000000000E+00 -0.45593999997E+02  0.45594000000E+02  0.51100000000E-03 0.  1.
         23    2    1    2    0    0  0.00000000000E+00  0.00000000000E+00 -0.17763568394E-14  0.91188000000E+02  0.91188000000E+02 0.  0.
    9900012    2    3    3    0    0 -0.33175179189E+02 -0.23191628942E+02  0.15658185793E+02  0.47787274781E+02  0.20000017035E+02 0.  0.
        -12    1    3    3    0    0  0.33175179189E+02  0.23191628942E+02 -0.15658185793E+02  0.43400725219E+02  0.00000000000E+00 0.  1.
         11    1    4    4    0    0 -0.15764576299E+02 -0.53999012395E+01  0.59455191717E+01  0.17692653780E+02  0.51100000000E-03 0. -1.
        -11    1    4    4    0    0 -0.11641925905E+02 -0.51273600100E+01  0.99911539694E+01  0.16175519076E+02  0.51100000000E-03 0.  1.
        -12    1    4    4    0    0 -0.57686769847E+01 -0.12664367692E+02 -0.27848734786E+00  0.13919101925E+02  0.00000000000E+00 0.  1.
</event>
<event>
 8    1  0.2994958E-010  0.9118800E+02  0.7816164E-02  0.1184000E+00
        -11   -1    0    0    0    0  0.00000000000E+00  0.00000000000E+00  0.45593999997E+02  0.45594000000E+02  0.51100000000E-03 0. -1.
         11   -1    0    0    0    0 -0.00000000000E+00 -0.00000000000E+00 -0.45593999997E+02  0.45594000000E+02  0.51100000000E-03 0.  1.
         23    2    1    2    0    0  0.00000000000E+00  0.00000000000E+00  0.00000000000E+00  0.91188000000E+02  0.91188000000E+02 0.  0.
    9900012    2    3    3    0    0 -0.20660921184E+02 -0.28355025026E+02 -0.25548818117E+02  0.47787271716E+02  0.20000003064E+02 0.  0.
         12    1    3    3    0    0  0.20660921184E+02  0.28355025026E+02  0.25548818117E+02  0.43400728284E+02  0.00000000000E+00 0. -1.
         11    1    4    4    0    0 -0.28811522226E+01 -0.61372750352E+00  0.52737992735E+00  0.29926291830E+01  0.51100000000E-03 0. -1.
        -11    1    4    4    0    0 -0.14640638489E+02 -0.85100276922E+01 -0.11869840928E+02  0.20679990102E+02  0.51100000000E-03 0.  1.
        -12    1    4    4    0    0 -0.31391304723E+01 -0.19231269830E+02 -0.14206357117E+02  0.24114652432E+02  0.00000000000E+00 0.  1.
</event>
<event>
 8    1  0.2994958E-010  0.9118800E+02  0.7816164E-02  0.1184000E+00
        -11   -1    0    0    0    0  0.00000000000E+00  0.00000000000E+00  0.45593999997E+02  0.45594000000E+02  0.51100000000E-03 0. -1.
         11   -1    0    0    0    0 -0.00000000000E+00 -0.00000000000E+00 -0.45593999997E+02  0.45594000000E+02  0.51100000000E-03 0.  1.
         23    2    1    2    0    0  0.35527136788E-14  0.00000000000E+00  0.71054273576E-14  0.91188000000E+02  0.91188000000E+02 0.  0.
    9900012    2    3    3    0    0  0.17518597771E+02 -0.15830131069E+01 -0.39676396556E+02  0.47787266803E+02  0.19999980662E+02 0.  0.
         12    1    3    3    0    0 -0.17518597771E+02  0.15830131069E+01  0.39676396556E+02  0.43400733197E+02  0.00000000000E+00 0. -1.
         11    1    4    4    0    0  0.47691874825E+01  0.45079135020E+01 -0.52406562936E+01  0.83982683950E+01  0.51100000000E-03 0. -1.
        -11    1    4    4    0    0  0.38117618577E+00 -0.15084859200E+00  0.11653881349E+01  0.12353867201E+01  0.51100000000E-03 0.  1.
        -12    1    4    4    0    0  0.12368234102E+02 -0.59400780169E+01 -0.35601128398E+02  0.38153611688E+02  0.00000000000E+00 0.  1.
</event>
<event>
 8    1  0.2994958E-010  0.9118800E+02  0.7816164E-02  0.1184000E+00
        -11   -1    0    0    0    0  0.00000000000E+00  0.00000000000E+00  0.45593999997E+02  0.45594000000E+02  0.51100000000E-03 0. -1.
         11   -1    0    0    0    0 -0.00000000000E+00 -0.00000000000E+00 -0.45593999997E+02  0.45594000000E+02  0.51100000000E-03 0.  1.
         23    2    1    2    0    0 -0.35527136788E-14  0.00000000000E+00  0.00000000000E+00  0.91188000000E+02  0.91188000000E+02 0.  0.
    9900012    2    3    3    0    0  0.26623878462E+02  0.30217237018E+02  0.16177498092E+02  0.47787265422E+02  0.19999974365E+02 0.  0.
        -12    1    3    3    0    0 -0.26623878462E+02 -0.30217237018E+02 -0.16177498092E+02  0.43400734578E+02  0.00000000000E+00 0.  1.
         11    1    4    4    0    0  0.58656168520E+01 -0.11815575742E+01  0.10931205337E+01  0.60824708892E+01  0.51100000000E-03 0. -1.
        -11    1    4    4    0    0  0.40710912293E+01  0.39388282193E+01 -0.10304851770E+01  0.57576081405E+01  0.51100000000E-03 0.  1.
        -12    1    4    4    0    0  0.16687170381E+02  0.27459966373E+02  0.16114862735E+02  0.35947186392E+02  0.00000000000E+00 0.  1.
</event>
<event>
 8    1  0.2994958E-010  0.9118800E+02  0.7816164E-02  0.1184000E+00
        -11   -1    0    0    0    0  0.00000000000E+00  0.00000000000E+00  0.45593999997E+02  0.45594000000E+02  0.51100000000E-03 0. -1.
         11   -1    0    0    0    0 -0.00000000000E+00 -0.00000000000E+00 -0.45593999997E+02  0.45594000000E+02  0.51100000000E-03 0.  1.
         23    2    1    2    0    0  0.00000000000E+00  0.00000000000E+00 -0.17763568394E-14  0.91188000000E+02  0.91188000000E+02 0.  0.
    9900012    2    3    3    0    0  0.34411579979E+02  0.23776182041E+02  0.11582734791E+02  0.47787269427E+02  0.19999992624E+02 0.  0.
        -12    1    3    3    0    0 -0.34411579979E+02 -0.23776182041E+02 -0.11582734791E+02  0.43400730573E+02  0.00000000000E+00 0.  1.
         11    1    4    4    0    0  0.14456022698E+02  0.11636194142E+02  0.92844235889E+01  0.20750376575E+02  0.51100000000E-03 0. -1.
        -11    1    4    4    0    0  0.86566360926E+01  0.80772361335E+01  0.74312150114E+01  0.13978628288E+02  0.51100000000E-03 0.  1.
         12    1    4    4    0    0  0.11298921188E+02  0.40627517654E+01 -0.51329038092E+01  0.13058264564E+02  0.00000000000E+00 0. -1.
</event>
<event>
 8    1  0.2994958E-010  0.9118800E+02  0.7816164E-02  0.1184000E+00
        -11   -1    0    0    0    0  0.00000000000E+00  0.00000000000E+00  0.45593999997E+02  0.45594000000E+02  0.51100000000E-03 0. -1.
         11   -1    0    0    0    0 -0.00000000000E+00 -0.00000000000E+00 -0.45593999997E+02  0.45594000000E+02  0.51100000000E-03 0.  1.
         23    2    1    2    0    0  0.00000000000E+00  0.00000000000E+00  0.00000000000E+00  0.91188000000E+02  0.91188000000E+02 0.  0.
    9900012    2    3    3    0    0 -0.23630419198E+02 -0.11133462373E+02  0.34659378238E+02  0.47787271945E+02  0.20000004105E+02 0.  0.
        -12    1    3    3    0    0  0.23630419198E+02  0.11133462373E+02 -0.34659378238E+02  0.43400728055E+02  0.00000000000E+00 0.  1.
         11    1    4    4    0    0 -0.61431510491E+01 -0.75624092598E+01  0.43794831257E+01  0.10682144510E+02  0.51100000000E-03 0. -1.
        -11    1    4    4    0    0 -0.34167036431E+00 -0.35554428422E+01  0.21713596913E+01  0.41800377524E+01  0.51100000000E-03 0.  1.
        -12    1    4    4    0    0 -0.17145597785E+02 -0.15610270822E-01  0.28108535421E+02  0.32925089682E+02  0.00000000000E+00 0.  1.
</event>
<event>
 8    1  0.2994958E-010  0.9118800E+02  0.7816164E-02  0.1184000E+00
        -11   -1    0    0    0    0  0.00000000000E+00  0.00000000000E+00  0.45593999997E+02  0.45594000000E+02  0.51100000000E-03 0. -1.
         11   -1    0    0    0    0 -0.00000000000E+00 -0.00000000000E+00 -0.45593999997E+02  0.45594000000E+02  0.51100000000E-03 0.  1.
         23    2    1    2    0    0  0.00000000000E+00 -0.35527136788E-14 -0.17763568394E-14  0.91188000000E+02  0.91188000000E+02 0.  0.
    9900012    2    3    3    0    0 -0.33458772478E+02  0.25329097238E+02 -0.11071188182E+02  0.47787264633E+02  0.19999970766E+02 0.  0.
         12    1    3    3    0    0  0.33458772478E+02 -0.25329097238E+02  0.11071188182E+02  0.43400735367E+02  0.00000000000E+00 0. -1.
         11    1    4    4    0    0  0.60100503223E+00  0.43037345386E+01  0.16764977043E+01  0.46576799848E+01  0.51100000000E-03 0. -1.
        -11    1    4    4    0    0 -0.12517842535E+01  0.37206785861E+01 -0.54973744338E-01  0.39259948207E+01  0.51100000000E-03 0.  1.
        -12    1    4    4    0    0 -0.32807993257E+02  0.17304684114E+02 -0.12692712142E+02  0.39203589827E+02  0.00000000000E+00 0.  1.
</event>
<event>
 8    1  0.2994958E-010  0.9118800E+02  0.7816164E-02  0.1184000E+00
        -11   -1    0    0    0    0  0.00000000000E+00  0.00000000000E+00  0.45593999997E+02  0.45594000000E+02  0.51100000000E-03 0. -1.
         11   -1    0    0    0    0 -0.00000000000E+00 -0.00000000000E+00 -0.45593999997E+02  0.45594000000E+02  0.51100000000E-03 0.  1.
         23    2    1    2    0    0  0.00000000000E+00  0.00000000000E+00  0.00000000000E+00  0.91188000000E+02  0.91188000000E+02 0.  0.
    9900012    2    3    3    0    0 -0.22368477131E+02  0.20342593267E+02 -0.31136061248E+02  0.47787260605E+02  0.19999952402E+02 0.  0.
         12    1    3    3    0    0  0.22368477131E+02 -0.20342593267E+02  0.31136061248E+02  0.43400739395E+02  0.00000000000E+00 0. -1.
         11    1    4    4    0    0 -0.10547461214E+02  0.50668926533E+01 -0.14406337623E+02  0.18559765709E+02  0.51100000000E-03 0. -1.
        -11    1    4    4    0    0 -0.12790385419E+02  0.70125574475E+01 -0.14602949797E+02  0.20640156592E+02  0.51100000000E-03 0.  1.
         12    1    4    4    0    0  0.96936950166E+00  0.82631431662E+01 -0.21267738281E+01  0.85873383031E+01  0.00000000000E+00 0. -1.
</event>
<event>
 8    1  0.2994958E-010  0.9118800E+02  0.7816164E-02  0.1184000E+00
        -11   -1    0    0    0    0  0.00000000000E+00  0.00000000000E+00  0.45593999997E+02  0.45594000000E+02  0.51100000000E-03 0. -1.
         11   -1    0    0    0    0 -0.00000000000E+00 -0.00000000000E+00 -0.45593999997E+02  0.45594000000E+02  0.51100000000E-03 0.  1.
         23    2    1    2    0    0  0.00000000000E+00  0.00000000000E+00  0.00000000000E+00  0.91188000000E+02  0.91188000000E+02 0.  0.
    9900012    2    3    3    0    0 -0.25550733916E+02 -0.55454948830E+01 -0.34641464047E+02  0.47787267881E+02  0.19999985577E+02 0.  0.
         12    1    3    3    0    0  0.25550733916E+02  0.55454948830E+01  0.34641464047E+02  0.43400732119E+02  0.00000000000E+00 0. -1.
         11    1    4    4    0    0 -0.48674455569E+01  0.33411138777E+01 -0.95056204665E+01  0.11189811835E+02  0.51100000000E-03 0. -1.
        -11    1    4    4    0    0 -0.20381677935E+02 -0.55591673418E+01 -0.25635834725E+02  0.33219168552E+02  0.51100000000E-03 0.  1.
         12    1    4    4    0    0 -0.30161042428E+00 -0.33274414189E+01  0.49999114504E+00  0.33782874936E+01  0.00000000000E+00 0. -1.
</event>
<event>
 8    1  0.2994958E-010  0.9118800E+02  0.7816164E-02  0.1184000E+00
        -11   -1    0    0    0    0  0.00000000000E+00  0.00000000000E+00  0.45593999997E+02  0.45594000000E+02  0.51100000000E-03 0. -1.
         11   -1    0    0    0    0 -0.00000000000E+00 -0.00000000000E+00 -0.45593999997E+02  0.45594000000E+02  0.51100000000E-03 0.  1.
         23    2    1    2    0    0  0.88817841970E-15 -0.71054273576E-14  0.35527136788E-14  0.91188000000E+02  0.91188000000E+02 0.  0.
    9900012    2    3    3    0    0 -0.75642987780E+01  0.33095996122E+02 -0.27038109267E+02  0.47787275029E+02  0.20000018165E+02 0.  0.
         12    1    3    3    0    0  0.75642987780E+01 -0.33095996122E+02  0.27038109267E+02  0.43400724971E+02  0.00000000000E+00 0. -1.
         11    1    4    4    0    0 -0.28921853644E+01  0.14173560255E+02 -0.66544911394E+01  0.15922838914E+02  0.51100000000E-03 0. -1.
        -11    1    4    4    0    0 -0.65923232072E+01  0.18809527274E+02 -0.21752899635E+02  0.29503316497E+02  0.51100000000E-03 0.  1.
         12    1    4    4    0    0  0.19202097936E+01  0.11290859303E+00  0.13692815075E+01  0.23611196177E+01  0.00000000000E+00 0. -1.
</event>
<event>
 8    1  0.3161157E-010  0.9118800E+02  0.7816164E-02  0.1184000E+00
        -11   -1    0    0    0    0  0.00000000000E+00  0.00000000000E+00  0.45593999997E+02  0.45594000000E+02  0.51100000000E-03 0. -1.
         11   -1    0    0    0    0 -0.00000000000E+00 -0.00000000000E+00 -0.45593999997E+02  0.45594000000E+02  0.51100000000E-03 0.  1.
         23    2    1    2    0    0 -0.44408920985E-15  0.00000000000E+00  0.00000000000E+00  0.91188000000E+02  0.91188000000E+02 0.  0.
    9900012    2    3    3    0    0  0.84566417639E+00 -0.87358236714E+01  0.42504037445E+02  0.47787274635E+02  0.20000016371E+02 0.  0.
        -12    1    3    3    0    0 -0.84566417639E+00  0.87358236714E+01 -0.42504037445E+02  0.43400725365E+02  0.00000000000E+00 0.  1.
         11    1    4    4    0    0  0.58068384531E+00  0.25689662175E+01  0.70522375174E+01  0.75280034151E+01  0.51100000000E-03 0. -1.
        -11    1    4    4    0    0  0.30784858176E+01 -0.34870975821E+01  0.91957518925E+00  0.47415760319E+01  0.51100000000E-03 0.  1.
         12    1    4    4    0    0 -0.28135054865E+01 -0.78176923068E+01  0.34532224738E+02  0.35517695188E+02  0.00000000000E+00 0. -1.
</event>
<event>
 8    1  0.2994958E-010  0.9118800E+02  0.7816164E-02  0.1184000E+00
        -11   -1    0    0    0    0  0.00000000000E+00  0.00000000000E+00  0.45593999997E+02  0.45594000000E+02  0.51100000000E-03 0. -1.
         11   -1    0    0    0    0 -0.00000000000E+00 -0.00000000000E+00 -0.45593999997E+02  0.45594000000E+02  0.51100000000E-03 0.  1.
         23    2    1    2    0    0 -0.35527136788E-14  0.00000000000E+00  0.00000000000E+00  0.91188000000E+02  0.91188000000E+02 0.  0.
    9900012    2    3    3    0    0 -0.17056677508E+02  0.23204211074E+02  0.32469336391E+02  0.47787268845E+02  0.19999989970E+02 0.  0.
        -12    1    3    3    0    0  0.17056677508E+02 -0.23204211074E+02 -0.32469336391E+02  0.43400731155E+02  0.00000000000E+00 0.  1.
         11    1    4    4    0    0  0.31555568988E-01  0.90928470750E+00  0.23596820645E-01  0.91013817868E+00  0.51100000000E-03 0. -1.
        -11    1    4    4    0    0  0.33743761431E+01  0.29604543321E-01  0.18048649329E+01  0.38268562126E+01  0.51100000000E-03 0.  1.
         12    1    4    4    0    0 -0.20462609220E+02  0.22265321823E+02  0.30640874637E+02  0.43050274453E+02  0.00000000000E+00 0. -1.
</event>
<event>
 8    1  0.2994958E-010  0.9118800E+02  0.7816164E-02  0.1184000E+00
        -11   -1    0    0    0    0  0.00000000000E+00  0.00000000000E+00  0.45593999997E+02  0.45594000000E+02  0.51100000000E-03 0.  1.
         11   -1    0    0    0    0 -0.00000000000E+00 -0.00000000000E+00 -0.45593999997E+02  0.45594000000E+02  0.51100000000E-03 0. -1.
         23    2    1    2    0    0 -0.71054273576E-14 -0.17763568394E-14  0.00000000000E+00  0.91188000000E+02  0.91188000000E+02 0.  0.
    9900012    2    3    3    0    0  0.38320111680E+02  0.11544858793E+02 -0.16790132392E+02  0.47787271095E+02  0.20000000230E+02 0.  0.
         12    1    3    3    0    0 -0.38320111680E+02 -0.11544858793E+02  0.16790132392E+02  0.43400728905E+02  0.00000000000E+00 0. -1.
         11    1    4    4    0    0  0.19777458532E+02  0.11025214078E+02 -0.11404824272E+02  0.25352972772E+02  0.51100000000E-03 0. -1.
        -11    1    4    4    0    0  0.18035714630E+02  0.36161197411E+01 -0.57573885933E+01  0.19274616672E+02  0.51100000000E-03 0.  1.
         12    1    4    4    0    0  0.50693851846E+00 -0.30964750265E+01  0.37208047331E+00  0.31596816501E+01  0.00000000000E+00 0. -1.
</event>
<event>
 8    1  0.2994958E-010  0.9118800E+02  0.7816164E-02  0.1184000E+00
        -11   -1    0    0    0    0  0.00000000000E+00  0.00000000000E+00  0.45593999997E+02  0.45594000000E+02  0.51100000000E-03 0. -1.
         11   -1    0    0    0    0 -0.00000000000E+00 -0.00000000000E+00 -0.45593999997E+02  0.45594000000E+02  0.51100000000E-03 0.  1.
         23    2    1    2    0    0  0.17763568394E-14  0.00000000000E+00  0.71054273576E-14  0.91188000000E+02  0.91188000000E+02 0.  0.
    9900012    2    3    3    0    0 -0.11179929014E+02 -0.26790724748E+02 -0.32262817536E+02  0.47787272579E+02  0.20000006995E+02 0.  0.
         12    1    3    3    0    0  0.11179929014E+02  0.26790724748E+02  0.32262817536E+02  0.43400727421E+02  0.00000000000E+00 0. -1.
         11    1    4    4    0    0 -0.10673170416E+02 -0.67482794925E+01 -0.16302920827E+02  0.20621374120E+02  0.51100000000E-03 0.  1.
        -11    1    4    4    0    0 -0.78620510571E+00 -0.87297096550E+01 -0.12623521379E+02  0.15368124199E+02  0.51100000000E-03 0. -1.
         12    1    4    4    0    0  0.27944650743E+00 -0.11312735601E+02 -0.33363753297E+01  0.11797774259E+02  0.00000000000E+00 0. -1.
</event>
<event>
 8    1  0.2994958E-010  0.9118800E+02  0.7816164E-02  0.1184000E+00
        -11   -1    0    0    0    0  0.00000000000E+00  0.00000000000E+00  0.45593999997E+02  0.45594000000E+02  0.51100000000E-03 0. -1.
         11   -1    0    0    0    0 -0.00000000000E+00 -0.00000000000E+00 -0.45593999997E+02  0.45594000000E+02  0.51100000000E-03 0.  1.
         23    2    1    2    0    0 -0.71054273576E-14 -0.16653345369E-15 -0.35527136788E-14  0.91188000000E+02  0.91188000000E+02 0.  0.
    9900012    2    3    3    0    0 -0.32691434467E+02 -0.73208342337E-01 -0.28546285815E+02  0.47787243315E+02  0.19999873570E+02 0.  0.
         12    1    3    3    0    0  0.32691434467E+02  0.73208342337E-01  0.28546285815E+02  0.43400756685E+02  0.00000000000E+00 0. -1.
         11    1    4    4    0    0 -0.22931345266E+02  0.22157262138E+01 -0.19222316596E+02  0.30004224601E+02  0.51100000000E-03 0.  1.
        -11    1    4    4    0    0 -0.52890701314E+01  0.39764963468E+01 -0.14545471391E+01  0.67751379094E+01  0.51100000000E-03 0. -1.
         12    1    4    4    0    0 -0.44710190696E+01 -0.62654309029E+01 -0.78694220808E+01  0.11007880804E+02  0.00000000000E+00 0. -1.
</event>
<event>
 8    1  0.2994958E-010  0.9118800E+02  0.7816164E-02  0.1184000E+00
        -11   -1    0    0    0    0  0.00000000000E+00  0.00000000000E+00  0.45593999997E+02  0.45594000000E+02  0.51100000000E-03 0.  1.
         11   -1    0    0    0    0 -0.00000000000E+00 -0.00000000000E+00 -0.45593999997E+02  0.45594000000E+02  0.51100000000E-03 0. -1.
         23    2    1    2    0    0  0.00000000000E+00  0.00000000000E+00  0.00000000000E+00  0.91188000000E+02  0.91188000000E+02 0.  0.
    9900012    2    3    3    0    0  0.29031867476E+02  0.25515382343E+02 -0.19741812043E+02  0.47787271803E+02  0.20000003458E+02 0.  0.
         12    1    3    3    0    0 -0.29031867476E+02 -0.25515382343E+02  0.19741812043E+02  0.43400728197E+02  0.00000000000E+00 0. -1.
         11    1    4    4    0    0  0.18304063551E+02  0.76041659618E+01 -0.20133435798E+01  0.19922741656E+02  0.51100000000E-03 0. -1.
        -11    1    4    4    0    0  0.69193707019E+01  0.66418999844E+01 -0.74802851068E+01  0.12163354466E+02  0.51100000000E-03 0.  1.
         12    1    4    4    0    0  0.38084332236E+01  0.11269316397E+02 -0.10248183357E+02  0.15701175682E+02  0.00000000000E+00 0. -1.
</event>
<event>
 8    1  0.2994958E-010  0.9118800E+02  0.7816164E-02  0.1184000E+00
        -11   -1    0    0    0    0  0.00000000000E+00  0.00000000000E+00  0.45593999997E+02  0.45594000000E+02  0.51100000000E-03 0. -1.
         11   -1    0    0    0    0 -0.00000000000E+00 -0.00000000000E+00 -0.45593999997E+02  0.45594000000E+02  0.51100000000E-03 0.  1.
         23    2    1    2    0    0  0.00000000000E+00  0.17763568394E-14  0.00000000000E+00  0.91188000000E+02  0.91188000000E+02 0.  0.
    9900012    2    3    3    0    0 -0.18960965077E+02 -0.13640101369E+02 -0.36579402441E+02  0.47787271377E+02  0.20000001518E+02 0.  0.
         12    1    3    3    0    0  0.18960965077E+02  0.13640101369E+02  0.36579402441E+02  0.43400728623E+02  0.00000000000E+00 0. -1.
         11    1    4    4    0    0 -0.32646362970E+01 -0.39188905672E+01 -0.16568960102E+02  0.17336262358E+02  0.51100000000E-03 0. -1.
        -11    1    4    4    0    0 -0.13450309813E+02 -0.17842013020E+01 -0.16811576030E+02  0.21603779698E+02  0.51100000000E-03 0.  1.
        -12    1    4    4    0    0 -0.22460189665E+01 -0.79370094999E+01 -0.31988663090E+01  0.88472293212E+01  0.00000000000E+00 0.  1.
</event>
<event>
 8    1  0.2994958E-010  0.9118800E+02  0.7816164E-02  0.1184000E+00
        -11   -1    0    0    0    0  0.00000000000E+00  0.00000000000E+00  0.45593999997E+02  0.45594000000E+02  0.51100000000E-03 0. -1.
         11   -1    0    0    0    0 -0.00000000000E+00 -0.00000000000E+00 -0.45593999997E+02  0.45594000000E+02  0.51100000000E-03 0.  1.
         23    2    1    2    0    0 -0.17763568394E-14  0.00000000000E+00 -0.17763568394E-14  0.91188000000E+02  0.91188000000E+02 0.  0.
    9900012    2    3    3    0    0 -0.11214510716E+02  0.40974012301E+02 -0.88875947054E+01  0.47787259519E+02  0.19999947453E+02 0.  0.
         12    1    3    3    0    0  0.11214510716E+02 -0.40974012301E+02  0.88875947054E+01  0.43400740481E+02  0.00000000000E+00 0. -1.
         11    1    4    4    0    0 -0.42382075680E+01  0.18094873946E+01 -0.25310588066E+01  0.52576522293E+01  0.51100000000E-03 0. -1.
        -11    1    4    4    0    0 -0.85007002408E+01  0.19316016200E+02 -0.79671169817E+01  0.22557600486E+02  0.51100000000E-03 0.  1.
        -12    1    4    4    0    0  0.15243970929E+01  0.19848508707E+02  0.16105810830E+01  0.19972006804E+02  0.00000000000E+00 0.  1.
</event>
<event>
 8    1  0.2994958E-010  0.9118800E+02  0.7816164E-02  0.1184000E+00
        -11   -1    0    0    0    0  0.00000000000E+00  0.00000000000E+00  0.45593999997E+02  0.45594000000E+02  0.51100000000E-03 0. -1.
         11   -1    0    0    0    0 -0.00000000000E+00 -0.00000000000E+00 -0.45593999997E+02  0.45594000000E+02  0.51100000000E-03 0.  1.
         23    2    1    2    0    0 -0.17763568394E-14  0.00000000000E+00  0.00000000000E+00  0.91188000000E+02  0.91188000000E+02 0.  0.
    9900012    2    3    3    0    0  0.13970805921E+02 -0.19215520874E+02 -0.36320844073E+02  0.47787269883E+02  0.19999994704E+02 0.  0.
         12    1    3    3    0    0 -0.13970805921E+02  0.19215520874E+02  0.36320844073E+02  0.43400730117E+02  0.00000000000E+00 0. -1.
         11    1    4    4    0    0  0.90859936965E+01 -0.75480969624E+01 -0.68216609770E+01  0.13640531806E+02  0.51100000000E-03 0. -1.
        -11    1    4    4    0    0  0.43831097284E+00  0.19558546837E+01 -0.98352401132E+00  0.22326674169E+01  0.51100000000E-03 0.  1.
        -12    1    4    4    0    0  0.44465012520E+01 -0.13623278595E+02 -0.28515659085E+02  0.31914070660E+02  0.00000000000E+00 0.  1.
</event>
<event>
 8    1  0.2994958E-010  0.9118800E+02  0.7816164E-02  0.1184000E+00
        -11   -1    0    0    0    0  0.00000000000E+00  0.00000000000E+00  0.45593999997E+02  0.45594000000E+02  0.51100000000E-03 0. -1.
         11   -1    0    0    0    0 -0.00000000000E+00 -0.00000000000E+00 -0.45593999997E+02  0.45594000000E+02  0.51100000000E-03 0.  1.
         23    2    1    2    0    0  0.84654505628E-15  0.00000000000E+00 -0.71054273576E-14  0.91188000000E+02  0.91188000000E+02 0.  0.
    9900012    2    3    3    0    0  0.63582662400E-01 -0.22630870760E+02 -0.37033269826E+02  0.47787269268E+02  0.19999991899E+02 0.  0.
         12    1    3    3    0    0 -0.63582662400E-01  0.22630870760E+02  0.37033269826E+02  0.43400730732E+02  0.00000000000E+00 0. -1.
         11    1    4    4    0    0 -0.11426280871E+01 -0.19147816585E+02 -0.21322955962E+02  0.28681229579E+02  0.51100000000E-03 0. -1.
        -11    1    4    4    0    0  0.50186606469E+01 -0.46489496125E+01 -0.10750478832E+02  0.12742546157E+02  0.51100000000E-03 0.  1.
        -12    1    4    4    0    0 -0.38124498974E+01  0.11658954374E+01 -0.49598350319E+01  0.63634935322E+01  0.00000000000E+00 0.  1.
</event>
<event>
 8    1  0.2994958E-010  0.9118800E+02  0.7816164E-02  0.1184000E+00
        -11   -1    0    0    0    0  0.00000000000E+00  0.00000000000E+00  0.45593999997E+02  0.45594000000E+02  0.51100000000E-03 0. -1.
         11   -1    0    0    0    0 -0.00000000000E+00 -0.00000000000E+00 -0.45593999997E+02  0.45594000000E+02  0.51100000000E-03 0.  1.
         23    2    1    2    0    0 -0.88817841970E-15  0.66613381478E-15  0.71054273576E-14  0.91188000000E+02  0.91188000000E+02 0.  0.
    9900012    2    3    3    0    0 -0.38881158995E+01 -0.13466559766E+01  0.43205231460E+02  0.47787274741E+02  0.20000016852E+02 0.  0.
        -12    1    3    3    0    0  0.38881158995E+01  0.13466559766E+01 -0.43205231460E+02  0.43400725259E+02  0.00000000000E+00 0.  1.
         11    1    4    4    0    0 -0.92651095616E+01 -0.21979500172E+01  0.13784510734E+02  0.16753685443E+02  0.51100000000E-03 0. -1.
        -11    1    4    4    0    0  0.85415721721E+00 -0.34938712825E+01  0.11239644257E+02  0.11801115387E+02  0.51100000000E-03 0.  1.
         12    1    4    4    0    0  0.45228364449E+01  0.43451653231E+01  0.18181076468E+02  0.19232473911E+02  0.00000000000E+00 0. -1.
</event>
<event>
 8    1  0.2994958E-010  0.9118800E+02  0.7816164E-02  0.1184000E+00
        -11   -1    0    0    0    0  0.00000000000E+00  0.00000000000E+00  0.45593999997E+02  0.45594000000E+02  0.51100000000E-03 0. -1.
         11   -1    0    0    0    0 -0.00000000000E+00 -0.00000000000E+00 -0.45593999997E+02  0.45594000000E+02  0.51100000000E-03 0.  1.
         23    2    1    2    0    0  0.00000000000E+00  0.00000000000E+00  0.00000000000E+00  0.91188000000E+02  0.91188000000E+02 0.  0.
    9900012    2    3    3    0    0  0.10395859159E+02 -0.45841635329E+01 -0.41887177171E+02  0.47787262054E+02  0.19999959007E+02 0.  0.
         12    1    3    3    0    0 -0.10395859159E+02  0.45841635329E+01  0.41887177171E+02  0.43400737946E+02  0.00000000000E+00 0. -1.
         11    1    4    4    0    0  0.69595127532E+01  0.20684501843E+01 -0.21611308337E+02  0.22798288362E+02  0.51100000000E-03 0. -1.
        -11    1    4    4    0    0  0.81444982843E+01 -0.35676466522E+01 -0.11072421479E+02  0.14200685638E+02  0.51100000000E-03 0.  1.
         12    1    4    4    0    0 -0.47081518787E+01 -0.30849670650E+01 -0.92034473550E+01  0.10788288053E+02  0.00000000000E+00 0. -1.
</event>
<event>
 8    1  0.2994958E-010  0.9118800E+02  0.7816164E-02  0.1184000E+00
        -11   -1    0    0    0    0  0.00000000000E+00  0.00000000000E+00  0.45593999997E+02  0.45594000000E+02  0.51100000000E-03 0. -1.
         11   -1    0    0    0    0 -0.00000000000E+00 -0.00000000000E+00 -0.45593999997E+02  0.45594000000E+02  0.51100000000E-03 0.  1.
         23    2    1    2    0    0  0.00000000000E+00  0.00000000000E+00 -0.35527136788E-14  0.91188000000E+02  0.91188000000E+02 0.  0.
    9900012    2    3    3    0    0  0.11952333289E+02 -0.32707142237E+02 -0.25903791148E+02  0.47787287792E+02  0.20000076358E+02 0.  0.
         12    1    3    3    0    0 -0.11952333289E+02  0.32707142237E+02  0.25903791148E+02  0.43400712208E+02  0.00000000000E+00 0. -1.
         11    1    4    4    0    0 -0.20785785973E+01 -0.91940616100E+01 -0.13899459388E+02  0.16794232028E+02  0.51100000000E-03 0. -1.
        -11    1    4    4    0    0  0.20269556353E+01 -0.10944075906E+02 -0.36857547773E+01  0.11724595308E+02  0.51100000000E-03 0.  1.
         12    1    4    4    0    0  0.12003956251E+02 -0.12569004721E+02 -0.83185769826E+01  0.19268460456E+02  0.00000000000E+00 0. -1.
</event>
<event>
 8    1  0.2994958E-010  0.9118800E+02  0.7816164E-02  0.1184000E+00
        -11   -1    0    0    0    0  0.00000000000E+00  0.00000000000E+00  0.45593999997E+02  0.45594000000E+02  0.51100000000E-03 0. -1.
         11   -1    0    0    0    0 -0.00000000000E+00 -0.00000000000E+00 -0.45593999997E+02  0.45594000000E+02  0.51100000000E-03 0.  1.
         23    2    1    2    0    0  0.00000000000E+00 -0.44408920985E-15  0.71054273576E-14  0.91188000000E+02  0.91188000000E+02 0.  0.
    9900012    2    3    3    0    0 -0.13391725411E+02 -0.36725961852E+01  0.41119304379E+02  0.47787268844E+02  0.19999989968E+02 0.  0.
        -12    1    3    3    0    0  0.13391725411E+02  0.36725961852E+01 -0.41119304379E+02  0.43400731156E+02  0.00000000000E+00 0.  1.
         11    1    4    4    0    0 -0.11091891283E+02  0.17963402953E+00  0.25588448980E+02  0.27889622480E+02  0.51100000000E-03 0. -1.
        -11    1    4    4    0    0  0.20577155862E+01 -0.41994802827E+01  0.14728693192E+02  0.15453291931E+02  0.51100000000E-03 0.  1.
        -12    1    4    4    0    0 -0.43575497145E+01  0.34725006797E+00  0.80216220723E+00  0.44443544335E+01  0.00000000000E+00 0.  1.
</event>
<event>
 8    1  0.2994958E-010  0.9118800E+02  0.7816164E-02  0.1184000E+00
        -11   -1    0    0    0    0  0.00000000000E+00  0.00000000000E+00  0.45593999997E+02  0.45594000000E+02  0.51100000000E-03 0. -1.
         11   -1    0    0    0    0 -0.00000000000E+00 -0.00000000000E+00 -0.45593999997E+02  0.45594000000E+02  0.51100000000E-03 0.  1.
         23    2    1    2    0    0  0.00000000000E+00  0.00000000000E+00  0.00000000000E+00  0.91188000000E+02  0.91188000000E+02 0.  0.
    9900012    2    3    3    0    0 -0.11184983133E+02  0.39376758434E+02 -0.14421861180E+02  0.47787273826E+02  0.20000012684E+02 0.  0.
         12    1    3    3    0    0  0.11184983133E+02 -0.39376758434E+02  0.14421861180E+02  0.43400726174E+02  0.00000000000E+00 0. -1.
         11    1    4    4    0    0  0.11582619607E+01  0.67221635342E+01 -0.26585386695E+01  0.73209891045E+01  0.51100000000E-03 0. -1.
        -11    1    4    4    0    0 -0.10381834267E+02  0.21198735709E+02 -0.15522444520E+02  0.28250932065E+02  0.51100000000E-03 0.  1.
         12    1    4    4    0    0 -0.19614108266E+01  0.11455859191E+02  0.37591220097E+01  0.12215352657E+02  0.00000000000E+00 0. -1.
</event>
<event>
 8    1  0.2994958E-010  0.9118800E+02  0.7816164E-02  0.1184000E+00
        -11   -1    0    0    0    0  0.00000000000E+00  0.00000000000E+00  0.45593999997E+02  0.45594000000E+02  0.51100000000E-03 0. -1.
         11   -1    0    0    0    0 -0.00000000000E+00 -0.00000000000E+00 -0.45593999997E+02  0.45594000000E+02  0.51100000000E-03 0.  1.
         23    2    1    2    0    0  0.00000000000E+00 -0.35527136788E-14  0.00000000000E+00  0.91188000000E+02  0.91188000000E+02 0.  0.
    9900012    2    3    3    0    0 -0.22762728941E+02  0.30044625028E+02  0.21512828618E+02  0.47787272851E+02  0.20000008237E+02 0.  0.
        -12    1    3    3    0    0  0.22762728941E+02 -0.30044625028E+02 -0.21512828618E+02  0.43400727149E+02  0.00000000000E+00 0.  1.
         11    1    4    4    0    0 -0.17652887361E+02  0.10844596108E+02  0.16403155114E+02  0.26425237840E+02  0.51100000000E-03 0.  1.
        -11    1    4    4    0    0 -0.49109014114E+01  0.83867601467E+01  0.39280783781E+01  0.10482580715E+02  0.51100000000E-03 0. -1.
        -12    1    4    4    0    0 -0.19894016862E+00  0.10813268773E+02  0.11815951262E+01  0.10879454297E+02  0.00000000000E+00 0.  1.
</event>
<event>
 8    1  0.2994958E-010  0.9118800E+02  0.7816164E-02  0.1184000E+00
        -11   -1    0    0    0    0  0.00000000000E+00  0.00000000000E+00  0.45593999997E+02  0.45594000000E+02  0.51100000000E-03 0. -1.
         11   -1    0    0    0    0 -0.00000000000E+00 -0.00000000000E+00 -0.45593999997E+02  0.45594000000E+02  0.51100000000E-03 0.  1.
         23    2    1    2    0    0  0.00000000000E+00  0.00000000000E+00  0.00000000000E+00  0.91188000000E+02  0.91188000000E+02 0.  0.
    9900012    2    3    3    0    0  0.29433767086E+01 -0.20821966571E+02  0.37965845173E+02  0.47787272380E+02  0.20000006087E+02 0.  0.
        -12    1    3    3    0    0 -0.29433767086E+01  0.20821966571E+02 -0.37965845173E+02  0.43400727620E+02  0.00000000000E+00 0.  1.
         11    1    4    4    0    0  0.77885542113E+01 -0.64028233301E+01  0.10567431953E+02  0.14605763987E+02  0.51100000000E-03 0. -1.
        -11    1    4    4    0    0 -0.10659189853E+01 -0.11194827205E+02  0.98693673088E+01  0.14962110505E+02  0.51100000000E-03 0.  1.
        -12    1    4    4    0    0 -0.37792585174E+01 -0.32243160354E+01  0.17529045910E+02  0.18219397887E+02  0.00000000000E+00 0.  1.
</event>
<event>
 8    1  0.2994958E-010  0.9118800E+02  0.7816164E-02  0.1184000E+00
        -11   -1    0    0    0    0  0.00000000000E+00  0.00000000000E+00  0.45593999997E+02  0.45594000000E+02  0.51100000000E-03 0. -1.
         11   -1    0    0    0    0 -0.00000000000E+00 -0.00000000000E+00 -0.45593999997E+02  0.45594000000E+02  0.51100000000E-03 0.  1.
         23    2    1    2    0    0  0.35527136788E-14  0.35527136788E-14  0.35527136788E-14  0.91188000000E+02  0.91188000000E+02 0.  0.
    9900012    2    3    3    0    0  0.23196242097E+02  0.31413308381E+02  0.18940998697E+02  0.47787273940E+02  0.20000013204E+02 0.  0.
        -12    1    3    3    0    0 -0.23196242097E+02 -0.31413308381E+02 -0.18940998697E+02  0.43400726060E+02  0.00000000000E+00 0.  1.
         11    1    4    4    0    0  0.16285867317E+00  0.23445329649E+00  0.40503971109E+01  0.40604443492E+01  0.51100000000E-03 0. -1.
        -11    1    4    4    0    0  0.14168741379E+02  0.90603197539E+01  0.94265755161E+01  0.19279599387E+02  0.51100000000E-03 0.  1.
        -12    1    4    4    0    0  0.88646420449E+01  0.22118535331E+02  0.54640260699E+01  0.24447230204E+02  0.00000000000E+00 0.  1.
</event>
<event>
 8    1  0.2994958E-010  0.9118800E+02  0.7816164E-02  0.1184000E+00
        -11   -1    0    0    0    0  0.00000000000E+00  0.00000000000E+00  0.45593999997E+02  0.45594000000E+02  0.51100000000E-03 0. -1.
         11   -1    0    0    0    0 -0.00000000000E+00 -0.00000000000E+00 -0.45593999997E+02  0.45594000000E+02  0.51100000000E-03 0.  1.
         23    2    1    2    0    0  0.00000000000E+00  0.00000000000E+00  0.17763568394E-14  0.91188000000E+02  0.91188000000E+02 0.  0.
    9900012    2    3    3    0    0  0.33555239677E+02  0.25860267289E+02  0.94295143091E+01  0.47787271041E+02  0.19999999986E+02 0.  0.
        -12    1    3    3    0    0 -0.33555239677E+02 -0.25860267289E+02 -0.94295143091E+01  0.43400728959E+02  0.00000000000E+00 0.  1.
         11    1    4    4    0    0  0.84497399774E+01  0.10284404410E+01  0.54034910072E+00  0.85292304951E+01  0.51100000000E-03 0. -1.
        -11    1    4    4    0    0  0.22295595271E+02  0.19703222371E+02  0.14418139066E+01  0.29789081354E+02  0.51100000000E-03 0.  1.
         12    1    4    4    0    0  0.28099044280E+01  0.51286044772E+01  0.74473513018E+01  0.94689591926E+01  0.00000000000E+00 0. -1.
</event>
<event>
 8    1  0.2994958E-010  0.9118800E+02  0.7816164E-02  0.1184000E+00
        -11   -1    0    0    0    0  0.00000000000E+00  0.00000000000E+00  0.45593999997E+02  0.45594000000E+02  0.51100000000E-03 0.  1.
         11   -1    0    0    0    0 -0.00000000000E+00 -0.00000000000E+00 -0.45593999997E+02  0.45594000000E+02  0.51100000000E-03 0. -1.
         23    2    1    2    0    0  0.00000000000E+00  0.88817841970E-15  0.00000000000E+00  0.91188000000E+02  0.91188000000E+02 0.  0.
    9900012    2    3    3    0    0 -0.43123657017E+02  0.41230463540E+01 -0.26413769634E+01  0.47787237587E+02  0.19999847453E+02 0.  0.
        -12    1    3    3    0    0  0.43123657017E+02 -0.41230463540E+01  0.26413769634E+01  0.43400762413E+02  0.00000000000E+00 0.  1.
         11    1    4    4    0    0 -0.26423539779E+02  0.91531874164E+01  0.14626979278E+01  0.28002210267E+02  0.51100000000E-03 0.  1.
        -11    1    4    4    0    0 -0.83875049803E+01  0.18158748017E+01 -0.16192194030E+01  0.87332418279E+01  0.51100000000E-03 0. -1.
        -12    1    4    4    0    0 -0.83126122579E+01 -0.68460158642E+01 -0.24848554883E+01  0.11051785492E+02  0.00000000000E+00 0.  1.
</event>
<event>
 8    1  0.2994958E-010  0.9118800E+02  0.7816164E-02  0.1184000E+00
        -11   -1    0    0    0    0  0.00000000000E+00  0.00000000000E+00  0.45593999997E+02  0.45594000000E+02  0.51100000000E-03 0. -1.
         11   -1    0    0    0    0 -0.00000000000E+00 -0.00000000000E+00 -0.45593999997E+02  0.45594000000E+02  0.51100000000E-03 0.  1.
         23    2    1    2    0    0  0.00000000000E+00  0.00000000000E+00  0.00000000000E+00  0.91188000000E+02  0.91188000000E+02 0.  0.
    9900012    2    3    3    0    0 -0.18724257721E+02  0.18836316793E+02 -0.34325188444E+02  0.47787271674E+02  0.20000002869E+02 0.  0.
         12    1    3    3    0    0  0.18724257721E+02 -0.18836316793E+02  0.34325188444E+02  0.43400728326E+02  0.00000000000E+00 0. -1.
         11    1    4    4    0    0 -0.98044328637E+01  0.13814733848E+02 -0.19275079676E+02  0.25661303004E+02  0.51100000000E-03 0. -1.
        -11    1    4    4    0    0 -0.59267822087E+01  0.67306625143E+01 -0.27923384022E+01  0.93928546909E+01  0.51100000000E-03 0.  1.
         12    1    4    4    0    0 -0.29930426487E+01 -0.17090795686E+01 -0.12257770365E+02  0.12733113979E+02  0.00000000000E+00 0. -1.
</event>
<event>
 8    1  0.2994958E-010  0.9118800E+02  0.7816164E-02  0.1184000E+00
        -11   -1    0    0    0    0  0.00000000000E+00  0.00000000000E+00  0.45593999997E+02  0.45594000000E+02  0.51100000000E-03 0. -1.
         11   -1    0    0    0    0 -0.00000000000E+00 -0.00000000000E+00 -0.45593999997E+02  0.45594000000E+02  0.51100000000E-03 0.  1.
         23    2    1    2    0    0 -0.17763568394E-14  0.00000000000E+00  0.00000000000E+00  0.91188000000E+02  0.91188000000E+02 0.  0.
    9900012    2    3    3    0    0 -0.13933063422E+02  0.12046928887E+02 -0.39298411964E+02  0.47787263430E+02  0.19999965283E+02 0.  0.
         12    1    3    3    0    0  0.13933063422E+02 -0.12046928887E+02  0.39298411964E+02  0.43400736570E+02  0.00000000000E+00 0. -1.
         11    1    4    4    0    0 -0.12648129329E+02  0.84859984458E+01 -0.12665340486E+02  0.19809043264E+02  0.51100000000E-03 0. -1.
        -11    1    4    4    0    0 -0.38552678275E+01 -0.17476945146E+00 -0.94684633899E+01  0.10224746139E+02  0.51100000000E-03 0.  1.
        -12    1    4    4    0    0  0.25703337349E+01  0.37356998928E+01 -0.17164608088E+02  0.17753474026E+02  0.00000000000E+00 0.  1.
</event>
<event>
 8    1  0.2994958E-010  0.9118800E+02  0.7816164E-02  0.1184000E+00
        -11   -1    0    0    0    0  0.00000000000E+00  0.00000000000E+00  0.45593999997E+02  0.45594000000E+02  0.51100000000E-03 0. -1.
         11   -1    0    0    0    0 -0.00000000000E+00 -0.00000000000E+00 -0.45593999997E+02  0.45594000000E+02  0.51100000000E-03 0.  1.
         23    2    1    2    0    0  0.11102230246E-15  0.00000000000E+00  0.00000000000E+00  0.91188000000E+02  0.91188000000E+02 0.  0.
    9900012    2    3    3    0    0 -0.71589629636E+00  0.39422167731E+01  0.43215389306E+02  0.47787268975E+02  0.19999990567E+02 0.  0.
        -12    1    3    3    0    0  0.71589629636E+00 -0.39422167731E+01 -0.43215389306E+02  0.43400731025E+02  0.00000000000E+00 0.  1.
         11    1    4    4    0    0  0.18234278152E+01  0.14414190200E+01  0.23654467276E+02  0.23768390778E+02  0.51100000000E-03 0. -1.
        -11    1    4    4    0    0 -0.69551994667E+01  0.41217558478E+01  0.16590362391E+02  0.18455454354E+02  0.51100000000E-03 0.  1.
        -12    1    4    4    0    0  0.44158753551E+01 -0.16209580947E+01  0.29705596394E+01  0.55634238440E+01  0.00000000000E+00 0.  1.
</event>
<event>
 8    1  0.2994958E-010  0.9118800E+02  0.7816164E-02  0.1184000E+00
        -11   -1    0    0    0    0  0.00000000000E+00  0.00000000000E+00  0.45593999997E+02  0.45594000000E+02  0.51100000000E-03 0. -1.
         11   -1    0    0    0    0 -0.00000000000E+00 -0.00000000000E+00 -0.45593999997E+02  0.45594000000E+02  0.51100000000E-03 0.  1.
         23    2    1    2    0    0  0.00000000000E+00  0.00000000000E+00  0.00000000000E+00  0.91188000000E+02  0.91188000000E+02 0.  0.
    9900012    2    3    3    0    0 -0.17366470402E+02 -0.39713437035E+01 -0.39575969750E+02  0.47787271358E+02  0.20000001429E+02 0.  0.
         12    1    3    3    0    0  0.17366470402E+02  0.39713437035E+01  0.39575969750E+02  0.43400728642E+02  0.00000000000E+00 0. -1.
         11    1    4    4    0    0 -0.41274293059E+01 -0.27492715910E+01  0.59664817108E+00  0.49950131389E+01  0.51100000000E-03 0. -1.
        -11    1    4    4    0    0 -0.11222434090E+00  0.11935509581E+01 -0.57264237084E+01  0.58505629594E+01  0.51100000000E-03 0.  1.
        -12    1    4    4    0    0 -0.13126816755E+02 -0.24156230706E+01 -0.34446194212E+02  0.36941695260E+02  0.00000000000E+00 0.  1.
</event>
<event>
 8    1  0.2994958E-010  0.9118800E+02  0.7816164E-02  0.1184000E+00
        -11   -1    0    0    0    0  0.00000000000E+00  0.00000000000E+00  0.45593999997E+02  0.45594000000E+02  0.51100000000E-03 0. -1.
         11   -1    0    0    0    0 -0.00000000000E+00 -0.00000000000E+00 -0.45593999997E+02  0.45594000000E+02  0.51100000000E-03 0.  1.
         23    2    1    2    0    0  0.44408920985E-15  0.35527136788E-14  0.00000000000E+00  0.91188000000E+02  0.91188000000E+02 0.  0.
    9900012    2    3    3    0    0 -0.24042625057E+01 -0.23313006723E+02 -0.36528707643E+02  0.47787271403E+02  0.20000001636E+02 0.  0.
         12    1    3    3    0    0  0.24042625057E+01  0.23313006723E+02  0.36528707643E+02  0.43400728597E+02  0.00000000000E+00 0. -1.
         11    1    4    4    0    0 -0.31075292969E+00  0.13134079300E+00 -0.22412113925E+01  0.22664612404E+01  0.51100000000E-03 0. -1.
        -11    1    4    4    0    0 -0.26311328996E+01 -0.59552560619E+01 -0.24751864436E+02  0.25593802539E+02  0.51100000000E-03 0.  1.
         12    1    4    4    0    0  0.53762332352E+00 -0.17489091454E+02 -0.95356318146E+01  0.19927007624E+02  0.00000000000E+00 0. -1.
</event>
<event>
 8    1  0.2994958E-010  0.9118800E+02  0.7816164E-02  0.1184000E+00
        -11   -1    0    0    0    0  0.00000000000E+00  0.00000000000E+00  0.45593999997E+02  0.45594000000E+02  0.51100000000E-03 0. -1.
         11   -1    0    0    0    0 -0.00000000000E+00 -0.00000000000E+00 -0.45593999997E+02  0.45594000000E+02  0.51100000000E-03 0.  1.
         23    2    1    2    0    0  0.00000000000E+00  0.00000000000E+00  0.00000000000E+00  0.91188000000E+02  0.91188000000E+02 0.  0.
    9900012    2    3    3    0    0 -0.17801924912E+02  0.72488530911E+01  0.38912318122E+02  0.47787275313E+02  0.20000019463E+02 0.  0.
        -12    1    3    3    0    0  0.17801924912E+02 -0.72488530911E+01 -0.38912318122E+02  0.43400724687E+02  0.00000000000E+00 0.  1.
         11    1    4    4    0    0 -0.14652141365E+01  0.50960661060E+00  0.15301931201E+01  0.21790003692E+01  0.51100000000E-03 0. -1.
        -11    1    4    4    0    0  0.35653493846E+01  0.31881148767E+00  0.11241952616E+01  0.37519557894E+01  0.51100000000E-03 0.  1.
         12    1    4    4    0    0 -0.19902060160E+02  0.64204349929E+01  0.36257929740E+02  0.41856319155E+02  0.00000000000E+00 0. -1.
</event>
<event>
 8    1  0.2994958E-010  0.9118800E+02  0.7816164E-02  0.1184000E+00
        -11   -1    0    0    0    0  0.00000000000E+00  0.00000000000E+00  0.45593999997E+02  0.45594000000E+02  0.51100000000E-03 0. -1.
         11   -1    0    0    0    0 -0.00000000000E+00 -0.00000000000E+00 -0.45593999997E+02  0.45594000000E+02  0.51100000000E-03 0.  1.
         23    2    1    2    0    0 -0.44408920985E-15  0.00000000000E+00  0.00000000000E+00  0.91188000000E+02  0.91188000000E+02 0.  0.
    9900012    2    3    3    0    0  0.13995634188E+01  0.10373464375E+02 -0.42119541692E+02  0.47787270360E+02  0.19999996880E+02 0.  0.
         12    1    3    3    0    0 -0.13995634188E+01 -0.10373464375E+02  0.42119541692E+02  0.43400729640E+02  0.00000000000E+00 0. -1.
         11    1    4    4    0    0 -0.20228874959E+00  0.29090658249E+01 -0.73533814256E+01  0.79104869232E+01  0.51100000000E-03 0. -1.
        -11    1    4    4    0    0  0.24152265934E+01  0.32900946969E+01  0.71335005234E+00  0.41432971376E+01  0.51100000000E-03 0.  1.
        -12    1    4    4    0    0 -0.81337442502E+00  0.41743038531E+01 -0.35479510319E+02  0.35733486299E+02  0.00000000000E+00 0.  1.
</event>
<event>
 8    1  0.2994958E-010  0.9118800E+02  0.7816164E-02  0.1184000E+00
        -11   -1    0    0    0    0  0.00000000000E+00  0.00000000000E+00  0.45593999997E+02  0.45594000000E+02  0.51100000000E-03 0. -1.
         11   -1    0    0    0    0 -0.00000000000E+00 -0.00000000000E+00 -0.45593999997E+02  0.45594000000E+02  0.51100000000E-03 0.  1.
         23    2    1    2    0    0 -0.17763568394E-14  0.14210854715E-13  0.35527136788E-14  0.91188000000E+02  0.91188000000E+02 0.  0.
    9900012    2    3    3    0    0  0.87693286439E+01 -0.33653577639E+02 -0.25964569148E+02  0.47787271161E+02  0.20000000531E+02 0.  0.
         12    1    3    3    0    0 -0.87693286439E+01  0.33653577639E+02  0.25964569148E+02  0.43400728839E+02  0.00000000000E+00 0. -1.
         11    1    4    4    0    0  0.23472691452E+01  0.18141265555E+01 -0.35673397448E+01  0.46396811006E+01  0.51100000000E-03 0. -1.
        -11    1    4    4    0    0  0.58130513460E+01 -0.11770333359E+02 -0.90283160360E+01  0.15932445011E+02  0.51100000000E-03 0.  1.
         12    1    4    4    0    0  0.60900815277E+00 -0.23697370835E+02 -0.13368913367E+02  0.27215145049E+02  0.00000000000E+00 0. -1.
</event>
<event>
 8    1  0.2994958E-010  0.9118800E+02  0.7816164E-02  0.1184000E+00
        -11   -1    0    0    0    0  0.00000000000E+00  0.00000000000E+00  0.45593999997E+02  0.45594000000E+02  0.51100000000E-03 0. -1.
         11   -1    0    0    0    0 -0.00000000000E+00 -0.00000000000E+00 -0.45593999997E+02  0.45594000000E+02  0.51100000000E-03 0.  1.
         23    2    1    2    0    0 -0.44408920985E-15 -0.71054273576E-14  0.35527136788E-14  0.91188000000E+02  0.91188000000E+02 0.  0.
    9900012    2    3    3    0    0 -0.37338233652E+01  0.36629838480E+02 -0.22976878224E+02  0.47787269167E+02  0.19999991438E+02 0.  0.
         12    1    3    3    0    0  0.37338233652E+01 -0.36629838480E+02  0.22976878224E+02  0.43400730833E+02  0.00000000000E+00 0. -1.
         11    1    4    4    0    0  0.37443957236E+01  0.12234276437E+02 -0.14878903075E+02  0.19623449652E+02  0.51100000000E-03 0. -1.
        -11    1    4    4    0    0 -0.15454479379E+01  0.12988414593E+02 -0.79474910515E+01  0.15305225815E+02  0.51100000000E-03 0.  1.
        -12    1    4    4    0    0 -0.59327711509E+01  0.11407147449E+02 -0.15048409726E+00  0.12858593699E+02  0.00000000000E+00 0.  1.
</event>
<event>
 8    1  0.2994958E-010  0.9118800E+02  0.7816164E-02  0.1184000E+00
        -11   -1    0    0    0    0  0.00000000000E+00  0.00000000000E+00  0.45593999997E+02  0.45594000000E+02  0.51100000000E-03 0. -1.
         11   -1    0    0    0    0 -0.00000000000E+00 -0.00000000000E+00 -0.45593999997E+02  0.45594000000E+02  0.51100000000E-03 0.  1.
         23    2    1    2    0    0  0.88817841970E-15  0.00000000000E+00 -0.71054273576E-14  0.91188000000E+02  0.91188000000E+02 0.  0.
    9900012    2    3    3    0    0  0.48767895452E+01  0.67462770199E+01  0.42594926116E+02  0.47787273500E+02  0.20000011198E+02 0.  0.
        -12    1    3    3    0    0 -0.48767895452E+01 -0.67462770199E+01 -0.42594926116E+02  0.43400726500E+02  0.00000000000E+00 0.  1.
         11    1    4    4    0    0 -0.36956551331E+01  0.15770743530E+01  0.48087313695E+01  0.62664924816E+01  0.51100000000E-03 0. -1.
        -11    1    4    4    0    0 -0.33238081818E+01  0.38284679050E+01  0.87375527091E+01  0.10101964905E+02  0.51100000000E-03 0.  1.
         12    1    4    4    0    0  0.11896252860E+02  0.13407347618E+01  0.29048642037E+02  0.31418816114E+02  0.00000000000E+00 0. -1.
</event>
<event>
 8    1  0.2994958E-010  0.9118800E+02  0.7816164E-02  0.1184000E+00
        -11   -1    0    0    0    0  0.00000000000E+00  0.00000000000E+00  0.45593999997E+02  0.45594000000E+02  0.51100000000E-03 0. -1.
         11   -1    0    0    0    0 -0.00000000000E+00 -0.00000000000E+00 -0.45593999997E+02  0.45594000000E+02  0.51100000000E-03 0.  1.
         23    2    1    2    0    0  0.22204460493E-15  0.00000000000E+00  0.00000000000E+00  0.91188000000E+02  0.91188000000E+02 0.  0.
    9900012    2    3    3    0    0  0.16932563070E+01  0.48918372807E+01  0.43090905184E+02  0.47787270761E+02  0.19999998706E+02 0.  0.
        -12    1    3    3    0    0 -0.16932563070E+01 -0.48918372807E+01 -0.43090905184E+02  0.43400729239E+02  0.00000000000E+00 0.  1.
         11    1    4    4    0    0  0.78174743196E+01  0.23069335210E+01  0.84875268397E+01  0.11767453383E+02  0.51100000000E-03 0.  1.
        -11    1    4    4    0    0  0.18440994709E+00 -0.87524843357E+00  0.26098061394E+00  0.93176069408E+00  0.51100000000E-03 0. -1.
        -12    1    4    4    0    0 -0.63086279597E+01  0.34601521933E+01  0.34342397731E+02  0.35088056684E+02  0.00000000000E+00 0.  1.
</event>
<event>
 8    1  0.2994958E-010  0.9118800E+02  0.7816164E-02  0.1184000E+00
        -11   -1    0    0    0    0  0.00000000000E+00  0.00000000000E+00  0.45593999997E+02  0.45594000000E+02  0.51100000000E-03 0.  1.
         11   -1    0    0    0    0 -0.00000000000E+00 -0.00000000000E+00 -0.45593999997E+02  0.45594000000E+02  0.51100000000E-03 0. -1.
         23    2    1    2    0    0  0.00000000000E+00  0.00000000000E+00  0.00000000000E+00  0.91188000000E+02  0.91188000000E+02 0.  0.
    9900012    2    3    3    0    0  0.15945610519E+02  0.34924639320E+02  0.20239332031E+02  0.47787268583E+02  0.19999988779E+02 0.  0.
        -12    1    3    3    0    0 -0.15945610519E+02 -0.34924639320E+02 -0.20239332031E+02  0.43400731417E+02  0.00000000000E+00 0.  1.
         11    1    4    4    0    0 -0.54349961600E+00  0.15091357519E+02  0.65311933516E+01  0.16452992143E+02  0.51100000000E-03 0. -1.
        -11    1    4    4    0    0  0.43602984682E+01  0.44012973464E+01 -0.16505247775E+01  0.64115406390E+01  0.51100000000E-03 0.  1.
         12    1    4    4    0    0  0.12128811667E+02  0.15431984454E+02  0.15358663457E+02  0.24922735801E+02  0.00000000000E+00 0. -1.
</event>
<event>
 8    1  0.2994958E-010  0.9118800E+02  0.7816164E-02  0.1184000E+00
        -11   -1    0    0    0    0  0.00000000000E+00  0.00000000000E+00  0.45593999997E+02  0.45594000000E+02  0.51100000000E-03 0. -1.
         11   -1    0    0    0    0 -0.00000000000E+00 -0.00000000000E+00 -0.45593999997E+02  0.45594000000E+02  0.51100000000E-03 0.  1.
         23    2    1    2    0    0  0.00000000000E+00  0.00000000000E+00  0.71054273576E-14  0.91188000000E+02  0.91188000000E+02 0.  0.
    9900012    2    3    3    0    0  0.12828051764E+02  0.15905421991E+02 -0.38289447156E+02  0.47787272768E+02  0.20000007857E+02 0.  0.
         12    1    3    3    0    0 -0.12828051764E+02 -0.15905421991E+02  0.38289447156E+02  0.43400727232E+02  0.00000000000E+00 0. -1.
         11    1    4    4    0    0 -0.11538466675E+01  0.27026656470E+01 -0.15786534198E+00  0.29429042559E+01  0.51100000000E-03 0. -1.
        -11    1    4    4    0    0 -0.17120582790E+01  0.19709474771E+00 -0.97556244152E+01  0.99066744108E+01  0.51100000000E-03 0.  1.
        -12    1    4    4    0    0  0.15693956711E+02  0.13005661596E+02 -0.28375957399E+02  0.34937694101E+02  0.00000000000E+00 0.  1.
</event>
<event>
 8    1  0.2994958E-010  0.9118800E+02  0.7816164E-02  0.1184000E+00
        -11   -1    0    0    0    0  0.00000000000E+00  0.00000000000E+00  0.45593999997E+02  0.45594000000E+02  0.51100000000E-03 0. -1.
         11   -1    0    0    0    0 -0.00000000000E+00 -0.00000000000E+00 -0.45593999997E+02  0.45594000000E+02  0.51100000000E-03 0.  1.
         23    2    1    2    0    0  0.00000000000E+00  0.00000000000E+00  0.00000000000E+00  0.91188000000E+02  0.91188000000E+02 0.  0.
    9900012    2    3    3    0    0  0.22991307193E+02 -0.18761244599E+02 -0.31670784329E+02  0.47787273216E+02  0.20000009899E+02 0.  0.
         12    1    3    3    0    0 -0.22991307193E+02  0.18761244599E+02  0.31670784329E+02  0.43400726784E+02  0.00000000000E+00 0. -1.
         11    1    4    4    0    0  0.58613211688E+00  0.38005930149E+00 -0.66785191022E+01  0.67149544742E+01  0.51100000000E-03 0. -1.
        -11    1    4    4    0    0  0.16336016047E+02 -0.96753458804E+01 -0.22705576705E+02  0.29597651122E+02  0.51100000000E-03 0.  1.
         12    1    4    4    0    0  0.60691590297E+01 -0.94659580204E+01 -0.22866885219E+01  0.11474667619E+02  0.00000000000E+00 0. -1.
</event>
<event>
 8    1  0.2994958E-010  0.9118800E+02  0.7816164E-02  0.1184000E+00
        -11   -1    0    0    0    0  0.00000000000E+00  0.00000000000E+00  0.45593999997E+02  0.45594000000E+02  0.51100000000E-03 0. -1.
         11   -1    0    0    0    0 -0.00000000000E+00 -0.00000000000E+00 -0.45593999997E+02  0.45594000000E+02  0.51100000000E-03 0.  1.
         23    2    1    2    0    0 -0.33306690739E-15  0.17763568394E-14  0.00000000000E+00  0.91188000000E+02  0.91188000000E+02 0.  0.
    9900012    2    3    3    0    0  0.75924632633E+00 -0.10696820679E+02  0.42055041224E+02  0.47787252081E+02  0.19999913537E+02 0.  0.
        -12    1    3    3    0    0 -0.75924632633E+00  0.10696820679E+02 -0.42055041224E+02  0.43400747919E+02  0.00000000000E+00 0.  1.
         11    1    4    4    0    0 -0.28545041710E+01 -0.98126094337E+01  0.31517326876E+02  0.33132723879E+02  0.51100000000E-03 0. -1.
        -11    1    4    4    0    0  0.45373200041E+01 -0.44997713052E+01  0.58566690348E+01  0.86680901624E+01  0.51100000000E-03 0.  1.
        -12    1    4    4    0    0 -0.92356950675E+00  0.36155600598E+01  0.46810453127E+01  0.59864380393E+01  0.00000000000E+00 0.  1.
</event>
<event>
 8    1  0.2994958E-010  0.9118800E+02  0.7816164E-02  0.1184000E+00
        -11   -1    0    0    0    0  0.00000000000E+00  0.00000000000E+00  0.45593999997E+02  0.45594000000E+02  0.51100000000E-03 0. -1.
         11   -1    0    0    0    0 -0.00000000000E+00 -0.00000000000E+00 -0.45593999997E+02  0.45594000000E+02  0.51100000000E-03 0.  1.
         23    2    1    2    0    0 -0.35527136788E-14  0.00000000000E+00  0.00000000000E+00  0.91188000000E+02  0.91188000000E+02 0.  0.
    9900012    2    3    3    0    0 -0.26173474089E+02 -0.79579164136E+01 -0.33693372699E+02  0.47787279460E+02  0.20000038369E+02 0.  0.
         12    1    3    3    0    0  0.26173474089E+02  0.79579164136E+01  0.33693372699E+02  0.43400720540E+02  0.00000000000E+00 0. -1.
         11    1    4    4    0    0 -0.17298327966E+02 -0.74149482596E+01 -0.98151166258E+01  0.21226165993E+02  0.51100000000E-03 0. -1.
        -11    1    4    4    0    0 -0.81232601609E+00 -0.30158060500E+01 -0.51763250003E+01  0.60456017448E+01  0.51100000000E-03 0.  1.
        -12    1    4    4    0    0 -0.80628201071E+01  0.24728378961E+01 -0.18701931073E+02  0.20515511722E+02  0.00000000000E+00 0.  1.
</event>
<event>
 8    1  0.2994958E-010  0.9118800E+02  0.7816164E-02  0.1184000E+00
        -11   -1    0    0    0    0  0.00000000000E+00  0.00000000000E+00  0.45593999997E+02  0.45594000000E+02  0.51100000000E-03 0. -1.
         11   -1    0    0    0    0 -0.00000000000E+00 -0.00000000000E+00 -0.45593999997E+02  0.45594000000E+02  0.51100000000E-03 0.  1.
         23    2    1    2    0    0  0.17763568394E-14  0.00000000000E+00 -0.71054273576E-14  0.91188000000E+02  0.91188000000E+02 0.  0.
    9900012    2    3    3    0    0  0.13398042778E+02 -0.15431015758E+02  0.38288383802E+02  0.47787261161E+02  0.19999954937E+02 0.  0.
        -12    1    3    3    0    0 -0.13398042778E+02  0.15431015758E+02 -0.38288383802E+02  0.43400738839E+02  0.00000000000E+00 0.  1.
         11    1    4    4    0    0  0.11884728169E+01 -0.10808875044E+02  0.28572261170E+02  0.30571528519E+02  0.51100000000E-03 0. -1.
        -11    1    4    4    0    0  0.11326526628E+01 -0.24995324433E+01  0.86005462222E+00  0.28758057486E+01  0.51100000000E-03 0.  1.
         12    1    4    4    0    0  0.11076917298E+02 -0.21226082708E+01  0.88560680093E+01  0.14339926893E+02  0.00000000000E+00 0. -1.
</event>
<event>
 8    1  0.2994958E-010  0.9118800E+02  0.7816164E-02  0.1184000E+00
        -11   -1    0    0    0    0  0.00000000000E+00  0.00000000000E+00  0.45593999997E+02  0.45594000000E+02  0.51100000000E-03 0. -1.
         11   -1    0    0    0    0 -0.00000000000E+00 -0.00000000000E+00 -0.45593999997E+02  0.45594000000E+02  0.51100000000E-03 0.  1.
         23    2    1    2    0    0  0.00000000000E+00 -0.71054273576E-14  0.00000000000E+00  0.91188000000E+02  0.91188000000E+02 0.  0.
    9900012    2    3    3    0    0 -0.25990035348E+02 -0.34708349450E+02 -0.18632561057E+01  0.47787272100E+02  0.20000004813E+02 0.  0.
         12    1    3    3    0    0  0.25990035348E+02  0.34708349450E+02  0.18632561057E+01  0.43400727900E+02  0.00000000000E+00 0. -1.
         11    1    4    4    0    0 -0.92353631577E+01 -0.93456111545E+01  0.15044052727E+01  0.13224810622E+02  0.51100000000E-03 0. -1.
        -11    1    4    4    0    0 -0.16165406622E+02 -0.20318808870E+02  0.33080575113E+01  0.26174751382E+02  0.51100000000E-03 0.  1.
         12    1    4    4    0    0 -0.58926556801E+00 -0.50439294251E+01 -0.66757188897E+01  0.83877100957E+01  0.00000000000E+00 0. -1.
</event>
<event>
 8    1  0.2994958E-010  0.9118800E+02  0.7816164E-02  0.1184000E+00
        -11   -1    0    0    0    0  0.00000000000E+00  0.00000000000E+00  0.45593999997E+02  0.45594000000E+02  0.51100000000E-03 0. -1.
         11   -1    0    0    0    0 -0.00000000000E+00 -0.00000000000E+00 -0.45593999997E+02  0.45594000000E+02  0.51100000000E-03 0.  1.
         23    2    1    2    0    0  0.00000000000E+00 -0.44408920985E-15  0.00000000000E+00  0.91188000000E+02  0.91188000000E+02 0.  0.
    9900012    2    3    3    0    0  0.12120985476E+02  0.37059533195E+01  0.41508685061E+02  0.47787270578E+02  0.19999997873E+02 0.  0.
        -12    1    3    3    0    0 -0.12120985476E+02 -0.37059533195E+01 -0.41508685061E+02  0.43400729422E+02  0.00000000000E+00 0.  1.
         11    1    4    4    0    0  0.46734411790E+01  0.58223503187E+01  0.12470257525E+02  0.14534377823E+02  0.51100000000E-03 0. -1.
        -11    1    4    4    0    0  0.93543700995E+01 -0.12597468900E+01  0.87933022844E+01  0.12900130523E+02  0.51100000000E-03 0.  1.
        -12    1    4    4    0    0 -0.19068258025E+01 -0.85665010909E+00  0.20245125251E+02  0.20352762232E+02  0.00000000000E+00 0.  1.
</event>
<event>
 8    1  0.2994958E-010  0.9118800E+02  0.7816164E-02  0.1184000E+00
        -11   -1    0    0    0    0  0.00000000000E+00  0.00000000000E+00  0.45593999997E+02  0.45594000000E+02  0.51100000000E-03 0. -1.
         11   -1    0    0    0    0 -0.00000000000E+00 -0.00000000000E+00 -0.45593999997E+02  0.45594000000E+02  0.51100000000E-03 0.  1.
         23    2    1    2    0    0  0.35527136788E-14  0.88817841970E-15  0.00000000000E+00  0.91188000000E+02  0.91188000000E+02 0.  0.
    9900012    2    3    3    0    0  0.24096234741E+02 -0.23381397990E+01  0.36021208759E+02  0.47787275273E+02  0.20000019278E+02 0.  0.
        -12    1    3    3    0    0 -0.24096234741E+02  0.23381397990E+01 -0.36021208759E+02  0.43400724727E+02  0.00000000000E+00 0.  1.
         11    1    4    4    0    0  0.68708418193E+01  0.73608360801E+00  0.17262642204E+01  0.71225188525E+01  0.51100000000E-03 0. -1.
        -11    1    4    4    0    0  0.40827496603E+01  0.46310031987E+01  0.64754053940E+01  0.89468380276E+01  0.51100000000E-03 0.  1.
        -12    1    4    4    0    0  0.13142643261E+02 -0.77052266057E+01  0.27819539144E+02  0.31717918392E+02  0.00000000000E+00 0.  1.
</event>
<event>
 8    1  0.2994958E-010  0.9118800E+02  0.7816164E-02  0.1184000E+00
        -11   -1    0    0    0    0  0.00000000000E+00  0.00000000000E+00  0.45593999997E+02  0.45594000000E+02  0.51100000000E-03 0. -1.
         11   -1    0    0    0    0 -0.00000000000E+00 -0.00000000000E+00 -0.45593999997E+02  0.45594000000E+02  0.51100000000E-03 0.  1.
         23    2    1    2    0    0  0.35527136788E-14  0.00000000000E+00 -0.71054273576E-14  0.91188000000E+02  0.91188000000E+02 0.  0.
    9900012    2    3    3    0    0 -0.19387478025E+02  0.38657879038E+01  0.38636824887E+02  0.47787275839E+02  0.20000021861E+02 0.  0.
        -12    1    3    3    0    0  0.19387478025E+02 -0.38657879038E+01 -0.38636824887E+02  0.43400724161E+02  0.00000000000E+00 0.  1.
         11    1    4    4    0    0 -0.98114823580E+01 -0.12880413174E+01  0.24244263446E+02  0.26186037249E+02  0.51100000000E-03 0. -1.
        -11    1    4    4    0    0 -0.10452546773E+02  0.19203721144E+01  0.14806397649E+02  0.18225613150E+02  0.51100000000E-03 0.  1.
         12    1    4    4    0    0  0.87655110596E+00  0.32334571068E+01 -0.41383620768E+00  0.33756254398E+01  0.00000000000E+00 0. -1.
</event>
<event>
 8    1  0.2994958E-010  0.9118800E+02  0.7816164E-02  0.1184000E+00
        -11   -1    0    0    0    0  0.00000000000E+00  0.00000000000E+00  0.45593999997E+02  0.45594000000E+02  0.51100000000E-03 0. -1.
         11   -1    0    0    0    0 -0.00000000000E+00 -0.00000000000E+00 -0.45593999997E+02  0.45594000000E+02  0.51100000000E-03 0.  1.
         23    2    1    2    0    0  0.71054273576E-14 -0.35527136788E-14  0.00000000000E+00  0.91188000000E+02  0.91188000000E+02 0.  0.
    9900012    2    3    3    0    0  0.32908785456E+02 -0.16408240116E+02  0.23052217011E+02  0.47787271745E+02  0.20000003194E+02 0.  0.
        -12    1    3    3    0    0 -0.32908785456E+02  0.16408240116E+02 -0.23052217011E+02  0.43400728255E+02  0.00000000000E+00 0.  1.
         11    1    4    4    0    0  0.17567212438E+02 -0.28532103334E+01  0.80198953307E+01  0.19520924246E+02  0.51100000000E-03 0. -1.
        -11    1    4    4    0    0  0.11419851315E+02 -0.78867077956E+01  0.27003028643E+01  0.14138769385E+02  0.51100000000E-03 0.  1.
         12    1    4    4    0    0  0.39217217036E+01 -0.56683219874E+01  0.12332018816E+02  0.14127578114E+02  0.00000000000E+00 0. -1.
</event>
<event>
 8    1  0.2994958E-010  0.9118800E+02  0.7816164E-02  0.1184000E+00
        -11   -1    0    0    0    0  0.00000000000E+00  0.00000000000E+00  0.45593999997E+02  0.45594000000E+02  0.51100000000E-03 0. -1.
         11   -1    0    0    0    0 -0.00000000000E+00 -0.00000000000E+00 -0.45593999997E+02  0.45594000000E+02  0.51100000000E-03 0.  1.
         23    2    1    2    0    0 -0.35527136788E-14  0.00000000000E+00  0.00000000000E+00  0.91188000000E+02  0.91188000000E+02 0.  0.
    9900012    2    3    3    0    0 -0.29011534120E+02 -0.25460527124E+02  0.19842269751E+02  0.47787271639E+02  0.20000002709E+02 0.  0.
        -12    1    3    3    0    0  0.29011534120E+02  0.25460527124E+02 -0.19842269751E+02  0.43400728361E+02  0.00000000000E+00 0.  1.
         11    1    4    4    0    0 -0.12636727199E+02 -0.35340169089E+01  0.96893007202E+01  0.16311305850E+02  0.51100000000E-03 0. -1.
        -11    1    4    4    0    0 -0.40087800724E+01 -0.62992016405E+01  0.87438528220E+01  0.11498052940E+02  0.51100000000E-03 0.  1.
         12    1    4    4    0    0 -0.12366026849E+02 -0.15627308574E+02  0.14091162086E+01  0.19977912849E+02  0.00000000000E+00 0. -1.
</event>
<event>
 8    1  0.2994958E-010  0.9118800E+02  0.7816164E-02  0.1184000E+00
        -11   -1    0    0    0    0  0.00000000000E+00  0.00000000000E+00  0.45593999997E+02  0.45594000000E+02  0.51100000000E-03 0. -1.
         11   -1    0    0    0    0 -0.00000000000E+00 -0.00000000000E+00 -0.45593999997E+02  0.45594000000E+02  0.51100000000E-03 0.  1.
         23    2    1    2    0    0  0.00000000000E+00  0.00000000000E+00  0.00000000000E+00  0.91188000000E+02  0.91188000000E+02 0.  0.
    9900012    2    3    3    0    0 -0.18619833413E+02 -0.31989762292E+01 -0.39072902592E+02  0.47787270027E+02  0.19999995362E+02 0.  0.
         12    1    3    3    0    0  0.18619833413E+02  0.31989762292E+01  0.39072902592E+02  0.43400729973E+02  0.00000000000E+00 0. -1.
         11    1    4    4    0    0  0.19740091263E+01 -0.22917196211E+01 -0.11518673290E+02  0.11909178203E+02  0.51100000000E-03 0. -1.
        -11    1    4    4    0    0 -0.68198364068E+01  0.35598418223E+01 -0.14346923316E+02  0.16279338172E+02  0.51100000000E-03 0.  1.
         12    1    4    4    0    0 -0.13774006132E+02 -0.44670984305E+01 -0.13207305986E+02  0.19598753653E+02  0.00000000000E+00 0. -1.
</event>
<event>
 8    1  0.3209568E-010  0.9118800E+02  0.7816164E-02  0.1184000E+00
        -11   -1    0    0    0    0  0.00000000000E+00  0.00000000000E+00  0.45593999997E+02  0.45594000000E+02  0.51100000000E-03 0. -1.
         11   -1    0    0    0    0 -0.00000000000E+00 -0.00000000000E+00 -0.45593999997E+02  0.45594000000E+02  0.51100000000E-03 0.  1.
         23    2    1    2    0    0  0.00000000000E+00 -0.17763568394E-14  0.00000000000E+00  0.91188000000E+02  0.91188000000E+02 0.  0.
    9900012    2    3    3    0    0  0.25872196652E+02 -0.12438955489E+02  0.32550365832E+02  0.47787257045E+02  0.19999936172E+02 0.  0.
        -12    1    3    3    0    0 -0.25872196652E+02  0.12438955489E+02 -0.32550365832E+02  0.43400742955E+02  0.00000000000E+00 0.  1.
         11    1    4    4    0    0  0.26075715849E+00 -0.45152894746E+01  0.88059200367E+00  0.46077408644E+01  0.51100000000E-03 0. -1.
        -11    1    4    4    0    0  0.51373599329E+01 -0.25485648084E+00  0.58608515008E+00  0.51769600124E+01  0.51100000000E-03 0.  1.
         12    1    4    4    0    0  0.20474079560E+02 -0.76688095334E+01  0.31083688678E+02  0.38002556168E+02  0.00000000000E+00 0. -1.
</event>
<event>
 8    1  0.3274260E-010  0.9118800E+02  0.7816164E-02  0.1184000E+00
        -11   -1    0    0    0    0  0.00000000000E+00  0.00000000000E+00  0.45593999997E+02  0.45594000000E+02  0.51100000000E-03 0. -1.
         11   -1    0    0    0    0 -0.00000000000E+00 -0.00000000000E+00 -0.45593999997E+02  0.45594000000E+02  0.51100000000E-03 0.  1.
         23    2    1    2    0    0  0.00000000000E+00  0.00000000000E+00  0.00000000000E+00  0.91188000000E+02  0.91188000000E+02 0.  0.
    9900012    2    3    3    0    0 -0.10728955377E+02 -0.12537422341E+02  0.40141259433E+02  0.47787330060E+02  0.20000269072E+02 0.  0.
        -12    1    3    3    0    0  0.10728955377E+02  0.12537422341E+02 -0.40141259433E+02  0.43400669940E+02  0.00000000000E+00 0.  1.
         11    1    4    4    0    0 -0.49826472336E+01 -0.28458723041E+01  0.29826913789E+02  0.30373846464E+02  0.51100000000E-03 0. -1.
        -11    1    4    4    0    0 -0.30394269979E+01  0.81445000827E+00  0.18240579011E+01  0.36371187469E+01  0.51100000000E-03 0.  1.
         12    1    4    4    0    0 -0.27068811454E+01 -0.10506000045E+02  0.84902877429E+01  0.13776364848E+02  0.00000000000E+00 0. -1.
</event>
<event>
 8    1  0.2994958E-010  0.9118800E+02  0.7816164E-02  0.1184000E+00
        -11   -1    0    0    0    0  0.00000000000E+00  0.00000000000E+00  0.45593999997E+02  0.45594000000E+02  0.51100000000E-03 0.  1.
         11   -1    0    0    0    0 -0.00000000000E+00 -0.00000000000E+00 -0.45593999997E+02  0.45594000000E+02  0.51100000000E-03 0. -1.
         23    2    1    2    0    0  0.00000000000E+00  0.71054273576E-14  0.00000000000E+00  0.91188000000E+02  0.91188000000E+02 0.  0.
    9900012    2    3    3    0    0 -0.91033837958E+01 -0.38788097335E+02  0.17211489755E+02  0.47787268774E+02  0.19999989646E+02 0.  0.
        -12    1    3    3    0    0  0.91033837958E+01  0.38788097335E+02 -0.17211489755E+02  0.43400731226E+02  0.00000000000E+00 0.  1.
         11    1    4    4    0    0  0.27316538057E+01 -0.11620292004E+02  0.69305276311E+01  0.13803091403E+02  0.51100000000E-03 0. -1.
        -11    1    4    4    0    0  0.25515753163E+01 -0.35171727704E+01 -0.28288424479E+00  0.43544304621E+01  0.51100000000E-03 0.  1.
         12    1    4    4    0    0 -0.14386612918E+02 -0.23650632561E+02  0.10563846368E+02  0.29629746909E+02  0.00000000000E+00 0. -1.
</event>
<event>
 8    1  0.2994958E-010  0.9118800E+02  0.7816164E-02  0.1184000E+00
        -11   -1    0    0    0    0  0.00000000000E+00  0.00000000000E+00  0.45593999997E+02  0.45594000000E+02  0.51100000000E-03 0. -1.
         11   -1    0    0    0    0 -0.00000000000E+00 -0.00000000000E+00 -0.45593999997E+02  0.45594000000E+02  0.51100000000E-03 0.  1.
         23    2    1    2    0    0  0.00000000000E+00  0.35527136788E-14  0.00000000000E+00  0.91188000000E+02  0.91188000000E+02 0.  0.
    9900012    2    3    3    0    0  0.12092719198E+02 -0.26391506999E+02  0.32262638530E+02  0.47787270234E+02  0.19999996305E+02 0.  0.
        -12    1    3    3    0    0 -0.12092719198E+02  0.26391506999E+02 -0.32262638530E+02  0.43400729766E+02  0.00000000000E+00 0.  1.
         11    1    4    4    0    0  0.15630419143E+02 -0.22430991766E+02  0.22227541879E+02  0.35235252411E+02  0.51100000000E-03 0. -1.
        -11    1    4    4    0    0 -0.10602783916E+00  0.89959414044E+00  0.39080681554E+01  0.40116715330E+01  0.51100000000E-03 0.  1.
        -12    1    4    4    0    0 -0.34316721067E+01 -0.48601093742E+01  0.61270284954E+01  0.85403462904E+01  0.00000000000E+00 0.  1.
</event>
<event>
 8    1  0.2994958E-010  0.9118800E+02  0.7816164E-02  0.1184000E+00
        -11   -1    0    0    0    0  0.00000000000E+00  0.00000000000E+00  0.45593999997E+02  0.45594000000E+02  0.51100000000E-03 0. -1.
         11   -1    0    0    0    0 -0.00000000000E+00 -0.00000000000E+00 -0.45593999997E+02  0.45594000000E+02  0.51100000000E-03 0.  1.
         23    2    1    2    0    0  0.00000000000E+00 -0.17763568394E-14  0.00000000000E+00  0.91188000000E+02  0.91188000000E+02 0.  0.
    9900012    2    3    3    0    0 -0.32722757390E+02  0.12775292558E+02  0.25487962719E+02  0.47787271957E+02  0.20000004159E+02 0.  0.
        -12    1    3    3    0    0  0.32722757390E+02 -0.12775292558E+02 -0.25487962719E+02  0.43400728043E+02  0.00000000000E+00 0.  1.
         11    1    4    4    0    0 -0.19882333766E+02  0.88701540792E+01  0.11809272990E+02  0.24767837172E+02  0.51100000000E-03 0. -1.
        -11    1    4    4    0    0 -0.98942081507E+01  0.16498526438E+01  0.13218102096E+01  0.10117536813E+02  0.51100000000E-03 0.  1.
         12    1    4    4    0    0 -0.29462154735E+01  0.22552858352E+01  0.12356879519E+02  0.12901897971E+02  0.00000000000E+00 0. -1.
</event>
<event>
 8    1  0.2994958E-010  0.9118800E+02  0.7816164E-02  0.1184000E+00
        -11   -1    0    0    0    0  0.00000000000E+00  0.00000000000E+00  0.45593999997E+02  0.45594000000E+02  0.51100000000E-03 0. -1.
         11   -1    0    0    0    0 -0.00000000000E+00 -0.00000000000E+00 -0.45593999997E+02  0.45594000000E+02  0.51100000000E-03 0.  1.
         23    2    1    2    0    0  0.00000000000E+00 -0.71054273576E-14 -0.35527136788E-14  0.91188000000E+02  0.91188000000E+02 0.  0.
    9900012    2    3    3    0    0 -0.10478483697E+02 -0.32454196685E+02  0.26843063018E+02  0.47787268033E+02  0.19999986271E+02 0.  0.
        -12    1    3    3    0    0  0.10478483697E+02  0.32454196685E+02 -0.26843063018E+02  0.43400731967E+02  0.00000000000E+00 0.  1.
         11    1    4    4    0    0 -0.35556239243E+01 -0.13667370858E+02  0.13910865717E+02  0.19823008674E+02  0.51100000000E-03 0. -1.
        -11    1    4    4    0    0  0.12013150267E+01 -0.15738149446E+02  0.61064134380E+01  0.16923970903E+02  0.51100000000E-03 0.  1.
        -12    1    4    4    0    0 -0.81241747996E+01 -0.30486763814E+01  0.68257838630E+01  0.11040288456E+02  0.00000000000E+00 0.  1.
</event>
<event>
 8    1  0.2994958E-010  0.9118800E+02  0.7816164E-02  0.1184000E+00
        -11   -1    0    0    0    0  0.00000000000E+00  0.00000000000E+00  0.45593999997E+02  0.45594000000E+02  0.51100000000E-03 0. -1.
         11   -1    0    0    0    0 -0.00000000000E+00 -0.00000000000E+00 -0.45593999997E+02  0.45594000000E+02  0.51100000000E-03 0.  1.
         23    2    1    2    0    0  0.00000000000E+00  0.00000000000E+00  0.00000000000E+00  0.91188000000E+02  0.91188000000E+02 0.  0.
    9900012    2    3    3    0    0  0.13825668424E+02 -0.37432635826E+02  0.17066597263E+02  0.47787307904E+02  0.20000168058E+02 0.  0.
        -12    1    3    3    0    0 -0.13825668424E+02  0.37432635826E+02 -0.17066597263E+02  0.43400692096E+02  0.00000000000E+00 0.  1.
         11    1    4    4    0    0  0.84410025143E+01 -0.12411479430E+02  0.25422675874E+01  0.15223615531E+02  0.51100000000E-03 0. -1.
        -11    1    4    4    0    0  0.12285868929E+01  0.92874031038E+00 -0.11873040916E+01  0.19446530757E+01  0.51100000000E-03 0.  1.
        -12    1    4    4    0    0  0.41560790167E+01 -0.25949896706E+02  0.15711633768E+02  0.30619039297E+02  0.00000000000E+00 0.  1.
</event>
<event>
 8    1  0.2994958E-010  0.9118800E+02  0.7816164E-02  0.1184000E+00
        -11   -1    0    0    0    0  0.00000000000E+00  0.00000000000E+00  0.45593999997E+02  0.45594000000E+02  0.51100000000E-03 0.  1.
         11   -1    0    0    0    0 -0.00000000000E+00 -0.00000000000E+00 -0.45593999997E+02  0.45594000000E+02  0.51100000000E-03 0. -1.
         23    2    1    2    0    0 -0.44408920985E-15  0.35527136788E-14  0.00000000000E+00  0.91188000000E+02  0.91188000000E+02 0.  0.
    9900012    2    3    3    0    0  0.23876178891E+01  0.30023394741E+02 -0.31249288479E+02  0.47787274414E+02  0.20000015364E+02 0.  0.
         12    1    3    3    0    0 -0.23876178891E+01 -0.30023394741E+02  0.31249288479E+02  0.43400725586E+02  0.00000000000E+00 0. -1.
         11    1    4    4    0    0 -0.60526510281E+01  0.88605959682E+01 -0.14052703034E+02  0.17681154040E+02  0.51100000000E-03 0. -1.
        -11    1    4    4    0    0 -0.12912099253E+01  0.10319216186E+01  0.34282922253E+00  0.16880809918E+01  0.51100000000E-03 0.  1.
        -12    1    4    4    0    0  0.97314788424E+01  0.20130877154E+02 -0.17539414667E+02  0.28418039382E+02  0.00000000000E+00 0.  1.
</event>
<event>
 8    1  0.2994958E-010  0.9118800E+02  0.7816164E-02  0.1184000E+00
        -11   -1    0    0    0    0  0.00000000000E+00  0.00000000000E+00  0.45593999997E+02  0.45594000000E+02  0.51100000000E-03 0. -1.
         11   -1    0    0    0    0 -0.00000000000E+00 -0.00000000000E+00 -0.45593999997E+02  0.45594000000E+02  0.51100000000E-03 0.  1.
         23    2    1    2    0    0  0.44408920985E-15  0.00000000000E+00  0.00000000000E+00  0.91188000000E+02  0.91188000000E+02 0.  0.
    9900012    2    3    3    0    0  0.18701115552E+01  0.29980878926E+02  0.31325276553E+02  0.47787269942E+02  0.19999994973E+02 0.  0.
        -12    1    3    3    0    0 -0.18701115552E+01 -0.29980878926E+02 -0.31325276553E+02  0.43400730058E+02  0.00000000000E+00 0.  1.
         11    1    4    4    0    0 -0.20641315467E+00  0.11442094738E+02  0.43017913663E+01  0.12225773906E+02  0.51100000000E-03 0. -1.
        -11    1    4    4    0    0 -0.56073195642E+01  0.80346149293E+01  0.88115667316E+01  0.13177282659E+02  0.51100000000E-03 0.  1.
         12    1    4    4    0    0  0.76838442741E+01  0.10504169259E+02  0.18211918455E+02  0.22384213376E+02  0.00000000000E+00 0. -1.
</event>
<event>
 8    1  0.2994958E-010  0.9118800E+02  0.7816164E-02  0.1184000E+00
        -11   -1    0    0    0    0  0.00000000000E+00  0.00000000000E+00  0.45593999997E+02  0.45594000000E+02  0.51100000000E-03 0. -1.
         11   -1    0    0    0    0 -0.00000000000E+00 -0.00000000000E+00 -0.45593999997E+02  0.45594000000E+02  0.51100000000E-03 0.  1.
         23    2    1    2    0    0  0.00000000000E+00  0.17763568394E-14  0.00000000000E+00  0.91188000000E+02  0.91188000000E+02 0.  0.
    9900012    2    3    3    0    0  0.37460310437E+02 -0.13886898351E+02  0.16955879192E+02  0.47787278313E+02  0.20000033138E+02 0.  0.
        -12    1    3    3    0    0 -0.37460310437E+02  0.13886898351E+02 -0.16955879192E+02  0.43400721687E+02  0.00000000000E+00 0.  1.
         11    1    4    4    0    0  0.31614548917E+02 -0.72316305610E+01  0.55910863784E+01  0.32909518851E+02  0.51100000000E-03 0. -1.
        -11    1    4    4    0    0  0.30533494394E+01 -0.18477160983E+01  0.68180273906E+01  0.76956153320E+01  0.51100000000E-03 0.  1.
        -12    1    4    4    0    0  0.27924120799E+01 -0.48075516919E+01  0.45467654227E+01  0.71821441299E+01  0.00000000000E+00 0.  1.
</event>
<event>
 8    1  0.2994958E-010  0.9118800E+02  0.7816164E-02  0.1184000E+00
        -11   -1    0    0    0    0  0.00000000000E+00  0.00000000000E+00  0.45593999997E+02  0.45594000000E+02  0.51100000000E-03 0. -1.
         11   -1    0    0    0    0 -0.00000000000E+00 -0.00000000000E+00 -0.45593999997E+02  0.45594000000E+02  0.51100000000E-03 0.  1.
         23    2    1    2    0    0  0.00000000000E+00 -0.35527136788E-14  0.00000000000E+00  0.91188000000E+02  0.91188000000E+02 0.  0.
    9900012    2    3    3    0    0 -0.19235879693E+02 -0.22164443148E+02 -0.31974064686E+02  0.47787280879E+02  0.20000044840E+02 0.  0.
         12    1    3    3    0    0  0.19235879693E+02  0.22164443148E+02  0.31974064686E+02  0.43400719121E+02  0.00000000000E+00 0. -1.
         11    1    4    4    0    0  0.42878554289E+00 -0.50114225403E+00 -0.70984622886E+01  0.71290369423E+01  0.51100000000E-03 0. -1.
        -11    1    4    4    0    0 -0.71958342729E+01 -0.12087210904E+02 -0.19496985010E+02  0.24041903483E+02  0.51100000000E-03 0.  1.
        -12    1    4    4    0    0 -0.12468830963E+02 -0.95760899903E+01 -0.53786173875E+01  0.16616340454E+02  0.00000000000E+00 0.  1.
</event>
<event>
 8    1  0.2994958E-010  0.9118800E+02  0.7816164E-02  0.1184000E+00
        -11   -1    0    0    0    0  0.00000000000E+00  0.00000000000E+00  0.45593999997E+02  0.45594000000E+02  0.51100000000E-03 0. -1.
         11   -1    0    0    0    0 -0.00000000000E+00 -0.00000000000E+00 -0.45593999997E+02  0.45594000000E+02  0.51100000000E-03 0.  1.
         23    2    1    2    0    0 -0.35527136788E-14  0.00000000000E+00  0.35527136788E-14  0.91188000000E+02  0.91188000000E+02 0.  0.
    9900012    2    3    3    0    0 -0.30120886689E+02  0.26576107838E+02  0.16433688371E+02  0.47787269174E+02  0.19999991471E+02 0.  0.
        -12    1    3    3    0    0  0.30120886689E+02 -0.26576107838E+02 -0.16433688371E+02  0.43400730826E+02  0.00000000000E+00 0.  1.
         11    1    4    4    0    0 -0.72984274403E+01  0.44328937605E+01  0.78173481019E+01  0.11577068791E+02  0.51100000000E-03 0. -1.
        -11    1    4    4    0    0 -0.13466000915E+02  0.31868430538E+01  0.52688623502E+01  0.14807094921E+02  0.51100000000E-03 0.  1.
         12    1    4    4    0    0 -0.93564583343E+01  0.18956371024E+02  0.33474779190E+01  0.21403105461E+02  0.00000000000E+00 0. -1.
</event>
<event>
 8    1  0.2994958E-010  0.9118800E+02  0.7816164E-02  0.1184000E+00
        -11   -1    0    0    0    0  0.00000000000E+00  0.00000000000E+00  0.45593999997E+02  0.45594000000E+02  0.51100000000E-03 0. -1.
         11   -1    0    0    0    0 -0.00000000000E+00 -0.00000000000E+00 -0.45593999997E+02  0.45594000000E+02  0.51100000000E-03 0.  1.
         23    2    1    2    0    0  0.00000000000E+00  0.00000000000E+00  0.35527136788E-14  0.91188000000E+02  0.91188000000E+02 0.  0.
    9900012    2    3    3    0    0 -0.20571819403E+02  0.32192537059E+02 -0.20592833323E+02  0.47787262908E+02  0.19999962904E+02 0.  0.
         12    1    3    3    0    0  0.20571819403E+02 -0.32192537059E+02  0.20592833323E+02  0.43400737092E+02  0.00000000000E+00 0. -1.
         11    1    4    4    0    0 -0.36890171049E+01  0.13630204110E+01  0.22848396672E+01  0.45483144578E+01  0.51100000000E-03 0. -1.
        -11    1    4    4    0    0 -0.12244902980E+02  0.22233348554E+02 -0.10492034208E+02  0.27465291169E+02  0.51100000000E-03 0.  1.
        -12    1    4    4    0    0 -0.46378993176E+01  0.85961680936E+01 -0.12385638783E+02  0.15773657281E+02  0.00000000000E+00 0.  1.
</event>
<event>
 8    1  0.2994958E-010  0.9118800E+02  0.7816164E-02  0.1184000E+00
        -11   -1    0    0    0    0  0.00000000000E+00  0.00000000000E+00  0.45593999997E+02  0.45594000000E+02  0.51100000000E-03 0. -1.
         11   -1    0    0    0    0 -0.00000000000E+00 -0.00000000000E+00 -0.45593999997E+02  0.45594000000E+02  0.51100000000E-03 0.  1.
         23    2    1    2    0    0  0.00000000000E+00  0.00000000000E+00  0.00000000000E+00  0.91188000000E+02  0.91188000000E+02 0.  0.
    9900012    2    3    3    0    0  0.27686823821E+02 -0.97520135171E+01  0.31968137036E+02  0.47787265369E+02  0.19999974124E+02 0.  0.
        -12    1    3    3    0    0 -0.27686823821E+02  0.97520135171E+01 -0.31968137036E+02  0.43400734631E+02  0.00000000000E+00 0.  1.
         11    1    4    4    0    0  0.21465657491E+02 -0.99586839314E+01  0.16744513104E+02  0.28988421077E+02  0.51100000000E-03 0. -1.
        -11    1    4    4    0    0  0.18218449290E+01 -0.42744119321E+01  0.52287839297E+01  0.69949909189E+01  0.51100000000E-03 0.  1.
        -12    1    4    4    0    0  0.43993214006E+01  0.44810823464E+01  0.99948400026E+01  0.11803853373E+02  0.00000000000E+00 0.  1.
</event>
<event>
 8    1  0.2994958E-010  0.9118800E+02  0.7816164E-02  0.1184000E+00
        -11   -1    0    0    0    0  0.00000000000E+00  0.00000000000E+00  0.45593999997E+02  0.45594000000E+02  0.51100000000E-03 0. -1.
         11   -1    0    0    0    0 -0.00000000000E+00 -0.00000000000E+00 -0.45593999997E+02  0.45594000000E+02  0.51100000000E-03 0.  1.
         23    2    1    2    0    0  0.22204460493E-15  0.00000000000E+00  0.00000000000E+00  0.91188000000E+02  0.91188000000E+02 0.  0.
    9900012    2    3    3    0    0  0.11611022543E+01  0.80800442212E+01  0.42626140801E+02  0.47787272441E+02  0.20000006369E+02 0.  0.
        -12    1    3    3    0    0 -0.11611022543E+01 -0.80800442212E+01 -0.42626140801E+02  0.43400727559E+02  0.00000000000E+00 0.  1.
         11    1    4    4    0    0  0.54236236118E+01  0.31540460810E+01  0.16271289420E+02  0.17438995367E+02  0.51100000000E-03 0. -1.
        -11    1    4    4    0    0 -0.23837296368E+01 -0.31051501874E+01  0.18666793328E+02  0.19072841898E+02  0.51100000000E-03 0.  1.
         12    1    4    4    0    0 -0.18787917207E+01  0.80311483276E+01  0.76880580528E+01  0.11275435176E+02  0.00000000000E+00 0. -1.
</event>
<event>
 8    1  0.2994958E-010  0.9118800E+02  0.7816164E-02  0.1184000E+00
        -11   -1    0    0    0    0  0.00000000000E+00  0.00000000000E+00  0.45593999997E+02  0.45594000000E+02  0.51100000000E-03 0. -1.
         11   -1    0    0    0    0 -0.00000000000E+00 -0.00000000000E+00 -0.45593999997E+02  0.45594000000E+02  0.51100000000E-03 0.  1.
         23    2    1    2    0    0 -0.44408920985E-15 -0.17763568394E-14  0.71054273576E-14  0.91188000000E+02  0.91188000000E+02 0.  0.
    9900012    2    3    3    0    0 -0.32972138110E+01 -0.10254430644E+02  0.42042810379E+02  0.47787275682E+02  0.20000021144E+02 0.  0.
        -12    1    3    3    0    0  0.32972138110E+01  0.10254430644E+02 -0.42042810379E+02  0.43400724318E+02  0.00000000000E+00 0.  1.
         11    1    4    4    0    0  0.70767676005E+00 -0.35933741501E+01  0.27896848500E+01  0.46038555584E+01  0.51100000000E-03 0. -1.
        -11    1    4    4    0    0  0.17800069620E+01 -0.50388051901E+01  0.24249988967E+01  0.58684412273E+01  0.51100000000E-03 0.  1.
         12    1    4    4    0    0 -0.57848975330E+01 -0.16222513042E+01  0.36828126632E+02  0.37314978896E+02  0.00000000000E+00 0. -1.
</event>
<event>
 8    1  0.2994958E-010  0.9118800E+02  0.7816164E-02  0.1184000E+00
        -11   -1    0    0    0    0  0.00000000000E+00  0.00000000000E+00  0.45593999997E+02  0.45594000000E+02  0.51100000000E-03 0. -1.
         11   -1    0    0    0    0 -0.00000000000E+00 -0.00000000000E+00 -0.45593999997E+02  0.45594000000E+02  0.51100000000E-03 0.  1.
         23    2    1    2    0    0  0.00000000000E+00  0.00000000000E+00  0.35527136788E-14  0.91188000000E+02  0.91188000000E+02 0.  0.
    9900012    2    3    3    0    0 -0.37417291418E+02 -0.25743253929E+01  0.21839022956E+02  0.47787265306E+02  0.19999973837E+02 0.  0.
        -12    1    3    3    0    0  0.37417291418E+02  0.25743253929E+01 -0.21839022956E+02  0.43400734694E+02  0.00000000000E+00 0.  1.
         11    1    4    4    0    0 -0.27828132952E+02  0.26143865815E+01  0.15102598257E+02  0.31769930362E+02  0.51100000000E-03 0. -1.
        -11    1    4    4    0    0 -0.92424076961E+01  0.40065320714E-01  0.36602016451E+01  0.99408642278E+01  0.51100000000E-03 0.  1.
        -12    1    4    4    0    0 -0.34675076976E+00 -0.52287772951E+01  0.30762230532E+01  0.60764707167E+01  0.00000000000E+00 0.  1.
</event>
<event>
 8    1  0.2994958E-010  0.9118800E+02  0.7816164E-02  0.1184000E+00
        -11   -1    0    0    0    0  0.00000000000E+00  0.00000000000E+00  0.45593999997E+02  0.45594000000E+02  0.51100000000E-03 0.  1.
         11   -1    0    0    0    0 -0.00000000000E+00 -0.00000000000E+00 -0.45593999997E+02  0.45594000000E+02  0.51100000000E-03 0. -1.
         23    2    1    2    0    0  0.00000000000E+00  0.35527136788E-14  0.00000000000E+00  0.91188000000E+02  0.91188000000E+02 0.  0.
    9900012    2    3    3    0    0 -0.22164883386E+02  0.21823070903E+02 -0.30267057109E+02  0.47787271605E+02  0.20000002557E+02 0.  0.
         12    1    3    3    0    0  0.22164883386E+02 -0.21823070903E+02  0.30267057109E+02  0.43400728395E+02  0.00000000000E+00 0. -1.
         11    1    4    4    0    0 -0.55259081873E+00  0.45373332386E+01  0.61037128984E+00  0.46114317628E+01  0.51100000000E-03 0. -1.
        -11    1    4    4    0    0 -0.50605240370E+01  0.11533985547E+02 -0.11575520621E+02  0.17106560264E+02  0.51100000000E-03 0.  1.
         12    1    4    4    0    0 -0.16551768530E+02  0.57517521166E+01 -0.19301907778E+02  0.26069279579E+02  0.00000000000E+00 0. -1.
</event>
<event>
 8    1  0.2994958E-010  0.9118800E+02  0.7816164E-02  0.1184000E+00
        -11   -1    0    0    0    0  0.00000000000E+00  0.00000000000E+00  0.45593999997E+02  0.45594000000E+02  0.51100000000E-03 0. -1.
         11   -1    0    0    0    0 -0.00000000000E+00 -0.00000000000E+00 -0.45593999997E+02  0.45594000000E+02  0.51100000000E-03 0.  1.
         23    2    1    2    0    0 -0.35527136788E-14  0.11102230246E-15 -0.71054273576E-14  0.91188000000E+02  0.91188000000E+02 0.  0.
    9900012    2    3    3    0    0 -0.20144467633E+02  0.72018913351E+00  0.38435727230E+02  0.47787269864E+02  0.19999994619E+02 0.  0.
        -12    1    3    3    0    0  0.20144467633E+02 -0.72018913351E+00 -0.38435727230E+02  0.43400730136E+02  0.00000000000E+00 0.  1.
         11    1    4    4    0    0 -0.74908537726E+01 -0.45619695915E+01  0.53228962138E+01  0.10259516614E+02  0.51100000000E-03 0. -1.
        -11    1    4    4    0    0 -0.11218698755E+02  0.38607784589E+01  0.14185912439E+02  0.18493375140E+02  0.51100000000E-03 0.  1.
         12    1    4    4    0    0 -0.14349151058E+01  0.14213802661E+01  0.18926918577E+02  0.19034378110E+02  0.00000000000E+00 0. -1.
</event>
<event>
 8    1  0.2994958E-010  0.9118800E+02  0.7816164E-02  0.1184000E+00
        -11   -1    0    0    0    0  0.00000000000E+00  0.00000000000E+00  0.45593999997E+02  0.45594000000E+02  0.51100000000E-03 0. -1.
         11   -1    0    0    0    0 -0.00000000000E+00 -0.00000000000E+00 -0.45593999997E+02  0.45594000000E+02  0.51100000000E-03 0.  1.
         23    2    1    2    0    0  0.17763568394E-14  0.35527136788E-14  0.00000000000E+00  0.91188000000E+02  0.91188000000E+02 0.  0.
    9900012    2    3    3    0    0  0.29458375157E+01  0.23305528403E+02 -0.36493806427E+02  0.47787268205E+02  0.19999987054E+02 0.  0.
         12    1    3    3    0    0 -0.29458375157E+01 -0.23305528403E+02  0.36493806427E+02  0.43400731795E+02  0.00000000000E+00 0. -1.
         11    1    4    4    0    0  0.21588835086E+01  0.83719410406E+01 -0.66406561145E+01  0.10901765393E+02  0.51100000000E-03 0. -1.
        -11    1    4    4    0    0  0.63113947788E+01  0.14648454022E+01 -0.13609330572E+02  0.15072934518E+02  0.51100000000E-03 0.  1.
        -12    1    4    4    0    0 -0.55244407717E+01  0.13468741960E+02 -0.16243819741E+02  0.21812568294E+02  0.00000000000E+00 0.  1.
</event>
<event>
 8    1  0.2994958E-010  0.9118800E+02  0.7816164E-02  0.1184000E+00
        -11   -1    0    0    0    0  0.00000000000E+00  0.00000000000E+00  0.45593999997E+02  0.45594000000E+02  0.51100000000E-03 0. -1.
         11   -1    0    0    0    0 -0.00000000000E+00 -0.00000000000E+00 -0.45593999997E+02  0.45594000000E+02  0.51100000000E-03 0.  1.
         23    2    1    2    0    0  0.00000000000E+00  0.00000000000E+00  0.00000000000E+00  0.91188000000E+02  0.91188000000E+02 0.  0.
    9900012    2    3    3    0    0 -0.27037279443E+01  0.33643084824E+02 -0.27284723934E+02  0.47787268883E+02  0.19999990147E+02 0.  0.
         12    1    3    3    0    0  0.27037279443E+01 -0.33643084824E+02  0.27284723934E+02  0.43400731117E+02  0.00000000000E+00 0. -1.
         11    1    4    4    0    0 -0.16765623559E+01  0.21682421474E+01  0.12349208536E+01  0.30061878049E+01  0.51100000000E-03 0. -1.
        -11    1    4    4    0    0 -0.64805154428E+01  0.78327788372E+01 -0.99771155593E+01  0.14244028217E+02  0.51100000000E-03 0.  1.
        -12    1    4    4    0    0  0.54533498543E+01  0.23642063840E+02 -0.18542529228E+02  0.30537052861E+02  0.00000000000E+00 0.  1.
</event>
<event>
 8    1  0.2994958E-010  0.9118800E+02  0.7816164E-02  0.1184000E+00
        -11   -1    0    0    0    0  0.00000000000E+00  0.00000000000E+00  0.45593999997E+02  0.45594000000E+02  0.51100000000E-03 0. -1.
         11   -1    0    0    0    0 -0.00000000000E+00 -0.00000000000E+00 -0.45593999997E+02  0.45594000000E+02  0.51100000000E-03 0.  1.
         23    2    1    2    0    0  0.00000000000E+00 -0.71054273576E-14 -0.35527136788E-14  0.91188000000E+02  0.91188000000E+02 0.  0.
    9900012    2    3    3    0    0  0.73498140769E+01  0.37211483985E+02 -0.21092862881E+02  0.47787272220E+02  0.20000005359E+02 0.  0.
         12    1    3    3    0    0 -0.73498140769E+01 -0.37211483985E+02  0.21092862881E+02  0.43400727780E+02  0.00000000000E+00 0. -1.
         11    1    4    4    0    0  0.12839465577E+01  0.64277286738E+00 -0.11356505130E+01  0.18306769433E+01  0.51100000000E-03 0. -1.
        -11    1    4    4    0    0  0.89916153944E+01  0.29294990959E+02 -0.22155466676E+02  0.37814155373E+02  0.51100000000E-03 0.  1.
        -12    1    4    4    0    0 -0.29257478751E+01  0.72737201586E+01  0.21982543080E+01  0.81424399032E+01  0.00000000000E+00 0.  1.
</event>
<event>
 8    1  0.2994958E-010  0.9118800E+02  0.7816164E-02  0.1184000E+00
        -11   -1    0    0    0    0  0.00000000000E+00  0.00000000000E+00  0.45593999997E+02  0.45594000000E+02  0.51100000000E-03 0. -1.
         11   -1    0    0    0    0 -0.00000000000E+00 -0.00000000000E+00 -0.45593999997E+02  0.45594000000E+02  0.51100000000E-03 0.  1.
         23    2    1    2    0    0  0.00000000000E+00 -0.35527136788E-14  0.35527136788E-14  0.91188000000E+02  0.91188000000E+02 0.  0.
    9900012    2    3    3    0    0 -0.27027767895E+02 -0.17504378932E+02  0.29098446446E+02  0.47787272993E+02  0.20000008885E+02 0.  0.
        -12    1    3    3    0    0  0.27027767895E+02  0.17504378932E+02 -0.29098446446E+02  0.43400727007E+02  0.00000000000E+00 0.  1.
         11    1    4    4    0    0 -0.17219294581E+02 -0.11769905574E+02  0.15199113109E+02  0.25807902329E+02  0.51100000000E-03 0. -1.
        -11    1    4    4    0    0 -0.25222705993E+01 -0.83484366991E+01  0.10138059807E+02  0.13373051305E+02  0.51100000000E-03 0.  1.
         12    1    4    4    0    0 -0.72862027146E+01  0.26139633407E+01  0.37612735296E+01  0.86063193591E+01  0.00000000000E+00 0. -1.
</event>
<event>
 8    1  0.2994958E-010  0.9118800E+02  0.7816164E-02  0.1184000E+00
        -11   -1    0    0    0    0  0.00000000000E+00  0.00000000000E+00  0.45593999997E+02  0.45594000000E+02  0.51100000000E-03 0. -1.
         11   -1    0    0    0    0 -0.00000000000E+00 -0.00000000000E+00 -0.45593999997E+02  0.45594000000E+02  0.51100000000E-03 0.  1.
         23    2    1    2    0    0  0.88817841970E-15  0.44408920985E-15  0.00000000000E+00  0.91188000000E+02  0.91188000000E+02 0.  0.
    9900012    2    3    3    0    0  0.66699680201E+01 -0.27274703129E+01 -0.42798319849E+02  0.47787265563E+02  0.19999975010E+02 0.  0.
         12    1    3    3    0    0 -0.66699680201E+01  0.27274703129E+01  0.42798319849E+02  0.43400734437E+02  0.00000000000E+00 0. -1.
         11    1    4    4    0    0  0.19633609726E+01  0.26031242116E+01 -0.14029782741E+02  0.14403674739E+02  0.51100000000E-03 0.  1.
        -11    1    4    4    0    0  0.72381066536E+01  0.31880475929E+01 -0.11420349851E+02  0.13891660317E+02  0.51100000000E-03 0. -1.
         12    1    4    4    0    0 -0.25314996061E+01 -0.85186421174E+01 -0.17348187257E+02  0.19491930507E+02  0.00000000000E+00 0. -1.
</event>
<event>
 8    1  0.2994958E-010  0.9118800E+02  0.7816164E-02  0.1184000E+00
        -11   -1    0    0    0    0  0.00000000000E+00  0.00000000000E+00  0.45593999997E+02  0.45594000000E+02  0.51100000000E-03 0. -1.
         11   -1    0    0    0    0 -0.00000000000E+00 -0.00000000000E+00 -0.45593999997E+02  0.45594000000E+02  0.51100000000E-03 0.  1.
         23    2    1    2    0    0  0.00000000000E+00  0.17763568394E-14  0.00000000000E+00  0.91188000000E+02  0.91188000000E+02 0.  0.
    9900012    2    3    3    0    0 -0.22116818324E+02 -0.97039181975E+01 -0.36059720493E+02  0.47787272780E+02  0.20000007915E+02 0.  0.
         12    1    3    3    0    0  0.22116818324E+02  0.97039181975E+01  0.36059720493E+02  0.43400727220E+02  0.00000000000E+00 0. -1.
         11    1    4    4    0    0 -0.20744919815E+01  0.37343998270E+01 -0.30490294119E+01  0.52484130615E+01  0.51100000000E-03 0. -1.
        -11    1    4    4    0    0 -0.40283683928E+01  0.12285501010E+01 -0.19529219695E+01  0.46423045720E+01  0.51100000000E-03 0.  1.
        -12    1    4    4    0    0 -0.16013957950E+02 -0.14666868125E+02 -0.31057769112E+02  0.37896555147E+02  0.00000000000E+00 0.  1.
</event>
<event>
 8    1  0.2994958E-010  0.9118800E+02  0.7816164E-02  0.1184000E+00
        -11   -1    0    0    0    0  0.00000000000E+00  0.00000000000E+00  0.45593999997E+02  0.45594000000E+02  0.51100000000E-03 0. -1.
         11   -1    0    0    0    0 -0.00000000000E+00 -0.00000000000E+00 -0.45593999997E+02  0.45594000000E+02  0.51100000000E-03 0.  1.
         23    2    1    2    0    0  0.00000000000E+00 -0.88817841970E-15  0.00000000000E+00  0.91188000000E+02  0.91188000000E+02 0.  0.
    9900012    2    3    3    0    0 -0.13489399746E+02 -0.75006503883E+01  0.40563525644E+02  0.47787271038E+02  0.19999999971E+02 0.  0.
        -12    1    3    3    0    0  0.13489399746E+02  0.75006503883E+01 -0.40563525644E+02  0.43400728962E+02  0.00000000000E+00 0.  1.
         11    1    4    4    0    0 -0.88486474125E+01 -0.58878966582E+01  0.16492532792E+02  0.19620640312E+02  0.51100000000E-03 0. -1.
        -11    1    4    4    0    0 -0.88535478527E+01 -0.27135221547E+01  0.20643405597E+02  0.22625178606E+02  0.51100000000E-03 0.  1.
        -12    1    4    4    0    0  0.42127955189E+01  0.11007684246E+01  0.34275872553E+01  0.55414521203E+01  0.00000000000E+00 0.  1.
</event>
<event>
 8    1  0.2994958E-010  0.9118800E+02  0.7816164E-02  0.1184000E+00
        -11   -1    0    0    0    0  0.00000000000E+00  0.00000000000E+00  0.45593999997E+02  0.45594000000E+02  0.51100000000E-03 0. -1.
         11   -1    0    0    0    0 -0.00000000000E+00 -0.00000000000E+00 -0.45593999997E+02  0.45594000000E+02  0.51100000000E-03 0.  1.
         23    2    1    2    0    0  0.35527136788E-14  0.88817841970E-15 -0.71054273576E-14  0.91188000000E+02  0.91188000000E+02 0.  0.
    9900012    2    3    3    0    0 -0.23740176622E+02  0.57507914433E+01 -0.35874155411E+02  0.47787278638E+02  0.20000034623E+02 0.  0.
         12    1    3    3    0    0  0.23740176622E+02 -0.57507914433E+01  0.35874155411E+02  0.43400721362E+02  0.00000000000E+00 0. -1.
         11    1    4    4    0    0 -0.80350276309E+00  0.47040805938E+00  0.18457636948E+01  0.20673036329E+01  0.51100000000E-03 0. -1.
        -11    1    4    4    0    0 -0.24912928990E+01 -0.23657921921E+01 -0.23703318686E+01  0.41739653129E+01  0.51100000000E-03 0.  1.
        -12    1    4    4    0    0 -0.20445380960E+02  0.76461755761E+01 -0.35349587237E+02  0.41546009692E+02  0.00000000000E+00 0.  1.
</event>
<event>
 8    1  0.2994958E-010  0.9118800E+02  0.7816164E-02  0.1184000E+00
        -11   -1    0    0    0    0  0.00000000000E+00  0.00000000000E+00  0.45593999997E+02  0.45594000000E+02  0.51100000000E-03 0. -1.
         11   -1    0    0    0    0 -0.00000000000E+00 -0.00000000000E+00 -0.45593999997E+02  0.45594000000E+02  0.51100000000E-03 0.  1.
         23    2    1    2    0    0  0.00000000000E+00  0.00000000000E+00  0.00000000000E+00  0.91188000000E+02  0.91188000000E+02 0.  0.
    9900012    2    3    3    0    0 -0.21432837360E+02  0.34704302018E+02  0.14827953533E+02  0.47787270722E+02  0.19999998529E+02 0.  0.
        -12    1    3    3    0    0  0.21432837360E+02 -0.34704302018E+02 -0.14827953533E+02  0.43400729278E+02  0.00000000000E+00 0.  1.
         11    1    4    4    0    0  0.13419889423E+01  0.44008419466E+01  0.35179849778E+01  0.57917668052E+01  0.51100000000E-03 0. -1.
        -11    1    4    4    0    0 -0.38534504881E+01  0.14186609248E+00 -0.15260830598E+01  0.41470635900E+01  0.51100000000E-03 0.  1.
         12    1    4    4    0    0 -0.18921375815E+02  0.30161593979E+02  0.12836051615E+02  0.37848440327E+02  0.00000000000E+00 0. -1.
</event>
<event>
 8    1  0.2994958E-010  0.9118800E+02  0.7816164E-02  0.1184000E+00
        -11   -1    0    0    0    0  0.00000000000E+00  0.00000000000E+00  0.45593999997E+02  0.45594000000E+02  0.51100000000E-03 0. -1.
         11   -1    0    0    0    0 -0.00000000000E+00 -0.00000000000E+00 -0.45593999997E+02  0.45594000000E+02  0.51100000000E-03 0.  1.
         23    2    1    2    0    0  0.00000000000E+00  0.00000000000E+00  0.00000000000E+00  0.91188000000E+02  0.91188000000E+02 0.  0.
    9900012    2    3    3    0    0  0.16440000036E+02 -0.77560188586E+01 -0.39410584971E+02  0.47787266855E+02  0.19999980899E+02 0.  0.
         12    1    3    3    0    0 -0.16440000036E+02  0.77560188586E+01  0.39410584971E+02  0.43400733145E+02  0.00000000000E+00 0. -1.
         11    1    4    4    0    0  0.41779844008E+01 -0.32681374577E+01  0.51465621277E+00  0.53292726872E+01  0.51100000000E-03 0. -1.
        -11    1    4    4    0    0  0.64879436249E+01 -0.18500316452E+01 -0.11503173797E+02  0.13335630365E+02  0.51100000000E-03 0.  1.
         12    1    4    4    0    0  0.57740720105E+01 -0.26378497556E+01 -0.28422067387E+02  0.29122363802E+02  0.00000000000E+00 0. -1.
</event>
<event>
 8    1  0.2994958E-010  0.9118800E+02  0.7816164E-02  0.1184000E+00
        -11   -1    0    0    0    0  0.00000000000E+00  0.00000000000E+00  0.45593999997E+02  0.45594000000E+02  0.51100000000E-03 0. -1.
         11   -1    0    0    0    0 -0.00000000000E+00 -0.00000000000E+00 -0.45593999997E+02  0.45594000000E+02  0.51100000000E-03 0.  1.
         23    2    1    2    0    0  0.35527136788E-14 -0.88817841970E-15  0.00000000000E+00  0.91188000000E+02  0.91188000000E+02 0.  0.
    9900012    2    3    3    0    0  0.24256382401E+02  0.54503644928E+01 -0.35574485957E+02  0.47787278677E+02  0.20000034798E+02 0.  0.
         12    1    3    3    0    0 -0.24256382401E+02 -0.54503644928E+01  0.35574485957E+02  0.43400721323E+02  0.00000000000E+00 0. -1.
         11    1    4    4    0    0  0.66947001506E+01  0.62418730485E+01 -0.11917318620E+02  0.15026725279E+02  0.51100000000E-03 0. -1.
        -11    1    4    4    0    0  0.35268553008E+01 -0.89142486409E+00 -0.16707605724E+02  0.17099047806E+02  0.51100000000E-03 0.  1.
        -12    1    4    4    0    0  0.14034826949E+02  0.99916308421E-01 -0.69495616139E+01  0.15661505592E+02  0.00000000000E+00 0.  1.
</event>
<event>
 8    1  0.2994958E-010  0.9118800E+02  0.7816164E-02  0.1184000E+00
        -11   -1    0    0    0    0  0.00000000000E+00  0.00000000000E+00  0.45593999997E+02  0.45594000000E+02  0.51100000000E-03 0. -1.
         11   -1    0    0    0    0 -0.00000000000E+00 -0.00000000000E+00 -0.45593999997E+02  0.45594000000E+02  0.51100000000E-03 0.  1.
         23    2    1    2    0    0  0.00000000000E+00  0.00000000000E+00  0.00000000000E+00  0.91188000000E+02  0.91188000000E+02 0.  0.
    9900012    2    3    3    0    0  0.88864321395E+01 -0.18835738994E+02  0.38077151841E+02  0.47787271528E+02  0.20000002204E+02 0.  0.
        -12    1    3    3    0    0 -0.88864321395E+01  0.18835738994E+02 -0.38077151841E+02  0.43400728472E+02  0.00000000000E+00 0.  1.
         11    1    4    4    0    0  0.50801732081E+01  0.63971857977E+00  0.19771986724E+02  0.20424222359E+02  0.51100000000E-03 0. -1.
        -11    1    4    4    0    0 -0.26581154549E+00 -0.32617825355E+01  0.50991081962E+01  0.60589426259E+01  0.51100000000E-03 0.  1.
        -12    1    4    4    0    0  0.40720704769E+01 -0.16213675038E+02  0.13206056920E+02  0.21304106543E+02  0.00000000000E+00 0.  1.
</event>
<event>
 8    1  0.2994958E-010  0.9118800E+02  0.7816164E-02  0.1184000E+00
        -11   -1    0    0    0    0  0.00000000000E+00  0.00000000000E+00  0.45593999997E+02  0.45594000000E+02  0.51100000000E-03 0. -1.
         11   -1    0    0    0    0 -0.00000000000E+00 -0.00000000000E+00 -0.45593999997E+02  0.45594000000E+02  0.51100000000E-03 0.  1.
         23    2    1    2    0    0  0.00000000000E+00  0.00000000000E+00  0.00000000000E+00  0.91188000000E+02  0.91188000000E+02 0.  0.
    9900012    2    3    3    0    0 -0.20744339083E+02  0.16738814975E+02 -0.34250722363E+02  0.47787222206E+02  0.19999777326E+02 0.  0.
         12    1    3    3    0    0  0.20744339083E+02 -0.16738814975E+02  0.34250722363E+02  0.43400777794E+02  0.00000000000E+00 0. -1.
         11    1    4    4    0    0 -0.18962124267E+01 -0.20633810187E+01 -0.79892214577E+00  0.29140074900E+01  0.51100000000E-03 0. -1.
        -11    1    4    4    0    0 -0.84919981656E+01  0.35408238872E+01 -0.20095292127E+02  0.22101407932E+02  0.51100000000E-03 0.  1.
         12    1    4    4    0    0 -0.10356128490E+02  0.15261372106E+02 -0.13356508090E+02  0.22771806784E+02  0.00000000000E+00 0. -1.
</event>
<event>
 8    1  0.2994958E-010  0.9118800E+02  0.7816164E-02  0.1184000E+00
        -11   -1    0    0    0    0  0.00000000000E+00  0.00000000000E+00  0.45593999997E+02  0.45594000000E+02  0.51100000000E-03 0.  1.
         11   -1    0    0    0    0 -0.00000000000E+00 -0.00000000000E+00 -0.45593999997E+02  0.45594000000E+02  0.51100000000E-03 0. -1.
         23    2    1    2    0    0  0.00000000000E+00  0.00000000000E+00 -0.88817841970E-15  0.91188000000E+02  0.91188000000E+02 0.  0.
    9900012    2    3    3    0    0  0.36781000216E+02  0.22286977229E+02 -0.58371231759E+01  0.47787270307E+02  0.19999996637E+02 0.  0.
         12    1    3    3    0    0 -0.36781000216E+02 -0.22286977229E+02  0.58371231759E+01  0.43400729693E+02  0.00000000000E+00 0. -1.
         11    1    4    4    0    0  0.23910215488E+02  0.73587027760E+01  0.28385107987E+01  0.25177491039E+02  0.51100000000E-03 0. -1.
        -11    1    4    4    0    0  0.70858988030E+00  0.17627958874E+01  0.10984300929E+01  0.21945609787E+01  0.51100000000E-03 0.  1.
        -12    1    4    4    0    0  0.12162194848E+02  0.13165478566E+02 -0.97740640674E+01  0.20415218289E+02  0.00000000000E+00 0.  1.
</event>
<event>
 8    1  0.2994958E-010  0.9118800E+02  0.7816164E-02  0.1184000E+00
        -11   -1    0    0    0    0  0.00000000000E+00  0.00000000000E+00  0.45593999997E+02  0.45594000000E+02  0.51100000000E-03 0. -1.
         11   -1    0    0    0    0 -0.00000000000E+00 -0.00000000000E+00 -0.45593999997E+02  0.45594000000E+02  0.51100000000E-03 0.  1.
         23    2    1    2    0    0  0.00000000000E+00 -0.17763568394E-14 -0.71054273576E-14  0.91188000000E+02  0.91188000000E+02 0.  0.
    9900012    2    3    3    0    0  0.19803517643E+02 -0.89116484481E+01 -0.37576953291E+02  0.47787260286E+02  0.19999950949E+02 0.  0.
         12    1    3    3    0    0 -0.19803517643E+02  0.89116484481E+01  0.37576953291E+02  0.43400739714E+02  0.00000000000E+00 0. -1.
         11    1    4    4    0    0  0.11094427712E+01 -0.75940405991E+01 -0.12528924774E+02  0.14692660485E+02  0.51100000000E-03 0. -1.
        -11    1    4    4    0    0  0.38186048494E+01 -0.11169119915E+01 -0.14026654188E+02  0.14579995314E+02  0.51100000000E-03 0.  1.
        -12    1    4    4    0    0  0.14875470022E+02 -0.20069585738E+00 -0.11021374329E+02  0.18514604487E+02  0.00000000000E+00 0.  1.
</event>
<event>
 8    1  0.2994958E-010  0.9118800E+02  0.7816164E-02  0.1184000E+00
        -11   -1    0    0    0    0  0.00000000000E+00  0.00000000000E+00  0.45593999997E+02  0.45594000000E+02  0.51100000000E-03 0. -1.
         11   -1    0    0    0    0 -0.00000000000E+00 -0.00000000000E+00 -0.45593999997E+02  0.45594000000E+02  0.51100000000E-03 0.  1.
         23    2    1    2    0    0  0.00000000000E+00  0.00000000000E+00  0.00000000000E+00  0.91188000000E+02  0.91188000000E+02 0.  0.
    9900012    2    3    3    0    0 -0.17973447318E+02  0.94220597212E+01 -0.38364088280E+02  0.47787270888E+02  0.19999999288E+02 0.  0.
         12    1    3    3    0    0  0.17973447318E+02 -0.94220597212E+01  0.38364088280E+02  0.43400729112E+02  0.00000000000E+00 0. -1.
         11    1    4    4    0    0 -0.70102084356E+01 -0.92385077012E+00 -0.51921749849E+01  0.87724115209E+01  0.51100000000E-03 0.  1.
        -11    1    4    4    0    0  0.69037769831E+00 -0.19317123794E+01 -0.10622206676E+02  0.10818475355E+02  0.51100000000E-03 0. -1.
         12    1    4    4    0    0 -0.11653616581E+02  0.12277622871E+02 -0.22549706619E+02  0.28196384012E+02  0.00000000000E+00 0. -1.
</event>
<event>
 8    1  0.2994958E-010  0.9118800E+02  0.7816164E-02  0.1184000E+00
        -11   -1    0    0    0    0  0.00000000000E+00  0.00000000000E+00  0.45593999997E+02  0.45594000000E+02  0.51100000000E-03 0. -1.
         11   -1    0    0    0    0 -0.00000000000E+00 -0.00000000000E+00 -0.45593999997E+02  0.45594000000E+02  0.51100000000E-03 0.  1.
         23    2    1    2    0    0  0.00000000000E+00  0.00000000000E+00  0.00000000000E+00  0.91188000000E+02  0.91188000000E+02 0.  0.
    9900012    2    3    3    0    0 -0.25404714043E+02 -0.18006996572E+02 -0.30231989100E+02  0.47787255926E+02  0.19999931071E+02 0.  0.
         12    1    3    3    0    0  0.25404714043E+02  0.18006996572E+02  0.30231989100E+02  0.43400744074E+02  0.00000000000E+00 0. -1.
         11    1    4    4    0    0 -0.15389335780E+01 -0.47562417140E+00 -0.74407502103E+01  0.76131004763E+01  0.51100000000E-03 0. -1.
        -11    1    4    4    0    0 -0.16183239690E+02 -0.18921432591E+02 -0.14622344598E+02  0.28874397309E+02  0.51100000000E-03 0.  1.
        -12    1    4    4    0    0 -0.76825407751E+01  0.13900601897E+01 -0.81688942922E+01  0.11299758141E+02  0.00000000000E+00 0.  1.
</event>
<event>
 8    1  0.2994958E-010  0.9118800E+02  0.7816164E-02  0.1184000E+00
        -11   -1    0    0    0    0  0.00000000000E+00  0.00000000000E+00  0.45593999997E+02  0.45594000000E+02  0.51100000000E-03 0. -1.
         11   -1    0    0    0    0 -0.00000000000E+00 -0.00000000000E+00 -0.45593999997E+02  0.45594000000E+02  0.51100000000E-03 0.  1.
         23    2    1    2    0    0 -0.35527136788E-14  0.66613381478E-15 -0.71054273576E-14  0.91188000000E+02  0.91188000000E+02 0.  0.
    9900012    2    3    3    0    0 -0.26289382850E+02 -0.83246717474E+00 -0.34522437512E+02  0.47787270237E+02  0.19999996318E+02 0.  0.
         12    1    3    3    0    0  0.26289382850E+02  0.83246717474E+00  0.34522437512E+02  0.43400729763E+02  0.00000000000E+00 0. -1.
         11    1    4    4    0    0 -0.95675264034E+01  0.41818085858E+01 -0.19149960431E+02  0.21811604006E+02  0.51100000000E-03 0. -1.
        -11    1    4    4    0    0 -0.11463685658E+02  0.24245931990E+01 -0.73094515259E+01  0.13810243405E+02  0.51100000000E-03 0.  1.
         12    1    4    4    0    0 -0.52581707885E+01 -0.74388689595E+01 -0.80630255544E+01  0.12165422826E+02  0.00000000000E+00 0. -1.
</event>
<event>
 8    1  0.2994958E-010  0.9118800E+02  0.7816164E-02  0.1184000E+00
        -11   -1    0    0    0    0  0.00000000000E+00  0.00000000000E+00  0.45593999997E+02  0.45594000000E+02  0.51100000000E-03 0. -1.
         11   -1    0    0    0    0 -0.00000000000E+00 -0.00000000000E+00 -0.45593999997E+02  0.45594000000E+02  0.51100000000E-03 0.  1.
         23    2    1    2    0    0  0.88817841970E-15 -0.71054273576E-14 -0.35527136788E-14  0.91188000000E+02  0.91188000000E+02 0.  0.
    9900012    2    3    3    0    0 -0.62227095562E+01  0.37186941649E+02  0.21494907594E+02  0.47787288071E+02  0.20000077632E+02 0.  0.
        -12    1    3    3    0    0  0.62227095562E+01 -0.37186941649E+02 -0.21494907594E+02  0.43400711929E+02  0.00000000000E+00 0.  1.
         11    1    4    4    0    0  0.18885484434E+01  0.19929504898E+01  0.77358363694E+00  0.28525249837E+01  0.51100000000E-03 0. -1.
        -11    1    4    4    0    0  0.22764965131E+01  0.14821794663E+02  0.15158109383E+01  0.15072017664E+02  0.51100000000E-03 0.  1.
         12    1    4    4    0    0 -0.10387754513E+02  0.20372196496E+02  0.19205513019E+02  0.29862745423E+02  0.00000000000E+00 0. -1.
</event>
<event>
 8    1  0.2994958E-010  0.9118800E+02  0.7816164E-02  0.1184000E+00
        -11   -1    0    0    0    0  0.00000000000E+00  0.00000000000E+00  0.45593999997E+02  0.45594000000E+02  0.51100000000E-03 0. -1.
         11   -1    0    0    0    0 -0.00000000000E+00 -0.00000000000E+00 -0.45593999997E+02  0.45594000000E+02  0.51100000000E-03 0.  1.
         23    2    1    2    0    0 -0.35527136788E-14  0.00000000000E+00  0.00000000000E+00  0.91188000000E+02  0.91188000000E+02 0.  0.
    9900012    2    3    3    0    0 -0.25599452379E+02  0.18849503379E+02 -0.29546365408E+02  0.47787269031E+02  0.19999990822E+02 0.  0.
         12    1    3    3    0    0  0.25599452379E+02 -0.18849503379E+02  0.29546365408E+02  0.43400730969E+02  0.00000000000E+00 0. -1.
         11    1    4    4    0    0 -0.95841134772E+01  0.13886808692E+02 -0.15495861818E+02  0.22908959394E+02  0.51100000000E-03 0. -1.
        -11    1    4    4    0    0  0.12142666923E+01  0.30888570729E+00  0.94370678993E+00  0.15685779377E+01  0.51100000000E-03 0.  1.
        -12    1    4    4    0    0 -0.17229605594E+02  0.46538089796E+01 -0.14994210381E+02  0.23309731699E+02  0.00000000000E+00 0.  1.
</event>
<event>
 8    1  0.2994958E-010  0.9118800E+02  0.7816164E-02  0.1184000E+00
        -11   -1    0    0    0    0  0.00000000000E+00  0.00000000000E+00  0.45593999997E+02  0.45594000000E+02  0.51100000000E-03 0. -1.
         11   -1    0    0    0    0 -0.00000000000E+00 -0.00000000000E+00 -0.45593999997E+02  0.45594000000E+02  0.51100000000E-03 0.  1.
         23    2    1    2    0    0  0.17763568394E-14  0.00000000000E+00  0.00000000000E+00  0.91188000000E+02  0.91188000000E+02 0.  0.
    9900012    2    3    3    0    0 -0.11909208741E+02 -0.21149572346E+02  0.35979009249E+02  0.47787276852E+02  0.20000026477E+02 0.  0.
        -12    1    3    3    0    0  0.11909208741E+02  0.21149572346E+02 -0.35979009249E+02  0.43400723148E+02  0.00000000000E+00 0.  1.
         11    1    4    4    0    0 -0.24497274329E+01 -0.12098913820E+02  0.27326927458E+02  0.29985760699E+02  0.51100000000E-03 0. -1.
        -11    1    4    4    0    0  0.15852237932E+01 -0.84066659936E+00  0.10710163960E+01  0.20896725073E+01  0.51100000000E-03 0.  1.
        -12    1    4    4    0    0 -0.11044705102E+02 -0.82099919274E+01  0.75810653943E+01  0.15711843646E+02  0.00000000000E+00 0.  1.
</event>
<event>
 8    1  0.2994958E-010  0.9118800E+02  0.7816164E-02  0.1184000E+00
        -11   -1    0    0    0    0  0.00000000000E+00  0.00000000000E+00  0.45593999997E+02  0.45594000000E+02  0.51100000000E-03 0.  1.
         11   -1    0    0    0    0 -0.00000000000E+00 -0.00000000000E+00 -0.45593999997E+02  0.45594000000E+02  0.51100000000E-03 0. -1.
         23    2    1    2    0    0  0.00000000000E+00  0.88817841970E-15  0.44408920985E-15  0.91188000000E+02  0.91188000000E+02 0.  0.
    9900012    2    3    3    0    0 -0.42960029365E+02 -0.49960719987E+01  0.36191567755E+01  0.47787272423E+02  0.20000006287E+02 0.  0.
         12    1    3    3    0    0  0.42960029365E+02  0.49960719987E+01 -0.36191567755E+01  0.43400727577E+02  0.00000000000E+00 0. -1.
         11    1    4    4    0    0 -0.53816613792E+01 -0.59136097756E+01 -0.26121257258E+00  0.80000807526E+01  0.51100000000E-03 0. -1.
        -11    1    4    4    0    0  0.93414152554E+00  0.49271087716E+00 -0.13010170206E+00  0.10641010818E+01  0.51100000000E-03 0.  1.
        -12    1    4    4    0    0 -0.38512509511E+02  0.42482689970E+00  0.40104710501E+01  0.38723090589E+02  0.00000000000E+00 0.  1.
</event>
<event>
 8    1  0.2994958E-010  0.9118800E+02  0.7816164E-02  0.1184000E+00
        -11   -1    0    0    0    0  0.00000000000E+00  0.00000000000E+00  0.45593999997E+02  0.45594000000E+02  0.51100000000E-03 0. -1.
         11   -1    0    0    0    0 -0.00000000000E+00 -0.00000000000E+00 -0.45593999997E+02  0.45594000000E+02  0.51100000000E-03 0.  1.
         23    2    1    2    0    0  0.00000000000E+00  0.88817841970E-15  0.00000000000E+00  0.91188000000E+02  0.91188000000E+02 0.  0.
    9900012    2    3    3    0    0  0.13339891338E+02  0.27560597696E+01 -0.41207701309E+02  0.47787271740E+02  0.20000003171E+02 0.  0.
         12    1    3    3    0    0 -0.13339891338E+02 -0.27560597696E+01  0.41207701309E+02  0.43400728260E+02  0.00000000000E+00 0. -1.
         11    1    4    4    0    0  0.19257926589E+01  0.89770906953E+01 -0.20750125549E+02  0.22690626816E+02  0.51100000000E-03 0.  1.
        -11    1    4    4    0    0  0.54926810218E-01 -0.22275897698E+01 -0.16815968549E+01  0.27915840271E+01  0.51100000000E-03 0. -1.
        -12    1    4    4    0    0  0.11359171869E+02 -0.39934411559E+01 -0.18775978904E+02  0.22305060897E+02  0.00000000000E+00 0.  1.
</event>
<event>
 8    1  0.2994958E-010  0.9118800E+02  0.7816164E-02  0.1184000E+00
        -11   -1    0    0    0    0  0.00000000000E+00  0.00000000000E+00  0.45593999997E+02  0.45594000000E+02  0.51100000000E-03 0. -1.
         11   -1    0    0    0    0 -0.00000000000E+00 -0.00000000000E+00 -0.45593999997E+02  0.45594000000E+02  0.51100000000E-03 0.  1.
         23    2    1    2    0    0  0.00000000000E+00  0.00000000000E+00  0.17763568394E-14  0.91188000000E+02  0.91188000000E+02 0.  0.
    9900012    2    3    3    0    0 -0.34241803485E+02  0.22660851589E+02  0.14057298887E+02  0.47787274746E+02  0.20000016875E+02 0.  0.
        -12    1    3    3    0    0  0.34241803485E+02 -0.22660851589E+02 -0.14057298887E+02  0.43400725254E+02  0.00000000000E+00 0.  1.
         11    1    4    4    0    0 -0.13948114325E+02  0.28138646184E+01  0.65815531784E+01  0.15677517974E+02  0.51100000000E-03 0. -1.
        -11    1    4    4    0    0  0.65016996465E+00  0.94386925923E-01 -0.17574958831E+01  0.18762787412E+01  0.51100000000E-03 0.  1.
        -12    1    4    4    0    0 -0.20943859124E+02  0.19752600044E+02  0.92332415916E+01  0.30233478031E+02  0.00000000000E+00 0.  1.
</event>
<event>
 8    1  0.2994958E-010  0.9118800E+02  0.7816164E-02  0.1184000E+00
        -11   -1    0    0    0    0  0.00000000000E+00  0.00000000000E+00  0.45593999997E+02  0.45594000000E+02  0.51100000000E-03 0. -1.
         11   -1    0    0    0    0 -0.00000000000E+00 -0.00000000000E+00 -0.45593999997E+02  0.45594000000E+02  0.51100000000E-03 0.  1.
         23    2    1    2    0    0 -0.88817841970E-15  0.00000000000E+00  0.00000000000E+00  0.91188000000E+02  0.91188000000E+02 0.  0.
    9900012    2    3    3    0    0  0.63851080486E+01 -0.27286797070E+02  0.33140370686E+02  0.47787273412E+02  0.20000010797E+02 0.  0.
        -12    1    3    3    0    0 -0.63851080486E+01  0.27286797070E+02 -0.33140370686E+02  0.43400726588E+02  0.00000000000E+00 0.  1.
         11    1    4    4    0    0 -0.84099695211E+00 -0.81530139641E+01  0.22084761177E+02  0.23556646389E+02  0.51100000000E-03 0. -1.
        -11    1    4    4    0    0  0.99868156202E-01 -0.77290286806E+00 -0.90007609283E+00  0.11905837753E+01  0.51100000000E-03 0.  1.
        -12    1    4    4    0    0  0.71262368445E+01 -0.18360880238E+02  0.11955685601E+02  0.23040043248E+02  0.00000000000E+00 0.  1.
</event>
<event>
 8    1  0.2994958E-010  0.9118800E+02  0.7816164E-02  0.1184000E+00
        -11   -1    0    0    0    0  0.00000000000E+00  0.00000000000E+00  0.45593999997E+02  0.45594000000E+02  0.51100000000E-03 0. -1.
         11   -1    0    0    0    0 -0.00000000000E+00 -0.00000000000E+00 -0.45593999997E+02  0.45594000000E+02  0.51100000000E-03 0.  1.
         23    2    1    2    0    0  0.00000000000E+00  0.88817841970E-15  0.00000000000E+00  0.91188000000E+02  0.91188000000E+02 0.  0.
    9900012    2    3    3    0    0  0.38808535467E+02 -0.73942557923E+01 -0.17967911139E+02  0.47787271037E+02  0.19999999966E+02 0.  0.
         12    1    3    3    0    0 -0.38808535467E+02  0.73942557923E+01  0.17967911139E+02  0.43400728963E+02  0.00000000000E+00 0. -1.
         11    1    4    4    0    0 -0.52471845246E+00 -0.17533219981E+01  0.36757708755E+00  0.18667031525E+01  0.51100000000E-03 0. -1.
        -11    1    4    4    0    0  0.77289239727E+01 -0.68304656343E+01 -0.28207719982E+01  0.10693375589E+02  0.51100000000E-03 0.  1.
        -12    1    4    4    0    0  0.31604329947E+02  0.11895318401E+01 -0.15514716229E+02  0.35227192296E+02  0.00000000000E+00 0.  1.
</event>
<event>
 8    1  0.2994958E-010  0.9118800E+02  0.7816164E-02  0.1184000E+00
        -11   -1    0    0    0    0  0.00000000000E+00  0.00000000000E+00  0.45593999997E+02  0.45594000000E+02  0.51100000000E-03 0. -1.
         11   -1    0    0    0    0 -0.00000000000E+00 -0.00000000000E+00 -0.45593999997E+02  0.45594000000E+02  0.51100000000E-03 0.  1.
         23    2    1    2    0    0  0.22204460493E-15  0.00000000000E+00  0.71054273576E-14  0.91188000000E+02  0.91188000000E+02 0.  0.
    9900012    2    3    3    0    0  0.13787862105E+01  0.62357675244E+01 -0.42928285462E+02  0.47787267970E+02  0.19999985983E+02 0.  0.
         12    1    3    3    0    0 -0.13787862105E+01 -0.62357675244E+01  0.42928285462E+02  0.43400732030E+02  0.00000000000E+00 0. -1.
         11    1    4    4    0    0  0.71094468315E+01  0.36148168836E+01 -0.14002827933E+02  0.16114910044E+02  0.51100000000E-03 0. -1.
        -11    1    4    4    0    0  0.33833358934E+01  0.12533005328E+01 -0.66508056885E+01  0.75664351289E+01  0.51100000000E-03 0.  1.
        -12    1    4    4    0    0 -0.91139965144E+01  0.13676501080E+01 -0.22274651840E+02  0.24105922797E+02  0.00000000000E+00 0.  1.
</event>
<event>
 8    1  0.2994958E-010  0.9118800E+02  0.7816164E-02  0.1184000E+00
        -11   -1    0    0    0    0  0.00000000000E+00  0.00000000000E+00  0.45593999997E+02  0.45594000000E+02  0.51100000000E-03 0. -1.
         11   -1    0    0    0    0 -0.00000000000E+00 -0.00000000000E+00 -0.45593999997E+02  0.45594000000E+02  0.51100000000E-03 0.  1.
         23    2    1    2    0    0  0.17763568394E-14  0.35527136788E-14  0.35527136788E-14  0.91188000000E+02  0.91188000000E+02 0.  0.
    9900012    2    3    3    0    0  0.13134430525E+02  0.26295663101E+02  0.31931930880E+02  0.47787269904E+02  0.19999994800E+02 0.  0.
        -12    1    3    3    0    0 -0.13134430525E+02 -0.26295663101E+02 -0.31931930880E+02  0.43400730096E+02  0.00000000000E+00 0.  1.
         11    1    4    4    0    0  0.38213743857E+01  0.31472887928E+01  0.22577531460E+01  0.54411192296E+01  0.51100000000E-03 0. -1.
        -11    1    4    4    0    0 -0.37527458456E+01  0.40102562506E+01  0.12017195574E+02  0.13212806148E+02  0.51100000000E-03 0.  1.
        -12    1    4    4    0    0  0.13065801985E+02  0.19138118058E+02  0.17656982160E+02  0.29133344526E+02  0.00000000000E+00 0.  1.
</event>
<event>
 8    1  0.2994958E-010  0.9118800E+02  0.7816164E-02  0.1184000E+00
        -11   -1    0    0    0    0  0.00000000000E+00  0.00000000000E+00  0.45593999997E+02  0.45594000000E+02  0.51100000000E-03 0.  1.
         11   -1    0    0    0    0 -0.00000000000E+00 -0.00000000000E+00 -0.45593999997E+02  0.45594000000E+02  0.51100000000E-03 0. -1.
         23    2    1    2    0    0  0.35527136788E-14  0.00000000000E+00 -0.88817841970E-15  0.91188000000E+02  0.91188000000E+02 0.  0.
    9900012    2    3    3    0    0 -0.21817103613E+02 -0.37105618394E+02  0.55507036659E+01  0.47787271462E+02  0.20000001903E+02 0.  0.
        -12    1    3    3    0    0  0.21817103613E+02  0.37105618394E+02 -0.55507036659E+01  0.43400728538E+02  0.00000000000E+00 0.  1.
         11    1    4    4    0    0 -0.30682786819E+01 -0.21737194570E+01  0.14005674004E+01  0.40126026033E+01  0.51100000000E-03 0. -1.
        -11    1    4    4    0    0 -0.22660472383E+01 -0.16914410704E+02  0.83464373998E+01  0.18997243934E+02  0.51100000000E-03 0.  1.
         12    1    4    4    0    0 -0.16482777692E+02 -0.18017488233E+02 -0.41963011343E+01  0.24777424925E+02  0.00000000000E+00 0. -1.
</event>
<event>
 8    1  0.2994958E-010  0.9118800E+02  0.7816164E-02  0.1184000E+00
        -11   -1    0    0    0    0  0.00000000000E+00  0.00000000000E+00  0.45593999997E+02  0.45594000000E+02  0.51100000000E-03 0. -1.
         11   -1    0    0    0    0 -0.00000000000E+00 -0.00000000000E+00 -0.45593999997E+02  0.45594000000E+02  0.51100000000E-03 0.  1.
         23    2    1    2    0    0 -0.17763568394E-14 -0.71054273576E-14 -0.35527136788E-14  0.91188000000E+02  0.91188000000E+02 0.  0.
    9900012    2    3    3    0    0 -0.12291919858E+02 -0.39140149541E+02 -0.14162674562E+02  0.47787263248E+02  0.19999964452E+02 0.  0.
         12    1    3    3    0    0  0.12291919858E+02  0.39140149541E+02  0.14162674562E+02  0.43400736752E+02  0.00000000000E+00 0. -1.
         11    1    4    4    0    0 -0.23835736256E+01 -0.85712096946E+01 -0.49051515205E+01  0.10159112686E+02  0.51100000000E-03 0. -1.
        -11    1    4    4    0    0 -0.16545389914E+01 -0.16386289619E+02 -0.12777943108E+02  0.20845234878E+02  0.51100000000E-03 0.  1.
         12    1    4    4    0    0 -0.82538072411E+01 -0.14182650227E+02  0.35204200670E+01  0.16782915685E+02  0.00000000000E+00 0. -1.
</event>
<event>
 8    1  0.2994958E-010  0.9118800E+02  0.7816164E-02  0.1184000E+00
        -11   -1    0    0    0    0  0.00000000000E+00  0.00000000000E+00  0.45593999997E+02  0.45594000000E+02  0.51100000000E-03 0. -1.
         11   -1    0    0    0    0 -0.00000000000E+00 -0.00000000000E+00 -0.45593999997E+02  0.45594000000E+02  0.51100000000E-03 0.  1.
         23    2    1    2    0    0  0.17763568394E-14 -0.17763568394E-14  0.00000000000E+00  0.91188000000E+02  0.91188000000E+02 0.  0.
    9900012    2    3    3    0    0  0.10254903291E+02 -0.14626834610E+02  0.39553959488E+02  0.47787273700E+02  0.20000012106E+02 0.  0.
        -12    1    3    3    0    0 -0.10254903291E+02  0.14626834610E+02 -0.39553959488E+02  0.43400726300E+02  0.00000000000E+00 0.  1.
         11    1    4    4    0    0  0.63630118200E+01 -0.55857511626E+01  0.18139509691E+02  0.20018250363E+02  0.51100000000E-03 0. -1.
        -11    1    4    4    0    0 -0.10895470478E+01 -0.29631697130E+01  0.19401677342E+02  0.19656870846E+02  0.51100000000E-03 0.  1.
        -12    1    4    4    0    0  0.49814385187E+01 -0.60779137343E+01  0.20127724546E+01  0.81121524907E+01  0.00000000000E+00 0.  1.
</event>
<event>
 8    1  0.2994958E-010  0.9118800E+02  0.7816164E-02  0.1184000E+00
        -11   -1    0    0    0    0  0.00000000000E+00  0.00000000000E+00  0.45593999997E+02  0.45594000000E+02  0.51100000000E-03 0. -1.
         11   -1    0    0    0    0 -0.00000000000E+00 -0.00000000000E+00 -0.45593999997E+02  0.45594000000E+02  0.51100000000E-03 0.  1.
         23    2    1    2    0    0  0.00000000000E+00  0.00000000000E+00  0.00000000000E+00  0.91188000000E+02  0.91188000000E+02 0.  0.
    9900012    2    3    3    0    0 -0.56693941581E+01  0.16004072599E+02  0.39941846120E+02  0.47787269115E+02  0.19999991203E+02 0.  0.
        -12    1    3    3    0    0  0.56693941581E+01 -0.16004072599E+02 -0.39941846120E+02  0.43400730885E+02  0.00000000000E+00 0.  1.
         11    1    4    4    0    0 -0.38190234250E+00 -0.21938564587E+01  0.13759433277E+02  0.13938466915E+02  0.51100000000E-03 0. -1.
        -11    1    4    4    0    0 -0.46935996225E+01  0.17927447504E+01  0.56532969696E+01  0.75633047039E+01  0.51100000000E-03 0.  1.
         12    1    4    4    0    0 -0.59389219306E+00  0.16405184308E+02  0.20529115873E+02  0.26285497497E+02  0.00000000000E+00 0. -1.
</event>
<event>
 8    1  0.2994958E-010  0.9118800E+02  0.7816164E-02  0.1184000E+00
        -11   -1    0    0    0    0  0.00000000000E+00  0.00000000000E+00  0.45593999997E+02  0.45594000000E+02  0.51100000000E-03 0. -1.
         11   -1    0    0    0    0 -0.00000000000E+00 -0.00000000000E+00 -0.45593999997E+02  0.45594000000E+02  0.51100000000E-03 0.  1.
         23    2    1    2    0    0  0.00000000000E+00  0.00000000000E+00  0.00000000000E+00  0.91188000000E+02  0.91188000000E+02 0.  0.
    9900012    2    3    3    0    0 -0.17681376710E+02 -0.82452363288E+01 -0.38768647490E+02  0.47787273823E+02  0.20000012670E+02 0.  0.
         12    1    3    3    0    0  0.17681376710E+02  0.82452363288E+01  0.38768647490E+02  0.43400726177E+02  0.00000000000E+00 0. -1.
         11    1    4    4    0    0  0.14528704330E+01 -0.73987481773E+00 -0.13145336134E+01  0.20943366785E+01  0.51100000000E-03 0. -1.
        -11    1    4    4    0    0 -0.13423892641E+02  0.10693316867E+01 -0.30278692097E+02  0.33138249189E+02  0.51100000000E-03 0.  1.
        -12    1    4    4    0    0 -0.57103545015E+01 -0.85746931978E+01 -0.71754217791E+01  0.12554687956E+02  0.00000000000E+00 0.  1.
</event>
<event>
 8    1  0.2994958E-010  0.9118800E+02  0.7816164E-02  0.1184000E+00
        -11   -1    0    0    0    0  0.00000000000E+00  0.00000000000E+00  0.45593999997E+02  0.45594000000E+02  0.51100000000E-03 0. -1.
         11   -1    0    0    0    0 -0.00000000000E+00 -0.00000000000E+00 -0.45593999997E+02  0.45594000000E+02  0.51100000000E-03 0.  1.
         23    2    1    2    0    0  0.66613381478E-15  0.17763568394E-14  0.71054273576E-14  0.91188000000E+02  0.91188000000E+02 0.  0.
    9900012    2    3    3    0    0 -0.15762941825E+01  0.13571665718E+02  0.41194039836E+02  0.47787265770E+02  0.19999975951E+02 0.  0.
        -12    1    3    3    0    0  0.15762941825E+01 -0.13571665718E+02 -0.41194039836E+02  0.43400734230E+02  0.00000000000E+00 0.  1.
         11    1    4    4    0    0 -0.60337987774E+00  0.98641501091E+00 -0.21958673995E+00  0.11769878708E+01  0.51100000000E-03 0. -1.
        -11    1    4    4    0    0  0.79061123910E+01  0.81888138579E+01  0.24341618592E+02  0.26871503149E+02  0.51100000000E-03 0.  1.
         12    1    4    4    0    0 -0.88790266958E+01  0.43964368494E+01  0.17072007984E+02  0.19738774750E+02  0.00000000000E+00 0. -1.
</event>
<event>
 8    1  0.2994958E-010  0.9118800E+02  0.7816164E-02  0.1184000E+00
        -11   -1    0    0    0    0  0.00000000000E+00  0.00000000000E+00  0.45593999997E+02  0.45594000000E+02  0.51100000000E-03 0. -1.
         11   -1    0    0    0    0 -0.00000000000E+00 -0.00000000000E+00 -0.45593999997E+02  0.45594000000E+02  0.51100000000E-03 0.  1.
         23    2    1    2    0    0  0.00000000000E+00  0.44408920985E-15  0.71054273576E-14  0.91188000000E+02  0.91188000000E+02 0.  0.
    9900012    2    3    3    0    0  0.12761556452E+02  0.36138511946E+01  0.41324401906E+02  0.47787269172E+02  0.19999991463E+02 0.  0.
        -12    1    3    3    0    0 -0.12761556452E+02 -0.36138511946E+01 -0.41324401906E+02  0.43400730828E+02  0.00000000000E+00 0.  1.
         11    1    4    4    0    0  0.11417995355E+02  0.88435420322E+01  0.29544750075E+02  0.32885728072E+02  0.51100000000E-03 0. -1.
        -11    1    4    4    0    0 -0.15285857741E+01 -0.70194788572E-01  0.73818420941E+01  0.75387727609E+01  0.51100000000E-03 0.  1.
        -12    1    4    4    0    0  0.28721468716E+01 -0.51594960490E+01  0.43978097364E+01  0.73627683387E+01  0.00000000000E+00 0.  1.
</event>
<event>
 8    1  0.2994958E-010  0.9118800E+02  0.7816164E-02  0.1184000E+00
        -11   -1    0    0    0    0  0.00000000000E+00  0.00000000000E+00  0.45593999997E+02  0.45594000000E+02  0.51100000000E-03 0. -1.
         11   -1    0    0    0    0 -0.00000000000E+00 -0.00000000000E+00 -0.45593999997E+02  0.45594000000E+02  0.51100000000E-03 0.  1.
         23    2    1    2    0    0  0.00000000000E+00 -0.17763568394E-14  0.00000000000E+00  0.91188000000E+02  0.91188000000E+02 0.  0.
    9900012    2    3    3    0    0  0.14438485973E+02  0.11366281939E+02 -0.39318713063E+02  0.47787269140E+02  0.19999991315E+02 0.  0.
         12    1    3    3    0    0 -0.14438485973E+02 -0.11366281939E+02  0.39318713063E+02  0.43400730860E+02  0.00000000000E+00 0. -1.
         11    1    4    4    0    0  0.62086517471E+01  0.50678233748E+01 -0.20318143711E+01  0.82679175234E+01  0.51100000000E-03 0. -1.
        -11    1    4    4    0    0  0.32985387181E+01 -0.16836124336E+01 -0.99156478948E+01  0.10584657856E+02  0.51100000000E-03 0.  1.
         12    1    4    4    0    0  0.49312955077E+01  0.79820709982E+01 -0.27371250797E+02  0.28934693760E+02  0.00000000000E+00 0. -1.
</event>
<event>
 8    1  0.2994958E-010  0.9118800E+02  0.7816164E-02  0.1184000E+00
        -11   -1    0    0    0    0  0.00000000000E+00  0.00000000000E+00  0.45593999997E+02  0.45594000000E+02  0.51100000000E-03 0. -1.
         11   -1    0    0    0    0 -0.00000000000E+00 -0.00000000000E+00 -0.45593999997E+02  0.45594000000E+02  0.51100000000E-03 0.  1.
         23    2    1    2    0    0 -0.71054273576E-14  0.00000000000E+00 -0.88817841970E-15  0.91188000000E+02  0.91188000000E+02 0.  0.
    9900012    2    3    3    0    0 -0.39692720379E+02 -0.17089100458E+02 -0.40092521886E+01  0.47787268339E+02  0.19999987667E+02 0.  0.
         12    1    3    3    0    0  0.39692720379E+02  0.17089100458E+02  0.40092521886E+01  0.43400731661E+02  0.00000000000E+00 0. -1.
         11    1    4    4    0    0 -0.59159680472E+00 -0.48710532731E+01 -0.23060248633E+01  0.54217061614E+01  0.51100000000E-03 0. -1.
        -11    1    4    4    0    0 -0.68286096767E+01 -0.44507712592E+01  0.33054356924E+01  0.87957478532E+01  0.51100000000E-03 0.  1.
        -12    1    4    4    0    0 -0.32272513898E+02 -0.77672759255E+01 -0.50086630177E+01  0.33569814325E+02  0.00000000000E+00 0.  1.
</event>
<event>
 8    1  0.2994958E-010  0.9118800E+02  0.7816164E-02  0.1184000E+00
        -11   -1    0    0    0    0  0.00000000000E+00  0.00000000000E+00  0.45593999997E+02  0.45594000000E+02  0.51100000000E-03 0. -1.
         11   -1    0    0    0    0 -0.00000000000E+00 -0.00000000000E+00 -0.45593999997E+02  0.45594000000E+02  0.51100000000E-03 0.  1.
         23    2    1    2    0    0  0.00000000000E+00  0.00000000000E+00  0.00000000000E+00  0.91188000000E+02  0.91188000000E+02 0.  0.
    9900012    2    3    3    0    0 -0.16224357803E+02  0.17812745718E+02 -0.36098469702E+02  0.47787271769E+02  0.20000003304E+02 0.  0.
         12    1    3    3    0    0  0.16224357803E+02 -0.17812745718E+02  0.36098469702E+02  0.43400728231E+02  0.00000000000E+00 0. -1.
         11    1    4    4    0    0 -0.20163802772E+01 -0.31300806732E+01 -0.17654866359E+00  0.37275144714E+01  0.51100000000E-03 0. -1.
        -11    1    4    4    0    0 -0.34497943217E+01  0.36065193027E+01 -0.54713718843E+01  0.74056716711E+01  0.51100000000E-03 0.  1.
         12    1    4    4    0    0 -0.10758183204E+02  0.17336307088E+02 -0.30450549154E+02  0.36654085627E+02  0.00000000000E+00 0. -1.
</event>
<event>
 8    1  0.2994958E-010  0.9118800E+02  0.7816164E-02  0.1184000E+00
        -11   -1    0    0    0    0  0.00000000000E+00  0.00000000000E+00  0.45593999997E+02  0.45594000000E+02  0.51100000000E-03 0. -1.
         11   -1    0    0    0    0 -0.00000000000E+00 -0.00000000000E+00 -0.45593999997E+02  0.45594000000E+02  0.51100000000E-03 0.  1.
         23    2    1    2    0    0  0.00000000000E+00  0.00000000000E+00  0.00000000000E+00  0.91188000000E+02  0.91188000000E+02 0.  0.
    9900012    2    3    3    0    0 -0.21278974640E+01 -0.30726048164E+02 -0.30577855843E+02  0.47787271304E+02  0.20000001183E+02 0.  0.
         12    1    3    3    0    0  0.21278974640E+01  0.30726048164E+02  0.30577855843E+02  0.43400728696E+02  0.00000000000E+00 0. -1.
         11    1    4    4    0    0 -0.75479509800E+01 -0.96686291192E+01 -0.14046624844E+02  0.18648367832E+02  0.51100000000E-03 0. -1.
        -11    1    4    4    0    0  0.16266209184E+01 -0.12398169021E+02 -0.15054823479E+02  0.19570595314E+02  0.51100000000E-03 0.  1.
         12    1    4    4    0    0  0.37934325976E+01 -0.86592500233E+01 -0.14764075204E+01  0.95683081580E+01  0.00000000000E+00 0. -1.
</event>
<event>
 8    1  0.2994958E-010  0.9118800E+02  0.7816164E-02  0.1184000E+00
        -11   -1    0    0    0    0  0.00000000000E+00  0.00000000000E+00  0.45593999997E+02  0.45594000000E+02  0.51100000000E-03 0.  1.
         11   -1    0    0    0    0 -0.00000000000E+00 -0.00000000000E+00 -0.45593999997E+02  0.45594000000E+02  0.51100000000E-03 0. -1.
         23    2    1    2    0    0  0.00000000000E+00  0.00000000000E+00  0.35527136788E-14  0.91188000000E+02  0.91188000000E+02 0.  0.
    9900012    2    3    3    0    0 -0.28124598967E+02 -0.27983218953E+02  0.17594594496E+02  0.47787269989E+02  0.19999995188E+02 0.  0.
         12    1    3    3    0    0  0.28124598967E+02  0.27983218953E+02 -0.17594594496E+02  0.43400730011E+02  0.00000000000E+00 0. -1.
         11    1    4    4    0    0  0.20131936710E+01 -0.97448908508E+00 -0.59674791395E+00  0.23148835970E+01  0.51100000000E-03 0. -1.
        -11    1    4    4    0    0 -0.26746793980E+02 -0.18650382761E+02  0.15136043192E+02  0.35948957830E+02  0.51100000000E-03 0.  1.
        -12    1    4    4    0    0 -0.33909986579E+01 -0.83583471070E+01  0.30552992181E+01  0.95234285618E+01  0.00000000000E+00 0.  1.
</event>
<event>
 8    1  0.2994958E-010  0.9118800E+02  0.7816164E-02  0.1184000E+00
        -11   -1    0    0    0    0  0.00000000000E+00  0.00000000000E+00  0.45593999997E+02  0.45594000000E+02  0.51100000000E-03 0. -1.
         11   -1    0    0    0    0 -0.00000000000E+00 -0.00000000000E+00 -0.45593999997E+02  0.45594000000E+02  0.51100000000E-03 0.  1.
         23    2    1    2    0    0  0.00000000000E+00  0.00000000000E+00  0.00000000000E+00  0.91188000000E+02  0.91188000000E+02 0.  0.
    9900012    2    3    3    0    0  0.12330708028E+02  0.10259935948E+02 -0.40327543812E+02  0.47787269177E+02  0.19999991484E+02 0.  0.
         12    1    3    3    0    0 -0.12330708028E+02 -0.10259935948E+02  0.40327543812E+02  0.43400730823E+02  0.00000000000E+00 0. -1.
         11    1    4    4    0    0  0.75003846534E+00 -0.39649139062E+01 -0.90114245872E+00  0.41346291218E+01  0.51100000000E-03 0. -1.
        -11    1    4    4    0    0  0.31066200732E+01  0.21669793674E+01 -0.56641428872E+01  0.68139124419E+01  0.51100000000E-03 0.  1.
         12    1    4    4    0    0  0.84740494893E+01  0.12057870487E+02 -0.33762258466E+02  0.36838727613E+02  0.00000000000E+00 0. -1.
</event>
<event>
 8    1  0.2994958E-010  0.9118800E+02  0.7816164E-02  0.1184000E+00
        -11   -1    0    0    0    0  0.00000000000E+00  0.00000000000E+00  0.45593999997E+02  0.45594000000E+02  0.51100000000E-03 0. -1.
         11   -1    0    0    0    0 -0.00000000000E+00 -0.00000000000E+00 -0.45593999997E+02  0.45594000000E+02  0.51100000000E-03 0.  1.
         23    2    1    2    0    0 -0.35527136788E-14  0.35527136788E-14 -0.35527136788E-14  0.91188000000E+02  0.91188000000E+02 0.  0.
    9900012    2    3    3    0    0 -0.24348310650E+02  0.28290448564E+02 -0.22145734428E+02  0.47787271149E+02  0.20000000476E+02 0.  0.
         12    1    3    3    0    0  0.24348310650E+02 -0.28290448564E+02  0.22145734428E+02  0.43400728851E+02  0.00000000000E+00 0. -1.
         11    1    4    4    0    0 -0.14092109608E+01  0.13379188204E+02 -0.98048982457E+01  0.16647059272E+02  0.51100000000E-03 0. -1.
        -11    1    4    4    0    0  0.31224160501E+00  0.56457913377E+00 -0.17028166837E+01  0.18209418820E+01  0.51100000000E-03 0.  1.
        -12    1    4    4    0    0 -0.23251341295E+02  0.14346681226E+02 -0.10638019498E+02  0.29319269995E+02  0.00000000000E+00 0.  1.
</event>
<event>
 8    1  0.2994958E-010  0.9118800E+02  0.7816164E-02  0.1184000E+00
        -11   -1    0    0    0    0  0.00000000000E+00  0.00000000000E+00  0.45593999997E+02  0.45594000000E+02  0.51100000000E-03 0. -1.
         11   -1    0    0    0    0 -0.00000000000E+00 -0.00000000000E+00 -0.45593999997E+02  0.45594000000E+02  0.51100000000E-03 0.  1.
         23    2    1    2    0    0  0.35527136788E-14 -0.88817841970E-15  0.00000000000E+00  0.91188000000E+02  0.91188000000E+02 0.  0.
    9900012    2    3    3    0    0  0.30576113933E+02 -0.22575390827E+01 -0.30718532928E+02  0.47787268541E+02  0.19999988584E+02 0.  0.
         12    1    3    3    0    0 -0.30576113933E+02  0.22575390827E+01  0.30718532928E+02  0.43400731459E+02  0.00000000000E+00 0. -1.
         11    1    4    4    0    0  0.64264076985E+01 -0.39240974735E+01 -0.41524318915E+01  0.85988340932E+01  0.51100000000E-03 0. -1.
        -11    1    4    4    0    0  0.18629407847E+02 -0.55429977728E+01 -0.15410777244E+02  0.24804671265E+02  0.51100000000E-03 0.  1.
         12    1    4    4    0    0  0.55202983871E+01  0.72095561636E+01 -0.11155323793E+02  0.14383763182E+02  0.00000000000E+00 0. -1.
</event>
<event>
 8    1  0.2994958E-010  0.9118800E+02  0.7816164E-02  0.1184000E+00
        -11   -1    0    0    0    0  0.00000000000E+00  0.00000000000E+00  0.45593999997E+02  0.45594000000E+02  0.51100000000E-03 0. -1.
         11   -1    0    0    0    0 -0.00000000000E+00 -0.00000000000E+00 -0.45593999997E+02  0.45594000000E+02  0.51100000000E-03 0.  1.
         23    2    1    2    0    0  0.00000000000E+00  0.00000000000E+00  0.71054273576E-14  0.91188000000E+02  0.91188000000E+02 0.  0.
    9900012    2    3    3    0    0  0.14161017711E+02 -0.23707496071E+02 -0.33481998078E+02  0.47787262819E+02  0.19999962497E+02 0.  0.
         12    1    3    3    0    0 -0.14161017711E+02  0.23707496071E+02  0.33481998078E+02  0.43400737181E+02  0.00000000000E+00 0. -1.
         11    1    4    4    0    0  0.98748539449E+01 -0.10376003304E-01 -0.11640708458E+02  0.15264957968E+02  0.51100000000E-03 0. -1.
        -11    1    4    4    0    0  0.13602255577E+01 -0.55056537700E+01 -0.50620313594E+01  0.76017497162E+01  0.51100000000E-03 0.  1.
         12    1    4    4    0    0  0.29259382084E+01 -0.18191466298E+02 -0.16779258261E+02  0.24920555135E+02  0.00000000000E+00 0. -1.
</event>
<event>
 8    1  0.2994958E-010  0.9118800E+02  0.7816164E-02  0.1184000E+00
        -11   -1    0    0    0    0  0.00000000000E+00  0.00000000000E+00  0.45593999997E+02  0.45594000000E+02  0.51100000000E-03 0.  1.
         11   -1    0    0    0    0 -0.00000000000E+00 -0.00000000000E+00 -0.45593999997E+02  0.45594000000E+02  0.51100000000E-03 0. -1.
         23    2    1    2    0    0  0.00000000000E+00  0.49960036108E-15  0.00000000000E+00  0.91188000000E+02  0.91188000000E+02 0.  0.
    9900012    2    3    3    0    0  0.39224526703E+02 -0.88399328523E-01 -0.18575579907E+02  0.47787268688E+02  0.19999989257E+02 0.  0.
        -12    1    3    3    0    0 -0.39224526703E+02  0.88399328523E-01  0.18575579907E+02  0.43400731312E+02  0.00000000000E+00 0.  1.
         11    1    4    4    0    0  0.15502553619E+02 -0.19458183921E+01 -0.64557599422E+01  0.16905390106E+02  0.51100000000E-03 0. -1.
        -11    1    4    4    0    0  0.87763054981E+01 -0.60849212608E+01 -0.12154639511E+01  0.10748356052E+02  0.51100000000E-03 0.  1.
         12    1    4    4    0    0  0.14945667586E+02  0.79423403243E+01 -0.10904356014E+02  0.20133522530E+02  0.00000000000E+00 0. -1.
</event>
<event>
 8    1  0.2994958E-010  0.9118800E+02  0.7816164E-02  0.1184000E+00
        -11   -1    0    0    0    0  0.00000000000E+00  0.00000000000E+00  0.45593999997E+02  0.45594000000E+02  0.51100000000E-03 0. -1.
         11   -1    0    0    0    0 -0.00000000000E+00 -0.00000000000E+00 -0.45593999997E+02  0.45594000000E+02  0.51100000000E-03 0.  1.
         23    2    1    2    0    0  0.00000000000E+00  0.00000000000E+00  0.00000000000E+00  0.91188000000E+02  0.91188000000E+02 0.  0.
    9900012    2    3    3    0    0  0.46073377807E+01 -0.27017099775E+02 -0.33652220971E+02  0.47787271689E+02  0.20000002937E+02 0.  0.
         12    1    3    3    0    0 -0.46073377807E+01  0.27017099775E+02  0.33652220971E+02  0.43400728311E+02  0.00000000000E+00 0. -1.
         11    1    4    4    0    0 -0.38148336873E+01 -0.76793332635E+00 -0.21710778493E+01  0.44560360124E+01  0.51100000000E-03 0. -1.
        -11    1    4    4    0    0 -0.67682905005E+00 -0.15105381201E+02 -0.19021967425E+02  0.24299503776E+02  0.51100000000E-03 0.  1.
        -12    1    4    4    0    0  0.90990005180E+01 -0.11143785248E+02 -0.12459175697E+02  0.19031731900E+02  0.00000000000E+00 0.  1.
</event>
<event>
 8    1  0.2994958E-010  0.9118800E+02  0.7816164E-02  0.1184000E+00
        -11   -1    0    0    0    0  0.00000000000E+00  0.00000000000E+00  0.45593999997E+02  0.45594000000E+02  0.51100000000E-03 0. -1.
         11   -1    0    0    0    0 -0.00000000000E+00 -0.00000000000E+00 -0.45593999997E+02  0.45594000000E+02  0.51100000000E-03 0.  1.
         23    2    1    2    0    0  0.00000000000E+00  0.00000000000E+00  0.00000000000E+00  0.91188000000E+02  0.91188000000E+02 0.  0.
    9900012    2    3    3    0    0 -0.14517772542E+02 -0.44906998029E+01  0.40653305235E+02  0.47787270388E+02  0.19999997009E+02 0.  0.
        -12    1    3    3    0    0  0.14517772542E+02  0.44906998029E+01 -0.40653305235E+02  0.43400729612E+02  0.00000000000E+00 0.  1.
         11    1    4    4    0    0 -0.70844833601E+01  0.18795304506E+01  0.28069588305E+02  0.29010762262E+02  0.51100000000E-03 0. -1.
        -11    1    4    4    0    0  0.19119347140E+01 -0.33113694045E-01  0.45012791254E+01  0.48906139587E+01  0.51100000000E-03 0.  1.
        -12    1    4    4    0    0 -0.93452238963E+01 -0.63371165595E+01  0.80824378046E+01  0.13885894167E+02  0.00000000000E+00 0.  1.
</event>
<event>
 8    1  0.2994958E-010  0.9118800E+02  0.7816164E-02  0.1184000E+00
        -11   -1    0    0    0    0  0.00000000000E+00  0.00000000000E+00  0.45593999997E+02  0.45594000000E+02  0.51100000000E-03 0. -1.
         11   -1    0    0    0    0 -0.00000000000E+00 -0.00000000000E+00 -0.45593999997E+02  0.45594000000E+02  0.51100000000E-03 0.  1.
         23    2    1    2    0    0  0.00000000000E+00  0.00000000000E+00  0.00000000000E+00  0.91188000000E+02  0.91188000000E+02 0.  0.
    9900012    2    3    3    0    0 -0.16228818403E+02 -0.98678676184E+01 -0.39024016342E+02  0.47787271785E+02  0.20000003379E+02 0.  0.
         12    1    3    3    0    0  0.16228818403E+02  0.98678676184E+01  0.39024016342E+02  0.43400728215E+02  0.00000000000E+00 0. -1.
         11    1    4    4    0    0 -0.85062746498E+00 -0.40439302412E+00  0.58227120494E+00  0.11073124308E+01  0.51100000000E-03 0. -1.
        -11    1    4    4    0    0 -0.18636504502E+02 -0.55366983749E+01 -0.33390447363E+02  0.38638016310E+02  0.51100000000E-03 0.  1.
        -12    1    4    4    0    0  0.32583135636E+01 -0.39267762194E+01 -0.62158401834E+01  0.80419430451E+01  0.00000000000E+00 0.  1.
</event>
<event>
 8    1  0.2994958E-010  0.9118800E+02  0.7816164E-02  0.1184000E+00
        -11   -1    0    0    0    0  0.00000000000E+00  0.00000000000E+00  0.45593999997E+02  0.45594000000E+02  0.51100000000E-03 0. -1.
         11   -1    0    0    0    0 -0.00000000000E+00 -0.00000000000E+00 -0.45593999997E+02  0.45594000000E+02  0.51100000000E-03 0.  1.
         23    2    1    2    0    0  0.00000000000E+00  0.00000000000E+00 -0.35527136788E-14  0.91188000000E+02  0.91188000000E+02 0.  0.
    9900012    2    3    3    0    0  0.36859178203E+01  0.33093202062E+02  0.27836620508E+02  0.47787268967E+02  0.19999990529E+02 0.  0.
        -12    1    3    3    0    0 -0.36859178203E+01 -0.33093202062E+02 -0.27836620508E+02  0.43400731033E+02  0.00000000000E+00 0.  1.
         11    1    4    4    0    0 -0.53154794775E+01  0.17648500932E+02  0.15615252960E+02  0.24156987240E+02  0.51100000000E-03 0. -1.
        -11    1    4    4    0    0  0.11337877940E+00  0.42592461332E+01  0.74236406723E+01  0.85594668913E+01  0.51100000000E-03 0.  1.
        -12    1    4    4    0    0  0.88880185183E+01  0.11185454996E+02  0.47977268761E+01  0.15070814836E+02  0.00000000000E+00 0.  1.
</event>
<event>
 8    1  0.2994958E-010  0.9118800E+02  0.7816164E-02  0.1184000E+00
        -11   -1    0    0    0    0  0.00000000000E+00  0.00000000000E+00  0.45593999997E+02  0.45594000000E+02  0.51100000000E-03 0. -1.
         11   -1    0    0    0    0 -0.00000000000E+00 -0.00000000000E+00 -0.45593999997E+02  0.45594000000E+02  0.51100000000E-03 0.  1.
         23    2    1    2    0    0 -0.71054273576E-14 -0.48572257327E-16  0.71054273576E-14  0.91188000000E+02  0.91188000000E+02 0.  0.
    9900012    2    3    3    0    0 -0.32571768207E+02  0.15415769687E-01  0.28682807941E+02  0.47787265062E+02  0.19999972724E+02 0.  0.
        -12    1    3    3    0    0  0.32571768207E+02 -0.15415769687E-01 -0.28682807941E+02  0.43400734938E+02  0.00000000000E+00 0.  1.
         11    1    4    4    0    0 -0.45284395807E+01 -0.14842514939E+01  0.62572597771E+01  0.78653078587E+01  0.51100000000E-03 0. -1.
        -11    1    4    4    0    0 -0.14254382747E+02 -0.62224602060E+01  0.17400152632E+02  0.23338203667E+02  0.51100000000E-03 0.  1.
         12    1    4    4    0    0 -0.13788945879E+02  0.77221274696E+01  0.50253955321E+01  0.16583753537E+02  0.00000000000E+00 0. -1.
</event>
<event>
 8    1  0.2994958E-010  0.9118800E+02  0.7816164E-02  0.1184000E+00
        -11   -1    0    0    0    0  0.00000000000E+00  0.00000000000E+00  0.45593999997E+02  0.45594000000E+02  0.51100000000E-03 0. -1.
         11   -1    0    0    0    0 -0.00000000000E+00 -0.00000000000E+00 -0.45593999997E+02  0.45594000000E+02  0.51100000000E-03 0.  1.
         23    2    1    2    0    0  0.00000000000E+00 -0.17763568394E-14  0.00000000000E+00  0.91188000000E+02  0.91188000000E+02 0.  0.
    9900012    2    3    3    0    0 -0.10627808607E+02  0.82125174496E+01 -0.41270176451E+02  0.47787271631E+02  0.20000002674E+02 0.  0.
         12    1    3    3    0    0  0.10627808607E+02 -0.82125174496E+01  0.41270176451E+02  0.43400728369E+02  0.00000000000E+00 0. -1.
         11    1    4    4    0    0 -0.62945023409E+01 -0.18586537703E+01 -0.19788183915E+02  0.20848203195E+02  0.51100000000E-03 0. -1.
        -11    1    4    4    0    0 -0.42480438740E+01 -0.26941923577E+00 -0.16352583870E+01  0.45598830833E+01  0.51100000000E-03 0.  1.
        -12    1    4    4    0    0 -0.85262392452E-01  0.10340590456E+02 -0.19846734149E+02  0.22379185352E+02  0.00000000000E+00 0.  1.
</event>
<event>
 8    1  0.2994958E-010  0.9118800E+02  0.7816164E-02  0.1184000E+00
        -11   -1    0    0    0    0  0.00000000000E+00  0.00000000000E+00  0.45593999997E+02  0.45594000000E+02  0.51100000000E-03 0. -1.
         11   -1    0    0    0    0 -0.00000000000E+00 -0.00000000000E+00 -0.45593999997E+02  0.45594000000E+02  0.51100000000E-03 0.  1.
         23    2    1    2    0    0  0.00000000000E+00 -0.55511151231E-15  0.00000000000E+00  0.91188000000E+02  0.91188000000E+02 0.  0.
    9900012    2    3    3    0    0 -0.23445175154E+02 -0.87156370265E+00 -0.36512852166E+02  0.47787259976E+02  0.19999949536E+02 0.  0.
         12    1    3    3    0    0  0.23445175154E+02  0.87156370265E+00  0.36512852166E+02  0.43400740024E+02  0.00000000000E+00 0. -1.
         11    1    4    4    0    0 -0.53428544718E+01  0.12190964664E+01 -0.21843353650E+01  0.58994585640E+01  0.51100000000E-03 0. -1.
        -11    1    4    4    0    0 -0.17356257917E+02 -0.70081240046E+01 -0.24107777322E+02  0.30521114308E+02  0.51100000000E-03 0.  1.
        -12    1    4    4    0    0 -0.74606276558E+00  0.49174638355E+01 -0.10220739479E+02  0.11366687104E+02  0.00000000000E+00 0.  1.
</event>
<event>
 8    1  0.2994958E-010  0.9118800E+02  0.7816164E-02  0.1184000E+00
        -11   -1    0    0    0    0  0.00000000000E+00  0.00000000000E+00  0.45593999997E+02  0.45594000000E+02  0.51100000000E-03 0.  1.
         11   -1    0    0    0    0 -0.00000000000E+00 -0.00000000000E+00 -0.45593999997E+02  0.45594000000E+02  0.51100000000E-03 0. -1.
         23    2    1    2    0    0  0.71054273576E-14  0.17763568394E-14  0.17763568394E-14  0.91188000000E+02  0.91188000000E+02 0.  0.
    9900012    2    3    3    0    0 -0.39806197211E+02 -0.11563222181E+02 -0.12860100723E+02  0.47787266893E+02  0.19999981072E+02 0.  0.
         12    1    3    3    0    0  0.39806197211E+02  0.11563222181E+02  0.12860100723E+02  0.43400733107E+02  0.00000000000E+00 0. -1.
         11    1    4    4    0    0 -0.13575689069E+02  0.45736763863E+01 -0.16532535757E+01  0.14420509597E+02  0.51100000000E-03 0. -1.
        -11    1    4    4    0    0 -0.89070246604E+01 -0.21595005803E+01 -0.30212151561E+01  0.96501954559E+01  0.51100000000E-03 0.  1.
        -12    1    4    4    0    0 -0.17323483481E+02 -0.13977397987E+02 -0.81856319915E+01  0.23716561840E+02  0.00000000000E+00 0.  1.
</event>
<event>
 8    1  0.4189784E-010  0.9118800E+02  0.7816164E-02  0.1184000E+00
        -11   -1    0    0    0    0  0.00000000000E+00  0.00000000000E+00  0.45593999997E+02  0.45594000000E+02  0.51100000000E-03 0. -1.
         11   -1    0    0    0    0 -0.00000000000E+00 -0.00000000000E+00 -0.45593999997E+02  0.45594000000E+02  0.51100000000E-03 0.  1.
         23    2    1    2    0    0  0.00000000000E+00  0.11102230246E-14  0.00000000000E+00  0.91188000000E+02  0.91188000000E+02 0.  0.
    9900012    2    3    3    0    0 -0.50891211603E+01 -0.39736288646E+00  0.43099487563E+02  0.47787275586E+02  0.20000020709E+02 0.  0.
        -12    1    3    3    0    0  0.50891211603E+01  0.39736288646E+00 -0.43099487563E+02  0.43400724414E+02  0.00000000000E+00 0.  1.
         11    1    4    4    0    0 -0.85111856473E+00  0.76416171135E+01  0.30743769293E+02  0.31690662119E+02  0.51100000000E-03 0. -1.
        -11    1    4    4    0    0 -0.15961985292E+01 -0.10391538120E+01  0.32934412988E+00  0.19329144333E+01  0.51100000000E-03 0.  1.
         12    1    4    4    0    0 -0.26418040663E+01 -0.69998261880E+01  0.12026374140E+02  0.14163699034E+02  0.00000000000E+00 0. -1.
</event>
<event>
 8    1  0.2994958E-010  0.9118800E+02  0.7816164E-02  0.1184000E+00
        -11   -1    0    0    0    0  0.00000000000E+00  0.00000000000E+00  0.45593999997E+02  0.45594000000E+02  0.51100000000E-03 0. -1.
         11   -1    0    0    0    0 -0.00000000000E+00 -0.00000000000E+00 -0.45593999997E+02  0.45594000000E+02  0.51100000000E-03 0.  1.
         23    2    1    2    0    0  0.00000000000E+00  0.00000000000E+00  0.00000000000E+00  0.91188000000E+02  0.91188000000E+02 0.  0.
    9900012    2    3    3    0    0 -0.17184219092E+02 -0.78211765621E+01 -0.39078831886E+02  0.47787270857E+02  0.19999999144E+02 0.  0.
         12    1    3    3    0    0  0.17184219092E+02  0.78211765621E+01  0.39078831886E+02  0.43400729143E+02  0.00000000000E+00 0. -1.
         11    1    4    4    0    0  0.24752587954E+01 -0.19475245732E+01 -0.31765937269E+00  0.31655435245E+01  0.51100000000E-03 0. -1.
        -11    1    4    4    0    0 -0.51490639571E+01  0.20174674320E+01 -0.83674737027E+01  0.10029838030E+02  0.51100000000E-03 0.  1.
         12    1    4    4    0    0 -0.14510413930E+02 -0.78911194209E+01 -0.30393698810E+02  0.34591889303E+02  0.00000000000E+00 0. -1.
</event>
<event>
 8    1  0.2994958E-010  0.9118800E+02  0.7816164E-02  0.1184000E+00
        -11   -1    0    0    0    0  0.00000000000E+00  0.00000000000E+00  0.45593999997E+02  0.45594000000E+02  0.51100000000E-03 0. -1.
         11   -1    0    0    0    0 -0.00000000000E+00 -0.00000000000E+00 -0.45593999997E+02  0.45594000000E+02  0.51100000000E-03 0.  1.
         23    2    1    2    0    0  0.00000000000E+00  0.00000000000E+00  0.00000000000E+00  0.91188000000E+02  0.91188000000E+02 0.  0.
    9900012    2    3    3    0    0 -0.27142512955E+01 -0.92717131338E+01 -0.42311840097E+02  0.47787266862E+02  0.19999980931E+02 0.  0.
         12    1    3    3    0    0  0.27142512955E+01  0.92717131338E+01  0.42311840097E+02  0.43400733138E+02  0.00000000000E+00 0. -1.
         11    1    4    4    0    0  0.46648015000E+00 -0.31100233733E+01 -0.30271611145E+02  0.30434524651E+02  0.51100000000E-03 0. -1.
        -11    1    4    4    0    0  0.24251799232E+01 -0.58733655487E+01 -0.88538558093E+01  0.10898104582E+02  0.51100000000E-03 0.  1.
        -12    1    4    4    0    0 -0.56059113687E+01 -0.28832421181E+00 -0.31863731422E+01  0.64546376293E+01  0.00000000000E+00 0.  1.
</event>
<event>
 8    1  0.2994958E-010  0.9118800E+02  0.7816164E-02  0.1184000E+00
        -11   -1    0    0    0    0  0.00000000000E+00  0.00000000000E+00  0.45593999997E+02  0.45594000000E+02  0.51100000000E-03 0. -1.
         11   -1    0    0    0    0 -0.00000000000E+00 -0.00000000000E+00 -0.45593999997E+02  0.45594000000E+02  0.51100000000E-03 0.  1.
         23    2    1    2    0    0 -0.35527136788E-14  0.00000000000E+00  0.00000000000E+00  0.91188000000E+02  0.91188000000E+02 0.  0.
    9900012    2    3    3    0    0 -0.26796210701E+02 -0.20115204966E+02 -0.27585601331E+02  0.47787265219E+02  0.19999973439E+02 0.  0.
         12    1    3    3    0    0  0.26796210701E+02  0.20115204966E+02  0.27585601331E+02  0.43400734781E+02  0.00000000000E+00 0. -1.
         11    1    4    4    0    0 -0.24229229025E+02 -0.12026316705E+02 -0.12693833735E+02  0.29880114588E+02  0.51100000000E-03 0. -1.
        -11    1    4    4    0    0 -0.16603207143E+01 -0.14412082612E-01 -0.38960318473E+01  0.42350840604E+01  0.51100000000E-03 0.  1.
        -12    1    4    4    0    0 -0.90666096143E+00 -0.80744761782E+01 -0.10995735749E+02  0.13672066570E+02  0.00000000000E+00 0.  1.
</event>
<event>
 8    1  0.2994958E-010  0.9118800E+02  0.7816164E-02  0.1184000E+00
        -11   -1    0    0    0    0  0.00000000000E+00  0.00000000000E+00  0.45593999997E+02  0.45594000000E+02  0.51100000000E-03 0. -1.
         11   -1    0    0    0    0 -0.00000000000E+00 -0.00000000000E+00 -0.45593999997E+02  0.45594000000E+02  0.51100000000E-03 0.  1.
         23    2    1    2    0    0  0.00000000000E+00  0.17763568394E-14  0.00000000000E+00  0.91188000000E+02  0.91188000000E+02 0.  0.
    9900012    2    3    3    0    0 -0.24048698128E+02  0.15327288224E+02 -0.32716317226E+02  0.47787273522E+02  0.20000011295E+02 0.  0.
         12    1    3    3    0    0  0.24048698128E+02 -0.15327288224E+02  0.32716317226E+02  0.43400726478E+02  0.00000000000E+00 0. -1.
         11    1    4    4    0    0 -0.12291263208E+02  0.38905918700E+00 -0.12620751051E+02  0.17621290408E+02  0.51100000000E-03 0. -1.
        -11    1    4    4    0    0 -0.55326336039E+01  0.12958955054E+02 -0.74637669961E+01  0.15945292995E+02  0.51100000000E-03 0.  1.
         12    1    4    4    0    0 -0.62248013166E+01  0.19792739837E+01 -0.12631799179E+02  0.14220690118E+02  0.00000000000E+00 0. -1.
</event>
<event>
 8    1  0.2994958E-010  0.9118800E+02  0.7816164E-02  0.1184000E+00
        -11   -1    0    0    0    0  0.00000000000E+00  0.00000000000E+00  0.45593999997E+02  0.45594000000E+02  0.51100000000E-03 0.  1.
         11   -1    0    0    0    0 -0.00000000000E+00 -0.00000000000E+00 -0.45593999997E+02  0.45594000000E+02  0.51100000000E-03 0. -1.
         23    2    1    2    0    0  0.71054273576E-14 -0.88817841970E-15 -0.35527136788E-14  0.91188000000E+02  0.91188000000E+02 0.  0.
    9900012    2    3    3    0    0  0.38897408635E+02  0.52849860444E+01  0.18511727901E+02  0.47787267911E+02  0.19999985713E+02 0.  0.
         12    1    3    3    0    0 -0.38897408635E+02 -0.52849860444E+01 -0.18511727901E+02  0.43400732089E+02  0.00000000000E+00 0. -1.
         11    1    4    4    0    0  0.48303806492E+01  0.38683607965E+01  0.42227330707E+01  0.74918800922E+01  0.51100000000E-03 0. -1.
        -11    1    4    4    0    0  0.34452426005E+02  0.40717528435E+01  0.14507806255E+02  0.37603527380E+02  0.51100000000E-03 0.  1.
         12    1    4    4    0    0 -0.38539801897E+00 -0.26551275957E+01 -0.21881142510E+00  0.26918604388E+01  0.00000000000E+00 0. -1.
</event>
<event>
 8    1  0.2994958E-010  0.9118800E+02  0.7816164E-02  0.1184000E+00
        -11   -1    0    0    0    0  0.00000000000E+00  0.00000000000E+00  0.45593999997E+02  0.45594000000E+02  0.51100000000E-03 0. -1.
         11   -1    0    0    0    0 -0.00000000000E+00 -0.00000000000E+00 -0.45593999997E+02  0.45594000000E+02  0.51100000000E-03 0.  1.
         23    2    1    2    0    0  0.00000000000E+00  0.00000000000E+00  0.00000000000E+00  0.91188000000E+02  0.91188000000E+02 0.  0.
    9900012    2    3    3    0    0  0.24447239088E+02 -0.32626124968E+02 -0.14882600570E+02  0.47787270407E+02  0.19999997093E+02 0.  0.
         12    1    3    3    0    0 -0.24447239088E+02  0.32626124968E+02  0.14882600570E+02  0.43400729593E+02  0.00000000000E+00 0. -1.
         11    1    4    4    0    0  0.74256149079E+01 -0.15503656004E+02 -0.11148974438E+02  0.20489088255E+02  0.51100000000E-03 0. -1.
        -11    1    4    4    0    0  0.80999704008E+01 -0.15929426189E+02 -0.39189742268E+01  0.18295204248E+02  0.51100000000E-03 0.  1.
         12    1    4    4    0    0  0.89216537798E+01 -0.11930427754E+01  0.18534809434E+00  0.90029779043E+01  0.00000000000E+00 0. -1.
</event>
<event>
 8    1  0.2994958E-010  0.9118800E+02  0.7816164E-02  0.1184000E+00
        -11   -1    0    0    0    0  0.00000000000E+00  0.00000000000E+00  0.45593999997E+02  0.45594000000E+02  0.51100000000E-03 0. -1.
         11   -1    0    0    0    0 -0.00000000000E+00 -0.00000000000E+00 -0.45593999997E+02  0.45594000000E+02  0.51100000000E-03 0.  1.
         23    2    1    2    0    0 -0.17763568394E-14  0.00000000000E+00  0.00000000000E+00  0.91188000000E+02  0.91188000000E+02 0.  0.
    9900012    2    3    3    0    0  0.90971573580E+01 -0.13866961283E+02 -0.40107010886E+02  0.47787271787E+02  0.20000003385E+02 0.  0.
         12    1    3    3    0    0 -0.90971573580E+01  0.13866961283E+02  0.40107010886E+02  0.43400728213E+02  0.00000000000E+00 0. -1.
         11    1    4    4    0    0  0.39275840385E+01 -0.68273194626E+00 -0.45418680876E+01  0.60432280510E+01  0.51100000000E-03 0. -1.
        -11    1    4    4    0    0 -0.34574001049E+01 -0.74398554932E+01 -0.53339209582E+01  0.97854881480E+01  0.51100000000E-03 0.  1.
        -12    1    4    4    0    0  0.86269734243E+01 -0.57443738440E+01 -0.30231221840E+02  0.31958555588E+02  0.00000000000E+00 0.  1.
</event>
<event>
 8    1  0.2994958E-010  0.9118800E+02  0.7816164E-02  0.1184000E+00
        -11   -1    0    0    0    0  0.00000000000E+00  0.00000000000E+00  0.45593999997E+02  0.45594000000E+02  0.51100000000E-03 0. -1.
         11   -1    0    0    0    0 -0.00000000000E+00 -0.00000000000E+00 -0.45593999997E+02  0.45594000000E+02  0.51100000000E-03 0.  1.
         23    2    1    2    0    0  0.00000000000E+00  0.00000000000E+00  0.00000000000E+00  0.91188000000E+02  0.91188000000E+02 0.  0.
    9900012    2    3    3    0    0  0.26691506708E+02 -0.21602915571E+02  0.26542438148E+02  0.47787268274E+02  0.19999987367E+02 0.  0.
        -12    1    3    3    0    0 -0.26691506708E+02  0.21602915571E+02 -0.26542438148E+02  0.43400731726E+02  0.00000000000E+00 0.  1.
         11    1    4    4    0    0  0.18496471767E+01 -0.10615973645E+01  0.50516937362E+01  0.54834107550E+01  0.51100000000E-03 0. -1.
        -11    1    4    4    0    0  0.42119137780E+01 -0.73018429011E+01  0.14570046503E+02  0.16832806741E+02  0.51100000000E-03 0.  1.
        -12    1    4    4    0    0  0.20629945754E+02 -0.13239475305E+02  0.69206979092E+01  0.25471050777E+02  0.00000000000E+00 0.  1.
</event>
<event>
 8    1  0.2994958E-010  0.9118800E+02  0.7816164E-02  0.1184000E+00
        -11   -1    0    0    0    0  0.00000000000E+00  0.00000000000E+00  0.45593999997E+02  0.45594000000E+02  0.51100000000E-03 0.  1.
         11   -1    0    0    0    0 -0.00000000000E+00 -0.00000000000E+00 -0.45593999997E+02  0.45594000000E+02  0.51100000000E-03 0. -1.
         23    2    1    2    0    0  0.00000000000E+00  0.00000000000E+00 -0.17763568394E-14  0.91188000000E+02  0.91188000000E+02 0.  0.
    9900012    2    3    3    0    0 -0.39787908707E+02  0.14896477898E+02  0.88679682695E+01  0.47787267353E+02  0.19999983170E+02 0.  0.
        -12    1    3    3    0    0  0.39787908707E+02 -0.14896477898E+02 -0.88679682695E+01  0.43400732647E+02  0.00000000000E+00 0.  1.
         11    1    4    4    0    0 -0.11222848556E+02  0.75836982934E+01  0.65152482662E+01  0.15030411496E+02  0.51100000000E-03 0. -1.
        -11    1    4    4    0    0 -0.10177117566E+02  0.97024176193E+01 -0.36403807381E-01  0.14061008325E+02  0.51100000000E-03 0.  1.
         12    1    4    4    0    0 -0.18387942585E+02 -0.23896380149E+01  0.23891238106E+01  0.18695847532E+02  0.00000000000E+00 0. -1.
</event>
<event>
 8    1  0.2994958E-010  0.9118800E+02  0.7816164E-02  0.1184000E+00
        -11   -1    0    0    0    0  0.00000000000E+00  0.00000000000E+00  0.45593999997E+02  0.45594000000E+02  0.51100000000E-03 0. -1.
         11   -1    0    0    0    0 -0.00000000000E+00 -0.00000000000E+00 -0.45593999997E+02  0.45594000000E+02  0.51100000000E-03 0.  1.
         23    2    1    2    0    0  0.00000000000E+00  0.00000000000E+00 -0.71054273576E-14  0.91188000000E+02  0.91188000000E+02 0.  0.
    9900012    2    3    3    0    0 -0.13385860283E+02 -0.49220949836E+01  0.40990414630E+02  0.47787281503E+02  0.20000047685E+02 0.  0.
        -12    1    3    3    0    0  0.13385860283E+02  0.49220949836E+01 -0.40990414630E+02  0.43400718497E+02  0.00000000000E+00 0.  1.
         11    1    4    4    0    0 -0.55617468453E+01 -0.90703374493E+01  0.17002658451E+02  0.20057279080E+02  0.51100000000E-03 0. -1.
        -11    1    4    4    0    0 -0.70530752745E+00 -0.34296487078E+01  0.55287905904E+01  0.65442703658E+01  0.51100000000E-03 0.  1.
        -12    1    4    4    0    0 -0.71188059102E+01  0.75778911735E+01  0.18458965588E+02  0.21185732057E+02  0.00000000000E+00 0.  1.
</event>
<event>
 8    1  0.2994958E-010  0.9118800E+02  0.7816164E-02  0.1184000E+00
        -11   -1    0    0    0    0  0.00000000000E+00  0.00000000000E+00  0.45593999997E+02  0.45594000000E+02  0.51100000000E-03 0. -1.
         11   -1    0    0    0    0 -0.00000000000E+00 -0.00000000000E+00 -0.45593999997E+02  0.45594000000E+02  0.51100000000E-03 0.  1.
         23    2    1    2    0    0  0.00000000000E+00  0.00000000000E+00  0.00000000000E+00  0.91188000000E+02  0.91188000000E+02 0.  0.
    9900012    2    3    3    0    0 -0.23360150100E+02  0.18024524808E+02  0.31828338169E+02  0.47787271690E+02  0.20000002942E+02 0.  0.
        -12    1    3    3    0    0  0.23360150100E+02 -0.18024524808E+02 -0.31828338169E+02  0.43400728310E+02  0.00000000000E+00 0.  1.
         11    1    4    4    0    0 -0.10063275292E+02  0.15811448432E+01  0.92620944447E+01  0.13767930940E+02  0.51100000000E-03 0. -1.
        -11    1    4    4    0    0 -0.85287110557E+01  0.18565186211E+01  0.31700225905E+01  0.92862595887E+01  0.51100000000E-03 0.  1.
         12    1    4    4    0    0 -0.47681637526E+01  0.14586861344E+02  0.19396221134E+02  0.24733081161E+02  0.00000000000E+00 0. -1.
</event>
<event>
 8    1  0.2994958E-010  0.9118800E+02  0.7816164E-02  0.1184000E+00
        -11   -1    0    0    0    0  0.00000000000E+00  0.00000000000E+00  0.45593999997E+02  0.45594000000E+02  0.51100000000E-03 0. -1.
         11   -1    0    0    0    0 -0.00000000000E+00 -0.00000000000E+00 -0.45593999997E+02  0.45594000000E+02  0.51100000000E-03 0.  1.
         23    2    1    2    0    0  0.00000000000E+00  0.00000000000E+00 -0.71054273576E-14  0.91188000000E+02  0.91188000000E+02 0.  0.
    9900012    2    3    3    0    0 -0.34334605640E+01 -0.11530334261E+02  0.41699952304E+02  0.47787270953E+02  0.19999999584E+02 0.  0.
        -12    1    3    3    0    0  0.34334605640E+01  0.11530334261E+02 -0.41699952304E+02  0.43400729047E+02  0.00000000000E+00 0.  1.
         11    1    4    4    0    0 -0.20607252432E+01 -0.19224204395E+01  0.54012922770E+01  0.60923105139E+01  0.51100000000E-03 0.  1.
        -11    1    4    4    0    0  0.32542692615E+01  0.57380103162E+00  0.26854492105E+02  0.27057037209E+02  0.51100000000E-03 0. -1.
         12    1    4    4    0    0 -0.46270045822E+01 -0.10181714854E+02  0.94441679224E+01  0.14637923231E+02  0.00000000000E+00 0. -1.
</event>
<event>
 8    1  0.2994958E-010  0.9118800E+02  0.7816164E-02  0.1184000E+00
        -11   -1    0    0    0    0  0.00000000000E+00  0.00000000000E+00  0.45593999997E+02  0.45594000000E+02  0.51100000000E-03 0. -1.
         11   -1    0    0    0    0 -0.00000000000E+00 -0.00000000000E+00 -0.45593999997E+02  0.45594000000E+02  0.51100000000E-03 0.  1.
         23    2    1    2    0    0 -0.35527136788E-14  0.00000000000E+00 -0.88817841970E-15  0.91188000000E+02  0.91188000000E+02 0.  0.
    9900012    2    3    3    0    0 -0.20597558725E+02  0.37424771179E+02  0.76648924773E+01  0.47787268440E+02  0.19999988125E+02 0.  0.
        -12    1    3    3    0    0  0.20597558725E+02 -0.37424771179E+02 -0.76648924773E+01  0.43400731560E+02  0.00000000000E+00 0.  1.
         11    1    4    4    0    0 -0.12117466944E+02  0.16528232454E+02  0.62246415822E+01  0.21418721631E+02  0.51100000000E-03 0. -1.
        -11    1    4    4    0    0 -0.40899451209E+01  0.19177057012E+02  0.52588326488E+01  0.20301292762E+02  0.51100000000E-03 0.  1.
         12    1    4    4    0    0 -0.43901466605E+01  0.17194817128E+01 -0.38185817537E+01  0.60672540470E+01  0.00000000000E+00 0. -1.
</event>
<event>
 8    1  0.2994958E-010  0.9118800E+02  0.7816164E-02  0.1184000E+00
        -11   -1    0    0    0    0  0.00000000000E+00  0.00000000000E+00  0.45593999997E+02  0.45594000000E+02  0.51100000000E-03 0. -1.
         11   -1    0    0    0    0 -0.00000000000E+00 -0.00000000000E+00 -0.45593999997E+02  0.45594000000E+02  0.51100000000E-03 0.  1.
         23    2    1    2    0    0 -0.22204460493E-15  0.00000000000E+00  0.00000000000E+00  0.91188000000E+02  0.91188000000E+02 0.  0.
    9900012    2    3    3    0    0  0.14551876653E+01 -0.16226624388E+02  0.40226886402E+02  0.47787270746E+02  0.19999998639E+02 0.  0.
        -12    1    3    3    0    0 -0.14551876653E+01  0.16226624388E+02 -0.40226886402E+02  0.43400729254E+02  0.00000000000E+00 0.  1.
         11    1    4    4    0    0 -0.85664571191E+00 -0.10051994531E+02  0.13862559270E+02  0.17144882201E+02  0.51100000000E-03 0. -1.
        -11    1    4    4    0    0 -0.49415682358E+01 -0.66255353172E+01  0.12438224668E+02  0.14934063346E+02  0.51100000000E-03 0.  1.
        -12    1    4    4    0    0  0.72534016130E+01  0.45090546045E+00  0.13926102465E+02  0.15708325199E+02  0.00000000000E+00 0.  1.
</event>
<event>
 8    1  0.2994958E-010  0.9118800E+02  0.7816164E-02  0.1184000E+00
        -11   -1    0    0    0    0  0.00000000000E+00  0.00000000000E+00  0.45593999997E+02  0.45594000000E+02  0.51100000000E-03 0. -1.
         11   -1    0    0    0    0 -0.00000000000E+00 -0.00000000000E+00 -0.45593999997E+02  0.45594000000E+02  0.51100000000E-03 0.  1.
         23    2    1    2    0    0  0.00000000000E+00  0.00000000000E+00  0.00000000000E+00  0.91188000000E+02  0.91188000000E+02 0.  0.
    9900012    2    3    3    0    0  0.15640993827E+02 -0.36850275375E+02 -0.16764223453E+02  0.47787277989E+02  0.20000031661E+02 0.  0.
        -12    1    3    3    0    0 -0.15640993827E+02  0.36850275375E+02  0.16764223453E+02  0.43400722011E+02  0.00000000000E+00 0.  1.
         11    1    4    4    0    0  0.90122452409E+00 -0.15397098911E+02 -0.43244280917E+01  0.16018225217E+02  0.51100000000E-03 0. -1.
        -11    1    4    4    0    0  0.49105066834E+01 -0.11829140665E+02 -0.12662997353E+02  0.18010917439E+02  0.51100000000E-03 0.  1.
         12    1    4    4    0    0  0.98292626192E+01 -0.96240357994E+01  0.22320199165E+00  0.13758135333E+02  0.00000000000E+00 0. -1.
</event>
<event>
 8    1  0.2994958E-010  0.9118800E+02  0.7816164E-02  0.1184000E+00
        -11   -1    0    0    0    0  0.00000000000E+00  0.00000000000E+00  0.45593999997E+02  0.45594000000E+02  0.51100000000E-03 0. -1.
         11   -1    0    0    0    0 -0.00000000000E+00 -0.00000000000E+00 -0.45593999997E+02  0.45594000000E+02  0.51100000000E-03 0.  1.
         23    2    1    2    0    0  0.00000000000E+00  0.17763568394E-14  0.00000000000E+00  0.91188000000E+02  0.91188000000E+02 0.  0.
    9900012    2    3    3    0    0  0.12867382311E+02  0.80232938617E+01  0.40665469894E+02  0.47787271739E+02  0.20000003166E+02 0.  0.
        -12    1    3    3    0    0 -0.12867382311E+02 -0.80232938617E+01 -0.40665469894E+02  0.43400728261E+02  0.00000000000E+00 0.  1.
         11    1    4    4    0    0  0.69305698150E+01 -0.21570419724E+01  0.17851694362E+02  0.19270926804E+02  0.51100000000E-03 0. -1.
        -11    1    4    4    0    0  0.74243733368E+01  0.91411640086E+01  0.23724166663E+02  0.26486190421E+02  0.51100000000E-03 0.  1.
        -12    1    4    4    0    0 -0.14875608406E+01  0.10391718254E+01 -0.91039113199E+00  0.20301545139E+01  0.00000000000E+00 0.  1.
</event>
<event>
 8    1  0.2994958E-010  0.9118800E+02  0.7816164E-02  0.1184000E+00
        -11   -1    0    0    0    0  0.00000000000E+00  0.00000000000E+00  0.45593999997E+02  0.45594000000E+02  0.51100000000E-03 0. -1.
         11   -1    0    0    0    0 -0.00000000000E+00 -0.00000000000E+00 -0.45593999997E+02  0.45594000000E+02  0.51100000000E-03 0.  1.
         23    2    1    2    0    0  0.00000000000E+00  0.71054273576E-14  0.00000000000E+00  0.91188000000E+02  0.91188000000E+02 0.  0.
    9900012    2    3    3    0    0 -0.27473557495E+02 -0.32936565757E+02 -0.66339758498E+01  0.47787270042E+02  0.19999995430E+02 0.  0.
         12    1    3    3    0    0  0.27473557495E+02  0.32936565757E+02  0.66339758498E+01  0.43400729958E+02  0.00000000000E+00 0. -1.
         11    1    4    4    0    0 -0.18108379051E+02 -0.14962108060E+02 -0.24742856762E+01  0.23619910231E+02  0.51100000000E-03 0. -1.
        -11    1    4    4    0    0 -0.12294082360E+02 -0.15711278588E+02 -0.44982323456E+01  0.20450497071E+02  0.51100000000E-03 0.  1.
         12    1    4    4    0    0  0.29289039161E+01 -0.22631791092E+01  0.33854217195E+00  0.37168627405E+01  0.00000000000E+00 0. -1.
</event>
<event>
 8    1  0.2994958E-010  0.9118800E+02  0.7816164E-02  0.1184000E+00
        -11   -1    0    0    0    0  0.00000000000E+00  0.00000000000E+00  0.45593999997E+02  0.45594000000E+02  0.51100000000E-03 0. -1.
         11   -1    0    0    0    0 -0.00000000000E+00 -0.00000000000E+00 -0.45593999997E+02  0.45594000000E+02  0.51100000000E-03 0.  1.
         23    2    1    2    0    0  0.00000000000E+00  0.00000000000E+00  0.00000000000E+00  0.91188000000E+02  0.91188000000E+02 0.  0.
    9900012    2    3    3    0    0 -0.96199358294E+01 -0.16118139616E+02 -0.39131633397E+02  0.47787282006E+02  0.20000049979E+02 0.  0.
         12    1    3    3    0    0  0.96199358294E+01  0.16118139616E+02  0.39131633397E+02  0.43400717994E+02  0.00000000000E+00 0. -1.
         11    1    4    4    0    0 -0.26280507011E+00  0.61621080860E+00  0.11126723366E+01  0.12987772154E+01  0.51100000000E-03 0. -1.
        -11    1    4    4    0    0  0.31297641675E+01 -0.40458274803E+01 -0.12707091020E+02  0.13697967229E+02  0.51100000000E-03 0.  1.
        -12    1    4    4    0    0 -0.12486894927E+02 -0.12688522944E+02 -0.27537214714E+02  0.32790537562E+02  0.00000000000E+00 0.  1.
</event>
<event>
 8    1  0.2994958E-010  0.9118800E+02  0.7816164E-02  0.1184000E+00
        -11   -1    0    0    0    0  0.00000000000E+00  0.00000000000E+00  0.45593999997E+02  0.45594000000E+02  0.51100000000E-03 0. -1.
         11   -1    0    0    0    0 -0.00000000000E+00 -0.00000000000E+00 -0.45593999997E+02  0.45594000000E+02  0.51100000000E-03 0.  1.
         23    2    1    2    0    0  0.00000000000E+00  0.00000000000E+00  0.35527136788E-14  0.91188000000E+02  0.91188000000E+02 0.  0.
    9900012    2    3    3    0    0 -0.96778551384E+01 -0.30075074172E+02  0.29756551332E+02  0.47787270585E+02  0.19999997907E+02 0.  0.
        -12    1    3    3    0    0  0.96778551384E+01  0.30075074172E+02 -0.29756551332E+02  0.43400729415E+02  0.00000000000E+00 0.  1.
         11    1    4    4    0    0 -0.80181599966E+01 -0.98586713265E+01  0.16027318109E+02  0.20453831331E+02  0.51100000000E-03 0. -1.
        -11    1    4    4    0    0  0.13837493475E+01  0.96551327144E+00  0.28873684191E+01  0.33442300732E+01  0.51100000000E-03 0.  1.
         12    1    4    4    0    0 -0.30434444893E+01 -0.21181916117E+02  0.10841864803E+02  0.23989209182E+02  0.00000000000E+00 0. -1.
</event>
<event>
 8    1  0.2994958E-010  0.9118800E+02  0.7816164E-02  0.1184000E+00
        -11   -1    0    0    0    0  0.00000000000E+00  0.00000000000E+00  0.45593999997E+02  0.45594000000E+02  0.51100000000E-03 0.  1.
         11   -1    0    0    0    0 -0.00000000000E+00 -0.00000000000E+00 -0.45593999997E+02  0.45594000000E+02  0.51100000000E-03 0. -1.
         23    2    1    2    0    0  0.00000000000E+00  0.00000000000E+00  0.00000000000E+00  0.91188000000E+02  0.91188000000E+02 0.  0.
    9900012    2    3    3    0    0 -0.34576312001E+02 -0.94541653806E+01  0.24468762357E+02  0.47787275054E+02  0.20000018280E+02 0.  0.
        -12    1    3    3    0    0  0.34576312001E+02  0.94541653806E+01 -0.24468762357E+02  0.43400724946E+02  0.00000000000E+00 0.  1.
         11    1    4    4    0    0 -0.25330948690E+01  0.11567403470E+01  0.84005001277E+00  0.29086598513E+01  0.51100000000E-03 0. -1.
        -11    1    4    4    0    0 -0.13727315533E+02  0.13607777214E+01  0.17248156280E+02  0.22085963938E+02  0.51100000000E-03 0.  1.
         12    1    4    4    0    0 -0.18315901599E+02 -0.11971683449E+02  0.63805560638E+01  0.22792651264E+02  0.00000000000E+00 0. -1.
</event>
<event>
 8    1  0.2994958E-010  0.9118800E+02  0.7816164E-02  0.1184000E+00
        -11   -1    0    0    0    0  0.00000000000E+00  0.00000000000E+00  0.45593999997E+02  0.45594000000E+02  0.51100000000E-03 0.  1.
         11   -1    0    0    0    0 -0.00000000000E+00 -0.00000000000E+00 -0.45593999997E+02  0.45594000000E+02  0.51100000000E-03 0. -1.
         23    2    1    2    0    0  0.00000000000E+00  0.00000000000E+00  0.00000000000E+00  0.91188000000E+02  0.91188000000E+02 0.  0.
    9900012    2    3    3    0    0 -0.39253778421E+02  0.35646549582E+01 -0.18167475879E+02  0.47787273450E+02  0.20000010967E+02 0.  0.
         12    1    3    3    0    0  0.39253778421E+02 -0.35646549582E+01  0.18167475879E+02  0.43400726550E+02  0.00000000000E+00 0. -1.
         11    1    4    4    0    0 -0.38046404866E+01 -0.42751973526E+01 -0.59385174683E+01  0.82473384567E+01  0.51100000000E-03 0. -1.
        -11    1    4    4    0    0 -0.20303874636E+01  0.27273566524E+01 -0.28999431305E+01  0.44688497383E+01  0.51100000000E-03 0.  1.
        -12    1    4    4    0    0 -0.33418750470E+02  0.51124956584E+01 -0.93290152802E+01  0.35071085255E+02  0.00000000000E+00 0.  1.
</event>
<event>
 8    1  0.2994958E-010  0.9118800E+02  0.7816164E-02  0.1184000E+00
        -11   -1    0    0    0    0  0.00000000000E+00  0.00000000000E+00  0.45593999997E+02  0.45594000000E+02  0.51100000000E-03 0. -1.
         11   -1    0    0    0    0 -0.00000000000E+00 -0.00000000000E+00 -0.45593999997E+02  0.45594000000E+02  0.51100000000E-03 0.  1.
         23    2    1    2    0    0  0.00000000000E+00 -0.17763568394E-14  0.00000000000E+00  0.91188000000E+02  0.91188000000E+02 0.  0.
    9900012    2    3    3    0    0  0.95338953091E+01 -0.78515771435E+01 -0.41606256798E+02  0.47787273876E+02  0.20000012909E+02 0.  0.
         12    1    3    3    0    0 -0.95338953091E+01  0.78515771435E+01  0.41606256798E+02  0.43400726124E+02  0.00000000000E+00 0. -1.
         11    1    4    4    0    0  0.25055859128E+01 -0.62472760620E+01 -0.28526505903E+01  0.73105427030E+01  0.51100000000E-03 0. -1.
        -11    1    4    4    0    0  0.24359898413E+01  0.15390342380E+01 -0.25495276941E+01  0.38474361095E+01  0.51100000000E-03 0.  1.
        -12    1    4    4    0    0  0.45923195551E+01 -0.31433353195E+01 -0.36204078513E+02  0.36629295063E+02  0.00000000000E+00 0.  1.
</event>
<event>
 8    1  0.2994958E-010  0.9118800E+02  0.7816164E-02  0.1184000E+00
        -11   -1    0    0    0    0  0.00000000000E+00  0.00000000000E+00  0.45593999997E+02  0.45594000000E+02  0.51100000000E-03 0. -1.
         11   -1    0    0    0    0 -0.00000000000E+00 -0.00000000000E+00 -0.45593999997E+02  0.45594000000E+02  0.51100000000E-03 0.  1.
         23    2    1    2    0    0  0.71054273576E-14 -0.35527136788E-14 -0.35527136788E-14  0.91188000000E+02  0.91188000000E+02 0.  0.
    9900012    2    3    3    0    0  0.27864447752E+02 -0.21398844176E+02 -0.25481071839E+02  0.47787274169E+02  0.20000014246E+02 0.  0.
         12    1    3    3    0    0 -0.27864447752E+02  0.21398844176E+02  0.25481071839E+02  0.43400725831E+02  0.00000000000E+00 0. -1.
         11    1    4    4    0    0  0.11551992622E+02 -0.18230727758E+02 -0.13366183221E+02  0.25386272319E+02  0.51100000000E-03 0.  1.
        -11    1    4    4    0    0  0.49578995496E+01 -0.30099050103E+01 -0.53316705329E-02  0.58000280001E+01  0.51100000000E-03 0. -1.
        -12    1    4    4    0    0  0.11354555581E+02 -0.15821140792E+00 -0.12109556948E+02  0.16600973850E+02  0.00000000000E+00 0.  1.
</event>
<event>
 8    1  0.2994958E-010  0.9118800E+02  0.7816164E-02  0.1184000E+00
        -11   -1    0    0    0    0  0.00000000000E+00  0.00000000000E+00  0.45593999997E+02  0.45594000000E+02  0.51100000000E-03 0. -1.
         11   -1    0    0    0    0 -0.00000000000E+00 -0.00000000000E+00 -0.45593999997E+02  0.45594000000E+02  0.51100000000E-03 0.  1.
         23    2    1    2    0    0  0.00000000000E+00 -0.35527136788E-14 -0.71054273576E-14  0.91188000000E+02  0.91188000000E+02 0.  0.
    9900012    2    3    3    0    0  0.16222913987E+02  0.21546058408E+02 -0.34003064000E+02  0.47787263457E+02  0.19999965404E+02 0.  0.
         12    1    3    3    0    0 -0.16222913987E+02 -0.21546058408E+02  0.34003064000E+02  0.43400736543E+02  0.00000000000E+00 0. -1.
         11    1    4    4    0    0 -0.76703984889E+00  0.10489930228E+02 -0.19893504241E+02  0.22502855320E+02  0.51100000000E-03 0. -1.
        -11    1    4    4    0    0  0.18754662520E+01  0.18256624596E+01 -0.43136911747E+01  0.50456267094E+01  0.51100000000E-03 0.  1.
        -12    1    4    4    0    0  0.15114487583E+02  0.92304657207E+01 -0.97958685839E+01  0.20238781427E+02  0.00000000000E+00 0.  1.
</event>
<event>
 8    1  0.2994958E-010  0.9118800E+02  0.7816164E-02  0.1184000E+00
        -11   -1    0    0    0    0  0.00000000000E+00  0.00000000000E+00  0.45593999997E+02  0.45594000000E+02  0.51100000000E-03 0. -1.
         11   -1    0    0    0    0 -0.00000000000E+00 -0.00000000000E+00 -0.45593999997E+02  0.45594000000E+02  0.51100000000E-03 0.  1.
         23    2    1    2    0    0  0.00000000000E+00  0.00000000000E+00 -0.71054273576E-14  0.91188000000E+02  0.91188000000E+02 0.  0.
    9900012    2    3    3    0    0  0.34076786649E+01  0.12178196774E+02  0.41517498599E+02  0.47787269126E+02  0.19999991252E+02 0.  0.
        -12    1    3    3    0    0 -0.34076786649E+01 -0.12178196774E+02 -0.41517498599E+02  0.43400730874E+02  0.00000000000E+00 0.  1.
         11    1    4    4    0    0 -0.36000761236E+01  0.28315152230E+01  0.15811742124E+02  0.16461750083E+02  0.51100000000E-03 0. -1.
        -11    1    4    4    0    0 -0.37808017458E+01  0.17774573378E+01  0.32699977581E+01  0.53053465512E+01  0.51100000000E-03 0.  1.
        -12    1    4    4    0    0  0.10788556534E+02  0.75692242128E+01  0.22435758717E+02  0.26020172491E+02  0.00000000000E+00 0.  1.
</event>
<event>
 8    1  0.2994958E-010  0.9118800E+02  0.7816164E-02  0.1184000E+00
        -11   -1    0    0    0    0  0.00000000000E+00  0.00000000000E+00  0.45593999997E+02  0.45594000000E+02  0.51100000000E-03 0.  1.
         11   -1    0    0    0    0 -0.00000000000E+00 -0.00000000000E+00 -0.45593999997E+02  0.45594000000E+02  0.51100000000E-03 0. -1.
         23    2    1    2    0    0  0.00000000000E+00  0.00000000000E+00  0.00000000000E+00  0.91188000000E+02  0.91188000000E+02 0.  0.
    9900012    2    3    3    0    0 -0.29352938713E+02 -0.14187941187E+02  0.28648397821E+02  0.47787269777E+02  0.19999994220E+02 0.  0.
        -12    1    3    3    0    0  0.29352938713E+02  0.14187941187E+02 -0.28648397821E+02  0.43400730223E+02  0.00000000000E+00 0.  1.
         11    1    4    4    0    0 -0.14583726578E+01 -0.33349616816E+01  0.10373486843E+02  0.10993545824E+02  0.51100000000E-03 0.  1.
        -11    1    4    4    0    0 -0.32777482558E+01 -0.26668697203E+01 -0.11565652306E+01  0.43810353944E+01  0.51100000000E-03 0. -1.
        -12    1    4    4    0    0 -0.24616817799E+02 -0.81861097846E+01  0.19431476208E+02  0.32412688559E+02  0.00000000000E+00 0.  1.
</event>
<event>
 8    1  0.2994958E-010  0.9118800E+02  0.7816164E-02  0.1184000E+00
        -11   -1    0    0    0    0  0.00000000000E+00  0.00000000000E+00  0.45593999997E+02  0.45594000000E+02  0.51100000000E-03 0. -1.
         11   -1    0    0    0    0 -0.00000000000E+00 -0.00000000000E+00 -0.45593999997E+02  0.45594000000E+02  0.51100000000E-03 0.  1.
         23    2    1    2    0    0  0.35527136788E-14  0.00000000000E+00  0.00000000000E+00  0.91188000000E+02  0.91188000000E+02 0.  0.
    9900012    2    3    3    0    0 -0.16379561394E+02  0.26098352034E+02  0.30564855849E+02  0.47787257801E+02  0.19999939619E+02 0.  0.
        -12    1    3    3    0    0  0.16379561394E+02 -0.26098352034E+02 -0.30564855849E+02  0.43400742199E+02  0.00000000000E+00 0.  1.
         11    1    4    4    0    0 -0.89273193567E+01  0.50684567139E+01  0.73799628142E+01  0.12643185348E+02  0.51100000000E-03 0. -1.
        -11    1    4    4    0    0 -0.46094794292E+01  0.11043657213E+01  0.42162835765E+00  0.47586442384E+01  0.51100000000E-03 0.  1.
        -12    1    4    4    0    0 -0.28427626084E+01  0.19925529599E+02  0.22763264677E+02  0.30385428214E+02  0.00000000000E+00 0.  1.
</event>
<event>
 8    1  0.2994958E-010  0.9118800E+02  0.7816164E-02  0.1184000E+00
        -11   -1    0    0    0    0  0.00000000000E+00  0.00000000000E+00  0.45593999997E+02  0.45594000000E+02  0.51100000000E-03 0.  1.
         11   -1    0    0    0    0 -0.00000000000E+00 -0.00000000000E+00 -0.45593999997E+02  0.45594000000E+02  0.51100000000E-03 0. -1.
         23    2    1    2    0    0  0.35527136788E-14  0.00000000000E+00  0.00000000000E+00  0.91188000000E+02  0.91188000000E+02 0.  0.
    9900012    2    3    3    0    0 -0.23381425367E+02  0.27160676195E+02  0.24479144927E+02  0.47787286643E+02  0.20000071119E+02 0.  0.
        -12    1    3    3    0    0  0.23381425367E+02 -0.27160676195E+02 -0.24479144927E+02  0.43400713357E+02  0.00000000000E+00 0.  1.
         11    1    4    4    0    0  0.70431985126E+00  0.39179876134E+01  0.14565785038E+01  0.42389048811E+01  0.51100000000E-03 0. -1.
        -11    1    4    4    0    0 -0.33037205213E+01  0.10194465312E+02  0.13477207729E+02  0.17218502278E+02  0.51100000000E-03 0.  1.
         12    1    4    4    0    0 -0.20782024697E+02  0.13048223269E+02  0.95453586948E+01  0.26329879483E+02  0.00000000000E+00 0. -1.
</event>
<event>
 8    1  0.2994958E-010  0.9118800E+02  0.7816164E-02  0.1184000E+00
        -11   -1    0    0    0    0  0.00000000000E+00  0.00000000000E+00  0.45593999997E+02  0.45594000000E+02  0.51100000000E-03 0. -1.
         11   -1    0    0    0    0 -0.00000000000E+00 -0.00000000000E+00 -0.45593999997E+02  0.45594000000E+02  0.51100000000E-03 0.  1.
         23    2    1    2    0    0  0.35527136788E-14 -0.35527136788E-14  0.00000000000E+00  0.91188000000E+02  0.91188000000E+02 0.  0.
    9900012    2    3    3    0    0  0.30809962571E+02 -0.29080489950E+02  0.94177720341E+01  0.47787272824E+02  0.20000008112E+02 0.  0.
        -12    1    3    3    0    0 -0.30809962571E+02  0.29080489950E+02 -0.94177720341E+01  0.43400727176E+02  0.00000000000E+00 0.  1.
         11    1    4    4    0    0  0.79253659916E+01 -0.37568345669E+01  0.81799986187E+01  0.11993231830E+02  0.51100000000E-03 0. -1.
        -11    1    4    4    0    0  0.25224220372E+01  0.72744453913E+00  0.73221401503E+00  0.27254221904E+01  0.51100000000E-03 0.  1.
        -12    1    4    4    0    0  0.20362174543E+02 -0.26051099922E+02  0.50555940040E+00  0.33068618803E+02  0.00000000000E+00 0.  1.
</event>
<event>
 8    1  0.2994958E-010  0.9118800E+02  0.7816164E-02  0.1184000E+00
        -11   -1    0    0    0    0  0.00000000000E+00  0.00000000000E+00  0.45593999997E+02  0.45594000000E+02  0.51100000000E-03 0. -1.
         11   -1    0    0    0    0 -0.00000000000E+00 -0.00000000000E+00 -0.45593999997E+02  0.45594000000E+02  0.51100000000E-03 0.  1.
         23    2    1    2    0    0  0.17763568394E-14 -0.88817841970E-15  0.00000000000E+00  0.91188000000E+02  0.91188000000E+02 0.  0.
    9900012    2    3    3    0    0 -0.13861149263E+02 -0.76741319074E+01  0.40405439917E+02  0.47787270348E+02  0.19999996825E+02 0.  0.
        -12    1    3    3    0    0  0.13861149263E+02  0.76741319074E+01 -0.40405439917E+02  0.43400729652E+02  0.00000000000E+00 0.  1.
         11    1    4    4    0    0 -0.72939467531E+00 -0.64262548801E+01  0.11858703408E+02  0.13507687262E+02  0.51100000000E-03 0. -1.
        -11    1    4    4    0    0 -0.37166727883E+00  0.10356447469E+00 -0.15311644889E+01  0.15790272701E+01  0.51100000000E-03 0.  1.
        -12    1    4    4    0    0 -0.12760087309E+02 -0.13514415020E+01  0.30077900998E+02  0.32700555816E+02  0.00000000000E+00 0.  1.
</event>
<event>
 8    1  0.2994958E-010  0.9118800E+02  0.7816164E-02  0.1184000E+00
        -11   -1    0    0    0    0  0.00000000000E+00  0.00000000000E+00  0.45593999997E+02  0.45594000000E+02  0.51100000000E-03 0. -1.
         11   -1    0    0    0    0 -0.00000000000E+00 -0.00000000000E+00 -0.45593999997E+02  0.45594000000E+02  0.51100000000E-03 0.  1.
         23    2    1    2    0    0 -0.71054273576E-14  0.35527136788E-14  0.35527136788E-14  0.91188000000E+02  0.91188000000E+02 0.  0.
    9900012    2    3    3    0    0  0.36046771274E+02 -0.15720968358E+02 -0.18360412929E+02  0.47787270417E+02  0.19999997141E+02 0.  0.
         12    1    3    3    0    0 -0.36046771274E+02  0.15720968358E+02  0.18360412929E+02  0.43400729583E+02  0.00000000000E+00 0. -1.
         11    1    4    4    0    0  0.15169887093E+02 -0.23953896069E+01 -0.86348360630E+01  0.17618846724E+02  0.51100000000E-03 0. -1.
        -11    1    4    4    0    0  0.22701520498E+02 -0.13426168674E+02 -0.77776658608E+01  0.27497511245E+02  0.51100000000E-03 0.  1.
        -12    1    4    4    0    0 -0.18246363173E+01  0.10058992249E+00 -0.19479110048E+01  0.26709124481E+01  0.00000000000E+00 0.  1.
</event>
<event>
 8    1  0.2994958E-010  0.9118800E+02  0.7816164E-02  0.1184000E+00
        -11   -1    0    0    0    0  0.00000000000E+00  0.00000000000E+00  0.45593999997E+02  0.45594000000E+02  0.51100000000E-03 0. -1.
         11   -1    0    0    0    0 -0.00000000000E+00 -0.00000000000E+00 -0.45593999997E+02  0.45594000000E+02  0.51100000000E-03 0.  1.
         23    2    1    2    0    0  0.00000000000E+00  0.00000000000E+00 -0.35527136788E-14  0.91188000000E+02  0.91188000000E+02 0.  0.
    9900012    2    3    3    0    0 -0.15523179325E+02  0.30290372038E+02  0.26928564329E+02  0.47787270612E+02  0.19999998030E+02 0.  0.
        -12    1    3    3    0    0  0.15523179325E+02 -0.30290372038E+02 -0.26928564329E+02  0.43400729388E+02  0.00000000000E+00 0.  1.
         11    1    4    4    0    0 -0.14814165875E+01 -0.25946424865E+01  0.36315193563E+01  0.47026266953E+01  0.51100000000E-03 0. -1.
        -11    1    4    4    0    0 -0.12849832043E+01  0.62508526186E+01  0.20454913163E+01  0.67013711493E+01  0.51100000000E-03 0.  1.
         12    1    4    4    0    0 -0.12756779533E+02  0.26634161906E+02  0.21251553656E+02  0.36383272768E+02  0.00000000000E+00 0. -1.
</event>
<event>
 8    1  0.2994958E-010  0.9118800E+02  0.7816164E-02  0.1184000E+00
        -11   -1    0    0    0    0  0.00000000000E+00  0.00000000000E+00  0.45593999997E+02  0.45594000000E+02  0.51100000000E-03 0.  1.
         11   -1    0    0    0    0 -0.00000000000E+00 -0.00000000000E+00 -0.45593999997E+02  0.45594000000E+02  0.51100000000E-03 0. -1.
         23    2    1    2    0    0  0.00000000000E+00 -0.35527136788E-14  0.00000000000E+00  0.91188000000E+02  0.91188000000E+02 0.  0.
    9900012    2    3    3    0    0 -0.18786490417E+01  0.26058504168E+02  0.34656141901E+02  0.47787272666E+02  0.20000007391E+02 0.  0.
        -12    1    3    3    0    0  0.18786490417E+01 -0.26058504168E+02 -0.34656141901E+02  0.43400727334E+02  0.00000000000E+00 0.  1.
         11    1    4    4    0    0  0.19801345530E+01  0.48579617533E+01  0.17313910079E+02  0.18091219078E+02  0.51100000000E-03 0. -1.
        -11    1    4    4    0    0 -0.46545086207E+01  0.68308563491E+01  0.11502956707E+02  0.14164853060E+02  0.51100000000E-03 0.  1.
         12    1    4    4    0    0  0.79572502601E+00  0.14369686066E+02  0.58392751151E+01  0.15531200527E+02  0.00000000000E+00 0. -1.
</event>
<event>
 8    1  0.2994958E-010  0.9118800E+02  0.7816164E-02  0.1184000E+00
        -11   -1    0    0    0    0  0.00000000000E+00  0.00000000000E+00  0.45593999997E+02  0.45594000000E+02  0.51100000000E-03 0.  1.
         11   -1    0    0    0    0 -0.00000000000E+00 -0.00000000000E+00 -0.45593999997E+02  0.45594000000E+02  0.51100000000E-03 0. -1.
         23    2    1    2    0    0  0.00000000000E+00 -0.17763568394E-14  0.00000000000E+00  0.91188000000E+02  0.91188000000E+02 0.  0.
    9900012    2    3    3    0    0  0.31528316793E+02  0.10505905284E+02 -0.27914417685E+02  0.47787268205E+02  0.19999987055E+02 0.  0.
         12    1    3    3    0    0 -0.31528316793E+02 -0.10505905284E+02  0.27914417685E+02  0.43400731795E+02  0.00000000000E+00 0. -1.
         11    1    4    4    0    0  0.21600321223E+02  0.31496246398E+00 -0.19082041820E+02  0.28823556314E+02  0.51100000000E-03 0. -1.
        -11    1    4    4    0    0  0.16217316337E+01 -0.73687065367E+00 -0.40563762504E+01  0.44302573738E+01  0.51100000000E-03 0.  1.
        -12    1    4    4    0    0  0.83062639365E+01  0.10927813474E+02 -0.47759996140E+01  0.14533454518E+02  0.00000000000E+00 0.  1.
</event>
<event>
 8    1  0.2994958E-010  0.9118800E+02  0.7816164E-02  0.1184000E+00
        -11   -1    0    0    0    0  0.00000000000E+00  0.00000000000E+00  0.45593999997E+02  0.45594000000E+02  0.51100000000E-03 0. -1.
         11   -1    0    0    0    0 -0.00000000000E+00 -0.00000000000E+00 -0.45593999997E+02  0.45594000000E+02  0.51100000000E-03 0.  1.
         23    2    1    2    0    0  0.00000000000E+00  0.00000000000E+00  0.00000000000E+00  0.91188000000E+02  0.91188000000E+02 0.  0.
    9900012    2    3    3    0    0  0.11573868569E+02  0.62245125693E+01 -0.41363343573E+02  0.47787249063E+02  0.19999899777E+02 0.  0.
         12    1    3    3    0    0 -0.11573868569E+02 -0.62245125693E+01  0.41363343573E+02  0.43400750937E+02  0.00000000000E+00 0. -1.
         11    1    4    4    0    0 -0.49799176493E+00 -0.11085715265E+01  0.42205445489E-01  0.12160214587E+01  0.51100000000E-03 0. -1.
        -11    1    4    4    0    0  0.85476544499E+01 -0.22858720839E+01 -0.29825461096E+02  0.31110219183E+02  0.51100000000E-03 0.  1.
        -12    1    4    4    0    0  0.35242058839E+01  0.96189561797E+01 -0.11580087922E+02  0.15461008421E+02  0.00000000000E+00 0.  1.
</event>
<event>
 8    1  0.2994958E-010  0.9118800E+02  0.7816164E-02  0.1184000E+00
        -11   -1    0    0    0    0  0.00000000000E+00  0.00000000000E+00  0.45593999997E+02  0.45594000000E+02  0.51100000000E-03 0. -1.
         11   -1    0    0    0    0 -0.00000000000E+00 -0.00000000000E+00 -0.45593999997E+02  0.45594000000E+02  0.51100000000E-03 0.  1.
         23    2    1    2    0    0  0.00000000000E+00  0.00000000000E+00  0.00000000000E+00  0.91188000000E+02  0.91188000000E+02 0.  0.
    9900012    2    3    3    0    0 -0.10756290868E+02 -0.41555362729E+02  0.64091670539E+01  0.47787269740E+02  0.19999994053E+02 0.  0.
         12    1    3    3    0    0  0.10756290868E+02  0.41555362729E+02 -0.64091670539E+01  0.43400730260E+02  0.00000000000E+00 0. -1.
         11    1    4    4    0    0 -0.30657464279E+01 -0.24052811850E+01  0.40266852867E+01  0.56034251489E+01  0.51100000000E-03 0. -1.
        -11    1    4    4    0    0  0.20087274341E+01 -0.19336156920E+02  0.47047331222E+01  0.20001411559E+02  0.51100000000E-03 0.  1.
        -12    1    4    4    0    0 -0.96992718738E+01 -0.19813924624E+02 -0.23222513549E+01  0.22182433033E+02  0.00000000000E+00 0.  1.
</event>
<event>
 8    1  0.2994958E-010  0.9118800E+02  0.7816164E-02  0.1184000E+00
        -11   -1    0    0    0    0  0.00000000000E+00  0.00000000000E+00  0.45593999997E+02  0.45594000000E+02  0.51100000000E-03 0. -1.
         11   -1    0    0    0    0 -0.00000000000E+00 -0.00000000000E+00 -0.45593999997E+02  0.45594000000E+02  0.51100000000E-03 0.  1.
         23    2    1    2    0    0  0.00000000000E+00 -0.35527136788E-14  0.00000000000E+00  0.91188000000E+02  0.91188000000E+02 0.  0.
    9900012    2    3    3    0    0  0.22292171671E+02 -0.18619441683E+02 -0.32249041022E+02  0.47787249163E+02  0.19999900234E+02 0.  0.
         12    1    3    3    0    0 -0.22292171671E+02  0.18619441683E+02  0.32249041022E+02  0.43400750837E+02  0.00000000000E+00 0. -1.
         11    1    4    4    0    0  0.35331225445E+01  0.76535869510E+00 -0.13661999333E+01  0.38646127058E+01  0.51100000000E-03 0. -1.
        -11    1    4    4    0    0 -0.12785819978E+01 -0.62990948411E+01 -0.11298040995E+02  0.12998426764E+02  0.51100000000E-03 0.  1.
         12    1    4    4    0    0  0.20037631125E+02 -0.13085705537E+02 -0.19584800093E+02  0.30924209693E+02  0.00000000000E+00 0. -1.
</event>
<event>
 8    1  0.2994958E-010  0.9118800E+02  0.7816164E-02  0.1184000E+00
        -11   -1    0    0    0    0  0.00000000000E+00  0.00000000000E+00  0.45593999997E+02  0.45594000000E+02  0.51100000000E-03 0. -1.
         11   -1    0    0    0    0 -0.00000000000E+00 -0.00000000000E+00 -0.45593999997E+02  0.45594000000E+02  0.51100000000E-03 0.  1.
         23    2    1    2    0    0  0.00000000000E+00  0.00000000000E+00  0.00000000000E+00  0.91188000000E+02  0.91188000000E+02 0.  0.
    9900012    2    3    3    0    0 -0.15532291548E+02  0.22838601809E+02  0.33477875933E+02  0.47787285832E+02  0.20000067423E+02 0.  0.
        -12    1    3    3    0    0  0.15532291548E+02 -0.22838601809E+02 -0.33477875933E+02  0.43400714168E+02  0.00000000000E+00 0.  1.
         11    1    4    4    0    0 -0.92743876765E+01  0.94683075132E+01  0.15893510577E+02  0.20694607816E+02  0.51100000000E-03 0. -1.
        -11    1    4    4    0    0 -0.86831801981E+01  0.11912861087E+02  0.73459709491E+01  0.16470493832E+02  0.51100000000E-03 0.  1.
        -12    1    4    4    0    0  0.24252763265E+01  0.14574332087E+01  0.10238394407E+02  0.10622184184E+02  0.00000000000E+00 0.  1.
</event>
<event>
 8    1  0.2994958E-010  0.9118800E+02  0.7816164E-02  0.1184000E+00
        -11   -1    0    0    0    0  0.00000000000E+00  0.00000000000E+00  0.45593999997E+02  0.45594000000E+02  0.51100000000E-03 0.  1.
         11   -1    0    0    0    0 -0.00000000000E+00 -0.00000000000E+00 -0.45593999997E+02  0.45594000000E+02  0.51100000000E-03 0. -1.
         23    2    1    2    0    0  0.00000000000E+00 -0.71054273576E-14  0.00000000000E+00  0.91188000000E+02  0.91188000000E+02 0.  0.
    9900012    2    3    3    0    0  0.23531215420E+02 -0.35956135084E+02  0.60878387674E+01  0.47787268092E+02  0.19999986538E+02 0.  0.
        -12    1    3    3    0    0 -0.23531215420E+02  0.35956135084E+02 -0.60878387674E+01  0.43400731908E+02  0.00000000000E+00 0.  1.
         11    1    4    4    0    0  0.66174226633E+01 -0.12504716510E+01  0.15069324384E+01  0.69010729375E+01  0.51100000000E-03 0. -1.
        -11    1    4    4    0    0  0.56196127285E+01 -0.19866372354E+01  0.14301350713E+01  0.61296053141E+01  0.51100000000E-03 0.  1.
         12    1    4    4    0    0  0.11294180028E+02 -0.32719026197E+02  0.31507712577E+01  0.34756589840E+02  0.00000000000E+00 0. -1.
</event>
<event>
 8    1  0.2994958E-010  0.9118800E+02  0.7816164E-02  0.1184000E+00
        -11   -1    0    0    0    0  0.00000000000E+00  0.00000000000E+00  0.45593999997E+02  0.45594000000E+02  0.51100000000E-03 0. -1.
         11   -1    0    0    0    0 -0.00000000000E+00 -0.00000000000E+00 -0.45593999997E+02  0.45594000000E+02  0.51100000000E-03 0.  1.
         23    2    1    2    0    0  0.00000000000E+00  0.00000000000E+00  0.35527136788E-14  0.91188000000E+02  0.91188000000E+02 0.  0.
    9900012    2    3    3    0    0 -0.30746337696E+02  0.17275592094E+02  0.25295056768E+02  0.47787271195E+02  0.20000000686E+02 0.  0.
        -12    1    3    3    0    0  0.30746337696E+02 -0.17275592094E+02 -0.25295056768E+02  0.43400728805E+02  0.00000000000E+00 0.  1.
         11    1    4    4    0    0 -0.49747868055E+00  0.32627621055E+01 -0.14517268861E+00  0.33036611457E+01  0.51100000000E-03 0. -1.
        -11    1    4    4    0    0  0.37302015564E+00  0.19880247829E+00 -0.14139485688E+01  0.14757768389E+01  0.51100000000E-03 0.  1.
         12    1    4    4    0    0 -0.30621879171E+02  0.13814027510E+02  0.26854178025E+02  0.43007833210E+02  0.00000000000E+00 0. -1.
</event>
<event>
 8    1  0.2994958E-010  0.9118800E+02  0.7816164E-02  0.1184000E+00
        -11   -1    0    0    0    0  0.00000000000E+00  0.00000000000E+00  0.45593999997E+02  0.45594000000E+02  0.51100000000E-03 0. -1.
         11   -1    0    0    0    0 -0.00000000000E+00 -0.00000000000E+00 -0.45593999997E+02  0.45594000000E+02  0.51100000000E-03 0.  1.
         23    2    1    2    0    0 -0.35527136788E-14  0.00000000000E+00  0.00000000000E+00  0.91188000000E+02  0.91188000000E+02 0.  0.
    9900012    2    3    3    0    0 -0.31265621329E+02  0.60191394144E+01  0.29493329841E+02  0.47787243999E+02  0.19999876687E+02 0.  0.
        -12    1    3    3    0    0  0.31265621329E+02 -0.60191394144E+01 -0.29493329841E+02  0.43400756001E+02  0.00000000000E+00 0.  1.
         11    1    4    4    0    0 -0.15580316476E+01  0.39476108249E+00  0.46793709896E+01  0.49477077568E+01  0.51100000000E-03 0. -1.
        -11    1    4    4    0    0 -0.89794368831E+01  0.47550152185E+01 -0.42324363392E+00  0.10169542364E+02  0.51100000000E-03 0.  1.
         12    1    4    4    0    0 -0.20728152798E+02  0.86936311346E+00  0.25237202486E+02  0.32669993877E+02  0.00000000000E+00 0. -1.
</event>
<event>
 8    1  0.2994958E-010  0.9118800E+02  0.7816164E-02  0.1184000E+00
        -11   -1    0    0    0    0  0.00000000000E+00  0.00000000000E+00  0.45593999997E+02  0.45594000000E+02  0.51100000000E-03 0. -1.
         11   -1    0    0    0    0 -0.00000000000E+00 -0.00000000000E+00 -0.45593999997E+02  0.45594000000E+02  0.51100000000E-03 0.  1.
         23    2    1    2    0    0  0.00000000000E+00  0.00000000000E+00  0.35527136788E-14  0.91188000000E+02  0.91188000000E+02 0.  0.
    9900012    2    3    3    0    0  0.28524509415E+02 -0.68392240856E+01  0.31987504366E+02  0.47787273519E+02  0.20000011285E+02 0.  0.
        -12    1    3    3    0    0 -0.28524509415E+02  0.68392240856E+01 -0.31987504366E+02  0.43400726481E+02  0.00000000000E+00 0.  1.
         11    1    4    4    0    0  0.11672347506E+02 -0.54060921748E+01  0.12114782538E+02  0.17670242927E+02  0.51100000000E-03 0. -1.
        -11    1    4    4    0    0  0.62629875185E+00 -0.44421683923E+01  0.27197153202E+00  0.44943385417E+01  0.51100000000E-03 0.  1.
         12    1    4    4    0    0  0.16225863157E+02  0.30090364815E+01  0.19600750297E+02  0.25622692050E+02  0.00000000000E+00 0. -1.
</event>
<event>
 8    1  0.2994958E-010  0.9118800E+02  0.7816164E-02  0.1184000E+00
        -11   -1    0    0    0    0  0.00000000000E+00  0.00000000000E+00  0.45593999997E+02  0.45594000000E+02  0.51100000000E-03 0. -1.
         11   -1    0    0    0    0 -0.00000000000E+00 -0.00000000000E+00 -0.45593999997E+02  0.45594000000E+02  0.51100000000E-03 0.  1.
         23    2    1    2    0    0 -0.17763568394E-14  0.00000000000E+00  0.00000000000E+00  0.91188000000E+02  0.91188000000E+02 0.  0.
    9900012    2    3    3    0    0  0.14976688414E+02  0.11182949934E+02  0.39169676739E+02  0.47787272576E+02  0.20000006983E+02 0.  0.
        -12    1    3    3    0    0 -0.14976688414E+02 -0.11182949934E+02 -0.39169676739E+02  0.43400727424E+02  0.00000000000E+00 0.  1.
         11    1    4    4    0    0 -0.32740644402E+01  0.17588105429E+01  0.10174704464E+02  0.10832244628E+02  0.51100000000E-03 0. -1.
        -11    1    4    4    0    0 -0.12137656319E+01  0.14096133043E+01  0.22224730971E+01  0.28982104143E+01  0.51100000000E-03 0.  1.
        -12    1    4    4    0    0  0.19464518486E+02  0.80145260868E+01  0.26772499178E+02  0.34056817534E+02  0.00000000000E+00 0.  1.
</event>
<event>
 8    1  0.2994958E-010  0.9118800E+02  0.7816164E-02  0.1184000E+00
        -11   -1    0    0    0    0  0.00000000000E+00  0.00000000000E+00  0.45593999997E+02  0.45594000000E+02  0.51100000000E-03 0. -1.
         11   -1    0    0    0    0 -0.00000000000E+00 -0.00000000000E+00 -0.45593999997E+02  0.45594000000E+02  0.51100000000E-03 0.  1.
         23    2    1    2    0    0  0.00000000000E+00  0.00000000000E+00  0.00000000000E+00  0.91188000000E+02  0.91188000000E+02 0.  0.
    9900012    2    3    3    0    0  0.30766573496E+02  0.14794719096E+02 -0.26798462901E+02  0.47787269918E+02  0.19999994863E+02 0.  0.
         12    1    3    3    0    0 -0.30766573496E+02 -0.14794719096E+02  0.26798462901E+02  0.43400730082E+02  0.00000000000E+00 0. -1.
         11    1    4    4    0    0  0.62564791769E+01 -0.50705195762E+00 -0.81402058869E+01  0.10279279426E+02  0.51100000000E-03 0.  1.
        -11    1    4    4    0    0  0.36060008928E+01  0.86287700277E+01 -0.10590324979E+02  0.14128478264E+02  0.51100000000E-03 0. -1.
         12    1    4    4    0    0  0.20904093427E+02  0.66730010261E+01 -0.80679320342E+01  0.23379512227E+02  0.00000000000E+00 0. -1.
</event>
<event>
 8    1  0.2994958E-010  0.9118800E+02  0.7816164E-02  0.1184000E+00
        -11   -1    0    0    0    0  0.00000000000E+00  0.00000000000E+00  0.45593999997E+02  0.45594000000E+02  0.51100000000E-03 0. -1.
         11   -1    0    0    0    0 -0.00000000000E+00 -0.00000000000E+00 -0.45593999997E+02  0.45594000000E+02  0.51100000000E-03 0.  1.
         23    2    1    2    0    0  0.88817841970E-15  0.88817841970E-15  0.00000000000E+00  0.91188000000E+02  0.91188000000E+02 0.  0.
    9900012    2    3    3    0    0  0.27351527936E+01  0.60017076062E+01 -0.42896649336E+02  0.47787261766E+02  0.19999957696E+02 0.  0.
         12    1    3    3    0    0 -0.27351527936E+01 -0.60017076062E+01  0.42896649336E+02  0.43400738234E+02  0.00000000000E+00 0. -1.
         11    1    4    4    0    0  0.71617742236E+00  0.52810828385E+00  0.10994219681E+01  0.14144035438E+01  0.51100000000E-03 0. -1.
        -11    1    4    4    0    0 -0.50535199219E+01  0.20527626217E+01 -0.91526973238E+01  0.10654753237E+02  0.51100000000E-03 0.  1.
        -12    1    4    4    0    0  0.70724952931E+01  0.34208367007E+01 -0.34843373980E+02  0.35718104985E+02  0.00000000000E+00 0.  1.
</event>
<event>
 8    1  0.2994958E-010  0.9118800E+02  0.7816164E-02  0.1184000E+00
        -11   -1    0    0    0    0  0.00000000000E+00  0.00000000000E+00  0.45593999997E+02  0.45594000000E+02  0.51100000000E-03 0. -1.
         11   -1    0    0    0    0 -0.00000000000E+00 -0.00000000000E+00 -0.45593999997E+02  0.45594000000E+02  0.51100000000E-03 0.  1.
         23    2    1    2    0    0  0.00000000000E+00  0.00000000000E+00  0.00000000000E+00  0.91188000000E+02  0.91188000000E+02 0.  0.
    9900012    2    3    3    0    0 -0.14097189537E+01  0.17482171150E+02  0.39698987617E+02  0.47787271510E+02  0.20000002121E+02 0.  0.
        -12    1    3    3    0    0  0.14097189537E+01 -0.17482171150E+02 -0.39698987617E+02  0.43400728490E+02  0.00000000000E+00 0.  1.
         11    1    4    4    0    0  0.33234245740E+01  0.12509426935E+02  0.26784601232E+02  0.29748038196E+02  0.51100000000E-03 0. -1.
        -11    1    4    4    0    0  0.33531267967E+01  0.17885963319E+01  0.50367347565E+01  0.63096143640E+01  0.51100000000E-03 0.  1.
         12    1    4    4    0    0 -0.80862703244E+01  0.31841478838E+01  0.78776516291E+01  0.11729618949E+02  0.00000000000E+00 0. -1.
</event>
<event>
 8    1  0.2994958E-010  0.9118800E+02  0.7816164E-02  0.1184000E+00
        -11   -1    0    0    0    0  0.00000000000E+00  0.00000000000E+00  0.45593999997E+02  0.45594000000E+02  0.51100000000E-03 0. -1.
         11   -1    0    0    0    0 -0.00000000000E+00 -0.00000000000E+00 -0.45593999997E+02  0.45594000000E+02  0.51100000000E-03 0.  1.
         23    2    1    2    0    0  0.00000000000E+00  0.00000000000E+00 -0.71054273576E-14  0.91188000000E+02  0.91188000000E+02 0.  0.
    9900012    2    3    3    0    0  0.13275132607E+02 -0.19945319983E+02 -0.36188101063E+02  0.47787267362E+02  0.19999983210E+02 0.  0.
         12    1    3    3    0    0 -0.13275132607E+02  0.19945319983E+02  0.36188101063E+02  0.43400732638E+02  0.00000000000E+00 0. -1.
         11    1    4    4    0    0 -0.36711975603E+01 -0.56326880266E+01 -0.65400897253E+01  0.93796396417E+01  0.51100000000E-03 0. -1.
        -11    1    4    4    0    0  0.38980630014E+01 -0.13774549133E+01 -0.12900980836E+02  0.13547235289E+02  0.51100000000E-03 0.  1.
        -12    1    4    4    0    0  0.13048267166E+02 -0.12935177043E+02 -0.16747030502E+02  0.24860392431E+02  0.00000000000E+00 0.  1.
</event>
<event>
 8    1  0.2994958E-010  0.9118800E+02  0.7816164E-02  0.1184000E+00
        -11   -1    0    0    0    0  0.00000000000E+00  0.00000000000E+00  0.45593999997E+02  0.45594000000E+02  0.51100000000E-03 0.  1.
         11   -1    0    0    0    0 -0.00000000000E+00 -0.00000000000E+00 -0.45593999997E+02  0.45594000000E+02  0.51100000000E-03 0. -1.
         23    2    1    2    0    0  0.00000000000E+00  0.00000000000E+00  0.00000000000E+00  0.91188000000E+02  0.91188000000E+02 0.  0.
    9900012    2    3    3    0    0 -0.14140988548E+02  0.40732129846E+02  0.49547240779E+01  0.47787271324E+02  0.20000001273E+02 0.  0.
        -12    1    3    3    0    0  0.14140988548E+02 -0.40732129846E+02 -0.49547240779E+01  0.43400728676E+02  0.00000000000E+00 0.  1.
         11    1    4    4    0    0  0.52377999894E+00  0.81682352910E+01  0.69744162077E+00  0.82146721378E+01  0.51100000000E-03 0. -1.
        -11    1    4    4    0    0  0.14876176327E+01  0.15481851581E+02  0.40101434986E+01  0.16061817634E+02  0.51100000000E-03 0.  1.
         12    1    4    4    0    0 -0.16152386180E+02  0.17082042975E+02  0.24713895849E+00  0.23510781551E+02  0.00000000000E+00 0. -1.
</event>
<event>
 8    1  0.2994958E-010  0.9118800E+02  0.7816164E-02  0.1184000E+00
        -11   -1    0    0    0    0  0.00000000000E+00  0.00000000000E+00  0.45593999997E+02  0.45594000000E+02  0.51100000000E-03 0. -1.
         11   -1    0    0    0    0 -0.00000000000E+00 -0.00000000000E+00 -0.45593999997E+02  0.45594000000E+02  0.51100000000E-03 0.  1.
         23    2    1    2    0    0  0.00000000000E+00  0.35527136788E-14  0.00000000000E+00  0.91188000000E+02  0.91188000000E+02 0.  0.
    9900012    2    3    3    0    0  0.11930121577E+02 -0.31030446426E+02  0.27899998577E+02  0.47787235872E+02  0.19999839636E+02 0.  0.
        -12    1    3    3    0    0 -0.11930121577E+02  0.31030446426E+02 -0.27899998577E+02  0.43400764128E+02  0.00000000000E+00 0.  1.
         11    1    4    4    0    0 -0.13423784227E+01  0.70632058980E+00  0.71298928248E+01  0.72894609238E+01  0.51100000000E-03 0. -1.
        -11    1    4    4    0    0  0.62105383898E+01 -0.11009024277E+02  0.54049781474E+01  0.13747115758E+02  0.51100000000E-03 0.  1.
         12    1    4    4    0    0  0.70619616095E+01 -0.20727742738E+02  0.15365127605E+02  0.26750659191E+02  0.00000000000E+00 0. -1.
</event>
<event>
 8    1  0.2994958E-010  0.9118800E+02  0.7816164E-02  0.1184000E+00
        -11   -1    0    0    0    0  0.00000000000E+00  0.00000000000E+00  0.45593999997E+02  0.45594000000E+02  0.51100000000E-03 0. -1.
         11   -1    0    0    0    0 -0.00000000000E+00 -0.00000000000E+00 -0.45593999997E+02  0.45594000000E+02  0.51100000000E-03 0.  1.
         23    2    1    2    0    0  0.00000000000E+00  0.35527136788E-14  0.88817841970E-15  0.91188000000E+02  0.91188000000E+02 0.  0.
    9900012    2    3    3    0    0  0.34512753518E+02 -0.25954679130E+02 -0.43412421403E+01  0.47787286786E+02  0.20000071772E+02 0.  0.
         12    1    3    3    0    0 -0.34512753518E+02  0.25954679130E+02  0.43412421403E+01  0.43400713214E+02  0.00000000000E+00 0. -1.
         11    1    4    4    0    0  0.91530511179E+01 -0.13554694928E+02 -0.66277526028E+01  0.17647526858E+02  0.51100000000E-03 0. -1.
        -11    1    4    4    0    0  0.17938488882E+02 -0.12084181046E+02 -0.17251217871E+01  0.21697761644E+02  0.51100000000E-03 0.  1.
         12    1    4    4    0    0  0.74212135189E+01 -0.31580315541E+00  0.40116322496E+01  0.84419982843E+01  0.00000000000E+00 0. -1.
</event>
<event>
 8    1  0.2994958E-010  0.9118800E+02  0.7816164E-02  0.1184000E+00
        -11   -1    0    0    0    0  0.00000000000E+00  0.00000000000E+00  0.45593999997E+02  0.45594000000E+02  0.51100000000E-03 0. -1.
         11   -1    0    0    0    0 -0.00000000000E+00 -0.00000000000E+00 -0.45593999997E+02  0.45594000000E+02  0.51100000000E-03 0.  1.
         23    2    1    2    0    0  0.00000000000E+00  0.00000000000E+00 -0.71054273576E-14  0.91188000000E+02  0.91188000000E+02 0.  0.
    9900012    2    3    3    0    0  0.13040807230E+02 -0.66579914097E+01  0.40856236700E+02  0.47787267516E+02  0.19999983913E+02 0.  0.
        -12    1    3    3    0    0 -0.13040807230E+02  0.66579914097E+01 -0.40856236700E+02  0.43400732484E+02  0.00000000000E+00 0.  1.
         11    1    4    4    0    0  0.80094339882E+01 -0.47615328385E+01  0.39128468348E+02  0.40222633719E+02  0.51100000000E-03 0. -1.
        -11    1    4    4    0    0 -0.44545340962E+00  0.10521815313E+01  0.20538975726E+00  0.11609047887E+01  0.51100000000E-03 0.  1.
         12    1    4    4    0    0  0.54768266518E+01 -0.29486401026E+01  0.15223785952E+01  0.64037290086E+01  0.00000000000E+00 0. -1.
</event>
<event>
 8    1  0.2994958E-010  0.9118800E+02  0.7816164E-02  0.1184000E+00
        -11   -1    0    0    0    0  0.00000000000E+00  0.00000000000E+00  0.45593999997E+02  0.45594000000E+02  0.51100000000E-03 0. -1.
         11   -1    0    0    0    0 -0.00000000000E+00 -0.00000000000E+00 -0.45593999997E+02  0.45594000000E+02  0.51100000000E-03 0.  1.
         23    2    1    2    0    0  0.71054273576E-14  0.00000000000E+00  0.22204460493E-15  0.91188000000E+02  0.91188000000E+02 0.  0.
    9900012    2    3    3    0    0  0.40284466065E+02  0.16125166368E+02  0.87390911798E+00  0.47787275194E+02  0.20000018920E+02 0.  0.
        -12    1    3    3    0    0 -0.40284466065E+02 -0.16125166368E+02 -0.87390911798E+00  0.43400724806E+02  0.00000000000E+00 0.  1.
         11    1    4    4    0    0  0.27403862177E+02  0.14514343823E+02 -0.47699972898E+00  0.31013954405E+02  0.51100000000E-03 0. -1.
        -11    1    4    4    0    0  0.12429177224E+02  0.41816564377E+01 -0.11427172505E+01  0.13163453195E+02  0.51100000000E-03 0.  1.
        -12    1    4    4    0    0  0.45142666308E+00 -0.25708338922E+01  0.24936260975E+01  0.36098675942E+01  0.00000000000E+00 0.  1.
</event>
<event>
 8    1  0.2994958E-010  0.9118800E+02  0.7816164E-02  0.1184000E+00
        -11   -1    0    0    0    0  0.00000000000E+00  0.00000000000E+00  0.45593999997E+02  0.45594000000E+02  0.51100000000E-03 0. -1.
         11   -1    0    0    0    0 -0.00000000000E+00 -0.00000000000E+00 -0.45593999997E+02  0.45594000000E+02  0.51100000000E-03 0.  1.
         23    2    1    2    0    0  0.00000000000E+00 -0.35527136788E-14  0.00000000000E+00  0.91188000000E+02  0.91188000000E+02 0.  0.
    9900012    2    3    3    0    0 -0.24654090802E+02 -0.22639011278E+02  0.27627416685E+02  0.47787272153E+02  0.20000005054E+02 0.  0.
        -12    1    3    3    0    0  0.24654090802E+02  0.22639011278E+02 -0.27627416685E+02  0.43400727847E+02  0.00000000000E+00 0.  1.
         11    1    4    4    0    0 -0.13906774680E+02 -0.17998017757E+02  0.25347849415E+02  0.34056431044E+02  0.51100000000E-03 0. -1.
        -11    1    4    4    0    0 -0.29582031556E+01 -0.48704080743E+01  0.15429996091E+01  0.59036165844E+01  0.51100000000E-03 0.  1.
         12    1    4    4    0    0 -0.77891129666E+01  0.22941455324E+00  0.73656766072E+00  0.78272245249E+01  0.00000000000E+00 0. -1.
</event>
<event>
 8    1  0.2994958E-010  0.9118800E+02  0.7816164E-02  0.1184000E+00
        -11   -1    0    0    0    0  0.00000000000E+00  0.00000000000E+00  0.45593999997E+02  0.45594000000E+02  0.51100000000E-03 0. -1.
         11   -1    0    0    0    0 -0.00000000000E+00 -0.00000000000E+00 -0.45593999997E+02  0.45594000000E+02  0.51100000000E-03 0.  1.
         23    2    1    2    0    0  0.00000000000E+00  0.00000000000E+00  0.71054273576E-14  0.91188000000E+02  0.91188000000E+02 0.  0.
    9900012    2    3    3    0    0 -0.25693488995E+02  0.10823956239E+02 -0.33261238330E+02  0.47787269814E+02  0.19999994391E+02 0.  0.
         12    1    3    3    0    0  0.25693488995E+02 -0.10823956239E+02  0.33261238330E+02  0.43400730186E+02  0.00000000000E+00 0. -1.
         11    1    4    4    0    0 -0.10416774049E+02  0.13547058334E+01 -0.96304536138E+01  0.14250966513E+02  0.51100000000E-03 0. -1.
        -11    1    4    4    0    0 -0.10133354931E+02  0.34496617570E+01 -0.25305956182E+01  0.10999498299E+02  0.51100000000E-03 0.  1.
        -12    1    4    4    0    0 -0.51433600158E+01  0.60195886486E+01 -0.21100189098E+02  0.22536805002E+02  0.00000000000E+00 0.  1.
</event>
<event>
 8    1  0.2994958E-010  0.9118800E+02  0.7816164E-02  0.1184000E+00
        -11   -1    0    0    0    0  0.00000000000E+00  0.00000000000E+00  0.45593999997E+02  0.45594000000E+02  0.51100000000E-03 0. -1.
         11   -1    0    0    0    0 -0.00000000000E+00 -0.00000000000E+00 -0.45593999997E+02  0.45594000000E+02  0.51100000000E-03 0.  1.
         23    2    1    2    0    0 -0.35527136788E-14  0.16653345369E-15  0.00000000000E+00  0.91188000000E+02  0.91188000000E+02 0.  0.
    9900012    2    3    3    0    0 -0.28541386131E+02  0.40728141936E+00  0.32693231134E+02  0.47787263113E+02  0.19999963836E+02 0.  0.
        -12    1    3    3    0    0  0.28541386131E+02 -0.40728141936E+00 -0.32693231134E+02  0.43400736887E+02  0.00000000000E+00 0.  1.
         11    1    4    4    0    0 -0.92901156386E+01  0.22881595046E+01  0.12720012179E+02  0.15916677813E+02  0.51100000000E-03 0. -1.
        -11    1    4    4    0    0 -0.15345547989E+02  0.12144642593E+01  0.21692018203E+02  0.26598955252E+02  0.51100000000E-03 0.  1.
        -12    1    4    4    0    0 -0.39057225033E+01 -0.30953423446E+01 -0.17187992488E+01  0.52716300478E+01  0.00000000000E+00 0.  1.
</event>
<event>
 8    1  0.2994958E-010  0.9118800E+02  0.7816164E-02  0.1184000E+00
        -11   -1    0    0    0    0  0.00000000000E+00  0.00000000000E+00  0.45593999997E+02  0.45594000000E+02  0.51100000000E-03 0. -1.
         11   -1    0    0    0    0 -0.00000000000E+00 -0.00000000000E+00 -0.45593999997E+02  0.45594000000E+02  0.51100000000E-03 0.  1.
         23    2    1    2    0    0 -0.71054273576E-14  0.00000000000E+00 -0.17763568394E-14  0.91188000000E+02  0.91188000000E+02 0.  0.
    9900012    2    3    3    0    0 -0.36909035436E+02  0.16539940457E+02 -0.15740912310E+02  0.47787275957E+02  0.20000022397E+02 0.  0.
         12    1    3    3    0    0  0.36909035436E+02 -0.16539940457E+02  0.15740912310E+02  0.43400724043E+02  0.00000000000E+00 0. -1.
         11    1    4    4    0    0 -0.34878597202E+00 -0.66947256261E+00 -0.28564497189E+01  0.29545135681E+01  0.51100000000E-03 0. -1.
        -11    1    4    4    0    0 -0.96146430720E+00 -0.19229099423E+01  0.59339978182E+00  0.22302734860E+01  0.51100000000E-03 0.  1.
        -12    1    4    4    0    0 -0.35598785157E+02  0.19132322962E+02 -0.13477862373E+02  0.42602488903E+02  0.00000000000E+00 0.  1.
</event>
<event>
 8    1  0.2994958E-010  0.9118800E+02  0.7816164E-02  0.1184000E+00
        -11   -1    0    0    0    0  0.00000000000E+00  0.00000000000E+00  0.45593999997E+02  0.45594000000E+02  0.51100000000E-03 0. -1.
         11   -1    0    0    0    0 -0.00000000000E+00 -0.00000000000E+00 -0.45593999997E+02  0.45594000000E+02  0.51100000000E-03 0.  1.
         23    2    1    2    0    0  0.00000000000E+00  0.00000000000E+00  0.44408920985E-15  0.91188000000E+02  0.91188000000E+02 0.  0.
    9900012    2    3    3    0    0  0.43058382347E+02 -0.37985375990E+01 -0.38948993661E+01  0.47787269369E+02  0.19999992360E+02 0.  0.
        -12    1    3    3    0    0 -0.43058382347E+02  0.37985375990E+01  0.38948993661E+01  0.43400730631E+02  0.00000000000E+00 0.  1.
         11    1    4    4    0    0  0.12828712816E+02 -0.72123678328E+00 -0.36399247743E+01  0.13354591257E+02  0.51100000000E-03 0. -1.
        -11    1    4    4    0    0  0.77864502672E+01  0.25690947557E+01 -0.64989239199E+01  0.10462555520E+02  0.51100000000E-03 0.  1.
        -12    1    4    4    0    0  0.22443219264E+02 -0.56463955713E+01  0.62439493280E+01  0.23970122592E+02  0.00000000000E+00 0.  1.
</event>
<event>
 8    1  0.2994958E-010  0.9118800E+02  0.7816164E-02  0.1184000E+00
        -11   -1    0    0    0    0  0.00000000000E+00  0.00000000000E+00  0.45593999997E+02  0.45594000000E+02  0.51100000000E-03 0. -1.
         11   -1    0    0    0    0 -0.00000000000E+00 -0.00000000000E+00 -0.45593999997E+02  0.45594000000E+02  0.51100000000E-03 0.  1.
         23    2    1    2    0    0  0.00000000000E+00  0.35527136788E-14  0.00000000000E+00  0.91188000000E+02  0.91188000000E+02 0.  0.
    9900012    2    3    3    0    0 -0.10602536605E+02  0.16010762141E+02 -0.38921258161E+02  0.47787278536E+02  0.20000034158E+02 0.  0.
         12    1    3    3    0    0  0.10602536605E+02 -0.16010762141E+02  0.38921258161E+02  0.43400721464E+02  0.00000000000E+00 0. -1.
         11    1    4    4    0    0 -0.54823072411E+01  0.71422036927E+01 -0.11140495000E+02  0.14324014639E+02  0.51100000000E-03 0. -1.
        -11    1    4    4    0    0 -0.94676894319E+01  0.60255805375E+01 -0.25360386662E+02  0.27732543625E+02  0.51100000000E-03 0.  1.
         12    1    4    4    0    0  0.43474600683E+01  0.28429779104E+01 -0.24203764987E+01  0.57307202724E+01  0.00000000000E+00 0. -1.
</event>
<event>
 8    1  0.2994958E-010  0.9118800E+02  0.7816164E-02  0.1184000E+00
        -11   -1    0    0    0    0  0.00000000000E+00  0.00000000000E+00  0.45593999997E+02  0.45594000000E+02  0.51100000000E-03 0.  1.
         11   -1    0    0    0    0 -0.00000000000E+00 -0.00000000000E+00 -0.45593999997E+02  0.45594000000E+02  0.51100000000E-03 0. -1.
         23    2    1    2    0    0  0.71054273576E-14  0.00000000000E+00  0.44408920985E-15  0.91188000000E+02  0.91188000000E+02 0.  0.
    9900012    2    3    3    0    0 -0.39720044781E+02 -0.17343946967E+02 -0.22646422791E+01  0.47787273526E+02  0.20000011316E+02 0.  0.
         12    1    3    3    0    0  0.39720044781E+02  0.17343946967E+02  0.22646422791E+01  0.43400726474E+02  0.00000000000E+00 0. -1.
         11    1    4    4    0    0  0.19580770997E+01 -0.81083467076E+00 -0.12217632487E+01  0.24462674605E+01  0.51100000000E-03 0. -1.
        -11    1    4    4    0    0 -0.82597790554E+01 -0.41355304723E+01 -0.28046132672E+01  0.96536220234E+01  0.51100000000E-03 0.  1.
        -12    1    4    4    0    0 -0.33418342825E+02 -0.12397581824E+02  0.17617342367E+01  0.35687384042E+02  0.00000000000E+00 0.  1.
</event>
<event>
 8    1  0.2994958E-010  0.9118800E+02  0.7816164E-02  0.1184000E+00
        -11   -1    0    0    0    0  0.00000000000E+00  0.00000000000E+00  0.45593999997E+02  0.45594000000E+02  0.51100000000E-03 0. -1.
         11   -1    0    0    0    0 -0.00000000000E+00 -0.00000000000E+00 -0.45593999997E+02  0.45594000000E+02  0.51100000000E-03 0.  1.
         23    2    1    2    0    0  0.00000000000E+00  0.00000000000E+00  0.00000000000E+00  0.91188000000E+02  0.91188000000E+02 0.  0.
    9900012    2    3    3    0    0 -0.40778310717E+01  0.17238357690E+02  0.39621126118E+02  0.47787270548E+02  0.19999997736E+02 0.  0.
        -12    1    3    3    0    0  0.40778310717E+01 -0.17238357690E+02 -0.39621126118E+02  0.43400729452E+02  0.00000000000E+00 0.  1.
         11    1    4    4    0    0  0.23799691674E+01  0.39396411720E+01  0.18345887878E+02  0.18914455533E+02  0.51100000000E-03 0. -1.
        -11    1    4    4    0    0 -0.75971457121E+01  0.37828503350E+01  0.15533239227E+02  0.17700511314E+02  0.51100000000E-03 0.  1.
        -12    1    4    4    0    0  0.11393454730E+01  0.95158661833E+01  0.57419990127E+01  0.11172303701E+02  0.00000000000E+00 0.  1.
</event>
<event>
 8    1  0.2994958E-010  0.9118800E+02  0.7816164E-02  0.1184000E+00
        -11   -1    0    0    0    0  0.00000000000E+00  0.00000000000E+00  0.45593999997E+02  0.45594000000E+02  0.51100000000E-03 0.  1.
         11   -1    0    0    0    0 -0.00000000000E+00 -0.00000000000E+00 -0.45593999997E+02  0.45594000000E+02  0.51100000000E-03 0. -1.
         23    2    1    2    0    0  0.35527136788E-14  0.00000000000E+00 -0.44408920985E-15  0.91188000000E+02  0.91188000000E+02 0.  0.
    9900012    2    3    3    0    0  0.27376765816E+02  0.33616047941E+02  0.20243872328E+01  0.47787261188E+02  0.19999955062E+02 0.  0.
        -12    1    3    3    0    0 -0.27376765816E+02 -0.33616047941E+02 -0.20243872328E+01  0.43400738812E+02  0.00000000000E+00 0.  1.
         11    1    4    4    0    0  0.18649545248E+01 -0.54002656168E-01  0.73024450038E+00  0.20035540816E+01  0.51100000000E-03 0. -1.
        -11    1    4    4    0    0  0.28109341655E+01  0.16878294107E+02  0.34864771404E+01  0.17462350528E+02  0.51100000000E-03 0.  1.
         12    1    4    4    0    0  0.22700877125E+02  0.16791756490E+02 -0.21923344081E+01  0.28321356579E+02  0.00000000000E+00 0. -1.
</event>
<event>
 8    1  0.2994958E-010  0.9118800E+02  0.7816164E-02  0.1184000E+00
        -11   -1    0    0    0    0  0.00000000000E+00  0.00000000000E+00  0.45593999997E+02  0.45594000000E+02  0.51100000000E-03 0. -1.
         11   -1    0    0    0    0 -0.00000000000E+00 -0.00000000000E+00 -0.45593999997E+02  0.45594000000E+02  0.51100000000E-03 0.  1.
         23    2    1    2    0    0  0.00000000000E+00  0.00000000000E+00 -0.35527136788E-14  0.91188000000E+02  0.91188000000E+02 0.  0.
    9900012    2    3    3    0    0  0.20315631457E+02  0.32080767659E+02  0.21017193422E+02  0.47787274725E+02  0.20000016782E+02 0.  0.
        -12    1    3    3    0    0 -0.20315631457E+02 -0.32080767659E+02 -0.21017193422E+02  0.43400725275E+02  0.00000000000E+00 0.  1.
         11    1    4    4    0    0  0.17313742494E+01  0.11298505369E+02  0.75771425097E+01  0.13713751100E+02  0.51100000000E-03 0. -1.
        -11    1    4    4    0    0  0.45371984450E+00  0.29052877471E+00  0.55798743178E+01  0.56058243220E+01  0.51100000000E-03 0.  1.
        -12    1    4    4    0    0  0.18130537363E+02  0.20491733515E+02  0.78601765940E+01  0.28467699303E+02  0.00000000000E+00 0.  1.
</event>
<event>
 8    1  0.2994958E-010  0.9118800E+02  0.7816164E-02  0.1184000E+00
        -11   -1    0    0    0    0  0.00000000000E+00  0.00000000000E+00  0.45593999997E+02  0.45594000000E+02  0.51100000000E-03 0. -1.
         11   -1    0    0    0    0 -0.00000000000E+00 -0.00000000000E+00 -0.45593999997E+02  0.45594000000E+02  0.51100000000E-03 0.  1.
         23    2    1    2    0    0 -0.35527136788E-14  0.00000000000E+00  0.00000000000E+00  0.91188000000E+02  0.91188000000E+02 0.  0.
    9900012    2    3    3    0    0 -0.23774796176E+02 -0.33412695132E+02 -0.14211743738E+02  0.47787276627E+02  0.20000025454E+02 0.  0.
         12    1    3    3    0    0  0.23774796176E+02  0.33412695132E+02  0.14211743738E+02  0.43400723373E+02  0.00000000000E+00 0. -1.
         11    1    4    4    0    0 -0.42627995304E+01 -0.76573385489E+00 -0.23404443390E+01  0.49229552241E+01  0.51100000000E-03 0. -1.
        -11    1    4    4    0    0 -0.19289522807E+02 -0.30746323328E+02 -0.14937598308E+02  0.39249890850E+02  0.51100000000E-03 0.  1.
         12    1    4    4    0    0 -0.22247383823E+00 -0.19006379494E+01  0.30662989086E+01  0.36144305527E+01  0.00000000000E+00 0. -1.
</event>
<event>
 8    1  0.2994958E-010  0.9118800E+02  0.7816164E-02  0.1184000E+00
        -11   -1    0    0    0    0  0.00000000000E+00  0.00000000000E+00  0.45593999997E+02  0.45594000000E+02  0.51100000000E-03 0. -1.
         11   -1    0    0    0    0 -0.00000000000E+00 -0.00000000000E+00 -0.45593999997E+02  0.45594000000E+02  0.51100000000E-03 0.  1.
         23    2    1    2    0    0  0.35527136788E-14 -0.17763568394E-14  0.00000000000E+00  0.91188000000E+02  0.91188000000E+02 0.  0.
    9900012    2    3    3    0    0  0.29909170819E+02 -0.14427290813E+02  0.27944909396E+02  0.47787272120E+02  0.20000004906E+02 0.  0.
        -12    1    3    3    0    0 -0.29909170819E+02  0.14427290813E+02 -0.27944909396E+02  0.43400727880E+02  0.00000000000E+00 0.  1.
         11    1    4    4    0    0  0.12717413118E+01 -0.62624155483E+01  0.39933555770E+01  0.75353874147E+01  0.51100000000E-03 0. -1.
        -11    1    4    4    0    0  0.38210691638E+01  0.32669956245E+01  0.36973725796E+01  0.62405443848E+01  0.51100000000E-03 0.  1.
        -12    1    4    4    0    0  0.24816360344E+02 -0.11431870889E+02  0.20254181240E+02  0.34011340321E+02  0.00000000000E+00 0.  1.
</event>
<event>
 8    1  0.2994958E-010  0.9118800E+02  0.7816164E-02  0.1184000E+00
        -11   -1    0    0    0    0  0.00000000000E+00  0.00000000000E+00  0.45593999997E+02  0.45594000000E+02  0.51100000000E-03 0. -1.
         11   -1    0    0    0    0 -0.00000000000E+00 -0.00000000000E+00 -0.45593999997E+02  0.45594000000E+02  0.51100000000E-03 0.  1.
         23    2    1    2    0    0  0.00000000000E+00  0.00000000000E+00  0.00000000000E+00  0.91188000000E+02  0.91188000000E+02 0.  0.
    9900012    2    3    3    0    0  0.41511655759E+02  0.11385866013E+02 -0.55468694532E+01  0.47787271096E+02  0.20000000234E+02 0.  0.
         12    1    3    3    0    0 -0.41511655759E+02 -0.11385866013E+02  0.55468694532E+01  0.43400728904E+02  0.00000000000E+00 0. -1.
         11    1    4    4    0    0 -0.13692208246E+01 -0.37823233778E+00 -0.13445966192E+01  0.19559564661E+01  0.51100000000E-03 0. -1.
        -11    1    4    4    0    0  0.51030262632E+01  0.92826039703E-01 -0.36729940018E+01  0.62881140985E+01  0.51100000000E-03 0.  1.
        -12    1    4    4    0    0  0.37777850320E+02  0.11671272312E+02 -0.52927883219E+00  0.39543200531E+02  0.00000000000E+00 0.  1.
</event>
<event>
 8    1  0.2994958E-010  0.9118800E+02  0.7816164E-02  0.1184000E+00
        -11   -1    0    0    0    0  0.00000000000E+00  0.00000000000E+00  0.45593999997E+02  0.45594000000E+02  0.51100000000E-03 0. -1.
         11   -1    0    0    0    0 -0.00000000000E+00 -0.00000000000E+00 -0.45593999997E+02  0.45594000000E+02  0.51100000000E-03 0.  1.
         23    2    1    2    0    0  0.35527136788E-14  0.35527136788E-14  0.00000000000E+00  0.91188000000E+02  0.91188000000E+02 0.  0.
    9900012    2    3    3    0    0  0.29599499834E+02  0.29514334909E+02  0.11678931384E+02  0.47787265055E+02  0.19999972690E+02 0.  0.
        -12    1    3    3    0    0 -0.29599499834E+02 -0.29514334909E+02 -0.11678931384E+02  0.43400734945E+02  0.00000000000E+00 0.  1.
         11    1    4    4    0    0  0.41047247666E+01  0.17575975673E+01  0.13065466451E+01  0.46524164705E+01  0.51100000000E-03 0. -1.
        -11    1    4    4    0    0  0.12701087191E+02  0.25967193155E+02  0.80779634363E+01  0.30014433690E+02  0.51100000000E-03 0.  1.
        -12    1    4    4    0    0  0.12793687877E+02  0.17895441864E+01  0.22944213020E+01  0.13120414894E+02  0.00000000000E+00 0.  1.
</event>
<event>
 8    1  0.2994958E-010  0.9118800E+02  0.7816164E-02  0.1184000E+00
        -11   -1    0    0    0    0  0.00000000000E+00  0.00000000000E+00  0.45593999997E+02  0.45594000000E+02  0.51100000000E-03 0. -1.
         11   -1    0    0    0    0 -0.00000000000E+00 -0.00000000000E+00 -0.45593999997E+02  0.45594000000E+02  0.51100000000E-03 0.  1.
         23    2    1    2    0    0  0.00000000000E+00 -0.71054273576E-14  0.35527136788E-14  0.91188000000E+02  0.91188000000E+02 0.  0.
    9900012    2    3    3    0    0  0.23009698853E+02 -0.27276201823E+02  0.24701942617E+02  0.47787269635E+02  0.19999993573E+02 0.  0.
        -12    1    3    3    0    0 -0.23009698853E+02  0.27276201823E+02 -0.24701942617E+02  0.43400730365E+02  0.00000000000E+00 0.  1.
         11    1    4    4    0    0  0.15804843968E+02 -0.49337515254E+01  0.10886170364E+02  0.19815239146E+02  0.51100000000E-03 0. -1.
        -11    1    4    4    0    0  0.48314916046E+00 -0.31421419552E+01 -0.32724716791E+00  0.31958692320E+01  0.51100000000E-03 0.  1.
         12    1    4    4    0    0  0.67217057250E+01 -0.19200308342E+02  0.14143019421E+02  0.24776161257E+02  0.00000000000E+00 0. -1.
</event>
<event>
 8    1  0.2994958E-010  0.9118800E+02  0.7816164E-02  0.1184000E+00
        -11   -1    0    0    0    0  0.00000000000E+00  0.00000000000E+00  0.45593999997E+02  0.45594000000E+02  0.51100000000E-03 0. -1.
         11   -1    0    0    0    0 -0.00000000000E+00 -0.00000000000E+00 -0.45593999997E+02  0.45594000000E+02  0.51100000000E-03 0.  1.
         23    2    1    2    0    0 -0.71054273576E-14  0.88817841970E-15  0.00000000000E+00  0.91188000000E+02  0.91188000000E+02 0.  0.
    9900012    2    3    3    0    0 -0.42668056283E+02  0.75555634328E+01 -0.24443041530E+01  0.47787260507E+02  0.19999951953E+02 0.  0.
         12    1    3    3    0    0  0.42668056283E+02 -0.75555634328E+01  0.24443041530E+01  0.43400739493E+02  0.00000000000E+00 0. -1.
         11    1    4    4    0    0 -0.98415298724E+00 -0.12654603428E+01  0.11368017647E+01  0.19652647391E+01  0.51100000000E-03 0. -1.
        -11    1    4    4    0    0 -0.20324788072E+02  0.12691986070E+02 -0.13401095165E+01  0.23999571129E+02  0.51100000000E-03 0.  1.
        -12    1    4    4    0    0 -0.21359115224E+02 -0.38709622948E+01 -0.22409964012E+01  0.21822424638E+02  0.00000000000E+00 0.  1.
</event>
<event>
 8    1  0.2994958E-010  0.9118800E+02  0.7816164E-02  0.1184000E+00
        -11   -1    0    0    0    0  0.00000000000E+00  0.00000000000E+00  0.45593999997E+02  0.45594000000E+02  0.51100000000E-03 0.  1.
         11   -1    0    0    0    0 -0.00000000000E+00 -0.00000000000E+00 -0.45593999997E+02  0.45594000000E+02  0.51100000000E-03 0. -1.
         23    2    1    2    0    0  0.00000000000E+00  0.00000000000E+00  0.00000000000E+00  0.91188000000E+02  0.91188000000E+02 0.  0.
    9900012    2    3    3    0    0  0.18639028238E+02  0.35385984816E+02  0.16853561435E+02  0.47787264660E+02  0.19999970890E+02 0.  0.
        -12    1    3    3    0    0 -0.18639028238E+02 -0.35385984816E+02 -0.16853561435E+02  0.43400735340E+02  0.00000000000E+00 0.  1.
         11    1    4    4    0    0  0.14213661877E+01  0.10280836969E+02  0.10124683450E+02  0.14499141555E+02  0.51100000000E-03 0. -1.
        -11    1    4    4    0    0  0.31122997713E+01  0.28042658234E+01  0.54443069118E+01  0.68695556396E+01  0.51100000000E-03 0.  1.
         12    1    4    4    0    0  0.14105362279E+02  0.22300882024E+02  0.12845710731E+01  0.26418567465E+02  0.00000000000E+00 0. -1.
</event>
<event>
 8    1  0.2994958E-010  0.9118800E+02  0.7816164E-02  0.1184000E+00
        -11   -1    0    0    0    0  0.00000000000E+00  0.00000000000E+00  0.45593999997E+02  0.45594000000E+02  0.51100000000E-03 0. -1.
         11   -1    0    0    0    0 -0.00000000000E+00 -0.00000000000E+00 -0.45593999997E+02  0.45594000000E+02  0.51100000000E-03 0.  1.
         23    2    1    2    0    0  0.00000000000E+00  0.00000000000E+00  0.00000000000E+00  0.91188000000E+02  0.91188000000E+02 0.  0.
    9900012    2    3    3    0    0  0.77045929308E+01 -0.20532205339E+02  0.37452529528E+02  0.47787260648E+02  0.19999952596E+02 0.  0.
        -12    1    3    3    0    0 -0.77045929308E+01  0.20532205339E+02 -0.37452529528E+02  0.43400739352E+02  0.00000000000E+00 0.  1.
         11    1    4    4    0    0  0.24589302713E+01  0.91410812459E+00  0.73750813289E+01  0.78277555283E+01  0.51100000000E-03 0. -1.
        -11    1    4    4    0    0  0.16151633669E+01  0.16247319029E+01  0.59691716757E+01  0.63937091905E+01  0.51100000000E-03 0.  1.
         12    1    4    4    0    0  0.36304992926E+01 -0.23071045366E+02  0.24108276523E+02  0.33565795929E+02  0.00000000000E+00 0. -1.
</event>
<event>
 8    1  0.2994958E-010  0.9118800E+02  0.7816164E-02  0.1184000E+00
        -11   -1    0    0    0    0  0.00000000000E+00  0.00000000000E+00  0.45593999997E+02  0.45594000000E+02  0.51100000000E-03 0. -1.
         11   -1    0    0    0    0 -0.00000000000E+00 -0.00000000000E+00 -0.45593999997E+02  0.45594000000E+02  0.51100000000E-03 0.  1.
         23    2    1    2    0    0  0.00000000000E+00  0.00000000000E+00 -0.88817841970E-15  0.91188000000E+02  0.91188000000E+02 0.  0.
    9900012    2    3    3    0    0 -0.36393337229E+02 -0.22456947989E+02  0.74049975589E+01  0.47787268479E+02  0.19999988305E+02 0.  0.
        -12    1    3    3    0    0  0.36393337229E+02  0.22456947989E+02 -0.74049975589E+01  0.43400731521E+02  0.00000000000E+00 0.  1.
         11    1    4    4    0    0 -0.20214644206E+02 -0.12552234322E+02 -0.10635097274E+01  0.23818511289E+02  0.51100000000E-03 0.  1.
        -11    1    4    4    0    0 -0.11347557883E+02 -0.12121581603E+02  0.41367786897E+01  0.17111772224E+02  0.51100000000E-03 0. -1.
        -12    1    4    4    0    0 -0.48311351410E+01  0.22168679355E+01  0.43317285966E+01  0.68569849664E+01  0.00000000000E+00 0.  1.
</event>
<event>
 8    1  0.2994958E-010  0.9118800E+02  0.7816164E-02  0.1184000E+00
        -11   -1    0    0    0    0  0.00000000000E+00  0.00000000000E+00  0.45593999997E+02  0.45594000000E+02  0.51100000000E-03 0. -1.
         11   -1    0    0    0    0 -0.00000000000E+00 -0.00000000000E+00 -0.45593999997E+02  0.45594000000E+02  0.51100000000E-03 0.  1.
         23    2    1    2    0    0 -0.11102230246E-14  0.00000000000E+00 -0.35527136788E-14  0.91188000000E+02  0.91188000000E+02 0.  0.
    9900012    2    3    3    0    0  0.72756298753E+00  0.35944513342E+02 -0.24312262177E+02  0.47787268676E+02  0.19999989202E+02 0.  0.
         12    1    3    3    0    0 -0.72756298753E+00 -0.35944513342E+02  0.24312262177E+02  0.43400731324E+02  0.00000000000E+00 0. -1.
         11    1    4    4    0    0 -0.48738380782E+01  0.32949504446E+01 -0.82366429037E+00  0.59404898088E+01  0.51100000000E-03 0. -1.
        -11    1    4    4    0    0 -0.29662335603E+01  0.82043881866E+01 -0.55909367065E+01  0.10361906223E+02  0.51100000000E-03 0.  1.
        -12    1    4    4    0    0  0.85676346260E+01  0.24445174711E+02 -0.17897661181E+02  0.31484872645E+02  0.00000000000E+00 0.  1.
</event>
<event>
 8    1  0.2994958E-010  0.9118800E+02  0.7816164E-02  0.1184000E+00
        -11   -1    0    0    0    0  0.00000000000E+00  0.00000000000E+00  0.45593999997E+02  0.45594000000E+02  0.51100000000E-03 0. -1.
         11   -1    0    0    0    0 -0.00000000000E+00 -0.00000000000E+00 -0.45593999997E+02  0.45594000000E+02  0.51100000000E-03 0.  1.
         23    2    1    2    0    0  0.00000000000E+00  0.00000000000E+00  0.00000000000E+00  0.91188000000E+02  0.91188000000E+02 0.  0.
    9900012    2    3    3    0    0 -0.15681153055E+02 -0.14809969887E+02 -0.37661520620E+02  0.47787263778E+02  0.19999966870E+02 0.  0.
         12    1    3    3    0    0  0.15681153055E+02  0.14809969887E+02  0.37661520620E+02  0.43400736222E+02  0.00000000000E+00 0. -1.
         11    1    4    4    0    0  0.15692771016E+01 -0.16053944733E+01 -0.24047235190E+01  0.32897746884E+01  0.51100000000E-03 0. -1.
        -11    1    4    4    0    0 -0.13160719990E+02 -0.11796155007E+02 -0.36004106684E+02  0.40107973297E+02  0.51100000000E-03 0.  1.
        -12    1    4    4    0    0 -0.40897101660E+01 -0.14084204067E+01  0.74730958286E+00  0.43895157930E+01  0.00000000000E+00 0.  1.
</event>
<event>
 8    1  0.2994958E-010  0.9118800E+02  0.7816164E-02  0.1184000E+00
        -11   -1    0    0    0    0  0.00000000000E+00  0.00000000000E+00  0.45593999997E+02  0.45594000000E+02  0.51100000000E-03 0. -1.
         11   -1    0    0    0    0 -0.00000000000E+00 -0.00000000000E+00 -0.45593999997E+02  0.45594000000E+02  0.51100000000E-03 0.  1.
         23    2    1    2    0    0 -0.88817841970E-15  0.00000000000E+00  0.00000000000E+00  0.91188000000E+02  0.91188000000E+02 0.  0.
    9900012    2    3    3    0    0  0.53651145482E+01 -0.16636963050E+02  0.39724677953E+02  0.47787273830E+02  0.20000012699E+02 0.  0.
        -12    1    3    3    0    0 -0.53651145482E+01  0.16636963050E+02 -0.39724677953E+02  0.43400726170E+02  0.00000000000E+00 0.  1.
         11    1    4    4    0    0  0.20510732967E+01 -0.18249867756E+01  0.38554824008E+01  0.47330986894E+01  0.51100000000E-03 0. -1.
        -11    1    4    4    0    0  0.56558782094E+01  0.69934323805E+00  0.25836422364E+01  0.62572555287E+01  0.51100000000E-03 0.  1.
         12    1    4    4    0    0 -0.23418369579E+01 -0.15511319513E+02  0.33285553316E+02  0.36796919612E+02  0.00000000000E+00 0. -1.
</event>
<event>
 8    1  0.2994958E-010  0.9118800E+02  0.7816164E-02  0.1184000E+00
        -11   -1    0    0    0    0  0.00000000000E+00  0.00000000000E+00  0.45593999997E+02  0.45594000000E+02  0.51100000000E-03 0. -1.
         11   -1    0    0    0    0 -0.00000000000E+00 -0.00000000000E+00 -0.45593999997E+02  0.45594000000E+02  0.51100000000E-03 0.  1.
         23    2    1    2    0    0 -0.88817841970E-15  0.00000000000E+00  0.00000000000E+00  0.91188000000E+02  0.91188000000E+02 0.  0.
    9900012    2    3    3    0    0 -0.75900829638E+01 -0.13882651516E+02 -0.40413928150E+02  0.47787274649E+02  0.20000016434E+02 0.  0.
         12    1    3    3    0    0  0.75900829638E+01  0.13882651516E+02  0.40413928150E+02  0.43400725351E+02  0.00000000000E+00 0. -1.
         11    1    4    4    0    0  0.27240882754E+01  0.15301642438E+01 -0.13797280867E+01  0.34155101228E+01  0.51100000000E-03 0. -1.
        -11    1    4    4    0    0  0.15180749423E+01 -0.53115958301E+01 -0.94470439736E+01  0.10943685023E+02  0.51100000000E-03 0.  1.
        -12    1    4    4    0    0 -0.11832246182E+02 -0.10101219930E+02 -0.29587156089E+02  0.33428079503E+02  0.00000000000E+00 0.  1.
</event>
<event>
 8    1  0.2994958E-010  0.9118800E+02  0.7816164E-02  0.1184000E+00
        -11   -1    0    0    0    0  0.00000000000E+00  0.00000000000E+00  0.45593999997E+02  0.45594000000E+02  0.51100000000E-03 0. -1.
         11   -1    0    0    0    0 -0.00000000000E+00 -0.00000000000E+00 -0.45593999997E+02  0.45594000000E+02  0.51100000000E-03 0.  1.
         23    2    1    2    0    0 -0.88817841970E-15  0.00000000000E+00 -0.71054273576E-14  0.91188000000E+02  0.91188000000E+02 0.  0.
    9900012    2    3    3    0    0 -0.54692805865E+01 -0.21795073685E+02 -0.37130652609E+02  0.47787266939E+02  0.19999981282E+02 0.  0.
         12    1    3    3    0    0  0.54692805865E+01  0.21795073685E+02  0.37130652609E+02  0.43400733061E+02  0.00000000000E+00 0. -1.
         11    1    4    4    0    0 -0.41448859294E+00 -0.45138116524E+01  0.69186460279E+00  0.45852996976E+01  0.51100000000E-03 0. -1.
        -11    1    4    4    0    0 -0.45011338320E+01 -0.11611320129E+02 -0.14131718199E+02  0.18835828106E+02  0.51100000000E-03 0.  1.
        -12    1    4    4    0    0 -0.55365816157E+00 -0.56699419042E+01 -0.23690799012E+02  0.24366139136E+02  0.00000000000E+00 0.  1.
</event>
<event>
 8    1  0.2994958E-010  0.9118800E+02  0.7816164E-02  0.1184000E+00
        -11   -1    0    0    0    0  0.00000000000E+00  0.00000000000E+00  0.45593999997E+02  0.45594000000E+02  0.51100000000E-03 0. -1.
         11   -1    0    0    0    0 -0.00000000000E+00 -0.00000000000E+00 -0.45593999997E+02  0.45594000000E+02  0.51100000000E-03 0.  1.
         23    2    1    2    0    0  0.35527136788E-14  0.88817841970E-15  0.00000000000E+00  0.91188000000E+02  0.91188000000E+02 0.  0.
    9900012    2    3    3    0    0  0.26970983025E+02  0.60382525452E+01 -0.33462348766E+02  0.47787271849E+02  0.20000003669E+02 0.  0.
         12    1    3    3    0    0 -0.26970983025E+02 -0.60382525452E+01  0.33462348766E+02  0.43400728151E+02  0.00000000000E+00 0. -1.
         11    1    4    4    0    0  0.13052980851E+02 -0.91237593509E+00 -0.17025774596E+02  0.21473000251E+02  0.51100000000E-03 0. -1.
        -11    1    4    4    0    0  0.15184079721E+02  0.18915096679E+01 -0.11597468631E+02  0.19199879289E+02  0.51100000000E-03 0.  1.
         12    1    4    4    0    0 -0.12660775473E+01  0.50591188125E+01 -0.48391055387E+01  0.71143923092E+01  0.00000000000E+00 0. -1.
</event>
<event>
 8    1  0.2994958E-010  0.9118800E+02  0.7816164E-02  0.1184000E+00
        -11   -1    0    0    0    0  0.00000000000E+00  0.00000000000E+00  0.45593999997E+02  0.45594000000E+02  0.51100000000E-03 0.  1.
         11   -1    0    0    0    0 -0.00000000000E+00 -0.00000000000E+00 -0.45593999997E+02  0.45594000000E+02  0.51100000000E-03 0. -1.
         23    2    1    2    0    0  0.00000000000E+00  0.00000000000E+00 -0.11102230246E-15  0.91188000000E+02  0.91188000000E+02 0.  0.
    9900012    2    3    3    0    0 -0.10585606479E+02 -0.42079920977E+02  0.92114403689E+00  0.47787270509E+02  0.19999997560E+02 0.  0.
        -12    1    3    3    0    0  0.10585606479E+02  0.42079920977E+02 -0.92114403689E+00  0.43400729491E+02  0.00000000000E+00 0.  1.
         11    1    4    4    0    0 -0.42984951035E+01 -0.52116033204E+01  0.24572336479E-01  0.67556253141E+01  0.51100000000E-03 0. -1.
        -11    1    4    4    0    0 -0.91083693361E+00  0.15064495804E+01  0.14461005799E+01  0.22782057427E+01  0.51100000000E-03 0.  1.
         12    1    4    4    0    0 -0.53762744418E+01 -0.38374767237E+02 -0.54952887950E+00  0.38753439452E+02  0.00000000000E+00 0. -1.
</event>
<event>
 8    1  0.2994958E-010  0.9118800E+02  0.7816164E-02  0.1184000E+00
        -11   -1    0    0    0    0  0.00000000000E+00  0.00000000000E+00  0.45593999997E+02  0.45594000000E+02  0.51100000000E-03 0.  1.
         11   -1    0    0    0    0 -0.00000000000E+00 -0.00000000000E+00 -0.45593999997E+02  0.45594000000E+02  0.51100000000E-03 0. -1.
         23    2    1    2    0    0  0.00000000000E+00  0.00000000000E+00  0.00000000000E+00  0.91188000000E+02  0.91188000000E+02 0.  0.
    9900012    2    3    3    0    0  0.31123334599E+02  0.29754302822E+02 -0.54445099075E+01  0.47787272113E+02  0.20000004871E+02 0.  0.
         12    1    3    3    0    0 -0.31123334599E+02 -0.29754302822E+02  0.54445099075E+01  0.43400727887E+02  0.00000000000E+00 0. -1.
         11    1    4    4    0    0  0.60934165403E+01  0.59738095694E+01  0.18401432686E+01  0.87293902087E+01  0.51100000000E-03 0.  1.
        -11    1    4    4    0    0 -0.92301096420E+00  0.67396911748E+01 -0.38618067445E+01  0.78223358381E+01  0.51100000000E-03 0. -1.
         12    1    4    4    0    0  0.25952929023E+02  0.17040802078E+02 -0.34228464316E+01  0.31235546066E+02  0.00000000000E+00 0. -1.
</event>
<event>
 8    1  0.2994958E-010  0.9118800E+02  0.7816164E-02  0.1184000E+00
        -11   -1    0    0    0    0  0.00000000000E+00  0.00000000000E+00  0.45593999997E+02  0.45594000000E+02  0.51100000000E-03 0. -1.
         11   -1    0    0    0    0 -0.00000000000E+00 -0.00000000000E+00 -0.45593999997E+02  0.45594000000E+02  0.51100000000E-03 0.  1.
         23    2    1    2    0    0  0.00000000000E+00  0.00000000000E+00 -0.71054273576E-14  0.91188000000E+02  0.91188000000E+02 0.  0.
    9900012    2    3    3    0    0  0.25153944449E+02 -0.41647360794E+01  0.35122028809E+02  0.47787275863E+02  0.20000021969E+02 0.  0.
        -12    1    3    3    0    0 -0.25153944449E+02  0.41647360794E+01 -0.35122028809E+02  0.43400724137E+02  0.00000000000E+00 0.  1.
         11    1    4    4    0    0  0.42560011993E+01  0.25330171871E+01  0.80223632168E+01  0.94280450848E+01  0.51100000000E-03 0. -1.
        -11    1    4    4    0    0  0.16608483620E+02 -0.15012953017E+01  0.87940675220E+01  0.18852884119E+02  0.51100000000E-03 0.  1.
         12    1    4    4    0    0  0.42894596298E+01 -0.51964579648E+01  0.18305598070E+02  0.19506346659E+02  0.00000000000E+00 0. -1.
</event>
<event>
 8    1  0.2994958E-010  0.9118800E+02  0.7816164E-02  0.1184000E+00
        -11   -1    0    0    0    0  0.00000000000E+00  0.00000000000E+00  0.45593999997E+02  0.45594000000E+02  0.51100000000E-03 0. -1.
         11   -1    0    0    0    0 -0.00000000000E+00 -0.00000000000E+00 -0.45593999997E+02  0.45594000000E+02  0.51100000000E-03 0.  1.
         23    2    1    2    0    0  0.00000000000E+00  0.00000000000E+00  0.00000000000E+00  0.91188000000E+02  0.91188000000E+02 0.  0.
    9900012    2    3    3    0    0 -0.17412570462E+02  0.29405967647E+02  0.26752837592E+02  0.47787275783E+02  0.20000021605E+02 0.  0.
        -12    1    3    3    0    0  0.17412570462E+02 -0.29405967647E+02 -0.26752837592E+02  0.43400724217E+02  0.00000000000E+00 0.  1.
         11    1    4    4    0    0 -0.93481752277E+01  0.71453462951E+01  0.86874116883E+01  0.14625849578E+02  0.51100000000E-03 0. -1.
        -11    1    4    4    0    0 -0.17315605899E+01  0.13128765989E+01  0.93608008771E+01  0.96097107325E+01  0.51100000000E-03 0.  1.
        -12    1    4    4    0    0 -0.63328346441E+01  0.20947744753E+02  0.87046250265E+01  0.23551715473E+02  0.00000000000E+00 0.  1.
</event>
<event>
 8    1  0.2994958E-010  0.9118800E+02  0.7816164E-02  0.1184000E+00
        -11   -1    0    0    0    0  0.00000000000E+00  0.00000000000E+00  0.45593999997E+02  0.45594000000E+02  0.51100000000E-03 0. -1.
         11   -1    0    0    0    0 -0.00000000000E+00 -0.00000000000E+00 -0.45593999997E+02  0.45594000000E+02  0.51100000000E-03 0.  1.
         23    2    1    2    0    0  0.11102230246E-14  0.17763568394E-14 -0.71054273576E-14  0.91188000000E+02  0.91188000000E+02 0.  0.
    9900012    2    3    3    0    0  0.78038409866E+00 -0.10454945692E+02  0.42115419157E+02  0.47787269366E+02  0.19999992349E+02 0.  0.
        -12    1    3    3    0    0 -0.78038409866E+00  0.10454945692E+02 -0.42115419157E+02  0.43400730634E+02  0.00000000000E+00 0.  1.
         11    1    4    4    0    0 -0.26247550409E+01 -0.12074192149E+01  0.16491482525E+01  0.33266936146E+01  0.51100000000E-03 0.  1.
        -11    1    4    4    0    0  0.70373170922E+01  0.13666363497E+01  0.14538027371E+02  0.16209434502E+02  0.51100000000E-03 0. -1.
        -12    1    4    4    0    0 -0.36321779526E+01 -0.10614162827E+02  0.25928243534E+02  0.28251141250E+02  0.00000000000E+00 0.  1.
</event>
<event>
 8    1  0.2994958E-010  0.9118800E+02  0.7816164E-02  0.1184000E+00
        -11   -1    0    0    0    0  0.00000000000E+00  0.00000000000E+00  0.45593999997E+02  0.45594000000E+02  0.51100000000E-03 0. -1.
         11   -1    0    0    0    0 -0.00000000000E+00 -0.00000000000E+00 -0.45593999997E+02  0.45594000000E+02  0.51100000000E-03 0.  1.
         23    2    1    2    0    0 -0.71054273576E-14  0.00000000000E+00 -0.22204460493E-15  0.91188000000E+02  0.91188000000E+02 0.  0.
    9900012    2    3    3    0    0  0.30689899732E+02  0.30654148268E+02 -0.14426852848E+01  0.47787215533E+02  0.19999746897E+02 0.  0.
         12    1    3    3    0    0 -0.30689899732E+02 -0.30654148268E+02  0.14426852848E+01  0.43400784467E+02  0.00000000000E+00 0. -1.
         11    1    4    4    0    0  0.13340360337E+02  0.97311537280E+01 -0.92852219471E+01  0.18944020525E+02  0.51100000000E-03 0. -1.
        -11    1    4    4    0    0  0.94385872546E+01  0.79321332065E+01  0.17256667158E+01  0.12449240637E+02  0.51100000000E-03 0.  1.
         12    1    4    4    0    0  0.79109521405E+01  0.12990861333E+02  0.61168699464E+01  0.16393954370E+02  0.00000000000E+00 0. -1.
</event>
<event>
 8    1  0.2994958E-010  0.9118800E+02  0.7816164E-02  0.1184000E+00
        -11   -1    0    0    0    0  0.00000000000E+00  0.00000000000E+00  0.45593999997E+02  0.45594000000E+02  0.51100000000E-03 0. -1.
         11   -1    0    0    0    0 -0.00000000000E+00 -0.00000000000E+00 -0.45593999997E+02  0.45594000000E+02  0.51100000000E-03 0.  1.
         23    2    1    2    0    0 -0.35527136788E-14  0.00000000000E+00 -0.35527136788E-14  0.91188000000E+02  0.91188000000E+02 0.  0.
    9900012    2    3    3    0    0 -0.31302089903E+02 -0.63896949273E+01 -0.29376415939E+02  0.47787275963E+02  0.20000022424E+02 0.  0.
         12    1    3    3    0    0  0.31302089903E+02  0.63896949273E+01  0.29376415939E+02  0.43400724037E+02  0.00000000000E+00 0. -1.
         11    1    4    4    0    0 -0.29319268077E+02 -0.41190367085E+01 -0.28704608905E+02  0.41237610463E+02  0.51100000000E-03 0. -1.
        -11    1    4    4    0    0 -0.18911800094E+01  0.91147977250E+00 -0.21804429412E+01  0.30268281888E+01  0.51100000000E-03 0.  1.
         12    1    4    4    0    0 -0.91641815868E-01 -0.31821379913E+01  0.15086359074E+01  0.35228373109E+01  0.00000000000E+00 0. -1.
</event>
<event>
 8    1  0.4694531E-010  0.9118800E+02  0.7816164E-02  0.1184000E+00
        -11   -1    0    0    0    0  0.00000000000E+00  0.00000000000E+00  0.45593999997E+02  0.45594000000E+02  0.51100000000E-03 0. -1.
         11   -1    0    0    0    0 -0.00000000000E+00 -0.00000000000E+00 -0.45593999997E+02  0.45594000000E+02  0.51100000000E-03 0.  1.
         23    2    1    2    0    0 -0.17763568394E-14  0.00000000000E+00  0.00000000000E+00  0.91188000000E+02  0.91188000000E+02 0.  0.
    9900012    2    3    3    0    0 -0.14723932918E+02 -0.15307342122E+01  0.40798112641E+02  0.47787270250E+02  0.19999996378E+02 0.  0.
        -12    1    3    3    0    0  0.14723932918E+02  0.15307342122E+01 -0.40798112641E+02  0.43400729750E+02  0.00000000000E+00 0.  1.
         11    1    4    4    0    0 -0.68469885718E+01 -0.31695939424E+00  0.26894248914E+01  0.73630647333E+01  0.51100000000E-03 0. -1.
        -11    1    4    4    0    0  0.42452005884E+00 -0.43884712749E+01  0.96399498049E+01  0.10600355179E+02  0.51100000000E-03 0.  1.
         12    1    4    4    0    0 -0.83014644046E+01  0.31746964569E+01  0.28468737944E+02  0.29823850338E+02  0.00000000000E+00 0. -1.
</event>
<event>
 8    1  0.2994958E-010  0.9118800E+02  0.7816164E-02  0.1184000E+00
        -11   -1    0    0    0    0  0.00000000000E+00  0.00000000000E+00  0.45593999997E+02  0.45594000000E+02  0.51100000000E-03 0. -1.
         11   -1    0    0    0    0 -0.00000000000E+00 -0.00000000000E+00 -0.45593999997E+02  0.45594000000E+02  0.51100000000E-03 0.  1.
         23    2    1    2    0    0  0.00000000000E+00 -0.33306690739E-15  0.00000000000E+00  0.91188000000E+02  0.91188000000E+02 0.  0.
    9900012    2    3    3    0    0  0.29409392673E+02  0.51788848999E+00 -0.31913045146E+02  0.47787273780E+02  0.20000012474E+02 0.  0.
         12    1    3    3    0    0 -0.29409392673E+02 -0.51788848999E+00  0.31913045146E+02  0.43400726220E+02  0.00000000000E+00 0. -1.
         11    1    4    4    0    0  0.36289496312E+00 -0.35742445812E+01 -0.15898292136E+01  0.39286733474E+01  0.51100000000E-03 0. -1.
        -11    1    4    4    0    0  0.24452373152E+02  0.38880746304E+01 -0.17732931644E+02  0.30454762222E+02  0.51100000000E-03 0.  1.
         12    1    4    4    0    0  0.45941245581E+01  0.20405844077E+00 -0.12590284289E+02  0.13403838211E+02  0.00000000000E+00 0. -1.
</event>
<event>
 8    1  0.2994958E-010  0.9118800E+02  0.7816164E-02  0.1184000E+00
        -11   -1    0    0    0    0  0.00000000000E+00  0.00000000000E+00  0.45593999997E+02  0.45594000000E+02  0.51100000000E-03 0. -1.
         11   -1    0    0    0    0 -0.00000000000E+00 -0.00000000000E+00 -0.45593999997E+02  0.45594000000E+02  0.51100000000E-03 0.  1.
         23    2    1    2    0    0  0.00000000000E+00 -0.35527136788E-14 -0.17763568394E-14  0.91188000000E+02  0.91188000000E+02 0.  0.
    9900012    2    3    3    0    0 -0.29917325350E+02  0.30653157446E+02  0.69971876942E+01  0.47787273587E+02  0.20000011595E+02 0.  0.
         12    1    3    3    0    0  0.29917325350E+02 -0.30653157446E+02 -0.69971876942E+01  0.43400726413E+02  0.00000000000E+00 0. -1.
         11    1    4    4    0    0 -0.68992542393E+01  0.87976552199E+01  0.60159907777E+01  0.12696085685E+02  0.51100000000E-03 0. -1.
        -11    1    4    4    0    0 -0.15007377481E+02  0.97223812303E+01  0.72018492205E+01  0.19277258833E+02  0.51100000000E-03 0.  1.
         12    1    4    4    0    0 -0.80106936292E+01  0.12133120996E+02 -0.62206523040E+01  0.15813929069E+02  0.00000000000E+00 0. -1.
</event>
<event>
 8    1  0.2994958E-010  0.9118800E+02  0.7816164E-02  0.1184000E+00
        -11   -1    0    0    0    0  0.00000000000E+00  0.00000000000E+00  0.45593999997E+02  0.45594000000E+02  0.51100000000E-03 0. -1.
         11   -1    0    0    0    0 -0.00000000000E+00 -0.00000000000E+00 -0.45593999997E+02  0.45594000000E+02  0.51100000000E-03 0.  1.
         23    2    1    2    0    0  0.00000000000E+00  0.13322676296E-14  0.00000000000E+00  0.91188000000E+02  0.91188000000E+02 0.  0.
    9900012    2    3    3    0    0  0.17302687013E+02  0.19888939698E+01 -0.39752795731E+02  0.47787269067E+02  0.19999990982E+02 0.  0.
         12    1    3    3    0    0 -0.17302687013E+02 -0.19888939698E+01  0.39752795731E+02  0.43400730933E+02  0.00000000000E+00 0. -1.
         11    1    4    4    0    0  0.77602004919E+01 -0.29319011606E+01 -0.19341986674E+02  0.21045883323E+02  0.51100000000E-03 0. -1.
        -11    1    4    4    0    0  0.10243124698E+02 -0.14277036051E+01 -0.15719573165E+02  0.18816612924E+02  0.51100000000E-03 0.  1.
         12    1    4    4    0    0 -0.70063817721E+00  0.63484987355E+01 -0.46912358924E+01  0.79247728200E+01  0.00000000000E+00 0. -1.
</event>
<event>
 8    1  0.2994958E-010  0.9118800E+02  0.7816164E-02  0.1184000E+00
        -11   -1    0    0    0    0  0.00000000000E+00  0.00000000000E+00  0.45593999997E+02  0.45594000000E+02  0.51100000000E-03 0. -1.
         11   -1    0    0    0    0 -0.00000000000E+00 -0.00000000000E+00 -0.45593999997E+02  0.45594000000E+02  0.51100000000E-03 0.  1.
         23    2    1    2    0    0  0.00000000000E+00  0.71054273576E-14  0.00000000000E+00  0.91188000000E+02  0.91188000000E+02 0.  0.
    9900012    2    3    3    0    0 -0.11003750197E+02 -0.33533139373E+02  0.25260011883E+02  0.47787283936E+02  0.20000058776E+02 0.  0.
        -12    1    3    3    0    0  0.11003750197E+02  0.33533139373E+02 -0.25260011883E+02  0.43400716064E+02  0.00000000000E+00 0.  1.
         11    1    4    4    0    0 -0.49329854764E+01 -0.10596621402E+02  0.47705385529E+01  0.12624609665E+02  0.51100000000E-03 0. -1.
        -11    1    4    4    0    0 -0.49258058097E+01 -0.16439213989E+02  0.43165581717E+01  0.17695875061E+02  0.51100000000E-03 0.  1.
         12    1    4    4    0    0 -0.11449589106E+01 -0.64973039819E+01  0.16172915158E+02  0.17466799210E+02  0.00000000000E+00 0. -1.
</event>
<event>
 8    1  0.2994958E-010  0.9118800E+02  0.7816164E-02  0.1184000E+00
        -11   -1    0    0    0    0  0.00000000000E+00  0.00000000000E+00  0.45593999997E+02  0.45594000000E+02  0.51100000000E-03 0. -1.
         11   -1    0    0    0    0 -0.00000000000E+00 -0.00000000000E+00 -0.45593999997E+02  0.45594000000E+02  0.51100000000E-03 0.  1.
         23    2    1    2    0    0  0.00000000000E+00  0.00000000000E+00  0.35527136788E-14  0.91188000000E+02  0.91188000000E+02 0.  0.
    9900012    2    3    3    0    0 -0.28211033359E+02  0.22822237500E+02  0.23809796136E+02  0.47787270516E+02  0.19999997589E+02 0.  0.
        -12    1    3    3    0    0  0.28211033359E+02 -0.22822237500E+02 -0.23809796136E+02  0.43400729484E+02  0.00000000000E+00 0.  1.
         11    1    4    4    0    0 -0.11456481394E+02  0.14411968712E+02  0.13552506352E+02  0.22861020029E+02  0.51100000000E-03 0. -1.
        -11    1    4    4    0    0 -0.14750337989E+02  0.10874706058E+02  0.53680889394E+01  0.19095760832E+02  0.51100000000E-03 0.  1.
        -12    1    4    4    0    0 -0.20042139760E+01 -0.24644372687E+01  0.48892008450E+01  0.58304896549E+01  0.00000000000E+00 0.  1.
</event>
<event>
 8    1  0.2994958E-010  0.9118800E+02  0.7816164E-02  0.1184000E+00
        -11   -1    0    0    0    0  0.00000000000E+00  0.00000000000E+00  0.45593999997E+02  0.45594000000E+02  0.51100000000E-03 0. -1.
         11   -1    0    0    0    0 -0.00000000000E+00 -0.00000000000E+00 -0.45593999997E+02  0.45594000000E+02  0.51100000000E-03 0.  1.
         23    2    1    2    0    0  0.88817841970E-15  0.00000000000E+00  0.00000000000E+00  0.91188000000E+02  0.91188000000E+02 0.  0.
    9900012    2    3    3    0    0 -0.61487713784E+01 -0.91902049092E+01 -0.41968516752E+02  0.47787266664E+02  0.19999980028E+02 0.  0.
         12    1    3    3    0    0  0.61487713784E+01  0.91902049092E+01  0.41968516752E+02  0.43400733336E+02  0.00000000000E+00 0. -1.
         11    1    4    4    0    0 -0.77270701511E+01 -0.53246023590E+01 -0.16839853414E+02  0.19277958052E+02  0.51100000000E-03 0. -1.
        -11    1    4    4    0    0 -0.50201871086E+01 -0.45614776408E+01 -0.13902067052E+02  0.15468575418E+02  0.51100000000E-03 0.  1.
         12    1    4    4    0    0  0.65984858813E+01  0.69587509054E+00 -0.11226596286E+02  0.13040733194E+02  0.00000000000E+00 0. -1.
</event>
<event>
 8    1  0.2994958E-010  0.9118800E+02  0.7816164E-02  0.1184000E+00
        -11   -1    0    0    0    0  0.00000000000E+00  0.00000000000E+00  0.45593999997E+02  0.45594000000E+02  0.51100000000E-03 0. -1.
         11   -1    0    0    0    0 -0.00000000000E+00 -0.00000000000E+00 -0.45593999997E+02  0.45594000000E+02  0.51100000000E-03 0.  1.
         23    2    1    2    0    0  0.17763568394E-14  0.00000000000E+00  0.00000000000E+00  0.91188000000E+02  0.91188000000E+02 0.  0.
    9900012    2    3    3    0    0  0.12934607173E+02 -0.40581691138E+01 -0.41229243115E+02  0.47787270892E+02  0.19999999304E+02 0.  0.
         12    1    3    3    0    0 -0.12934607173E+02  0.40581691138E+01  0.41229243115E+02  0.43400729108E+02  0.00000000000E+00 0. -1.
         11    1    4    4    0    0  0.20925542587E+01  0.28487183744E+01 -0.38327339793E+00  0.35554013080E+01  0.51100000000E-03 0. -1.
        -11    1    4    4    0    0  0.15386796482E+01  0.15791243160E+01 -0.95885470099E+00  0.24042818603E+01  0.51100000000E-03 0.  1.
        -12    1    4    4    0    0  0.93033732664E+01 -0.84860118042E+01 -0.39887115016E+02  0.41827587724E+02  0.00000000000E+00 0.  1.
</event>
<event>
 8    1  0.2994958E-010  0.9118800E+02  0.7816164E-02  0.1184000E+00
        -11   -1    0    0    0    0  0.00000000000E+00  0.00000000000E+00  0.45593999997E+02  0.45594000000E+02  0.51100000000E-03 0. -1.
         11   -1    0    0    0    0 -0.00000000000E+00 -0.00000000000E+00 -0.45593999997E+02  0.45594000000E+02  0.51100000000E-03 0.  1.
         23    2    1    2    0    0  0.44408920985E-15  0.00000000000E+00 -0.71054273576E-14  0.91188000000E+02  0.91188000000E+02 0.  0.
    9900012    2    3    3    0    0 -0.11502976491E+01  0.19157718265E+02  0.38926629964E+02  0.47787264129E+02  0.19999968470E+02 0.  0.
        -12    1    3    3    0    0  0.11502976491E+01 -0.19157718265E+02 -0.38926629964E+02  0.43400735871E+02  0.00000000000E+00 0.  1.
         11    1    4    4    0    0 -0.43157679021E+01  0.77049792320E+01  0.71735182598E+01  0.11377694056E+02  0.51100000000E-03 0. -1.
        -11    1    4    4    0    0  0.47113746462E+01  0.12006947979E+02  0.15909686599E+02  0.20481259208E+02  0.51100000000E-03 0.  1.
        -12    1    4    4    0    0 -0.15459043932E+01 -0.55420894537E+00  0.15843425105E+02  0.15928310865E+02  0.00000000000E+00 0.  1.
</event>
<event>
 8    1  0.2994958E-010  0.9118800E+02  0.7816164E-02  0.1184000E+00
        -11   -1    0    0    0    0  0.00000000000E+00  0.00000000000E+00  0.45593999997E+02  0.45594000000E+02  0.51100000000E-03 0. -1.
         11   -1    0    0    0    0 -0.00000000000E+00 -0.00000000000E+00 -0.45593999997E+02  0.45594000000E+02  0.51100000000E-03 0.  1.
         23    2    1    2    0    0  0.00000000000E+00  0.00000000000E+00  0.00000000000E+00  0.91188000000E+02  0.91188000000E+02 0.  0.
    9900012    2    3    3    0    0 -0.77974365024E+01 -0.30269148107E+02 -0.30109827251E+02  0.47787273737E+02  0.20000012275E+02 0.  0.
         12    1    3    3    0    0  0.77974365024E+01  0.30269148107E+02  0.30109827251E+02  0.43400726263E+02  0.00000000000E+00 0. -1.
         11    1    4    4    0    0 -0.87627741574E+01 -0.14792714091E+02 -0.11280079849E+02  0.20563336372E+02  0.51100000000E-03 0. -1.
        -11    1    4    4    0    0 -0.37661434764E+00 -0.63814114229E+01 -0.13842737293E+00  0.63940138031E+01  0.51100000000E-03 0.  1.
        -12    1    4    4    0    0  0.13419520026E+01 -0.90950225929E+01 -0.18691320029E+02  0.20829923561E+02  0.00000000000E+00 0.  1.
</event>
<event>
 8    1  0.2994958E-010  0.9118800E+02  0.7816164E-02  0.1184000E+00
        -11   -1    0    0    0    0  0.00000000000E+00  0.00000000000E+00  0.45593999997E+02  0.45594000000E+02  0.51100000000E-03 0. -1.
         11   -1    0    0    0    0 -0.00000000000E+00 -0.00000000000E+00 -0.45593999997E+02  0.45594000000E+02  0.51100000000E-03 0.  1.
         23    2    1    2    0    0  0.00000000000E+00  0.00000000000E+00  0.35527136788E-14  0.91188000000E+02  0.91188000000E+02 0.  0.
    9900012    2    3    3    0    0  0.99319496637E+01  0.33873861312E+02  0.25249577626E+02  0.47787271036E+02  0.19999999962E+02 0.  0.
        -12    1    3    3    0    0 -0.99319496637E+01 -0.33873861312E+02 -0.25249577626E+02  0.43400728964E+02  0.00000000000E+00 0.  1.
         11    1    4    4    0    0  0.63433910535E+01  0.32360313205E+02  0.26983537809E+02  0.42609151526E+02  0.51100000000E-03 0. -1.
        -11    1    4    4    0    0  0.15642079233E+01 -0.51107980047E+00  0.29128313420E+00  0.16711657952E+01  0.51100000000E-03 0.  1.
         12    1    4    4    0    0  0.20243506869E+01  0.20246279074E+01 -0.20252433171E+01  0.35069537152E+01  0.00000000000E+00 0. -1.
</event>
<event>
 8    1  0.2994958E-010  0.9118800E+02  0.7816164E-02  0.1184000E+00
        -11   -1    0    0    0    0  0.00000000000E+00  0.00000000000E+00  0.45593999997E+02  0.45594000000E+02  0.51100000000E-03 0. -1.
         11   -1    0    0    0    0 -0.00000000000E+00 -0.00000000000E+00 -0.45593999997E+02  0.45594000000E+02  0.51100000000E-03 0.  1.
         23    2    1    2    0    0  0.00000000000E+00  0.00000000000E+00  0.44408920985E-15  0.91188000000E+02  0.91188000000E+02 0.  0.
    9900012    2    3    3    0    0 -0.70960421478E+01  0.42788935415E+02 -0.15418875174E+01  0.47787260084E+02  0.19999950029E+02 0.  0.
         12    1    3    3    0    0  0.70960421478E+01 -0.42788935415E+02  0.15418875174E+01  0.43400739916E+02  0.00000000000E+00 0. -1.
         11    1    4    4    0    0 -0.42289749863E+01  0.71347851883E+01  0.66428303410E+01  0.10626221545E+02  0.51100000000E-03 0. -1.
        -11    1    4    4    0    0  0.10596283205E+01  0.11421290227E+02 -0.67946118898E+00  0.11490446049E+02  0.51100000000E-03 0.  1.
         12    1    4    4    0    0 -0.39266954820E+01  0.24232859999E+02 -0.75052566694E+01  0.25670592491E+02  0.00000000000E+00 0. -1.
</event>
<event>
 8    1  0.2994958E-010  0.9118800E+02  0.7816164E-02  0.1184000E+00
        -11   -1    0    0    0    0  0.00000000000E+00  0.00000000000E+00  0.45593999997E+02  0.45594000000E+02  0.51100000000E-03 0. -1.
         11   -1    0    0    0    0 -0.00000000000E+00 -0.00000000000E+00 -0.45593999997E+02  0.45594000000E+02  0.51100000000E-03 0.  1.
         23    2    1    2    0    0  0.00000000000E+00 -0.35527136788E-14  0.35527136788E-14  0.91188000000E+02  0.91188000000E+02 0.  0.
    9900012    2    3    3    0    0  0.25193340221E+02 -0.18947560932E+02 -0.29831337703E+02  0.47787272288E+02  0.20000005671E+02 0.  0.
         12    1    3    3    0    0 -0.25193340221E+02  0.18947560932E+02  0.29831337703E+02  0.43400727712E+02  0.00000000000E+00 0. -1.
         11    1    4    4    0    0  0.33489697231E+01 -0.87313690248E+01 -0.11869225319E+02  0.15110622528E+02  0.51100000000E-03 0. -1.
        -11    1    4    4    0    0 -0.81415593479E+00 -0.35407185075E+01 -0.17944137071E+01  0.40520930702E+01  0.51100000000E-03 0.  1.
        -12    1    4    4    0    0  0.22658526432E+02 -0.66754734002E+01 -0.16167698677E+02  0.28624556690E+02  0.00000000000E+00 0.  1.
</event>
<event>
 8    1  0.2994958E-010  0.9118800E+02  0.7816164E-02  0.1184000E+00
        -11   -1    0    0    0    0  0.00000000000E+00  0.00000000000E+00  0.45593999997E+02  0.45594000000E+02  0.51100000000E-03 0. -1.
         11   -1    0    0    0    0 -0.00000000000E+00 -0.00000000000E+00 -0.45593999997E+02  0.45594000000E+02  0.51100000000E-03 0.  1.
         23    2    1    2    0    0  0.00000000000E+00  0.00000000000E+00  0.00000000000E+00  0.91188000000E+02  0.91188000000E+02 0.  0.
    9900012    2    3    3    0    0 -0.75690730992E+01  0.21462313754E+02 -0.36955396049E+02  0.47787273320E+02  0.20000010374E+02 0.  0.
         12    1    3    3    0    0  0.75690730992E+01 -0.21462313754E+02  0.36955396049E+02  0.43400726680E+02  0.00000000000E+00 0. -1.
         11    1    4    4    0    0 -0.27573813783E+01  0.10216667989E+02 -0.18627232544E+02  0.21423287548E+02  0.51100000000E-03 0.  1.
        -11    1    4    4    0    0  0.33305119332E+01  0.33407625402E+01 -0.12995601317E+02  0.13825290520E+02  0.51100000000E-03 0. -1.
         12    1    4    4    0    0 -0.81422036541E+01  0.79048832246E+01 -0.53325621876E+01  0.12538695252E+02  0.00000000000E+00 0. -1.
</event>
<event>
 8    1  0.2994958E-010  0.9118800E+02  0.7816164E-02  0.1184000E+00
        -11   -1    0    0    0    0  0.00000000000E+00  0.00000000000E+00  0.45593999997E+02  0.45594000000E+02  0.51100000000E-03 0. -1.
         11   -1    0    0    0    0 -0.00000000000E+00 -0.00000000000E+00 -0.45593999997E+02  0.45594000000E+02  0.51100000000E-03 0.  1.
         23    2    1    2    0    0 -0.88817841970E-15  0.17763568394E-14  0.00000000000E+00  0.91188000000E+02  0.91188000000E+02 0.  0.
    9900012    2    3    3    0    0  0.55017973176E+01 -0.10368654344E+02  0.41783301798E+02  0.47787273327E+02  0.20000010407E+02 0.  0.
        -12    1    3    3    0    0 -0.55017973176E+01  0.10368654344E+02 -0.41783301798E+02  0.43400726673E+02  0.00000000000E+00 0.  1.
         11    1    4    4    0    0  0.10563106626E+01  0.15026157569E+01  0.19053447523E+02  0.19141773928E+02  0.51100000000E-03 0. -1.
        -11    1    4    4    0    0 -0.31771977295E+01 -0.81769207187E+00  0.17008104765E+01  0.36953974448E+01  0.51100000000E-03 0.  1.
        -12    1    4    4    0    0  0.76226843846E+01 -0.11053578029E+02  0.21029043798E+02  0.24950101954E+02  0.00000000000E+00 0.  1.
</event>
<event>
 8    1  0.2994958E-010  0.9118800E+02  0.7816164E-02  0.1184000E+00
        -11   -1    0    0    0    0  0.00000000000E+00  0.00000000000E+00  0.45593999997E+02  0.45594000000E+02  0.51100000000E-03 0. -1.
         11   -1    0    0    0    0 -0.00000000000E+00 -0.00000000000E+00 -0.45593999997E+02  0.45594000000E+02  0.51100000000E-03 0.  1.
         23    2    1    2    0    0  0.00000000000E+00  0.35527136788E-14  0.35527136788E-14  0.91188000000E+02  0.91188000000E+02 0.  0.
    9900012    2    3    3    0    0  0.19667468099E+02  0.31552778643E+02  0.22388311588E+02  0.47787266858E+02  0.19999980912E+02 0.  0.
        -12    1    3    3    0    0 -0.19667468099E+02 -0.31552778643E+02 -0.22388311588E+02  0.43400733142E+02  0.00000000000E+00 0.  1.
         11    1    4    4    0    0  0.90337944206E+01  0.11367476394E+01  0.53797496017E+01  0.10575601300E+02  0.51100000000E-03 0. -1.
        -11    1    4    4    0    0 -0.70638259396E+00  0.54710149590E+01  0.43609582103E+01  0.70319938726E+01  0.51100000000E-03 0.  1.
         12    1    4    4    0    0  0.11340056273E+02  0.24945016045E+02  0.12647603776E+02  0.30179671685E+02  0.00000000000E+00 0. -1.
</event>
<event>
 8    1  0.3957595E-010  0.9118800E+02  0.7816164E-02  0.1184000E+00
        -11   -1    0    0    0    0  0.00000000000E+00  0.00000000000E+00  0.45593999997E+02  0.45594000000E+02  0.51100000000E-03 0. -1.
         11   -1    0    0    0    0 -0.00000000000E+00 -0.00000000000E+00 -0.45593999997E+02  0.45594000000E+02  0.51100000000E-03 0.  1.
         23    2    1    2    0    0  0.00000000000E+00  0.00000000000E+00  0.35527136788E-14  0.91188000000E+02  0.91188000000E+02 0.  0.
    9900012    2    3    3    0    0  0.32843020443E+02  0.88639861336E+01  0.26951601765E+02  0.47787273282E+02  0.20000010200E+02 0.  0.
        -12    1    3    3    0    0 -0.32843020443E+02 -0.88639861336E+01 -0.26951601765E+02  0.43400726718E+02  0.00000000000E+00 0.  1.
         11    1    4    4    0    0  0.90163201809E+01  0.27342216022E+01  0.15978975048E+01  0.95563211578E+01  0.51100000000E-03 0. -1.
        -11    1    4    4    0    0 -0.15420935980E+01 -0.12467457568E+01  0.72256520897E+00  0.21105753692E+01  0.51100000000E-03 0.  1.
         12    1    4    4    0    0  0.25368793860E+02  0.73765102881E+01  0.24631139051E+02  0.36120376755E+02  0.00000000000E+00 0. -1.
</event>
<event>
 8    1  0.2994958E-010  0.9118800E+02  0.7816164E-02  0.1184000E+00
        -11   -1    0    0    0    0  0.00000000000E+00  0.00000000000E+00  0.45593999997E+02  0.45594000000E+02  0.51100000000E-03 0. -1.
         11   -1    0    0    0    0 -0.00000000000E+00 -0.00000000000E+00 -0.45593999997E+02  0.45594000000E+02  0.51100000000E-03 0.  1.
         23    2    1    2    0    0  0.77715611724E-15  0.44408920985E-15  0.71054273576E-14  0.91188000000E+02  0.91188000000E+02 0.  0.
    9900012    2    3    3    0    0  0.86138714372E+00  0.28645735620E+01  0.43297525118E+02  0.47787269005E+02  0.19999990703E+02 0.  0.
        -12    1    3    3    0    0 -0.86138714372E+00 -0.28645735620E+01 -0.43297525118E+02  0.43400730995E+02  0.00000000000E+00 0.  1.
         11    1    4    4    0    0  0.47998732498E+01  0.66921284974E+01  0.31019099167E+02  0.32093735844E+02  0.51100000000E-03 0. -1.
        -11    1    4    4    0    0  0.11548970397E+01  0.76585985511E+00  0.67310875459E+01  0.68722535097E+01  0.51100000000E-03 0.  1.
        -12    1    4    4    0    0 -0.50933831457E+01 -0.45934147905E+01  0.55473384053E+01  0.88212796514E+01  0.00000000000E+00 0.  1.
</event>
<event>
 8    1  0.2994958E-010  0.9118800E+02  0.7816164E-02  0.1184000E+00
        -11   -1    0    0    0    0  0.00000000000E+00  0.00000000000E+00  0.45593999997E+02  0.45594000000E+02  0.51100000000E-03 0. -1.
         11   -1    0    0    0    0 -0.00000000000E+00 -0.00000000000E+00 -0.45593999997E+02  0.45594000000E+02  0.51100000000E-03 0.  1.
         23    2    1    2    0    0  0.00000000000E+00  0.17763568394E-14 -0.35527136788E-14  0.91188000000E+02  0.91188000000E+02 0.  0.
    9900012    2    3    3    0    0 -0.37928566829E+02  0.12103832788E+02 -0.17278446130E+02  0.47787266706E+02  0.19999980218E+02 0.  0.
         12    1    3    3    0    0  0.37928566829E+02 -0.12103832788E+02  0.17278446130E+02  0.43400733294E+02  0.00000000000E+00 0. -1.
         11    1    4    4    0    0 -0.16643149964E+02  0.10578918029E+02 -0.80002465720E+01  0.21281726736E+02  0.51100000000E-03 0. -1.
        -11    1    4    4    0    0  0.15915254030E+01  0.11234314008E+01 -0.73933584755E+00  0.20836671945E+01  0.51100000000E-03 0.  1.
        -12    1    4    4    0    0 -0.22876942267E+02  0.40148335873E+00 -0.85388637103E+01  0.24421872775E+02  0.00000000000E+00 0.  1.
</event>
<event>
 8    1  0.2994958E-010  0.9118800E+02  0.7816164E-02  0.1184000E+00
        -11   -1    0    0    0    0  0.00000000000E+00  0.00000000000E+00  0.45593999997E+02  0.45594000000E+02  0.51100000000E-03 0. -1.
         11   -1    0    0    0    0 -0.00000000000E+00 -0.00000000000E+00 -0.45593999997E+02  0.45594000000E+02  0.51100000000E-03 0.  1.
         23    2    1    2    0    0  0.17763568394E-14  0.00000000000E+00  0.00000000000E+00  0.91188000000E+02  0.91188000000E+02 0.  0.
    9900012    2    3    3    0    0  0.15682741664E+02  0.26281582437E+02 -0.30772606711E+02  0.47787270913E+02  0.19999999401E+02 0.  0.
         12    1    3    3    0    0 -0.15682741664E+02 -0.26281582437E+02  0.30772606711E+02  0.43400729087E+02  0.00000000000E+00 0. -1.
         11    1    4    4    0    0  0.20233028726E+01  0.24399292424E+00  0.90849451314E+00  0.22312887762E+01  0.51100000000E-03 0. -1.
        -11    1    4    4    0    0 -0.60317881391E+00  0.89473273757E+01 -0.34586370333E+01  0.96114859537E+01  0.51100000000E-03 0.  1.
        -12    1    4    4    0    0  0.14262617605E+02  0.17090262137E+02 -0.28222464191E+02  0.35944496183E+02  0.00000000000E+00 0.  1.
</event>
<event>
 8    1  0.2994958E-010  0.9118800E+02  0.7816164E-02  0.1184000E+00
        -11   -1    0    0    0    0  0.00000000000E+00  0.00000000000E+00  0.45593999997E+02  0.45594000000E+02  0.51100000000E-03 0.  1.
         11   -1    0    0    0    0 -0.00000000000E+00 -0.00000000000E+00 -0.45593999997E+02  0.45594000000E+02  0.51100000000E-03 0. -1.
         23    2    1    2    0    0  0.00000000000E+00  0.00000000000E+00  0.44408920985E-15  0.91188000000E+02  0.91188000000E+02 0.  0.
    9900012    2    3    3    0    0 -0.40202938935E+02 -0.16298194167E+02  0.13098614646E+01  0.47787272250E+02  0.20000005498E+02 0.  0.
        -12    1    3    3    0    0  0.40202938935E+02  0.16298194167E+02 -0.13098614646E+01  0.43400727750E+02  0.00000000000E+00 0.  1.
         11    1    4    4    0    0 -0.22462934647E+02 -0.51742120619E+00 -0.15617495656E+01  0.22523104129E+02  0.51100000000E-03 0. -1.
        -11    1    4    4    0    0 -0.85105807365E+01 -0.63936083009E+01 -0.26803742634E+01  0.10976912955E+02  0.51100000000E-03 0.  1.
        -12    1    4    4    0    0 -0.92294235517E+01 -0.93871646604E+01  0.55519852935E+01  0.14287255165E+02  0.00000000000E+00 0.  1.
</event>
<event>
 8    1  0.2994958E-010  0.9118800E+02  0.7816164E-02  0.1184000E+00
        -11   -1    0    0    0    0  0.00000000000E+00  0.00000000000E+00  0.45593999997E+02  0.45594000000E+02  0.51100000000E-03 0. -1.
         11   -1    0    0    0    0 -0.00000000000E+00 -0.00000000000E+00 -0.45593999997E+02  0.45594000000E+02  0.51100000000E-03 0.  1.
         23    2    1    2    0    0  0.00000000000E+00  0.17763568394E-14  0.71054273576E-14  0.91188000000E+02  0.91188000000E+02 0.  0.
    9900012    2    3    3    0    0  0.13378487149E+02 -0.15030706167E+02 -0.38454085321E+02  0.47787277377E+02  0.20000028872E+02 0.  0.
         12    1    3    3    0    0 -0.13378487149E+02  0.15030706167E+02  0.38454085321E+02  0.43400722623E+02  0.00000000000E+00 0. -1.
         11    1    4    4    0    0 -0.30957988729E+01 -0.16775822949E+01 -0.36369415183E+01  0.50621731387E+01  0.51100000000E-03 0. -1.
        -11    1    4    4    0    0  0.28567904564E+00  0.98589213816E+00  0.62819201152E+00  0.12034206620E+01  0.51100000000E-03 0.  1.
        -12    1    4    4    0    0  0.16188606976E+02 -0.14339016011E+02 -0.35445335815E+02  0.41521683576E+02  0.00000000000E+00 0.  1.
</event>
<event>
 8    1  0.2994958E-010  0.9118800E+02  0.7816164E-02  0.1184000E+00
        -11   -1    0    0    0    0  0.00000000000E+00  0.00000000000E+00  0.45593999997E+02  0.45594000000E+02  0.51100000000E-03 0. -1.
         11   -1    0    0    0    0 -0.00000000000E+00 -0.00000000000E+00 -0.45593999997E+02  0.45594000000E+02  0.51100000000E-03 0.  1.
         23    2    1    2    0    0  0.71054273576E-14  0.00000000000E+00  0.00000000000E+00  0.91188000000E+02  0.91188000000E+02 0.  0.
    9900012    2    3    3    0    0 -0.34997888076E+02  0.11784443543E+01  0.25639467021E+02  0.47787272241E+02  0.20000005455E+02 0.  0.
        -12    1    3    3    0    0  0.34997888076E+02 -0.11784443543E+01 -0.25639467021E+02  0.43400727759E+02  0.00000000000E+00 0.  1.
         11    1    4    4    0    0  0.28667190236E+00 -0.30754574212E+01  0.33520110734E+00  0.31069243912E+01  0.51100000000E-03 0. -1.
        -11    1    4    4    0    0 -0.11298742848E+02  0.35282553658E+01  0.37282542957E+01  0.12410078816E+02  0.51100000000E-03 0.  1.
         12    1    4    4    0    0 -0.23985817131E+02  0.72564640969E+00  0.21576011618E+02  0.32270269033E+02  0.00000000000E+00 0. -1.
</event>
<event>
 8    1  0.2994958E-010  0.9118800E+02  0.7816164E-02  0.1184000E+00
        -11   -1    0    0    0    0  0.00000000000E+00  0.00000000000E+00  0.45593999997E+02  0.45594000000E+02  0.51100000000E-03 0. -1.
         11   -1    0    0    0    0 -0.00000000000E+00 -0.00000000000E+00 -0.45593999997E+02  0.45594000000E+02  0.51100000000E-03 0.  1.
         23    2    1    2    0    0 -0.44408920985E-15 -0.71054273576E-14  0.35527136788E-14  0.91188000000E+02  0.91188000000E+02 0.  0.
    9900012    2    3    3    0    0 -0.33586292681E+01 -0.39061987318E+02  0.18614615177E+02  0.47787272564E+02  0.20000006926E+02 0.  0.
        -12    1    3    3    0    0  0.33586292681E+01  0.39061987318E+02 -0.18614615177E+02  0.43400727436E+02  0.00000000000E+00 0.  1.
         11    1    4    4    0    0  0.20858602771E+01 -0.79312845872E+01  0.77181324728E+01  0.11261689812E+02  0.51100000000E-03 0. -1.
        -11    1    4    4    0    0  0.52637364346E+00 -0.20950725766E+02  0.12820767314E+02  0.24567906995E+02  0.51100000000E-03 0.  1.
        -12    1    4    4    0    0 -0.59708631887E+01 -0.10179976965E+02 -0.19242846100E+01  0.11957675756E+02  0.00000000000E+00 0.  1.
</event>
<event>
 8    1  0.2994958E-010  0.9118800E+02  0.7816164E-02  0.1184000E+00
        -11   -1    0    0    0    0  0.00000000000E+00  0.00000000000E+00  0.45593999997E+02  0.45594000000E+02  0.51100000000E-03 0. -1.
         11   -1    0    0    0    0 -0.00000000000E+00 -0.00000000000E+00 -0.45593999997E+02  0.45594000000E+02  0.51100000000E-03 0.  1.
         23    2    1    2    0    0  0.00000000000E+00 -0.88817841970E-15  0.00000000000E+00  0.91188000000E+02  0.91188000000E+02 0.  0.
    9900012    2    3    3    0    0  0.16873815700E+02 -0.57943844645E+01  0.39564182455E+02  0.47787250226E+02  0.19999905082E+02 0.  0.
        -12    1    3    3    0    0 -0.16873815700E+02  0.57943844645E+01 -0.39564182455E+02  0.43400749774E+02  0.00000000000E+00 0.  1.
         11    1    4    4    0    0  0.10926739172E+02 -0.26523220034E+01  0.28196493499E+02  0.30355735650E+02  0.51100000000E-03 0. -1.
        -11    1    4    4    0    0  0.77905668213E+01  0.16367643421E+01  0.56916331232E+01  0.97860419363E+01  0.51100000000E-03 0.  1.
         12    1    4    4    0    0 -0.18434902933E+01 -0.47788268032E+01  0.56760558322E+01  0.76454726399E+01  0.00000000000E+00 0. -1.
</event>
<event>
 8    1  0.2994958E-010  0.9118800E+02  0.7816164E-02  0.1184000E+00
        -11   -1    0    0    0    0  0.00000000000E+00  0.00000000000E+00  0.45593999997E+02  0.45594000000E+02  0.51100000000E-03 0. -1.
         11   -1    0    0    0    0 -0.00000000000E+00 -0.00000000000E+00 -0.45593999997E+02  0.45594000000E+02  0.51100000000E-03 0.  1.
         23    2    1    2    0    0  0.00000000000E+00 -0.35527136788E-14  0.00000000000E+00  0.91188000000E+02  0.91188000000E+02 0.  0.
    9900012    2    3    3    0    0 -0.20074395302E+02  0.31076109021E+02 -0.22691787195E+02  0.47787272992E+02  0.20000008882E+02 0.  0.
         12    1    3    3    0    0  0.20074395302E+02 -0.31076109021E+02  0.22691787195E+02  0.43400727008E+02  0.00000000000E+00 0. -1.
         11    1    4    4    0    0 -0.11412377910E+02  0.83157396291E+01 -0.32975127663E+01  0.14500602948E+02  0.51100000000E-03 0. -1.
        -11    1    4    4    0    0 -0.34035928594E+01  0.19102668403E+01 -0.81153956019E+01  0.90051768328E+01  0.51100000000E-03 0.  1.
         12    1    4    4    0    0 -0.52584245326E+01  0.20850102552E+02 -0.11278878827E+02  0.24281493212E+02  0.00000000000E+00 0. -1.
</event>
<event>
 8    1  0.2994958E-010  0.9118800E+02  0.7816164E-02  0.1184000E+00
        -11   -1    0    0    0    0  0.00000000000E+00  0.00000000000E+00  0.45593999997E+02  0.45594000000E+02  0.51100000000E-03 0. -1.
         11   -1    0    0    0    0 -0.00000000000E+00 -0.00000000000E+00 -0.45593999997E+02  0.45594000000E+02  0.51100000000E-03 0.  1.
         23    2    1    2    0    0  0.00000000000E+00  0.00000000000E+00  0.00000000000E+00  0.91188000000E+02  0.91188000000E+02 0.  0.
    9900012    2    3    3    0    0  0.88660835791E+01 -0.15955858325E+02  0.39375454751E+02  0.47787270861E+02  0.19999999166E+02 0.  0.
        -12    1    3    3    0    0 -0.88660835791E+01  0.15955858325E+02 -0.39375454751E+02  0.43400729139E+02  0.00000000000E+00 0.  1.
         11    1    4    4    0    0  0.14028912010E+01 -0.40729027586E+01  0.10766076123E+02  0.11595906000E+02  0.51100000000E-03 0. -1.
        -11    1    4    4    0    0  0.72829029261E+01 -0.23186231552E+01  0.19792380932E+01  0.78951929715E+01  0.51100000000E-03 0.  1.
        -12    1    4    4    0    0  0.18028945208E+00 -0.95643324108E+01  0.26630140535E+02  0.28296171890E+02  0.00000000000E+00 0.  1.
</event>
<event>
 8    1  0.2994958E-010  0.9118800E+02  0.7816164E-02  0.1184000E+00
        -11   -1    0    0    0    0  0.00000000000E+00  0.00000000000E+00  0.45593999997E+02  0.45594000000E+02  0.51100000000E-03 0. -1.
         11   -1    0    0    0    0 -0.00000000000E+00 -0.00000000000E+00 -0.45593999997E+02  0.45594000000E+02  0.51100000000E-03 0.  1.
         23    2    1    2    0    0  0.35527136788E-14  0.17763568394E-14  0.71054273576E-14  0.91188000000E+02  0.91188000000E+02 0.  0.
    9900012    2    3    3    0    0  0.17784501611E+02  0.12597094242E+02  0.37531998040E+02  0.47787237821E+02  0.19999848520E+02 0.  0.
        -12    1    3    3    0    0 -0.17784501611E+02 -0.12597094242E+02 -0.37531998040E+02  0.43400762179E+02  0.00000000000E+00 0.  1.
         11    1    4    4    0    0  0.11886729219E+02  0.97776566753E+00  0.15708704054E+02  0.19723431256E+02  0.51100000000E-03 0. -1.
        -11    1    4    4    0    0  0.80140810339E+01  0.99987231771E+01  0.10909006962E+02  0.16828737123E+02  0.51100000000E-03 0.  1.
        -12    1    4    4    0    0 -0.21163086416E+01  0.16206053972E+01  0.10914287024E+02  0.11235069441E+02  0.00000000000E+00 0.  1.
</event>
<event>
 8    1  0.2994958E-010  0.9118800E+02  0.7816164E-02  0.1184000E+00
        -11   -1    0    0    0    0  0.00000000000E+00  0.00000000000E+00  0.45593999997E+02  0.45594000000E+02  0.51100000000E-03 0.  1.
         11   -1    0    0    0    0 -0.00000000000E+00 -0.00000000000E+00 -0.45593999997E+02  0.45594000000E+02  0.51100000000E-03 0. -1.
         23    2    1    2    0    0 -0.44408920985E-15  0.00000000000E+00  0.00000000000E+00  0.91188000000E+02  0.91188000000E+02 0.  0.
    9900012    2    3    3    0    0  0.31807395071E+01  0.41775369828E+02 -0.11328048472E+02  0.47787270626E+02  0.19999998091E+02 0.  0.
        -12    1    3    3    0    0 -0.31807395071E+01 -0.41775369828E+02  0.11328048472E+02  0.43400729374E+02  0.00000000000E+00 0.  1.
         11    1    4    4    0    0 -0.17112835574E+01  0.40382095488E+01 -0.32674818138E+01  0.54691923937E+01  0.51100000000E-03 0. -1.
        -11    1    4    4    0    0 -0.28158792116E+01  0.86709726587E+01  0.39522488816E+01  0.99365594682E+01  0.51100000000E-03 0.  1.
         12    1    4    4    0    0  0.77079022761E+01  0.29066187620E+02 -0.12012815540E+02  0.32381518764E+02  0.00000000000E+00 0. -1.
</event>
<event>
 8    1  0.2994958E-010  0.9118800E+02  0.7816164E-02  0.1184000E+00
        -11   -1    0    0    0    0  0.00000000000E+00  0.00000000000E+00  0.45593999997E+02  0.45594000000E+02  0.51100000000E-03 0. -1.
         11   -1    0    0    0    0 -0.00000000000E+00 -0.00000000000E+00 -0.45593999997E+02  0.45594000000E+02  0.51100000000E-03 0.  1.
         23    2    1    2    0    0  0.35527136788E-14 -0.88817841970E-15  0.00000000000E+00  0.91188000000E+02  0.91188000000E+02 0.  0.
    9900012    2    3    3    0    0  0.16708676817E+02 -0.46025699061E+01  0.39790210830E+02  0.47787257972E+02  0.19999940395E+02 0.  0.
        -12    1    3    3    0    0 -0.16708676817E+02  0.46025699061E+01 -0.39790210830E+02  0.43400742028E+02  0.00000000000E+00 0.  1.
         11    1    4    4    0    0  0.52130549661E+01 -0.60632929336E+01  0.10315650841E+02  0.13051900851E+02  0.51100000000E-03 0. -1.
        -11    1    4    4    0    0  0.10517749121E+02 -0.36944894902E+01  0.11523738324E+02  0.16033366596E+02  0.51100000000E-03 0.  1.
         12    1    4    4    0    0  0.97787273038E+00  0.51552125177E+01  0.17950821664E+02  0.18701990525E+02  0.00000000000E+00 0. -1.
</event>
<event>
 8    1  0.3009045E-010  0.9118800E+02  0.7816164E-02  0.1184000E+00
        -11   -1    0    0    0    0  0.00000000000E+00  0.00000000000E+00  0.45593999997E+02  0.45594000000E+02  0.51100000000E-03 0. -1.
         11   -1    0    0    0    0 -0.00000000000E+00 -0.00000000000E+00 -0.45593999997E+02  0.45594000000E+02  0.51100000000E-03 0.  1.
         23    2    1    2    0    0  0.00000000000E+00  0.00000000000E+00  0.00000000000E+00  0.91188000000E+02  0.91188000000E+02 0.  0.
    9900012    2    3    3    0    0 -0.34210586839E+02 -0.23624517705E+02  0.12455564620E+02  0.47787272141E+02  0.20000005000E+02 0.  0.
        -12    1    3    3    0    0  0.34210586839E+02  0.23624517705E+02 -0.12455564620E+02  0.43400727859E+02  0.00000000000E+00 0.  1.
         11    1    4    4    0    0 -0.10465429043E+02 -0.33690094155E+01 -0.18597219337E+01  0.11150515478E+02  0.51100000000E-03 0. -1.
        -11    1    4    4    0    0 -0.20940364235E+00 -0.59848818870E+01  0.10393211732E+01  0.60780630014E+01  0.51100000000E-03 0.  1.
         12    1    4    4    0    0 -0.23535754154E+02 -0.14270626403E+02  0.13275965381E+02  0.30558693662E+02  0.00000000000E+00 0. -1.
</event>
<event>
 8    1  0.2994958E-010  0.9118800E+02  0.7816164E-02  0.1184000E+00
        -11   -1    0    0    0    0  0.00000000000E+00  0.00000000000E+00  0.45593999997E+02  0.45594000000E+02  0.51100000000E-03 0. -1.
         11   -1    0    0    0    0 -0.00000000000E+00 -0.00000000000E+00 -0.45593999997E+02  0.45594000000E+02  0.51100000000E-03 0.  1.
         23    2    1    2    0    0  0.17763568394E-14 -0.35527136788E-14  0.00000000000E+00  0.91188000000E+02  0.91188000000E+02 0.  0.
    9900012    2    3    3    0    0  0.13845548494E+02 -0.22180541249E+02 -0.34640258402E+02  0.47787272756E+02  0.20000007802E+02 0.  0.
         12    1    3    3    0    0 -0.13845548494E+02  0.22180541249E+02  0.34640258402E+02  0.43400727244E+02  0.00000000000E+00 0. -1.
         11    1    4    4    0    0  0.33704134852E+01 -0.37977508042E+01 -0.14287476574E+01  0.52748382309E+01  0.51100000000E-03 0. -1.
        -11    1    4    4    0    0  0.12558427997E+02 -0.20062710872E+02 -0.31212595581E+02  0.39172089611E+02  0.51100000000E-03 0.  1.
         12    1    4    4    0    0 -0.20832929877E+01  0.16799204277E+01 -0.19989151633E+01  0.33403449142E+01  0.00000000000E+00 0. -1.
</event>
<event>
 8    1  0.2994958E-010  0.9118800E+02  0.7816164E-02  0.1184000E+00
        -11   -1    0    0    0    0  0.00000000000E+00  0.00000000000E+00  0.45593999997E+02  0.45594000000E+02  0.51100000000E-03 0. -1.
         11   -1    0    0    0    0 -0.00000000000E+00 -0.00000000000E+00 -0.45593999997E+02  0.45594000000E+02  0.51100000000E-03 0.  1.
         23    2    1    2    0    0 -0.17763568394E-14 -0.44408920985E-15  0.00000000000E+00  0.91188000000E+02  0.91188000000E+02 0.  0.
    9900012    2    3    3    0    0 -0.12023273402E+02 -0.81549758987E+00 -0.41694114212E+02  0.47787270748E+02  0.19999998650E+02 0.  0.
         12    1    3    3    0    0  0.12023273402E+02  0.81549758987E+00  0.41694114212E+02  0.43400729252E+02  0.00000000000E+00 0. -1.
         11    1    4    4    0    0 -0.34067941478E+01  0.36214012440E+01 -0.21735083919E+02  0.22296516916E+02  0.51100000000E-03 0. -1.
        -11    1    4    4    0    0  0.11943176146E+01  0.30445321591E+01 -0.25205661144E+01  0.41290222124E+01  0.51100000000E-03 0.  1.
         12    1    4    4    0    0 -0.98107968687E+01 -0.74814309930E+01 -0.17438464179E+02  0.21361731620E+02  0.00000000000E+00 0. -1.
</event>
<event>
 8    1  0.2994958E-010  0.9118800E+02  0.7816164E-02  0.1184000E+00
        -11   -1    0    0    0    0  0.00000000000E+00  0.00000000000E+00  0.45593999997E+02  0.45594000000E+02  0.51100000000E-03 0. -1.
         11   -1    0    0    0    0 -0.00000000000E+00 -0.00000000000E+00 -0.45593999997E+02  0.45594000000E+02  0.51100000000E-03 0.  1.
         23    2    1    2    0    0 -0.17763568394E-14  0.00000000000E+00  0.88817841970E-15  0.91188000000E+02  0.91188000000E+02 0.  0.
    9900012    2    3    3    0    0  0.10125113428E+02 -0.41803103222E+02 -0.57970644822E+01  0.47787270542E+02  0.19999997708E+02 0.  0.
         12    1    3    3    0    0 -0.10125113428E+02  0.41803103222E+02  0.57970644822E+01  0.43400729458E+02  0.00000000000E+00 0. -1.
         11    1    4    4    0    0  0.90062543875E+01 -0.12266778225E+02  0.32221513768E+01  0.15555343965E+02  0.51100000000E-03 0. -1.
        -11    1    4    4    0    0 -0.65104006969E+00 -0.27754356745E+01  0.17344653508E+01  0.33369547000E+01  0.51100000000E-03 0.  1.
        -12    1    4    4    0    0  0.17698991099E+01 -0.26760889323E+02 -0.10753681210E+02  0.28894971877E+02  0.00000000000E+00 0.  1.
</event>
<event>
 8    1  0.2994958E-010  0.9118800E+02  0.7816164E-02  0.1184000E+00
        -11   -1    0    0    0    0  0.00000000000E+00  0.00000000000E+00  0.45593999997E+02  0.45594000000E+02  0.51100000000E-03 0. -1.
         11   -1    0    0    0    0 -0.00000000000E+00 -0.00000000000E+00 -0.45593999997E+02  0.45594000000E+02  0.51100000000E-03 0.  1.
         23    2    1    2    0    0  0.35527136788E-14  0.00000000000E+00  0.35527136788E-14  0.91188000000E+02  0.91188000000E+02 0.  0.
    9900012    2    3    3    0    0 -0.25614656700E+02  0.19643034428E+02  0.29011444514E+02  0.47787270142E+02  0.19999995884E+02 0.  0.
        -12    1    3    3    0    0  0.25614656700E+02 -0.19643034428E+02 -0.29011444514E+02  0.43400729858E+02  0.00000000000E+00 0.  1.
         11    1    4    4    0    0 -0.96624712693E+01  0.12388434431E+02  0.13002941523E+02  0.20393948789E+02  0.51100000000E-03 0. -1.
        -11    1    4    4    0    0 -0.17741301720E+02  0.55019645631E+01  0.16495317857E+02  0.24841918449E+02  0.51100000000E-03 0.  1.
         12    1    4    4    0    0  0.17891162895E+01  0.17526354346E+01 -0.48681486580E+00  0.25514029038E+01  0.00000000000E+00 0. -1.
</event>
<event>
 8    1  0.2994958E-010  0.9118800E+02  0.7816164E-02  0.1184000E+00
        -11   -1    0    0    0    0  0.00000000000E+00  0.00000000000E+00  0.45593999997E+02  0.45594000000E+02  0.51100000000E-03 0. -1.
         11   -1    0    0    0    0 -0.00000000000E+00 -0.00000000000E+00 -0.45593999997E+02  0.45594000000E+02  0.51100000000E-03 0.  1.
         23    2    1    2    0    0  0.17763568394E-14  0.00000000000E+00  0.35527136788E-14  0.91188000000E+02  0.91188000000E+02 0.  0.
    9900012    2    3    3    0    0  0.10848641734E+02 -0.35665995137E+02  0.22223125456E+02  0.47787267960E+02  0.19999985935E+02 0.  0.
        -12    1    3    3    0    0 -0.10848641734E+02  0.35665995137E+02 -0.22223125456E+02  0.43400732040E+02  0.00000000000E+00 0.  1.
         11    1    4    4    0    0  0.45884171040E+01 -0.20544007211E+02  0.16315016907E+02  0.26632491073E+02  0.51100000000E-03 0. -1.
        -11    1    4    4    0    0  0.57495290216E+00 -0.14488207381E+02  0.51362465655E+01  0.15382449512E+02  0.51100000000E-03 0.  1.
        -12    1    4    4    0    0  0.56852717277E+01 -0.63378054505E+00  0.77186198400E+00  0.57723273746E+01  0.00000000000E+00 0.  1.
</event>
<event>
 8    1  0.2994958E-010  0.9118800E+02  0.7816164E-02  0.1184000E+00
        -11   -1    0    0    0    0  0.00000000000E+00  0.00000000000E+00  0.45593999997E+02  0.45594000000E+02  0.51100000000E-03 0. -1.
         11   -1    0    0    0    0 -0.00000000000E+00 -0.00000000000E+00 -0.45593999997E+02  0.45594000000E+02  0.51100000000E-03 0.  1.
         23    2    1    2    0    0 -0.35527136788E-14 -0.35527136788E-14 -0.35527136788E-14  0.91188000000E+02  0.91188000000E+02 0.  0.
    9900012    2    3    3    0    0  0.19365022522E+02  0.23007497715E+02  0.31293357536E+02  0.47787271040E+02  0.19999999979E+02 0.  0.
        -12    1    3    3    0    0 -0.19365022522E+02 -0.23007497715E+02 -0.31293357536E+02  0.43400728960E+02  0.00000000000E+00 0.  1.
         11    1    4    4    0    0  0.95864063527E+01  0.70070580934E+01  0.10275098670E+02  0.15702729152E+02  0.51100000000E-03 0. -1.
        -11    1    4    4    0    0  0.10625888246E+01 -0.29865945105E+01  0.42127382678E+01  0.52721917411E+01  0.51100000000E-03 0.  1.
         12    1    4    4    0    0  0.87160273450E+01  0.18987034132E+02  0.16805520598E+02  0.26812350147E+02  0.00000000000E+00 0. -1.
</event>
<event>
 8    1  0.2994958E-010  0.9118800E+02  0.7816164E-02  0.1184000E+00
        -11   -1    0    0    0    0  0.00000000000E+00  0.00000000000E+00  0.45593999997E+02  0.45594000000E+02  0.51100000000E-03 0. -1.
         11   -1    0    0    0    0 -0.00000000000E+00 -0.00000000000E+00 -0.45593999997E+02  0.45594000000E+02  0.51100000000E-03 0.  1.
         23    2    1    2    0    0 -0.17763568394E-14  0.00000000000E+00  0.00000000000E+00  0.91188000000E+02  0.91188000000E+02 0.  0.
    9900012    2    3    3    0    0  0.88688740940E+01 -0.20806065913E+02 -0.37041510537E+02  0.47787276396E+02  0.20000024401E+02 0.  0.
         12    1    3    3    0    0 -0.88688740940E+01  0.20806065913E+02  0.37041510537E+02  0.43400723604E+02  0.00000000000E+00 0. -1.
         11    1    4    4    0    0  0.33531710935E+01 -0.29236314976E+01 -0.11094181906E+02  0.11952918052E+02  0.51100000000E-03 0. -1.
        -11    1    4    4    0    0  0.77245915134E+01 -0.16609079371E+02 -0.27355317862E+02  0.32921789855E+02  0.51100000000E-03 0.  1.
         12    1    4    4    0    0 -0.22088885130E+01 -0.12733550444E+01  0.14079892320E+01  0.29125684901E+01  0.00000000000E+00 0. -1.
</event>
<event>
 8    1  0.2994958E-010  0.9118800E+02  0.7816164E-02  0.1184000E+00
        -11   -1    0    0    0    0  0.00000000000E+00  0.00000000000E+00  0.45593999997E+02  0.45594000000E+02  0.51100000000E-03 0. -1.
         11   -1    0    0    0    0 -0.00000000000E+00 -0.00000000000E+00 -0.45593999997E+02  0.45594000000E+02  0.51100000000E-03 0.  1.
         23    2    1    2    0    0 -0.88817841970E-15  0.17763568394E-14  0.00000000000E+00  0.91188000000E+02  0.91188000000E+02 0.  0.
    9900012    2    3    3    0    0 -0.52111988146E+01  0.11284093955E+02 -0.41582881916E+02  0.47787269154E+02  0.19999991382E+02 0.  0.
         12    1    3    3    0    0  0.52111988146E+01 -0.11284093955E+02  0.41582881916E+02  0.43400730846E+02  0.00000000000E+00 0. -1.
         11    1    4    4    0    0 -0.10029878947E+01 -0.65299674049E-01  0.39918148334E+00  0.10814781006E+01  0.51100000000E-03 0. -1.
        -11    1    4    4    0    0 -0.55807795110E+01 -0.14180559985E+01 -0.52437828010E+01  0.77880190735E+01  0.51100000000E-03 0.  1.
         12    1    4    4    0    0  0.13725685910E+01  0.12767449628E+02 -0.36738280599E+02  0.38917771980E+02  0.00000000000E+00 0. -1.
</event>
<event>
 8    1  0.2994958E-010  0.9118800E+02  0.7816164E-02  0.1184000E+00
        -11   -1    0    0    0    0  0.00000000000E+00  0.00000000000E+00  0.45593999997E+02  0.45594000000E+02  0.51100000000E-03 0. -1.
         11   -1    0    0    0    0 -0.00000000000E+00 -0.00000000000E+00 -0.45593999997E+02  0.45594000000E+02  0.51100000000E-03 0.  1.
         23    2    1    2    0    0  0.35527136788E-14  0.00000000000E+00  0.00000000000E+00  0.91188000000E+02  0.91188000000E+02 0.  0.
    9900012    2    3    3    0    0 -0.21044773449E+02 -0.83836102549E+01  0.37019647728E+02  0.47787288850E+02  0.20000081182E+02 0.  0.
        -12    1    3    3    0    0  0.21044773449E+02  0.83836102549E+01 -0.37019647728E+02  0.43400711150E+02  0.00000000000E+00 0.  1.
         11    1    4    4    0    0 -0.42706443928E+01  0.38468085646E+00  0.21160863114E+01  0.47816528972E+01  0.51100000000E-03 0. -1.
        -11    1    4    4    0    0 -0.17051142979E+01 -0.95193281274E+01  0.10174579952E+02  0.14037346624E+02  0.51100000000E-03 0.  1.
        -12    1    4    4    0    0 -0.15069014758E+02  0.75103701600E+00  0.24728981464E+02  0.28968289329E+02  0.00000000000E+00 0.  1.
</event>
<event>
 8    1  0.2994958E-010  0.9118800E+02  0.7816164E-02  0.1184000E+00
        -11   -1    0    0    0    0  0.00000000000E+00  0.00000000000E+00  0.45593999997E+02  0.45594000000E+02  0.51100000000E-03 0. -1.
         11   -1    0    0    0    0 -0.00000000000E+00 -0.00000000000E+00 -0.45593999997E+02  0.45594000000E+02  0.51100000000E-03 0.  1.
         23    2    1    2    0    0  0.00000000000E+00 -0.35527136788E-14  0.00000000000E+00  0.91188000000E+02  0.91188000000E+02 0.  0.
    9900012    2    3    3    0    0  0.12088396871E+02 -0.23584122937E+02 -0.34369780923E+02  0.47787285325E+02  0.20000065111E+02 0.  0.
         12    1    3    3    0    0 -0.12088396871E+02  0.23584122937E+02  0.34369780923E+02  0.43400714675E+02  0.00000000000E+00 0. -1.
         11    1    4    4    0    0 -0.14160725563E+01 -0.63541374106E+01 -0.82853318746E+01  0.10536937328E+02  0.51100000000E-03 0. -1.
        -11    1    4    4    0    0 -0.19379104212E+01 -0.87762886680E+01 -0.89192524146E+01  0.12662219532E+02  0.51100000000E-03 0.  1.
         12    1    4    4    0    0  0.15442379848E+02 -0.84536968584E+01 -0.17165196634E+02  0.24588128465E+02  0.00000000000E+00 0. -1.
</event>
<event>
 8    1  0.2994958E-010  0.9118800E+02  0.7816164E-02  0.1184000E+00
        -11   -1    0    0    0    0  0.00000000000E+00  0.00000000000E+00  0.45593999997E+02  0.45594000000E+02  0.51100000000E-03 0. -1.
         11   -1    0    0    0    0 -0.00000000000E+00 -0.00000000000E+00 -0.45593999997E+02  0.45594000000E+02  0.51100000000E-03 0.  1.
         23    2    1    2    0    0  0.00000000000E+00  0.00000000000E+00 -0.35527136788E-14  0.91188000000E+02  0.91188000000E+02 0.  0.
    9900012    2    3    3    0    0 -0.87178939853E+01  0.32874454431E+02  0.26960931512E+02  0.47787271232E+02  0.20000000853E+02 0.  0.
        -12    1    3    3    0    0  0.87178939853E+01 -0.32874454431E+02 -0.26960931512E+02  0.43400728768E+02  0.00000000000E+00 0.  1.
         11    1    4    4    0    0  0.24505375013E+01  0.78655670804E+01  0.72205171074E+01  0.10954823006E+02  0.51100000000E-03 0. -1.
        -11    1    4    4    0    0  0.96964470645E+00  0.29961039748E+01  0.89299440798E+01  0.94689361289E+01  0.51100000000E-03 0.  1.
         12    1    4    4    0    0 -0.12138076193E+02  0.22012783375E+02  0.10810470325E+02  0.27363512096E+02  0.00000000000E+00 0. -1.
</event>
<event>
 8    1  0.2994958E-010  0.9118800E+02  0.7816164E-02  0.1184000E+00
        -11   -1    0    0    0    0  0.00000000000E+00  0.00000000000E+00  0.45593999997E+02  0.45594000000E+02  0.51100000000E-03 0. -1.
         11   -1    0    0    0    0 -0.00000000000E+00 -0.00000000000E+00 -0.45593999997E+02  0.45594000000E+02  0.51100000000E-03 0.  1.
         23    2    1    2    0    0 -0.17763568394E-14 -0.35527136788E-14  0.00000000000E+00  0.91188000000E+02  0.91188000000E+02 0.  0.
    9900012    2    3    3    0    0  0.15593472115E+02 -0.24588145628E+02 -0.32185204924E+02  0.47787300765E+02  0.20000135508E+02 0.  0.
         12    1    3    3    0    0 -0.15593472115E+02  0.24588145628E+02  0.32185204924E+02  0.43400699235E+02  0.00000000000E+00 0. -1.
         11    1    4    4    0    0  0.34780702431E+01  0.32461399106E+00  0.33352301552E+00  0.35090717750E+01  0.51100000000E-03 0. -1.
        -11    1    4    4    0    0  0.31251616278E+00 -0.84886469443E+01 -0.41928564336E+01  0.94728474405E+01  0.51100000000E-03 0.  1.
        -12    1    4    4    0    0  0.11802885709E+02 -0.16424112675E+02 -0.28325871506E+02  0.34805381550E+02  0.00000000000E+00 0.  1.
</event>
<event>
 8    1  0.2994958E-010  0.9118800E+02  0.7816164E-02  0.1184000E+00
        -11   -1    0    0    0    0  0.00000000000E+00  0.00000000000E+00  0.45593999997E+02  0.45594000000E+02  0.51100000000E-03 0. -1.
         11   -1    0    0    0    0 -0.00000000000E+00 -0.00000000000E+00 -0.45593999997E+02  0.45594000000E+02  0.51100000000E-03 0.  1.
         23    2    1    2    0    0 -0.44408920985E-15 -0.17763568394E-14  0.00000000000E+00  0.91188000000E+02  0.91188000000E+02 0.  0.
    9900012    2    3    3    0    0 -0.19282324939E+01  0.11754135559E+02 -0.41734225098E+02  0.47787270423E+02  0.19999997166E+02 0.  0.
         12    1    3    3    0    0  0.19282324939E+01 -0.11754135559E+02  0.41734225098E+02  0.43400729577E+02  0.00000000000E+00 0. -1.
         11    1    4    4    0    0 -0.17219795723E+01  0.30113178033E+00 -0.12670608233E+01  0.21590130586E+01  0.51100000000E-03 0. -1.
        -11    1    4    4    0    0 -0.82281068371E+01  0.98279057385E+01 -0.26566846931E+02  0.29497234268E+02  0.51100000000E-03 0.  1.
         12    1    4    4    0    0  0.80218539155E+01  0.16250980402E+01 -0.13900317344E+02  0.16131023097E+02  0.00000000000E+00 0. -1.
</event>
<event>
 8    1  0.2994958E-010  0.9118800E+02  0.7816164E-02  0.1184000E+00
        -11   -1    0    0    0    0  0.00000000000E+00  0.00000000000E+00  0.45593999997E+02  0.45594000000E+02  0.51100000000E-03 0. -1.
         11   -1    0    0    0    0 -0.00000000000E+00 -0.00000000000E+00 -0.45593999997E+02  0.45594000000E+02  0.51100000000E-03 0.  1.
         23    2    1    2    0    0  0.00000000000E+00  0.00000000000E+00  0.00000000000E+00  0.91188000000E+02  0.91188000000E+02 0.  0.
    9900012    2    3    3    0    0  0.19729628349E+02  0.97405650250E+01 -0.37409717659E+02  0.47787264786E+02  0.19999971464E+02 0.  0.
         12    1    3    3    0    0 -0.19729628349E+02 -0.97405650250E+01  0.37409717659E+02  0.43400735214E+02  0.00000000000E+00 0. -1.
         11    1    4    4    0    0 -0.31287791846E+00  0.63404360200E+01 -0.32857820141E+01  0.71481036101E+01  0.51100000000E-03 0. -1.
        -11    1    4    4    0    0  0.12122061048E+01  0.25451310603E+00 -0.89990445961E+01  0.90838881799E+01  0.51100000000E-03 0.  1.
        -12    1    4    4    0    0  0.18830300163E+02  0.31456158989E+01 -0.25124891049E+02  0.31555272996E+02  0.00000000000E+00 0.  1.
</event>
<event>
 8    1  0.2994958E-010  0.9118800E+02  0.7816164E-02  0.1184000E+00
        -11   -1    0    0    0    0  0.00000000000E+00  0.00000000000E+00  0.45593999997E+02  0.45594000000E+02  0.51100000000E-03 0. -1.
         11   -1    0    0    0    0 -0.00000000000E+00 -0.00000000000E+00 -0.45593999997E+02  0.45594000000E+02  0.51100000000E-03 0.  1.
         23    2    1    2    0    0 -0.88817841970E-15 -0.35527136788E-14 -0.71054273576E-14  0.91188000000E+02  0.91188000000E+02 0.  0.
    9900012    2    3    3    0    0  0.62166049811E+01 -0.26316609053E+02 -0.33947223988E+02  0.47787261458E+02  0.19999956291E+02 0.  0.
         12    1    3    3    0    0 -0.62166049811E+01  0.26316609053E+02  0.33947223988E+02  0.43400738542E+02  0.00000000000E+00 0. -1.
         11    1    4    4    0    0  0.26210385590E+01  0.12562200677E+01 -0.15584880124E+01  0.32980019909E+01  0.51100000000E-03 0. -1.
        -11    1    4    4    0    0 -0.20637386389E+01 -0.71852106416E+01 -0.16220877473E+02  0.17860658873E+02  0.51100000000E-03 0.  1.
        -12    1    4    4    0    0  0.56593050610E+01 -0.20387618479E+02 -0.16167858502E+02  0.26628600594E+02  0.00000000000E+00 0.  1.
</event>
<event>
 8    1  0.2994958E-010  0.9118800E+02  0.7816164E-02  0.1184000E+00
        -11   -1    0    0    0    0  0.00000000000E+00  0.00000000000E+00  0.45593999997E+02  0.45594000000E+02  0.51100000000E-03 0. -1.
         11   -1    0    0    0    0 -0.00000000000E+00 -0.00000000000E+00 -0.45593999997E+02  0.45594000000E+02  0.51100000000E-03 0.  1.
         23    2    1    2    0    0  0.00000000000E+00 -0.17763568394E-14  0.00000000000E+00  0.91188000000E+02  0.91188000000E+02 0.  0.
    9900012    2    3    3    0    0 -0.36629731018E+02 -0.12015473527E+02 -0.19937767625E+02  0.47787269863E+02  0.19999994614E+02 0.  0.
         12    1    3    3    0    0  0.36629731018E+02  0.12015473527E+02  0.19937767625E+02  0.43400730137E+02  0.00000000000E+00 0. -1.
         11    1    4    4    0    0 -0.55340683502E+01 -0.78891767775E+01 -0.45642274913E+01  0.10662888707E+02  0.51100000000E-03 0.  1.
        -11    1    4    4    0    0 -0.71025008120E+01 -0.10755893324E+01 -0.10059639072E+02  0.12361179099E+02  0.51100000000E-03 0. -1.
        -12    1    4    4    0    0 -0.23993161856E+02 -0.30507074169E+01 -0.53139010615E+01  0.24763202057E+02  0.00000000000E+00 0.  1.
</event>
<event>
 8    1  0.2994958E-010  0.9118800E+02  0.7816164E-02  0.1184000E+00
        -11   -1    0    0    0    0  0.00000000000E+00  0.00000000000E+00  0.45593999997E+02  0.45594000000E+02  0.51100000000E-03 0. -1.
         11   -1    0    0    0    0 -0.00000000000E+00 -0.00000000000E+00 -0.45593999997E+02  0.45594000000E+02  0.51100000000E-03 0.  1.
         23    2    1    2    0    0  0.00000000000E+00  0.35527136788E-14  0.35527136788E-14  0.91188000000E+02  0.91188000000E+02 0.  0.
    9900012    2    3    3    0    0 -0.21089936233E+02 -0.24496236732E+02 -0.28961564709E+02  0.47787271264E+02  0.20000001003E+02 0.  0.
         12    1    3    3    0    0  0.21089936233E+02  0.24496236732E+02  0.28961564709E+02  0.43400728736E+02  0.00000000000E+00 0. -1.
         11    1    4    4    0    0 -0.18906445236E+01 -0.15804088543E+01 -0.80070294627E+01  0.83776339106E+01  0.51100000000E-03 0. -1.
        -11    1    4    4    0    0 -0.73473793788E+01 -0.15545857870E+02 -0.18467900829E+02  0.25233331963E+02  0.51100000000E-03 0.  1.
         12    1    4    4    0    0 -0.11851912331E+02 -0.73699700076E+01 -0.24866344179E+01  0.14176305391E+02  0.00000000000E+00 0. -1.
</event>
<event>
 8    1  0.2994958E-010  0.9118800E+02  0.7816164E-02  0.1184000E+00
        -11   -1    0    0    0    0  0.00000000000E+00  0.00000000000E+00  0.45593999997E+02  0.45594000000E+02  0.51100000000E-03 0. -1.
         11   -1    0    0    0    0 -0.00000000000E+00 -0.00000000000E+00 -0.45593999997E+02  0.45594000000E+02  0.51100000000E-03 0.  1.
         23    2    1    2    0    0 -0.17763568394E-14  0.00000000000E+00  0.00000000000E+00  0.91188000000E+02  0.91188000000E+02 0.  0.
    9900012    2    3    3    0    0 -0.13006636787E+02 -0.15963108108E+02 -0.38205155642E+02  0.47787224216E+02  0.19999786490E+02 0.  0.
         12    1    3    3    0    0  0.13006636787E+02  0.15963108108E+02  0.38205155642E+02  0.43400775784E+02  0.00000000000E+00 0. -1.
         11    1    4    4    0    0 -0.12995370345E+02 -0.62807911010E+01 -0.14604529635E+02  0.20533394103E+02  0.51100000000E-03 0. -1.
        -11    1    4    4    0    0  0.12204352565E+01  0.11551867545E+01 -0.57613342040E+00  0.17764708364E+01  0.51100000000E-03 0.  1.
        -12    1    4    4    0    0 -0.12317016991E+01 -0.10837503761E+02 -0.23024492587E+02  0.25477359277E+02  0.00000000000E+00 0.  1.
</event>
<event>
 8    1  0.2994958E-010  0.9118800E+02  0.7816164E-02  0.1184000E+00
        -11   -1    0    0    0    0  0.00000000000E+00  0.00000000000E+00  0.45593999997E+02  0.45594000000E+02  0.51100000000E-03 0. -1.
         11   -1    0    0    0    0 -0.00000000000E+00 -0.00000000000E+00 -0.45593999997E+02  0.45594000000E+02  0.51100000000E-03 0.  1.
         23    2    1    2    0    0  0.00000000000E+00  0.00000000000E+00  0.00000000000E+00  0.91188000000E+02  0.91188000000E+02 0.  0.
    9900012    2    3    3    0    0 -0.13646618208E+02  0.16563725109E+02  0.37723149862E+02  0.47787271740E+02  0.20000003170E+02 0.  0.
        -12    1    3    3    0    0  0.13646618208E+02 -0.16563725109E+02 -0.37723149862E+02  0.43400728260E+02  0.00000000000E+00 0.  1.
         11    1    4    4    0    0 -0.14165567513E+02  0.10428816134E+02  0.20449813150E+02  0.26974402070E+02  0.51100000000E-03 0. -1.
        -11    1    4    4    0    0 -0.32126535498E+01  0.22573399345E+01  0.13940566806E+02  0.14482959972E+02  0.51100000000E-03 0.  1.
        -12    1    4    4    0    0  0.37316028548E+01  0.38775690407E+01  0.33327699065E+01  0.63299096977E+01  0.00000000000E+00 0.  1.
</event>
<event>
 8    1  0.2994958E-010  0.9118800E+02  0.7816164E-02  0.1184000E+00
        -11   -1    0    0    0    0  0.00000000000E+00  0.00000000000E+00  0.45593999997E+02  0.45594000000E+02  0.51100000000E-03 0.  1.
         11   -1    0    0    0    0 -0.00000000000E+00 -0.00000000000E+00 -0.45593999997E+02  0.45594000000E+02  0.51100000000E-03 0. -1.
         23    2    1    2    0    0 -0.22204460493E-15  0.14210854715E-13  0.35527136788E-14  0.91188000000E+02  0.91188000000E+02 0.  0.
    9900012    2    3    3    0    0  0.13540621680E+01  0.36348427983E+02  0.23676550108E+02  0.47787300395E+02  0.20000133821E+02 0.  0.
        -12    1    3    3    0    0 -0.13540621680E+01 -0.36348427983E+02 -0.23676550108E+02  0.43400699605E+02  0.00000000000E+00 0.  1.
         11    1    4    4    0    0  0.18524929442E+01  0.12505518444E+02  0.69533903414E+01  0.14428075380E+02  0.51100000000E-03 0. -1.
        -11    1    4    4    0    0  0.53144367365E+01  0.21269507189E+02  0.15591554823E+02  0.26902263027E+02  0.51100000000E-03 0.  1.
        -12    1    4    4    0    0 -0.58128675127E+01  0.25734023494E+01  0.11316049437E+01  0.64569619884E+01  0.00000000000E+00 0.  1.
</event>
<event>
 8    1  0.2994958E-010  0.9118800E+02  0.7816164E-02  0.1184000E+00
        -11   -1    0    0    0    0  0.00000000000E+00  0.00000000000E+00  0.45593999997E+02  0.45594000000E+02  0.51100000000E-03 0. -1.
         11   -1    0    0    0    0 -0.00000000000E+00 -0.00000000000E+00 -0.45593999997E+02  0.45594000000E+02  0.51100000000E-03 0.  1.
         23    2    1    2    0    0 -0.17763568394E-14  0.00000000000E+00  0.35527136788E-14  0.91188000000E+02  0.91188000000E+02 0.  0.
    9900012    2    3    3    0    0  0.10620410928E+02 -0.36549681141E+02 -0.20855493865E+02  0.47787263323E+02  0.19999964793E+02 0.  0.
         12    1    3    3    0    0 -0.10620410928E+02  0.36549681141E+02  0.20855493865E+02  0.43400736677E+02  0.00000000000E+00 0. -1.
         11    1    4    4    0    0  0.44396006565E+01 -0.20359294997E+02 -0.10651419124E+02  0.23402215202E+02  0.51100000000E-03 0. -1.
        -11    1    4    4    0    0  0.65423609251E+01 -0.80606362898E+01 -0.12186806276E+02  0.16009203333E+02  0.51100000000E-03 0.  1.
         12    1    4    4    0    0 -0.36155065338E+00 -0.81297498540E+01  0.19827315352E+01  0.83758447875E+01  0.00000000000E+00 0. -1.
</event>
<event>
 8    1  0.2994958E-010  0.9118800E+02  0.7816164E-02  0.1184000E+00
        -11   -1    0    0    0    0  0.00000000000E+00  0.00000000000E+00  0.45593999997E+02  0.45594000000E+02  0.51100000000E-03 0. -1.
         11   -1    0    0    0    0 -0.00000000000E+00 -0.00000000000E+00 -0.45593999997E+02  0.45594000000E+02  0.51100000000E-03 0.  1.
         23    2    1    2    0    0  0.00000000000E+00  0.00000000000E+00  0.00000000000E+00  0.91188000000E+02  0.91188000000E+02 0.  0.
    9900012    2    3    3    0    0  0.94059491026E+01  0.24977933869E+02  0.34223658923E+02  0.47787217877E+02  0.19999757585E+02 0.  0.
        -12    1    3    3    0    0 -0.94059491026E+01 -0.24977933869E+02 -0.34223658923E+02  0.43400782123E+02  0.00000000000E+00 0.  1.
         11    1    4    4    0    0 -0.15640847511E+00  0.74833617928E+01  0.18550322707E+01  0.77114403531E+01  0.51100000000E-03 0. -1.
        -11    1    4    4    0    0  0.67036202866E+01  0.15191493605E+01  0.60567754323E+01  0.91613791879E+01  0.51100000000E-03 0.  1.
         12    1    4    4    0    0  0.28587372911E+01  0.15975422715E+02  0.26311851220E+02  0.30914398336E+02  0.00000000000E+00 0. -1.
</event>
<event>
 8    1  0.2994958E-010  0.9118800E+02  0.7816164E-02  0.1184000E+00
        -11   -1    0    0    0    0  0.00000000000E+00  0.00000000000E+00  0.45593999997E+02  0.45594000000E+02  0.51100000000E-03 0. -1.
         11   -1    0    0    0    0 -0.00000000000E+00 -0.00000000000E+00 -0.45593999997E+02  0.45594000000E+02  0.51100000000E-03 0.  1.
         23    2    1    2    0    0  0.17763568394E-14 -0.35527136788E-14 -0.71054273576E-14  0.91188000000E+02  0.91188000000E+02 0.  0.
    9900012    2    3    3    0    0  0.94407064625E+01 -0.22350491162E+02 -0.35985436633E+02  0.47787273700E+02  0.20000012108E+02 0.  0.
         12    1    3    3    0    0 -0.94407064625E+01  0.22350491162E+02  0.35985436633E+02  0.43400726300E+02  0.00000000000E+00 0. -1.
         11    1    4    4    0    0  0.66856443721E+00 -0.34441778417E+01 -0.69391061447E+01  0.77756371932E+01  0.51100000000E-03 0. -1.
        -11    1    4    4    0    0 -0.46957375152E+01 -0.10850296817E+02 -0.12707145271E+02  0.17356567432E+02  0.51100000000E-03 0.  1.
         12    1    4    4    0    0  0.13467879541E+02 -0.80560165037E+01 -0.16339185217E+02  0.22655069075E+02  0.00000000000E+00 0. -1.
</event>
<event>
 8    1  0.2994958E-010  0.9118800E+02  0.7816164E-02  0.1184000E+00
        -11   -1    0    0    0    0  0.00000000000E+00  0.00000000000E+00  0.45593999997E+02  0.45594000000E+02  0.51100000000E-03 0. -1.
         11   -1    0    0    0    0 -0.00000000000E+00 -0.00000000000E+00 -0.45593999997E+02  0.45594000000E+02  0.51100000000E-03 0.  1.
         23    2    1    2    0    0  0.00000000000E+00 -0.17763568394E-14 -0.35527136788E-14  0.91188000000E+02  0.91188000000E+02 0.  0.
    9900012    2    3    3    0    0  0.27077975473E+02  0.14229718835E+02  0.30788340726E+02  0.47787267535E+02  0.19999984000E+02 0.  0.
        -12    1    3    3    0    0 -0.27077975473E+02 -0.14229718835E+02 -0.30788340726E+02  0.43400732465E+02  0.00000000000E+00 0.  1.
         11    1    4    4    0    0  0.93331292492E+01  0.58089400309E+01  0.11499216756E+02  0.15908584856E+02  0.51100000000E-03 0. -1.
        -11    1    4    4    0    0  0.12327443189E+01  0.85613525672E+01  0.46986764446E+01  0.98434738242E+01  0.51100000000E-03 0.  1.
         12    1    4    4    0    0  0.16512101905E+02 -0.14057376284E+00  0.14590447525E+02  0.22035208855E+02  0.00000000000E+00 0. -1.
</event>
<event>
 8    1  0.2994958E-010  0.9118800E+02  0.7816164E-02  0.1184000E+00
        -11   -1    0    0    0    0  0.00000000000E+00  0.00000000000E+00  0.45593999997E+02  0.45594000000E+02  0.51100000000E-03 0. -1.
         11   -1    0    0    0    0 -0.00000000000E+00 -0.00000000000E+00 -0.45593999997E+02  0.45594000000E+02  0.51100000000E-03 0.  1.
         23    2    1    2    0    0  0.00000000000E+00  0.86736173799E-18  0.00000000000E+00  0.91188000000E+02  0.91188000000E+02 0.  0.
    9900012    2    3    3    0    0 -0.83026518541E+01  0.30051477416E-02 -0.42599167029E+02  0.47787273412E+02  0.20000010794E+02 0.  0.
         12    1    3    3    0    0  0.83026518541E+01 -0.30051477416E-02  0.42599167029E+02  0.43400726588E+02  0.00000000000E+00 0. -1.
         11    1    4    4    0    0 -0.12290301316E+01  0.66293662795E+01 -0.63804053426E+01  0.92827035355E+01  0.51100000000E-03 0. -1.
        -11    1    4    4    0    0 -0.44979048796E+01 -0.34132814468E+01 -0.69829467879E+01  0.89801550457E+01  0.51100000000E-03 0.  1.
        -12    1    4    4    0    0 -0.25757168428E+01 -0.32130796850E+01 -0.29235814898E+02  0.29524414830E+02  0.00000000000E+00 0.  1.
</event>
<event>
 8    1  0.2994958E-010  0.9118800E+02  0.7816164E-02  0.1184000E+00
        -11   -1    0    0    0    0  0.00000000000E+00  0.00000000000E+00  0.45593999997E+02  0.45594000000E+02  0.51100000000E-03 0. -1.
         11   -1    0    0    0    0 -0.00000000000E+00 -0.00000000000E+00 -0.45593999997E+02  0.45594000000E+02  0.51100000000E-03 0.  1.
         23    2    1    2    0    0  0.00000000000E+00 -0.35527136788E-14 -0.35527136788E-14  0.91188000000E+02  0.91188000000E+02 0.  0.
    9900012    2    3    3    0    0  0.32868051055E+02 -0.21248830737E+02 -0.18756368511E+02  0.47787274804E+02  0.20000017140E+02 0.  0.
         12    1    3    3    0    0 -0.32868051055E+02  0.21248830737E+02  0.18756368511E+02  0.43400725196E+02  0.00000000000E+00 0. -1.
         11    1    4    4    0    0 -0.22892808504E+01 -0.34148661374E+01 -0.67989821776E-01  0.41117806879E+01  0.51100000000E-03 0. -1.
        -11    1    4    4    0    0  0.16529665244E+02 -0.92927357788E+01 -0.82876681385E+01  0.20694690497E+02  0.51100000000E-03 0.  1.
         12    1    4    4    0    0  0.18627666661E+02 -0.85412288212E+01 -0.10400710550E+02  0.22980803619E+02  0.00000000000E+00 0. -1.
</event>
<event>
 8    1  0.2994958E-010  0.9118800E+02  0.7816164E-02  0.1184000E+00
        -11   -1    0    0    0    0  0.00000000000E+00  0.00000000000E+00  0.45593999997E+02  0.45594000000E+02  0.51100000000E-03 0.  1.
         11   -1    0    0    0    0 -0.00000000000E+00 -0.00000000000E+00 -0.45593999997E+02  0.45594000000E+02  0.51100000000E-03 0. -1.
         23    2    1    2    0    0  0.00000000000E+00 -0.35527136788E-14  0.00000000000E+00  0.91188000000E+02  0.91188000000E+02 0.  0.
    9900012    2    3    3    0    0 -0.33451953479E+02 -0.27345226834E+02 -0.41022508545E+01  0.47787273229E+02  0.20000009961E+02 0.  0.
        -12    1    3    3    0    0  0.33451953479E+02  0.27345226834E+02  0.41022508545E+01  0.43400726771E+02  0.00000000000E+00 0.  1.
         11    1    4    4    0    0 -0.13947914293E+01 -0.82158392130E+01 -0.18942407523E+01  0.85459701260E+01  0.51100000000E-03 0.  1.
        -11    1    4    4    0    0 -0.21806809259E+01 -0.13521285909E+01 -0.36317770543E+01  0.44467320428E+01  0.51100000000E-03 0. -1.
         12    1    4    4    0    0 -0.29876481123E+02 -0.17777259030E+02  0.14237669521E+01  0.34794571060E+02  0.00000000000E+00 0. -1.
</event>
<event>
 8    1  0.2994958E-010  0.9118800E+02  0.7816164E-02  0.1184000E+00
        -11   -1    0    0    0    0  0.00000000000E+00  0.00000000000E+00  0.45593999997E+02  0.45594000000E+02  0.51100000000E-03 0. -1.
         11   -1    0    0    0    0 -0.00000000000E+00 -0.00000000000E+00 -0.45593999997E+02  0.45594000000E+02  0.51100000000E-03 0.  1.
         23    2    1    2    0    0  0.00000000000E+00 -0.17763568394E-14  0.00000000000E+00  0.91188000000E+02  0.91188000000E+02 0.  0.
    9900012    2    3    3    0    0  0.64775999259E+01  0.15423349101E+02  0.40047275289E+02  0.47787271246E+02  0.20000000921E+02 0.  0.
        -12    1    3    3    0    0 -0.64775999259E+01 -0.15423349101E+02 -0.40047275289E+02  0.43400728754E+02  0.00000000000E+00 0.  1.
         11    1    4    4    0    0  0.35621486600E+01  0.53680793509E+01  0.14933916516E+02  0.16264287312E+02  0.51100000000E-03 0. -1.
        -11    1    4    4    0    0  0.31408270118E+01  0.14143248543E+02  0.22156276347E+02  0.26472567981E+02  0.51100000000E-03 0.  1.
        -12    1    4    4    0    0 -0.22537574589E+00 -0.40879787926E+01  0.29570824251E+01  0.50504159536E+01  0.00000000000E+00 0.  1.
</event>
<event>
 8    1  0.2994958E-010  0.9118800E+02  0.7816164E-02  0.1184000E+00
        -11   -1    0    0    0    0  0.00000000000E+00  0.00000000000E+00  0.45593999997E+02  0.45594000000E+02  0.51100000000E-03 0. -1.
         11   -1    0    0    0    0 -0.00000000000E+00 -0.00000000000E+00 -0.45593999997E+02  0.45594000000E+02  0.51100000000E-03 0.  1.
         23    2    1    2    0    0  0.00000000000E+00  0.17763568394E-14  0.00000000000E+00  0.91188000000E+02  0.91188000000E+02 0.  0.
    9900012    2    3    3    0    0 -0.37167478331E+02  0.46556115700E+01 -0.21920896309E+02  0.47787287338E+02  0.20000074289E+02 0.  0.
         12    1    3    3    0    0  0.37167478331E+02 -0.46556115700E+01  0.21920896309E+02  0.43400712662E+02  0.00000000000E+00 0. -1.
         11    1    4    4    0    0 -0.31575401437E+01  0.38876476751E+01  0.10807692640E+01  0.51236634031E+01  0.51100000000E-03 0. -1.
        -11    1    4    4    0    0 -0.80818430048E+01  0.43682330930E+01 -0.94786272255E+01  0.13200076555E+02  0.51100000000E-03 0.  1.
         12    1    4    4    0    0 -0.25928095182E+02 -0.36002691981E+01 -0.13523038348E+02  0.29463547380E+02  0.00000000000E+00 0. -1.
</event>
<event>
 8    1  0.2994958E-010  0.9118800E+02  0.7816164E-02  0.1184000E+00
        -11   -1    0    0    0    0  0.00000000000E+00  0.00000000000E+00  0.45593999997E+02  0.45594000000E+02  0.51100000000E-03 0. -1.
         11   -1    0    0    0    0 -0.00000000000E+00 -0.00000000000E+00 -0.45593999997E+02  0.45594000000E+02  0.51100000000E-03 0.  1.
         23    2    1    2    0    0 -0.88817841970E-15  0.00000000000E+00  0.35527136788E-14  0.91188000000E+02  0.91188000000E+02 0.  0.
    9900012    2    3    3    0    0 -0.46095223540E+01  0.32394719834E+02 -0.28512414689E+02  0.47787270043E+02  0.19999995434E+02 0.  0.
         12    1    3    3    0    0  0.46095223540E+01 -0.32394719834E+02  0.28512414689E+02  0.43400729957E+02  0.00000000000E+00 0. -1.
         11    1    4    4    0    0  0.26885544254E+01  0.97793811945E+01 -0.75265357963E+01  0.12629859968E+02  0.51100000000E-03 0. -1.
        -11    1    4    4    0    0  0.25490408834E+01  0.14236275744E+02 -0.15235035940E+02  0.21006557948E+02  0.51100000000E-03 0.  1.
         12    1    4    4    0    0 -0.98471176628E+01  0.83790628951E+01 -0.57508429527E+01  0.14150852127E+02  0.00000000000E+00 0. -1.
</event>
<event>
 8    1  0.2994958E-010  0.9118800E+02  0.7816164E-02  0.1184000E+00
        -11   -1    0    0    0    0  0.00000000000E+00  0.00000000000E+00  0.45593999997E+02  0.45594000000E+02  0.51100000000E-03 0. -1.
         11   -1    0    0    0    0 -0.00000000000E+00 -0.00000000000E+00 -0.45593999997E+02  0.45594000000E+02  0.51100000000E-03 0.  1.
         23    2    1    2    0    0  0.22204460493E-15  0.00000000000E+00  0.00000000000E+00  0.91188000000E+02  0.91188000000E+02 0.  0.
    9900012    2    3    3    0    0 -0.99638058136E+00  0.18481245687E+02 -0.39256516252E+02  0.47787270920E+02  0.19999999433E+02 0.  0.
         12    1    3    3    0    0  0.99638058136E+00 -0.18481245687E+02  0.39256516252E+02  0.43400729080E+02  0.00000000000E+00 0. -1.
         11    1    4    4    0    0  0.45350502003E+01  0.99237580031E+00 -0.27756466989E+01  0.54088543063E+01  0.51100000000E-03 0. -1.
        -11    1    4    4    0    0 -0.83360719401E+01  0.77348349469E+01 -0.17912714119E+02  0.21217518574E+02  0.51100000000E-03 0.  1.
         12    1    4    4    0    0  0.28046411585E+01  0.97540349399E+01 -0.18568155434E+02  0.21160898040E+02  0.00000000000E+00 0. -1.
</event>
<event>
 8    1  0.2994958E-010  0.9118800E+02  0.7816164E-02  0.1184000E+00
        -11   -1    0    0    0    0  0.00000000000E+00  0.00000000000E+00  0.45593999997E+02  0.45594000000E+02  0.51100000000E-03 0. -1.
         11   -1    0    0    0    0 -0.00000000000E+00 -0.00000000000E+00 -0.45593999997E+02  0.45594000000E+02  0.51100000000E-03 0.  1.
         23    2    1    2    0    0 -0.88817841970E-15  0.00000000000E+00  0.00000000000E+00  0.91188000000E+02  0.91188000000E+02 0.  0.
    9900012    2    3    3    0    0 -0.71411936448E+01 -0.14957476362E+02  0.40111120613E+02  0.47787254123E+02  0.19999922849E+02 0.  0.
        -12    1    3    3    0    0  0.71411936448E+01  0.14957476362E+02 -0.40111120613E+02  0.43400745877E+02  0.00000000000E+00 0.  1.
         11    1    4    4    0    0 -0.56344739638E+00 -0.10621666651E+02  0.13014184500E+02  0.16807922950E+02  0.51100000000E-03 0. -1.
        -11    1    4    4    0    0 -0.61219891891E+01 -0.35638850669E+01  0.45600235514E+01  0.84245975246E+01  0.51100000000E-03 0.  1.
         12    1    4    4    0    0 -0.45575705924E+00 -0.77192464419E+00  0.22536912562E+02  0.22554733649E+02  0.00000000000E+00 0. -1.
</event>
<event>
 8    1  0.2994958E-010  0.9118800E+02  0.7816164E-02  0.1184000E+00
        -11   -1    0    0    0    0  0.00000000000E+00  0.00000000000E+00  0.45593999997E+02  0.45594000000E+02  0.51100000000E-03 0. -1.
         11   -1    0    0    0    0 -0.00000000000E+00 -0.00000000000E+00 -0.45593999997E+02  0.45594000000E+02  0.51100000000E-03 0.  1.
         23    2    1    2    0    0  0.00000000000E+00  0.00000000000E+00  0.00000000000E+00  0.91188000000E+02  0.91188000000E+02 0.  0.
    9900012    2    3    3    0    0 -0.16982619572E+02  0.21968579570E+02 -0.33355590589E+02  0.47787270981E+02  0.19999999709E+02 0.  0.
         12    1    3    3    0    0  0.16982619572E+02 -0.21968579570E+02  0.33355590589E+02  0.43400729019E+02  0.00000000000E+00 0. -1.
         11    1    4    4    0    0 -0.40637388849E+00  0.22912668923E+01 -0.94374368976E+01  0.97200956356E+01  0.51100000000E-03 0. -1.
        -11    1    4    4    0    0 -0.76299960374E+01  0.18077049513E+02 -0.20447000689E+02  0.28338602578E+02  0.51100000000E-03 0.  1.
         12    1    4    4    0    0 -0.89462496457E+01  0.16002631654E+01 -0.34711530023E+01  0.97285727672E+01  0.00000000000E+00 0. -1.
</event>
<event>
 8    1  0.2994958E-010  0.9118800E+02  0.7816164E-02  0.1184000E+00
        -11   -1    0    0    0    0  0.00000000000E+00  0.00000000000E+00  0.45593999997E+02  0.45594000000E+02  0.51100000000E-03 0.  1.
         11   -1    0    0    0    0 -0.00000000000E+00 -0.00000000000E+00 -0.45593999997E+02  0.45594000000E+02  0.51100000000E-03 0. -1.
         23    2    1    2    0    0  0.00000000000E+00  0.00000000000E+00  0.17763568394E-14  0.91188000000E+02  0.91188000000E+02 0.  0.
    9900012    2    3    3    0    0  0.34236462975E+02 -0.22123085089E+02 -0.14901575050E+02  0.47787271551E+02  0.20000002311E+02 0.  0.
         12    1    3    3    0    0 -0.34236462975E+02  0.22123085089E+02  0.14901575050E+02  0.43400728449E+02  0.00000000000E+00 0. -1.
         11    1    4    4    0    0  0.82635381744E+00 -0.15623595097E+01 -0.21281521213E+01  0.27663802309E+01  0.51100000000E-03 0. -1.
        -11    1    4    4    0    0  0.11863585408E+02 -0.39925620126E+01  0.39284047910E+01  0.13119358774E+02  0.51100000000E-03 0.  1.
         12    1    4    4    0    0  0.21546523749E+02 -0.16568163567E+02 -0.16701827720E+02  0.31901532547E+02  0.00000000000E+00 0. -1.
</event>
<event>
 8    1  0.2994958E-010  0.9118800E+02  0.7816164E-02  0.1184000E+00
        -11   -1    0    0    0    0  0.00000000000E+00  0.00000000000E+00  0.45593999997E+02  0.45594000000E+02  0.51100000000E-03 0. -1.
         11   -1    0    0    0    0 -0.00000000000E+00 -0.00000000000E+00 -0.45593999997E+02  0.45594000000E+02  0.51100000000E-03 0.  1.
         23    2    1    2    0    0  0.71054273576E-14  0.88817841970E-15  0.00000000000E+00  0.91188000000E+02  0.91188000000E+02 0.  0.
    9900012    2    3    3    0    0 -0.25737745322E+02 -0.78448062891E+01  0.34053647010E+02  0.47787269653E+02  0.19999993657E+02 0.  0.
        -12    1    3    3    0    0  0.25737745322E+02  0.78448062891E+01 -0.34053647010E+02  0.43400730347E+02  0.00000000000E+00 0.  1.
         11    1    4    4    0    0 -0.20722701975E+02  0.79030990231E+00  0.16209693861E+02  0.26321267869E+02  0.51100000000E-03 0. -1.
        -11    1    4    4    0    0  0.28786480805E+00 -0.39083810290E+01  0.27609263499E+01  0.47938526245E+01  0.51100000000E-03 0.  1.
        -12    1    4    4    0    0 -0.53029081549E+01 -0.47267351624E+01  0.15083026799E+02  0.16672149160E+02  0.00000000000E+00 0.  1.
</event>
<event>
 8    1  0.2994958E-010  0.9118800E+02  0.7816164E-02  0.1184000E+00
        -11   -1    0    0    0    0  0.00000000000E+00  0.00000000000E+00  0.45593999997E+02  0.45594000000E+02  0.51100000000E-03 0. -1.
         11   -1    0    0    0    0 -0.00000000000E+00 -0.00000000000E+00 -0.45593999997E+02  0.45594000000E+02  0.51100000000E-03 0.  1.
         23    2    1    2    0    0  0.00000000000E+00  0.00000000000E+00  0.00000000000E+00  0.91188000000E+02  0.91188000000E+02 0.  0.
    9900012    2    3    3    0    0  0.31688576020E+02 -0.78755872554E+01 -0.28590764178E+02  0.47787279718E+02  0.20000039544E+02 0.  0.
         12    1    3    3    0    0 -0.31688576020E+02  0.78755872554E+01  0.28590764178E+02  0.43400720282E+02  0.00000000000E+00 0. -1.
         11    1    4    4    0    0  0.22472940775E+01  0.11078450352E+01 -0.31929064941E+00  0.25257866246E+01  0.51100000000E-03 0. -1.
        -11    1    4    4    0    0  0.45452891061E+01 -0.85486795623E+01 -0.12405453315E+02  0.15736417875E+02  0.51100000000E-03 0.  1.
        -12    1    4    4    0    0  0.24895992836E+02 -0.43475272839E+00 -0.15866020213E+02  0.29525075218E+02  0.00000000000E+00 0.  1.
</event>
<event>
 8    1  0.2994958E-010  0.9118800E+02  0.7816164E-02  0.1184000E+00
        -11   -1    0    0    0    0  0.00000000000E+00  0.00000000000E+00  0.45593999997E+02  0.45594000000E+02  0.51100000000E-03 0. -1.
         11   -1    0    0    0    0 -0.00000000000E+00 -0.00000000000E+00 -0.45593999997E+02  0.45594000000E+02  0.51100000000E-03 0.  1.
         23    2    1    2    0    0  0.00000000000E+00 -0.88817841970E-15  0.00000000000E+00  0.91188000000E+02  0.91188000000E+02 0.  0.
    9900012    2    3    3    0    0  0.18754486577E+02  0.70547738637E+01  0.38498340308E+02  0.47787276417E+02  0.20000024495E+02 0.  0.
        -12    1    3    3    0    0 -0.18754486577E+02 -0.70547738637E+01 -0.38498340308E+02  0.43400723583E+02  0.00000000000E+00 0.  1.
         11    1    4    4    0    0  0.56232743281E+01  0.14957119689E+01  0.46173500481E+01  0.74282090836E+01  0.51100000000E-03 0. -1.
        -11    1    4    4    0    0  0.83480693118E+01  0.45326146779E+01  0.43890803236E+01  0.10464171415E+02  0.51100000000E-03 0.  1.
         12    1    4    4    0    0  0.47831429372E+01  0.10264472169E+01  0.29491909937E+02  0.29894895918E+02  0.00000000000E+00 0. -1.
</event>
<event>
 8    1  0.2994958E-010  0.9118800E+02  0.7816164E-02  0.1184000E+00
        -11   -1    0    0    0    0  0.00000000000E+00  0.00000000000E+00  0.45593999997E+02  0.45594000000E+02  0.51100000000E-03 0. -1.
         11   -1    0    0    0    0 -0.00000000000E+00 -0.00000000000E+00 -0.45593999997E+02  0.45594000000E+02  0.51100000000E-03 0.  1.
         23    2    1    2    0    0 -0.17763568394E-14  0.35527136788E-14  0.00000000000E+00  0.91188000000E+02  0.91188000000E+02 0.  0.
    9900012    2    3    3    0    0  0.12233301605E+02 -0.23875817325E+02  0.34116210619E+02  0.47787260973E+02  0.19999954078E+02 0.  0.
        -12    1    3    3    0    0 -0.12233301605E+02  0.23875817325E+02 -0.34116210619E+02  0.43400739027E+02  0.00000000000E+00 0.  1.
         11    1    4    4    0    0  0.18043239855E+01 -0.10809636839E+02  0.22804675980E+02  0.25301325666E+02  0.51100000000E-03 0. -1.
        -11    1    4    4    0    0  0.82646684472E+01 -0.10454516327E+02  0.13069238504E+02  0.18665654328E+02  0.51100000000E-03 0.  1.
        -12    1    4    4    0    0  0.21643091726E+01 -0.26116641596E+01 -0.17577038649E+01  0.38202809783E+01  0.00000000000E+00 0.  1.
</event>
<event>
 8    1  0.2994958E-010  0.9118800E+02  0.7816164E-02  0.1184000E+00
        -11   -1    0    0    0    0  0.00000000000E+00  0.00000000000E+00  0.45593999997E+02  0.45594000000E+02  0.51100000000E-03 0. -1.
         11   -1    0    0    0    0 -0.00000000000E+00 -0.00000000000E+00 -0.45593999997E+02  0.45594000000E+02  0.51100000000E-03 0.  1.
         23    2    1    2    0    0  0.17763568394E-14  0.17763568394E-14 -0.71054273576E-14  0.91188000000E+02  0.91188000000E+02 0.  0.
    9900012    2    3    3    0    0 -0.15956211445E+02 -0.11485973461E+02  0.38692314851E+02  0.47787268456E+02  0.19999988199E+02 0.  0.
        -12    1    3    3    0    0  0.15956211445E+02  0.11485973461E+02 -0.38692314851E+02  0.43400731544E+02  0.00000000000E+00 0.  1.
         11    1    4    4    0    0 -0.21197438009E+01 -0.20994168545E+01  0.23712271625E+02  0.23899219460E+02  0.51100000000E-03 0. -1.
        -11    1    4    4    0    0 -0.12809537736E+02 -0.60193350467E+01  0.14621392191E+02  0.20349490443E+02  0.51100000000E-03 0.  1.
        -12    1    4    4    0    0 -0.10269299076E+01 -0.33672215600E+01  0.35865103476E+00  0.35385585531E+01  0.00000000000E+00 0.  1.
</event>
<event>
 8    1  0.3910792E-010  0.9118800E+02  0.7816164E-02  0.1184000E+00
        -11   -1    0    0    0    0  0.00000000000E+00  0.00000000000E+00  0.45593999997E+02  0.45594000000E+02  0.51100000000E-03 0. -1.
         11   -1    0    0    0    0 -0.00000000000E+00 -0.00000000000E+00 -0.45593999997E+02  0.45594000000E+02  0.51100000000E-03 0.  1.
         23    2    1    2    0    0  0.00000000000E+00 -0.35527136788E-14  0.00000000000E+00  0.91188000000E+02  0.91188000000E+02 0.  0.
    9900012    2    3    3    0    0 -0.44027816455E+01  0.18228971718E+02  0.39140046866E+02  0.47787272301E+02  0.20000005729E+02 0.  0.
        -12    1    3    3    0    0  0.44027816455E+01 -0.18228971718E+02 -0.39140046866E+02  0.43400727699E+02  0.00000000000E+00 0.  1.
         11    1    4    4    0    0 -0.43948130549E+01 -0.68762084522E+00  0.18742411880E+01  0.48270057495E+01  0.51100000000E-03 0. -1.
        -11    1    4    4    0    0  0.38013266186E+00  0.78569350584E+01  0.63049890711E+01  0.10081111883E+02  0.51100000000E-03 0.  1.
         12    1    4    4    0    0 -0.38810125247E+00  0.11059657505E+02  0.30960816607E+02  0.32879154668E+02  0.00000000000E+00 0. -1.
</event>
<event>
 8    1  0.2994958E-010  0.9118800E+02  0.7816164E-02  0.1184000E+00
        -11   -1    0    0    0    0  0.00000000000E+00  0.00000000000E+00  0.45593999997E+02  0.45594000000E+02  0.51100000000E-03 0. -1.
         11   -1    0    0    0    0 -0.00000000000E+00 -0.00000000000E+00 -0.45593999997E+02  0.45594000000E+02  0.51100000000E-03 0.  1.
         23    2    1    2    0    0  0.00000000000E+00  0.00000000000E+00  0.71054273576E-14  0.91188000000E+02  0.91188000000E+02 0.  0.
    9900012    2    3    3    0    0  0.14097258115E+02  0.61797673236E+01  0.40579563137E+02  0.47787272415E+02  0.20000006249E+02 0.  0.
        -12    1    3    3    0    0 -0.14097258115E+02 -0.61797673236E+01 -0.40579563137E+02  0.43400727585E+02  0.00000000000E+00 0.  1.
         11    1    4    4    0    0  0.24115282840E+01 -0.11547237456E+01  0.31240780361E+01  0.41120213314E+01  0.51100000000E-03 0. -1.
        -11    1    4    4    0    0  0.11692869226E+01  0.63986995582E+01  0.30131632489E+02  0.30825733806E+02  0.51100000000E-03 0.  1.
        -12    1    4    4    0    0  0.10516442908E+02  0.93579151099E+00  0.73238526119E+01  0.12849517278E+02  0.00000000000E+00 0.  1.
</event>
<event>
 8    1  0.2994958E-010  0.9118800E+02  0.7816164E-02  0.1184000E+00
        -11   -1    0    0    0    0  0.00000000000E+00  0.00000000000E+00  0.45593999997E+02  0.45594000000E+02  0.51100000000E-03 0. -1.
         11   -1    0    0    0    0 -0.00000000000E+00 -0.00000000000E+00 -0.45593999997E+02  0.45594000000E+02  0.51100000000E-03 0.  1.
         23    2    1    2    0    0  0.00000000000E+00  0.00000000000E+00 -0.71054273576E-14  0.91188000000E+02  0.91188000000E+02 0.  0.
    9900012    2    3    3    0    0 -0.16466362264E+02  0.12716276877E+02  0.38089084807E+02  0.47787272295E+02  0.20000005704E+02 0.  0.
        -12    1    3    3    0    0  0.16466362264E+02 -0.12716276877E+02 -0.38089084807E+02  0.43400727705E+02  0.00000000000E+00 0.  1.
         11    1    4    4    0    0 -0.12994876188E+02  0.73248296044E+01  0.13816660495E+02  0.20332733298E+02  0.51100000000E-03 0. -1.
        -11    1    4    4    0    0 -0.19965738498E+01 -0.20460841869E+01  0.15916501111E+02  0.16171202043E+02  0.51100000000E-03 0.  1.
         12    1    4    4    0    0 -0.14749122271E+01  0.74375314592E+01  0.83559232014E+01  0.11283336955E+02  0.00000000000E+00 0. -1.
</event>
<event>
 8    1  0.2994958E-010  0.9118800E+02  0.7816164E-02  0.1184000E+00
        -11   -1    0    0    0    0  0.00000000000E+00  0.00000000000E+00  0.45593999997E+02  0.45594000000E+02  0.51100000000E-03 0. -1.
         11   -1    0    0    0    0 -0.00000000000E+00 -0.00000000000E+00 -0.45593999997E+02  0.45594000000E+02  0.51100000000E-03 0.  1.
         23    2    1    2    0    0  0.00000000000E+00  0.26645352591E-14  0.00000000000E+00  0.91188000000E+02  0.91188000000E+02 0.  0.
    9900012    2    3    3    0    0 -0.25395416297E+01  0.46828405833E+01  0.43072558767E+02  0.47787267444E+02  0.19999983586E+02 0.  0.
        -12    1    3    3    0    0  0.25395416297E+01 -0.46828405833E+01 -0.43072558767E+02  0.43400732556E+02  0.00000000000E+00 0.  1.
         11    1    4    4    0    0 -0.29141630475E+01  0.39231650033E+01  0.13795992584E+02  0.14636016587E+02  0.51100000000E-03 0. -1.
        -11    1    4    4    0    0  0.41726100987E+00  0.77922178662E+01  0.20297934229E+02  0.21746238761E+02  0.51100000000E-03 0.  1.
        -12    1    4    4    0    0 -0.42639592110E-01 -0.70325422862E+01  0.89786319548E+01  0.11405012097E+02  0.00000000000E+00 0.  1.
</event>
<event>
 8    1  0.2994958E-010  0.9118800E+02  0.7816164E-02  0.1184000E+00
        -11   -1    0    0    0    0  0.00000000000E+00  0.00000000000E+00  0.45593999997E+02  0.45594000000E+02  0.51100000000E-03 0. -1.
         11   -1    0    0    0    0 -0.00000000000E+00 -0.00000000000E+00 -0.45593999997E+02  0.45594000000E+02  0.51100000000E-03 0.  1.
         23    2    1    2    0    0  0.00000000000E+00  0.35527136788E-14  0.00000000000E+00  0.91188000000E+02  0.91188000000E+02 0.  0.
    9900012    2    3    3    0    0  0.76213467863E+01 -0.20478888462E+02  0.37498714101E+02  0.47787270067E+02  0.19999995544E+02 0.  0.
        -12    1    3    3    0    0 -0.76213467863E+01  0.20478888462E+02 -0.37498714101E+02  0.43400729933E+02  0.00000000000E+00 0.  1.
         11    1    4    4    0    0  0.37800992617E+01 -0.98949154397E+01  0.23400487129E+02  0.25686208364E+02  0.51100000000E-03 0. -1.
        -11    1    4    4    0    0 -0.40623685420E+01 -0.19810493236E+01  0.72964521132E+01  0.85828671373E+01  0.51100000000E-03 0.  1.
        -12    1    4    4    0    0  0.79036160666E+01 -0.86029236984E+01  0.68017748589E+01  0.13518194566E+02  0.00000000000E+00 0.  1.
</event>
<event>
 8    1  0.2994958E-010  0.9118800E+02  0.7816164E-02  0.1184000E+00
        -11   -1    0    0    0    0  0.00000000000E+00  0.00000000000E+00  0.45593999997E+02  0.45594000000E+02  0.51100000000E-03 0. -1.
         11   -1    0    0    0    0 -0.00000000000E+00 -0.00000000000E+00 -0.45593999997E+02  0.45594000000E+02  0.51100000000E-03 0.  1.
         23    2    1    2    0    0  0.35527136788E-14  0.00000000000E+00  0.00000000000E+00  0.91188000000E+02  0.91188000000E+02 0.  0.
    9900012    2    3    3    0    0 -0.16051067017E+02  0.19981743960E+02 -0.35024510925E+02  0.47787271785E+02  0.20000003377E+02 0.  0.
         12    1    3    3    0    0  0.16051067017E+02 -0.19981743960E+02  0.35024510925E+02  0.43400728215E+02  0.00000000000E+00 0. -1.
         11    1    4    4    0    0  0.17646015956E-01 -0.14483228482E+01 -0.41733272708E+00  0.15073544112E+01  0.51100000000E-03 0. -1.
        -11    1    4    4    0    0 -0.35105873806E+01  0.16005032655E+02 -0.14035326252E+02  0.21574885337E+02  0.51100000000E-03 0.  1.
         12    1    4    4    0    0 -0.12558125652E+02  0.54250341524E+01 -0.20571851946E+02  0.24705032037E+02  0.00000000000E+00 0. -1.
</event>
<event>
 8    1  0.2994958E-010  0.9118800E+02  0.7816164E-02  0.1184000E+00
        -11   -1    0    0    0    0  0.00000000000E+00  0.00000000000E+00  0.45593999997E+02  0.45594000000E+02  0.51100000000E-03 0.  1.
         11   -1    0    0    0    0 -0.00000000000E+00 -0.00000000000E+00 -0.45593999997E+02  0.45594000000E+02  0.51100000000E-03 0. -1.
         23    2    1    2    0    0 -0.35527136788E-14  0.00000000000E+00  0.00000000000E+00  0.91188000000E+02  0.91188000000E+02 0.  0.
    9900012    2    3    3    0    0  0.24086423475E+02 -0.35075535061E+02  0.85541914629E+01  0.47787272504E+02  0.20000006653E+02 0.  0.
        -12    1    3    3    0    0 -0.24086423475E+02  0.35075535061E+02 -0.85541914629E+01  0.43400727496E+02  0.00000000000E+00 0.  1.
         11    1    4    4    0    0  0.11946726063E+02 -0.15711242947E+02  0.20880604749E+01  0.19847604777E+02  0.51100000000E-03 0. -1.
        -11    1    4    4    0    0  0.82745965157E+01 -0.10430169769E+01  0.80901448161E+00  0.83792205249E+01  0.51100000000E-03 0.  1.
         12    1    4    4    0    0  0.38651008964E+01 -0.18321275137E+02  0.56571165064E+01  0.19560447202E+02  0.00000000000E+00 0. -1.
</event>
<event>
 8    1  0.2994958E-010  0.9118800E+02  0.7816164E-02  0.1184000E+00
        -11   -1    0    0    0    0  0.00000000000E+00  0.00000000000E+00  0.45593999997E+02  0.45594000000E+02  0.51100000000E-03 0. -1.
         11   -1    0    0    0    0 -0.00000000000E+00 -0.00000000000E+00 -0.45593999997E+02  0.45594000000E+02  0.51100000000E-03 0.  1.
         23    2    1    2    0    0  0.00000000000E+00  0.00000000000E+00 -0.71054273576E-14  0.91188000000E+02  0.91188000000E+02 0.  0.
    9900012    2    3    3    0    0 -0.12119729164E+02  0.20342398385E+02  0.36372018769E+02  0.47787253965E+02  0.19999922128E+02 0.  0.
        -12    1    3    3    0    0  0.12119729164E+02 -0.20342398385E+02 -0.36372018769E+02  0.43400746035E+02  0.00000000000E+00 0.  1.
         11    1    4    4    0    0 -0.72548416999E+01  0.10239301268E+02  0.18146113537E+02  0.22062580432E+02  0.51100000000E-03 0. -1.
        -11    1    4    4    0    0  0.30805169512E+01  0.94991448351E+01  0.12005588993E+02  0.15615937519E+02  0.51100000000E-03 0.  1.
         12    1    4    4    0    0 -0.79454044154E+01  0.60395228184E+00  0.62203162393E+01  0.10108736014E+02  0.00000000000E+00 0. -1.
</event>
<event>
 8    1  0.2994958E-010  0.9118800E+02  0.7816164E-02  0.1184000E+00
        -11   -1    0    0    0    0  0.00000000000E+00  0.00000000000E+00  0.45593999997E+02  0.45594000000E+02  0.51100000000E-03 0. -1.
         11   -1    0    0    0    0 -0.00000000000E+00 -0.00000000000E+00 -0.45593999997E+02  0.45594000000E+02  0.51100000000E-03 0.  1.
         23    2    1    2    0    0  0.71054273576E-14 -0.17763568394E-14  0.71054273576E-14  0.91188000000E+02  0.91188000000E+02 0.  0.
    9900012    2    3    3    0    0  0.27872914093E+02 -0.14585859910E+02  0.29899442831E+02  0.47787270387E+02  0.19999997002E+02 0.  0.
        -12    1    3    3    0    0 -0.27872914093E+02  0.14585859910E+02 -0.29899442831E+02  0.43400729613E+02  0.00000000000E+00 0.  1.
         11    1    4    4    0    0  0.11301612874E+02 -0.63655380067E+01  0.15453737125E+02  0.20175839984E+02  0.51100000000E-03 0. -1.
        -11    1    4    4    0    0  0.17198003075E+02 -0.11175414704E+02  0.12634292992E+02  0.24089137869E+02  0.51100000000E-03 0.  1.
        -12    1    4    4    0    0 -0.62670185610E+00  0.29550928010E+01  0.18114127143E+01  0.35222925347E+01  0.00000000000E+00 0.  1.
</event>
<event>
 8    1  0.2994958E-010  0.9118800E+02  0.7816164E-02  0.1184000E+00
        -11   -1    0    0    0    0  0.00000000000E+00  0.00000000000E+00  0.45593999997E+02  0.45594000000E+02  0.51100000000E-03 0.  1.
         11   -1    0    0    0    0 -0.00000000000E+00 -0.00000000000E+00 -0.45593999997E+02  0.45594000000E+02  0.51100000000E-03 0. -1.
         23    2    1    2    0    0  0.14210854715E-13  0.00000000000E+00  0.00000000000E+00  0.91188000000E+02  0.91188000000E+02 0.  0.
    9900012    2    3    3    0    0 -0.41249896167E+02 -0.28601313127E+01 -0.13186685530E+02  0.47787274658E+02  0.20000016478E+02 0.  0.
         12    1    3    3    0    0  0.41249896167E+02  0.28601313127E+01  0.13186685530E+02  0.43400725342E+02  0.00000000000E+00 0. -1.
         11    1    4    4    0    0  0.57852613823E+00  0.43736829772E+00 -0.63231514017E+00  0.96218824461E+00  0.51100000000E-03 0. -1.
        -11    1    4    4    0    0 -0.40611350881E+02 -0.63337051528E+01 -0.13751756342E+02  0.43341763278E+02  0.51100000000E-03 0.  1.
        -12    1    4    4    0    0 -0.12170714246E+01  0.30362055423E+01  0.11973859525E+01  0.34833231356E+01  0.00000000000E+00 0.  1.
</event>
<event>
 8    1  0.2994958E-010  0.9118800E+02  0.7816164E-02  0.1184000E+00
        -11   -1    0    0    0    0  0.00000000000E+00  0.00000000000E+00  0.45593999997E+02  0.45594000000E+02  0.51100000000E-03 0. -1.
         11   -1    0    0    0    0 -0.00000000000E+00 -0.00000000000E+00 -0.45593999997E+02  0.45594000000E+02  0.51100000000E-03 0.  1.
         23    2    1    2    0    0  0.00000000000E+00  0.00000000000E+00  0.00000000000E+00  0.91188000000E+02  0.91188000000E+02 0.  0.
    9900012    2    3    3    0    0 -0.25276386482E+02 -0.34211712295E+02 -0.86189339801E+01  0.47787274260E+02  0.20000014663E+02 0.  0.
         12    1    3    3    0    0  0.25276386482E+02  0.34211712295E+02  0.86189339801E+01  0.43400725740E+02  0.00000000000E+00 0. -1.
         11    1    4    4    0    0  0.20011263911E+01 -0.31956570037E+01 -0.12057172156E+01  0.39585963148E+01  0.51100000000E-03 0. -1.
        -11    1    4    4    0    0 -0.39079872658E+01  0.51883568828E+00 -0.86225950019E+00  0.40354735346E+01  0.51100000000E-03 0.  1.
         12    1    4    4    0    0 -0.23369525607E+02 -0.31534890980E+02 -0.65509572643E+01  0.39793204411E+02  0.00000000000E+00 0. -1.
</event>
<event>
 8    1  0.2994958E-010  0.9118800E+02  0.7816164E-02  0.1184000E+00
        -11   -1    0    0    0    0  0.00000000000E+00  0.00000000000E+00  0.45593999997E+02  0.45594000000E+02  0.51100000000E-03 0. -1.
         11   -1    0    0    0    0 -0.00000000000E+00 -0.00000000000E+00 -0.45593999997E+02  0.45594000000E+02  0.51100000000E-03 0.  1.
         23    2    1    2    0    0 -0.35527136788E-14  0.88817841970E-15 -0.71054273576E-14  0.91188000000E+02  0.91188000000E+02 0.  0.
    9900012    2    3    3    0    0 -0.22943399935E+02  0.42831047568E+01 -0.36590690373E+02  0.47787271793E+02  0.20000003412E+02 0.  0.
         12    1    3    3    0    0  0.22943399935E+02 -0.42831047568E+01  0.36590690373E+02  0.43400728207E+02  0.00000000000E+00 0. -1.
         11    1    4    4    0    0 -0.82277693131E+01  0.43856414003E+01 -0.33956713643E+01  0.99227326194E+01  0.51100000000E-03 0. -1.
        -11    1    4    4    0    0 -0.13273751434E+02  0.15713086679E+01 -0.17530272785E+02  0.22044771540E+02  0.51100000000E-03 0.  1.
        -12    1    4    4    0    0 -0.14418791874E+01 -0.16738453114E+01 -0.15664746224E+02  0.15819767633E+02  0.00000000000E+00 0.  1.
</event>
<event>
 8    1  0.2994958E-010  0.9118800E+02  0.7816164E-02  0.1184000E+00
        -11   -1    0    0    0    0  0.00000000000E+00  0.00000000000E+00  0.45593999997E+02  0.45594000000E+02  0.51100000000E-03 0.  1.
         11   -1    0    0    0    0 -0.00000000000E+00 -0.00000000000E+00 -0.45593999997E+02  0.45594000000E+02  0.51100000000E-03 0. -1.
         23    2    1    2    0    0  0.00000000000E+00  0.00000000000E+00  0.00000000000E+00  0.91188000000E+02  0.91188000000E+02 0.  0.
    9900012    2    3    3    0    0  0.24187442978E+02 -0.32996994751E+02 -0.14484114662E+02  0.47787266850E+02  0.19999980878E+02 0.  0.
         12    1    3    3    0    0 -0.24187442978E+02  0.32996994751E+02  0.14484114662E+02  0.43400733150E+02  0.00000000000E+00 0. -1.
         11    1    4    4    0    0  0.28546244604E+01 -0.86039381414E+01  0.19614923611E+01  0.92749169751E+01  0.51100000000E-03 0. -1.
        -11    1    4    4    0    0  0.74324161345E+01 -0.92471292566E+01  0.49471418935E+00  0.11874129504E+02  0.51100000000E-03 0.  1.
         12    1    4    4    0    0  0.13900402383E+02 -0.15145927353E+02 -0.16940321213E+02  0.26638220372E+02  0.00000000000E+00 0. -1.
</event>
<event>
 8    1  0.2994958E-010  0.9118800E+02  0.7816164E-02  0.1184000E+00
        -11   -1    0    0    0    0  0.00000000000E+00  0.00000000000E+00  0.45593999997E+02  0.45594000000E+02  0.51100000000E-03 0. -1.
         11   -1    0    0    0    0 -0.00000000000E+00 -0.00000000000E+00 -0.45593999997E+02  0.45594000000E+02  0.51100000000E-03 0.  1.
         23    2    1    2    0    0  0.00000000000E+00  0.17763568394E-14  0.00000000000E+00  0.91188000000E+02  0.91188000000E+02 0.  0.
    9900012    2    3    3    0    0  0.20990656205E+02  0.72631663772E+01  0.37286217783E+02  0.47787271086E+02  0.20000000189E+02 0.  0.
        -12    1    3    3    0    0 -0.20990656205E+02 -0.72631663772E+01 -0.37286217783E+02  0.43400728914E+02  0.00000000000E+00 0.  1.
         11    1    4    4    0    0  0.60150869095E+01  0.58915254929E+01  0.15098322998E+02  0.17287298828E+02  0.51100000000E-03 0. -1.
        -11    1    4    4    0    0  0.15073334139E+02  0.60489453786E+01  0.17551888109E+02  0.23913676395E+02  0.51100000000E-03 0.  1.
        -12    1    4    4    0    0 -0.97764843408E-01 -0.46773044943E+01  0.46360066757E+01  0.65862958630E+01  0.00000000000E+00 0.  1.
</event>
<event>
 8    1  0.2994958E-010  0.9118800E+02  0.7816164E-02  0.1184000E+00
        -11   -1    0    0    0    0  0.00000000000E+00  0.00000000000E+00  0.45593999997E+02  0.45594000000E+02  0.51100000000E-03 0. -1.
         11   -1    0    0    0    0 -0.00000000000E+00 -0.00000000000E+00 -0.45593999997E+02  0.45594000000E+02  0.51100000000E-03 0.  1.
         23    2    1    2    0    0  0.00000000000E+00  0.00000000000E+00  0.00000000000E+00  0.91188000000E+02  0.91188000000E+02 0.  0.
    9900012    2    3    3    0    0  0.34628877123E+02  0.19745432054E+02 -0.17163396576E+02  0.47787269593E+02  0.19999993383E+02 0.  0.
         12    1    3    3    0    0 -0.34628877123E+02 -0.19745432054E+02  0.17163396576E+02  0.43400730407E+02  0.00000000000E+00 0. -1.
         11    1    4    4    0    0 -0.17042710299E+01 -0.82665242975E+00 -0.82912772119E+00  0.20676912299E+01  0.51100000000E-03 0. -1.
        -11    1    4    4    0    0  0.32251029732E+01  0.46009269029E+01 -0.33195544965E+00  0.56284999987E+01  0.51100000000E-03 0.  1.
        -12    1    4    4    0    0  0.33108045180E+02  0.15971157581E+02 -0.16002313405E+02  0.40091078365E+02  0.00000000000E+00 0.  1.
</event>
<event>
 8    1  0.2994958E-010  0.9118800E+02  0.7816164E-02  0.1184000E+00
        -11   -1    0    0    0    0  0.00000000000E+00  0.00000000000E+00  0.45593999997E+02  0.45594000000E+02  0.51100000000E-03 0. -1.
         11   -1    0    0    0    0 -0.00000000000E+00 -0.00000000000E+00 -0.45593999997E+02  0.45594000000E+02  0.51100000000E-03 0.  1.
         23    2    1    2    0    0  0.00000000000E+00  0.17763568394E-14  0.00000000000E+00  0.91188000000E+02  0.91188000000E+02 0.  0.
    9900012    2    3    3    0    0  0.90739721562E+01  0.93405997851E+01  0.41400947611E+02  0.47787282977E+02  0.20000054404E+02 0.  0.
        -12    1    3    3    0    0 -0.90739721562E+01 -0.93405997851E+01 -0.41400947611E+02  0.43400717023E+02  0.00000000000E+00 0.  1.
         11    1    4    4    0    0  0.80929948311E+01 -0.27123718287E+01  0.12152340291E+02  0.14850350201E+02  0.51100000000E-03 0. -1.
        -11    1    4    4    0    0  0.18023384249E+01 -0.97610131419E+00  0.48473356365E+01  0.52628756975E+01  0.51100000000E-03 0.  1.
        -12    1    4    4    0    0 -0.82136109975E+00  0.13029072928E+02  0.24401271683E+02  0.27674057078E+02  0.00000000000E+00 0.  1.
</event>
<event>
 8    1  0.2994958E-010  0.9118800E+02  0.7816164E-02  0.1184000E+00
        -11   -1    0    0    0    0  0.00000000000E+00  0.00000000000E+00  0.45593999997E+02  0.45594000000E+02  0.51100000000E-03 0. -1.
         11   -1    0    0    0    0 -0.00000000000E+00 -0.00000000000E+00 -0.45593999997E+02  0.45594000000E+02  0.51100000000E-03 0.  1.
         23    2    1    2    0    0  0.00000000000E+00  0.00000000000E+00  0.00000000000E+00  0.91188000000E+02  0.91188000000E+02 0.  0.
    9900012    2    3    3    0    0  0.10759177283E+02  0.14310536894E+02  0.39535706604E+02  0.47787268915E+02  0.19999990293E+02 0.  0.
        -12    1    3    3    0    0 -0.10759177283E+02 -0.14310536894E+02 -0.39535706604E+02  0.43400731085E+02  0.00000000000E+00 0.  1.
         11    1    4    4    0    0  0.35884600685E+01  0.80786844025E+01  0.18851532691E+02  0.20821202473E+02  0.51100000000E-03 0.  1.
        -11    1    4    4    0    0 -0.40636223640E+01  0.40407810920E+01  0.54260048884E+01  0.78919242179E+01  0.51100000000E-03 0. -1.
         12    1    4    4    0    0  0.11234339578E+02  0.21910713993E+01  0.15258169025E+02  0.19074142225E+02  0.00000000000E+00 0. -1.
</event>
<event>
 8    1  0.2994958E-010  0.9118800E+02  0.7816164E-02  0.1184000E+00
        -11   -1    0    0    0    0  0.00000000000E+00  0.00000000000E+00  0.45593999997E+02  0.45594000000E+02  0.51100000000E-03 0. -1.
         11   -1    0    0    0    0 -0.00000000000E+00 -0.00000000000E+00 -0.45593999997E+02  0.45594000000E+02  0.51100000000E-03 0.  1.
         23    2    1    2    0    0  0.00000000000E+00  0.00000000000E+00  0.00000000000E+00  0.91188000000E+02  0.91188000000E+02 0.  0.
    9900012    2    3    3    0    0  0.16376909925E+02 -0.21044096643E+02 -0.34242751991E+02  0.47787271364E+02  0.20000001458E+02 0.  0.
         12    1    3    3    0    0 -0.16376909925E+02  0.21044096643E+02  0.34242751991E+02  0.43400728636E+02  0.00000000000E+00 0. -1.
         11    1    4    4    0    0 -0.38818817900E+00 -0.18356596343E+01 -0.10051479472E+01  0.21285344752E+01  0.51100000000E-03 0. -1.
        -11    1    4    4    0    0  0.12737944201E+02 -0.22323653893E+02 -0.24289554597E+02  0.35363585910E+02  0.51100000000E-03 0.  1.
         12    1    4    4    0    0  0.40271539035E+01  0.31152168840E+01 -0.89480494462E+01  0.10295150979E+02  0.00000000000E+00 0. -1.
</event>
<event>
 8    1  0.2994958E-010  0.9118800E+02  0.7816164E-02  0.1184000E+00
        -11   -1    0    0    0    0  0.00000000000E+00  0.00000000000E+00  0.45593999997E+02  0.45594000000E+02  0.51100000000E-03 0. -1.
         11   -1    0    0    0    0 -0.00000000000E+00 -0.00000000000E+00 -0.45593999997E+02  0.45594000000E+02  0.51100000000E-03 0.  1.
         23    2    1    2    0    0  0.00000000000E+00  0.00000000000E+00  0.00000000000E+00  0.91188000000E+02  0.91188000000E+02 0.  0.
    9900012    2    3    3    0    0  0.57394049632E+01  0.41722464361E+02  0.10484124398E+02  0.47787289567E+02  0.20000084452E+02 0.  0.
        -12    1    3    3    0    0 -0.57394049632E+01 -0.41722464361E+02 -0.10484124398E+02  0.43400710433E+02  0.00000000000E+00 0.  1.
         11    1    4    4    0    0  0.68746906215E+01  0.53637652005E+01 -0.10898008547E+01  0.87874350314E+01  0.51100000000E-03 0. -1.
        -11    1    4    4    0    0 -0.23101088663E+00  0.10074657600E+02 -0.43832668489E+00  0.10086834109E+02  0.51100000000E-03 0.  1.
         12    1    4    4    0    0 -0.90427477162E+00  0.26284041560E+02  0.12012251938E+02  0.28913020427E+02  0.00000000000E+00 0. -1.
</event>
<event>
 8    1  0.2994958E-010  0.9118800E+02  0.7816164E-02  0.1184000E+00
        -11   -1    0    0    0    0  0.00000000000E+00  0.00000000000E+00  0.45593999997E+02  0.45594000000E+02  0.51100000000E-03 0. -1.
         11   -1    0    0    0    0 -0.00000000000E+00 -0.00000000000E+00 -0.45593999997E+02  0.45594000000E+02  0.51100000000E-03 0.  1.
         23    2    1    2    0    0  0.88817841970E-15 -0.17763568394E-14  0.71054273576E-14  0.91188000000E+02  0.91188000000E+02 0.  0.
    9900012    2    3    3    0    0 -0.54425181686E+01  0.10936038307E+02 -0.41646188510E+02  0.47787274715E+02  0.20000016734E+02 0.  0.
         12    1    3    3    0    0  0.54425181686E+01 -0.10936038307E+02  0.41646188510E+02  0.43400725285E+02  0.00000000000E+00 0. -1.
         11    1    4    4    0    0  0.24337039580E+01  0.31924233071E+01 -0.21232495656E+02  0.21608640716E+02  0.51100000000E-03 0. -1.
        -11    1    4    4    0    0 -0.73039625595E+01  0.52776138883E+01 -0.21584111830E+02  0.23389633627E+02  0.51100000000E-03 0.  1.
         12    1    4    4    0    0 -0.57225956706E+00  0.24660011118E+01  0.11704189766E+01  0.27890003723E+01  0.00000000000E+00 0. -1.
</event>
<event>
 8    1  0.2994958E-010  0.9118800E+02  0.7816164E-02  0.1184000E+00
        -11   -1    0    0    0    0  0.00000000000E+00  0.00000000000E+00  0.45593999997E+02  0.45594000000E+02  0.51100000000E-03 0. -1.
         11   -1    0    0    0    0 -0.00000000000E+00 -0.00000000000E+00 -0.45593999997E+02  0.45594000000E+02  0.51100000000E-03 0.  1.
         23    2    1    2    0    0  0.00000000000E+00  0.00000000000E+00  0.00000000000E+00  0.91188000000E+02  0.91188000000E+02 0.  0.
    9900012    2    3    3    0    0 -0.53860794066E+01 -0.30366463161E+02  0.30536716003E+02  0.47787274654E+02  0.20000016458E+02 0.  0.
        -12    1    3    3    0    0  0.53860794066E+01  0.30366463161E+02 -0.30536716003E+02  0.43400725346E+02  0.00000000000E+00 0.  1.
         11    1    4    4    0    0  0.39184943836E+01 -0.41627277047E+01  0.25388560676E+01  0.62552930044E+01  0.51100000000E-03 0. -1.
        -11    1    4    4    0    0 -0.11302468942E+01 -0.15771648125E+02  0.84878054546E+01  0.17946174643E+02  0.51100000000E-03 0.  1.
         12    1    4    4    0    0 -0.81743268960E+01 -0.10432087331E+02  0.19510054481E+02  0.23585807006E+02  0.00000000000E+00 0. -1.
</event>
<event>
 8    1  0.2994958E-010  0.9118800E+02  0.7816164E-02  0.1184000E+00
        -11   -1    0    0    0    0  0.00000000000E+00  0.00000000000E+00  0.45593999997E+02  0.45594000000E+02  0.51100000000E-03 0. -1.
         11   -1    0    0    0    0 -0.00000000000E+00 -0.00000000000E+00 -0.45593999997E+02  0.45594000000E+02  0.51100000000E-03 0.  1.
         23    2    1    2    0    0  0.00000000000E+00  0.00000000000E+00  0.35527136788E-14  0.91188000000E+02  0.91188000000E+02 0.  0.
    9900012    2    3    3    0    0 -0.32295282468E+02 -0.98687271698E+01 -0.27262529422E+02  0.47787279313E+02  0.20000037701E+02 0.  0.
         12    1    3    3    0    0  0.32295282468E+02  0.98687271698E+01  0.27262529422E+02  0.43400720687E+02  0.00000000000E+00 0. -1.
         11    1    4    4    0    0 -0.24687873436E+02 -0.78410657367E+01 -0.10754354387E+02  0.28046916857E+02  0.51100000000E-03 0. -1.
        -11    1    4    4    0    0  0.47936523024E+00 -0.13586917300E+00  0.56563925926E+00  0.75379008276E+00  0.51100000000E-03 0.  1.
        -12    1    4    4    0    0 -0.80867742628E+01 -0.18917922602E+01 -0.17073814294E+02  0.18986572373E+02  0.00000000000E+00 0.  1.
</event>
<event>
 8    1  0.2994958E-010  0.9118800E+02  0.7816164E-02  0.1184000E+00
        -11   -1    0    0    0    0  0.00000000000E+00  0.00000000000E+00  0.45593999997E+02  0.45594000000E+02  0.51100000000E-03 0. -1.
         11   -1    0    0    0    0 -0.00000000000E+00 -0.00000000000E+00 -0.45593999997E+02  0.45594000000E+02  0.51100000000E-03 0.  1.
         23    2    1    2    0    0 -0.17763568394E-14  0.17763568394E-14  0.71054273576E-14  0.91188000000E+02  0.91188000000E+02 0.  0.
    9900012    2    3    3    0    0 -0.10596545461E+02 -0.12084864837E+02  0.40314918319E+02  0.47787269903E+02  0.19999994796E+02 0.  0.
        -12    1    3    3    0    0  0.10596545461E+02  0.12084864837E+02 -0.40314918319E+02  0.43400730097E+02  0.00000000000E+00 0.  1.
         11    1    4    4    0    0 -0.14108992143E+02 -0.45920431472E+01  0.20011921053E+02  0.24912396594E+02  0.51100000000E-03 0. -1.
        -11    1    4    4    0    0  0.23969501391E+00  0.83523542294E+00  0.55706039349E+01  0.56379695257E+01  0.51100000000E-03 0.  1.
         12    1    4    4    0    0  0.32727516680E+01 -0.83280571131E+01  0.14732393331E+02  0.17236903783E+02  0.00000000000E+00 0. -1.
</event>
<event>
 8    1  0.2994958E-010  0.9118800E+02  0.7816164E-02  0.1184000E+00
        -11   -1    0    0    0    0  0.00000000000E+00  0.00000000000E+00  0.45593999997E+02  0.45594000000E+02  0.51100000000E-03 0. -1.
         11   -1    0    0    0    0 -0.00000000000E+00 -0.00000000000E+00 -0.45593999997E+02  0.45594000000E+02  0.51100000000E-03 0.  1.
         23    2    1    2    0    0  0.00000000000E+00 -0.35527136788E-14  0.00000000000E+00  0.91188000000E+02  0.91188000000E+02 0.  0.
    9900012    2    3    3    0    0  0.21606678259E+01  0.28232259317E+02 -0.32892159058E+02  0.47787273289E+02  0.20000010232E+02 0.  0.
         12    1    3    3    0    0 -0.21606678259E+01 -0.28232259317E+02  0.32892159058E+02  0.43400726711E+02  0.00000000000E+00 0. -1.
         11    1    4    4    0    0  0.25249473748E+01  0.17893219268E+02 -0.13467683034E+02  0.22537105883E+02  0.51100000000E-03 0. -1.
        -11    1    4    4    0    0 -0.23475175156E+01  0.12776351108E+02 -0.15679996387E+02  0.20361931959E+02  0.51100000000E-03 0.  1.
        -12    1    4    4    0    0  0.19832379667E+01 -0.24373110595E+01 -0.37444796363E+01  0.48882354465E+01  0.00000000000E+00 0.  1.
</event>
<event>
 8    1  0.2994958E-010  0.9118800E+02  0.7816164E-02  0.1184000E+00
        -11   -1    0    0    0    0  0.00000000000E+00  0.00000000000E+00  0.45593999997E+02  0.45594000000E+02  0.51100000000E-03 0. -1.
         11   -1    0    0    0    0 -0.00000000000E+00 -0.00000000000E+00 -0.45593999997E+02  0.45594000000E+02  0.51100000000E-03 0.  1.
         23    2    1    2    0    0 -0.88817841970E-15  0.17763568394E-14  0.00000000000E+00  0.91188000000E+02  0.91188000000E+02 0.  0.
    9900012    2    3    3    0    0 -0.66724044087E+01  0.12912835114E+02 -0.40894512559E+02  0.47787269030E+02  0.19999990817E+02 0.  0.
         12    1    3    3    0    0  0.66724044087E+01 -0.12912835114E+02  0.40894512559E+02  0.43400730970E+02  0.00000000000E+00 0. -1.
         11    1    4    4    0    0 -0.51440167543E+01  0.21549503948E+01 -0.22599918890E+02  0.23277909135E+02  0.51100000000E-03 0. -1.
        -11    1    4    4    0    0 -0.39738034671E+01 -0.10633838489E+01 -0.33973894383E+01  0.53351808275E+01  0.51100000000E-03 0.  1.
        -12    1    4    4    0    0  0.24454158127E+01  0.11821268568E+02 -0.14897204230E+02  0.19174179068E+02  0.00000000000E+00 0.  1.
</event>
<event>
 8    1  0.2994958E-010  0.9118800E+02  0.7816164E-02  0.1184000E+00
        -11   -1    0    0    0    0  0.00000000000E+00  0.00000000000E+00  0.45593999997E+02  0.45594000000E+02  0.51100000000E-03 0.  1.
         11   -1    0    0    0    0 -0.00000000000E+00 -0.00000000000E+00 -0.45593999997E+02  0.45594000000E+02  0.51100000000E-03 0. -1.
         23    2    1    2    0    0 -0.71054273576E-14 -0.17763568394E-14  0.00000000000E+00  0.91188000000E+02  0.91188000000E+02 0.  0.
    9900012    2    3    3    0    0 -0.40483084387E+02 -0.14427198624E+02 -0.60497298782E+01  0.47787269439E+02  0.19999992679E+02 0.  0.
         12    1    3    3    0    0  0.40483084387E+02  0.14427198624E+02  0.60497298782E+01  0.43400730561E+02  0.00000000000E+00 0. -1.
         11    1    4    4    0    0 -0.14361176189E+02 -0.10785836451E+01 -0.13594384855E+01  0.14465641965E+02  0.51100000000E-03 0. -1.
        -11    1    4    4    0    0 -0.19858163870E+02 -0.24625235354E+01 -0.28615312598E+00  0.20012310669E+02  0.51100000000E-03 0.  1.
         12    1    4    4    0    0 -0.62637443287E+01 -0.10886091444E+02 -0.44041382667E+01  0.13309316805E+02  0.00000000000E+00 0. -1.
</event>
<event>
 8    1  0.2994958E-010  0.9118800E+02  0.7816164E-02  0.1184000E+00
        -11   -1    0    0    0    0  0.00000000000E+00  0.00000000000E+00  0.45593999997E+02  0.45594000000E+02  0.51100000000E-03 0. -1.
         11   -1    0    0    0    0 -0.00000000000E+00 -0.00000000000E+00 -0.45593999997E+02  0.45594000000E+02  0.51100000000E-03 0.  1.
         23    2    1    2    0    0  0.00000000000E+00  0.00000000000E+00  0.00000000000E+00  0.91188000000E+02  0.91188000000E+02 0.  0.
    9900012    2    3    3    0    0 -0.37167543324E+02 -0.12062716816E+02  0.18886178800E+02  0.47787272317E+02  0.20000005801E+02 0.  0.
        -12    1    3    3    0    0  0.37167543324E+02  0.12062716816E+02 -0.18886178800E+02  0.43400727683E+02  0.00000000000E+00 0.  1.
         11    1    4    4    0    0 -0.15742836485E+02 -0.10348552717E+01  0.27099563075E+01  0.16007863364E+02  0.51100000000E-03 0. -1.
        -11    1    4    4    0    0 -0.78548193607E+00 -0.39968499352E-02 -0.20010868230E+01  0.21497317463E+01  0.51100000000E-03 0.  1.
         12    1    4    4    0    0 -0.20639224903E+02 -0.11023864695E+02  0.18177309316E+02  0.29629677207E+02  0.00000000000E+00 0. -1.
</event>
<event>
 8    1  0.2994958E-010  0.9118800E+02  0.7816164E-02  0.1184000E+00
        -11   -1    0    0    0    0  0.00000000000E+00  0.00000000000E+00  0.45593999997E+02  0.45594000000E+02  0.51100000000E-03 0. -1.
         11   -1    0    0    0    0 -0.00000000000E+00 -0.00000000000E+00 -0.45593999997E+02  0.45594000000E+02  0.51100000000E-03 0.  1.
         23    2    1    2    0    0  0.00000000000E+00  0.17763568394E-14 -0.71054273576E-14  0.91188000000E+02  0.91188000000E+02 0.  0.
    9900012    2    3    3    0    0 -0.17487059464E+02  0.12467870585E+02 -0.37714433467E+02  0.47787268009E+02  0.19999986159E+02 0.  0.
         12    1    3    3    0    0  0.17487059464E+02 -0.12467870585E+02  0.37714433467E+02  0.43400731991E+02  0.00000000000E+00 0. -1.
         11    1    4    4    0    0 -0.15771221941E+01  0.26191396516E+01  0.61880392297E+00  0.31193149065E+01  0.51100000000E-03 0. -1.
        -11    1    4    4    0    0 -0.65515810556E+01  0.81973792839E+01 -0.89694950175E+01  0.13804784771E+02  0.51100000000E-03 0.  1.
        -12    1    4    4    0    0 -0.93583562147E+01  0.16513516494E+01 -0.29363742372E+02  0.30863168331E+02  0.00000000000E+00 0.  1.
</event>
<event>
 8    1  0.2994958E-010  0.9118800E+02  0.7816164E-02  0.1184000E+00
        -11   -1    0    0    0    0  0.00000000000E+00  0.00000000000E+00  0.45593999997E+02  0.45594000000E+02  0.51100000000E-03 0. -1.
         11   -1    0    0    0    0 -0.00000000000E+00 -0.00000000000E+00 -0.45593999997E+02  0.45594000000E+02  0.51100000000E-03 0.  1.
         23    2    1    2    0    0 -0.88817841970E-15  0.00000000000E+00  0.71054273576E-14  0.91188000000E+02  0.91188000000E+02 0.  0.
    9900012    2    3    3    0    0  0.80044088906E+00  0.21834206582E+02  0.37499984861E+02  0.47787284023E+02  0.20000059175E+02 0.  0.
        -12    1    3    3    0    0 -0.80044088906E+00 -0.21834206582E+02 -0.37499984861E+02  0.43400715977E+02  0.00000000000E+00 0.  1.
         11    1    4    4    0    0  0.50872133912E+01  0.75120297336E+01  0.99429082880E+01  0.13460005806E+02  0.51100000000E-03 0.  1.
        -11    1    4    4    0    0 -0.18175428170E-01  0.89783062581E+01  0.25724933815E+02  0.27246697666E+02  0.51100000000E-03 0. -1.
        -12    1    4    4    0    0 -0.42685970740E+01  0.53438705904E+01  0.18321427581E+01  0.70805805520E+01  0.00000000000E+00 0.  1.
</event>
<event>
 8    1  0.2994958E-010  0.9118800E+02  0.7816164E-02  0.1184000E+00
        -11   -1    0    0    0    0  0.00000000000E+00  0.00000000000E+00  0.45593999997E+02  0.45594000000E+02  0.51100000000E-03 0. -1.
         11   -1    0    0    0    0 -0.00000000000E+00 -0.00000000000E+00 -0.45593999997E+02  0.45594000000E+02  0.51100000000E-03 0.  1.
         23    2    1    2    0    0  0.88817841970E-15  0.00000000000E+00 -0.71054273576E-14  0.91188000000E+02  0.91188000000E+02 0.  0.
    9900012    2    3    3    0    0 -0.64753385028E+01 -0.12500889732E+02  0.41053879818E+02  0.47787270732E+02  0.19999998577E+02 0.  0.
        -12    1    3    3    0    0  0.64753385028E+01  0.12500889732E+02 -0.41053879818E+02  0.43400729268E+02  0.00000000000E+00 0.  1.
         11    1    4    4    0    0  0.37765358083E+01 -0.62398496155E+01  0.25329361141E+02  0.26358575113E+02  0.51100000000E-03 0. -1.
        -11    1    4    4    0    0 -0.23544545687E+01 -0.22708635174E+01  0.10837890128E+02  0.11320783547E+02  0.51100000000E-03 0.  1.
        -12    1    4    4    0    0 -0.78974197423E+01 -0.39901765990E+01  0.48866285499E+01  0.10107912072E+02  0.00000000000E+00 0.  1.
</event>
<event>
 8    1  0.2994958E-010  0.9118800E+02  0.7816164E-02  0.1184000E+00
        -11   -1    0    0    0    0  0.00000000000E+00  0.00000000000E+00  0.45593999997E+02  0.45594000000E+02  0.51100000000E-03 0. -1.
         11   -1    0    0    0    0 -0.00000000000E+00 -0.00000000000E+00 -0.45593999997E+02  0.45594000000E+02  0.51100000000E-03 0.  1.
         23    2    1    2    0    0  0.00000000000E+00  0.00000000000E+00  0.00000000000E+00  0.91188000000E+02  0.91188000000E+02 0.  0.
    9900012    2    3    3    0    0  0.18600784740E+02 -0.35317881463E+02  0.17037641889E+02  0.47787272067E+02  0.20000004661E+02 0.  0.
        -12    1    3    3    0    0 -0.18600784740E+02  0.35317881463E+02 -0.17037641889E+02  0.43400727933E+02  0.00000000000E+00 0.  1.
         11    1    4    4    0    0  0.80665395447E+01 -0.27236477945E+01  0.50615497939E+01  0.99048777939E+01  0.51100000000E-03 0. -1.
        -11    1    4    4    0    0  0.10636059075E+02 -0.19900266612E+02  0.11129734371E+02  0.25159836075E+02  0.51100000000E-03 0.  1.
        -12    1    4    4    0    0 -0.10181387965E+00 -0.12693967057E+02  0.84635772417E+00  0.12722558198E+02  0.00000000000E+00 0.  1.
</event>
<event>
 8    1  0.2994958E-010  0.9118800E+02  0.7816164E-02  0.1184000E+00
        -11   -1    0    0    0    0  0.00000000000E+00  0.00000000000E+00  0.45593999997E+02  0.45594000000E+02  0.51100000000E-03 0. -1.
         11   -1    0    0    0    0 -0.00000000000E+00 -0.00000000000E+00 -0.45593999997E+02  0.45594000000E+02  0.51100000000E-03 0.  1.
         23    2    1    2    0    0  0.00000000000E+00 -0.17763568394E-14  0.00000000000E+00  0.91188000000E+02  0.91188000000E+02 0.  0.
    9900012    2    3    3    0    0 -0.17100429657E+02 -0.11287818194E+02 -0.38259423616E+02  0.47787273860E+02  0.20000012836E+02 0.  0.
         12    1    3    3    0    0  0.17100429657E+02  0.11287818194E+02  0.38259423616E+02  0.43400726140E+02  0.00000000000E+00 0. -1.
         11    1    4    4    0    0 -0.30944315111E+01  0.17352566517E-01 -0.14342219107E+01  0.34106891149E+01  0.51100000000E-03 0. -1.
        -11    1    4    4    0    0 -0.16896931024E+01 -0.12208092621E+02 -0.16517185399E+02  0.20608493443E+02  0.51100000000E-03 0.  1.
        -12    1    4    4    0    0 -0.12316305044E+02  0.90292186054E+00 -0.20308016306E+02  0.23768091302E+02  0.00000000000E+00 0.  1.
</event>
<event>
 8    1  0.2994958E-010  0.9118800E+02  0.7816164E-02  0.1184000E+00
        -11   -1    0    0    0    0  0.00000000000E+00  0.00000000000E+00  0.45593999997E+02  0.45594000000E+02  0.51100000000E-03 0. -1.
         11   -1    0    0    0    0 -0.00000000000E+00 -0.00000000000E+00 -0.45593999997E+02  0.45594000000E+02  0.51100000000E-03 0.  1.
         23    2    1    2    0    0  0.17763568394E-14  0.00000000000E+00  0.00000000000E+00  0.91188000000E+02  0.91188000000E+02 0.  0.
    9900012    2    3    3    0    0 -0.85921350220E+01 -0.31632350338E+02  0.28446289229E+02  0.47787288681E+02  0.20000080410E+02 0.  0.
        -12    1    3    3    0    0  0.85921350220E+01  0.31632350338E+02 -0.28446289229E+02  0.43400711319E+02  0.00000000000E+00 0.  1.
         11    1    4    4    0    0 -0.70802115174E+01 -0.36896528140E+01  0.93087363576E+01  0.12263584544E+02  0.51100000000E-03 0. -1.
        -11    1    4    4    0    0  0.20142995969E+01 -0.72600919454E+01  0.65484050335E+00  0.75627477988E+01  0.51100000000E-03 0.  1.
         12    1    4    4    0    0 -0.35262231015E+01 -0.20682605579E+02  0.18482712368E+02  0.27960956338E+02  0.00000000000E+00 0. -1.
</event>
<event>
 8    1  0.2994958E-010  0.9118800E+02  0.7816164E-02  0.1184000E+00
        -11   -1    0    0    0    0  0.00000000000E+00  0.00000000000E+00  0.45593999997E+02  0.45594000000E+02  0.51100000000E-03 0. -1.
         11   -1    0    0    0    0 -0.00000000000E+00 -0.00000000000E+00 -0.45593999997E+02  0.45594000000E+02  0.51100000000E-03 0.  1.
         23    2    1    2    0    0 -0.17763568394E-14  0.00000000000E+00  0.00000000000E+00  0.91188000000E+02  0.91188000000E+02 0.  0.
    9900012    2    3    3    0    0  0.10656607125E+02  0.97138332483E+01  0.40935333607E+02  0.47787269945E+02  0.19999994989E+02 0.  0.
        -12    1    3    3    0    0 -0.10656607125E+02 -0.97138332483E+01 -0.40935333607E+02  0.43400730055E+02  0.00000000000E+00 0.  1.
         11    1    4    4    0    0  0.20163735126E+01  0.50905326577E+01  0.25848113589E+02  0.26421662727E+02  0.51100000000E-03 0. -1.
        -11    1    4    4    0    0  0.98937728925E+00 -0.36559590226E+01  0.47053749431E+01  0.60403193137E+01  0.51100000000E-03 0.  1.
        -12    1    4    4    0    0  0.76508563231E+01  0.82792596131E+01  0.10381845075E+02  0.15325287905E+02  0.00000000000E+00 0.  1.
</event>
<event>
 8    1  0.2994958E-010  0.9118800E+02  0.7816164E-02  0.1184000E+00
        -11   -1    0    0    0    0  0.00000000000E+00  0.00000000000E+00  0.45593999997E+02  0.45594000000E+02  0.51100000000E-03 0. -1.
         11   -1    0    0    0    0 -0.00000000000E+00 -0.00000000000E+00 -0.45593999997E+02  0.45594000000E+02  0.51100000000E-03 0.  1.
         23    2    1    2    0    0  0.00000000000E+00  0.00000000000E+00  0.71054273576E-14  0.91188000000E+02  0.91188000000E+02 0.  0.
    9900012    2    3    3    0    0  0.16593895782E+02 -0.18243459407E+02  0.35713287137E+02  0.47787307995E+02  0.20000168474E+02 0.  0.
        -12    1    3    3    0    0 -0.16593895782E+02  0.18243459407E+02 -0.35713287137E+02  0.43400692005E+02  0.00000000000E+00 0.  1.
         11    1    4    4    0    0  0.35400541954E+01 -0.64107236427E+01  0.10787767888E+02  0.13038607962E+02  0.51100000000E-03 0. -1.
        -11    1    4    4    0    0 -0.32023726881E+01 -0.40703776313E+01  0.19069214608E+01  0.55190139168E+01  0.51100000000E-03 0.  1.
         12    1    4    4    0    0  0.16256214275E+02 -0.77623581326E+01  0.23018597789E+02  0.29229686117E+02  0.00000000000E+00 0. -1.
</event>
<event>
 8    1  0.2994958E-010  0.9118800E+02  0.7816164E-02  0.1184000E+00
        -11   -1    0    0    0    0  0.00000000000E+00  0.00000000000E+00  0.45593999997E+02  0.45594000000E+02  0.51100000000E-03 0. -1.
         11   -1    0    0    0    0 -0.00000000000E+00 -0.00000000000E+00 -0.45593999997E+02  0.45594000000E+02  0.51100000000E-03 0.  1.
         23    2    1    2    0    0 -0.22204460493E-15 -0.17763568394E-14  0.00000000000E+00  0.91188000000E+02  0.91188000000E+02 0.  0.
    9900012    2    3    3    0    0  0.12747162746E+01 -0.10725847450E+02 -0.42035156984E+02  0.47787272728E+02  0.20000007674E+02 0.  0.
         12    1    3    3    0    0 -0.12747162746E+01  0.10725847450E+02  0.42035156984E+02  0.43400727272E+02  0.00000000000E+00 0. -1.
         11    1    4    4    0    0  0.47278403600E+01 -0.12046237178E+01 -0.20691761554E+01  0.52995361113E+01  0.51100000000E-03 0. -1.
        -11    1    4    4    0    0  0.55823393113E+00 -0.32903526326E+01 -0.21899771786E+01  0.39917472205E+01  0.51100000000E-03 0.  1.
        -12    1    4    4    0    0 -0.40113580166E+01 -0.62308710992E+01 -0.37776003650E+02  0.38495989396E+02  0.00000000000E+00 0.  1.
</event>
<event>
 8    1  0.2994958E-010  0.9118800E+02  0.7816164E-02  0.1184000E+00
        -11   -1    0    0    0    0  0.00000000000E+00  0.00000000000E+00  0.45593999997E+02  0.45594000000E+02  0.51100000000E-03 0. -1.
         11   -1    0    0    0    0 -0.00000000000E+00 -0.00000000000E+00 -0.45593999997E+02  0.45594000000E+02  0.51100000000E-03 0.  1.
         23    2    1    2    0    0  0.00000000000E+00  0.17763568394E-14 -0.71054273576E-14  0.91188000000E+02  0.91188000000E+02 0.  0.
    9900012    2    3    3    0    0 -0.25550904630E+02 -0.84378067796E+01  0.34052575908E+02  0.47787271474E+02  0.20000001957E+02 0.  0.
        -12    1    3    3    0    0  0.25550904630E+02  0.84378067796E+01 -0.34052575908E+02  0.43400728526E+02  0.00000000000E+00 0.  1.
         11    1    4    4    0    0 -0.14828302275E+02 -0.10449757435E+02  0.10497510036E+02  0.20958857221E+02  0.51100000000E-03 0. -1.
        -11    1    4    4    0    0 -0.61438259329E+01  0.17923484115E+01  0.63214212473E+01  0.89955253748E+01  0.51100000000E-03 0.  1.
         12    1    4    4    0    0 -0.45787764219E+01  0.21960224386E+00  0.17233644625E+02  0.17832888878E+02  0.00000000000E+00 0. -1.
</event>
<event>
 8    1  0.2994958E-010  0.9118800E+02  0.7816164E-02  0.1184000E+00
        -11   -1    0    0    0    0  0.00000000000E+00  0.00000000000E+00  0.45593999997E+02  0.45594000000E+02  0.51100000000E-03 0. -1.
         11   -1    0    0    0    0 -0.00000000000E+00 -0.00000000000E+00 -0.45593999997E+02  0.45594000000E+02  0.51100000000E-03 0.  1.
         23    2    1    2    0    0  0.00000000000E+00  0.00000000000E+00 -0.35527136788E-14  0.91188000000E+02  0.91188000000E+02 0.  0.
    9900012    2    3    3    0    0  0.14473898115E+02 -0.29867115849E+02  0.27965792917E+02  0.47787263725E+02  0.19999966626E+02 0.  0.
        -12    1    3    3    0    0 -0.14473898115E+02  0.29867115849E+02 -0.27965792917E+02  0.43400736275E+02  0.00000000000E+00 0.  1.
         11    1    4    4    0    0  0.10485056250E+01 -0.14011167347E+02  0.13097416143E+02  0.19208187951E+02  0.51100000000E-03 0. -1.
        -11    1    4    4    0    0 -0.85250049820E-02 -0.94745099450E+01  0.48191311591E+01  0.10629695986E+02  0.51100000000E-03 0.  1.
         12    1    4    4    0    0  0.13433917495E+02 -0.63814385565E+01  0.10049245615E+02  0.17949379787E+02  0.00000000000E+00 0. -1.
</event>
<event>
 8    1  0.2994958E-010  0.9118800E+02  0.7816164E-02  0.1184000E+00
        -11   -1    0    0    0    0  0.00000000000E+00  0.00000000000E+00  0.45593999997E+02  0.45594000000E+02  0.51100000000E-03 0. -1.
         11   -1    0    0    0    0 -0.00000000000E+00 -0.00000000000E+00 -0.45593999997E+02  0.45594000000E+02  0.51100000000E-03 0.  1.
         23    2    1    2    0    0  0.00000000000E+00  0.33306690739E-15  0.00000000000E+00  0.91188000000E+02  0.91188000000E+02 0.  0.
    9900012    2    3    3    0    0  0.20942968121E+02  0.77400730008E+00 -0.38005471591E+02  0.47787275676E+02  0.20000021117E+02 0.  0.
         12    1    3    3    0    0 -0.20942968121E+02 -0.77400730008E+00  0.38005471591E+02  0.43400724324E+02  0.00000000000E+00 0. -1.
         11    1    4    4    0    0  0.89589652880E+00 -0.26152740044E+01 -0.79016990882E+01  0.83713282966E+01  0.51100000000E-03 0. -1.
        -11    1    4    4    0    0  0.11614697126E+01  0.42028022120E+01 -0.13735498119E+02  0.14410984254E+02  0.51100000000E-03 0.  1.
         12    1    4    4    0    0  0.18885601879E+02 -0.81352090758E+00 -0.16368274383E+02  0.25004963126E+02  0.00000000000E+00 0. -1.
</event>
<event>
 8    1  0.2994958E-010  0.9118800E+02  0.7816164E-02  0.1184000E+00
        -11   -1    0    0    0    0  0.00000000000E+00  0.00000000000E+00  0.45593999997E+02  0.45594000000E+02  0.51100000000E-03 0. -1.
         11   -1    0    0    0    0 -0.00000000000E+00 -0.00000000000E+00 -0.45593999997E+02  0.45594000000E+02  0.51100000000E-03 0.  1.
         23    2    1    2    0    0  0.00000000000E+00  0.00000000000E+00  0.00000000000E+00  0.91188000000E+02  0.91188000000E+02 0.  0.
    9900012    2    3    3    0    0 -0.30903651484E+02 -0.14160969041E+02  0.26982488089E+02  0.47787269791E+02  0.19999994285E+02 0.  0.
        -12    1    3    3    0    0  0.30903651484E+02  0.14160969041E+02 -0.26982488089E+02  0.43400730209E+02  0.00000000000E+00 0.  1.
         11    1    4    4    0    0 -0.14609050037E+02 -0.55648841541E+01  0.18334148368E+02  0.24094258139E+02  0.51100000000E-03 0.  1.
        -11    1    4    4    0    0 -0.17765823550E+02 -0.91290742926E+01  0.92558449223E+01  0.22014430479E+02  0.51100000000E-03 0. -1.
         12    1    4    4    0    0  0.14712221027E+01  0.53298940570E+00 -0.60750520201E+00  0.16785811724E+01  0.00000000000E+00 0. -1.
</event>
<event>
 8    1  0.2994958E-010  0.9118800E+02  0.7816164E-02  0.1184000E+00
        -11   -1    0    0    0    0  0.00000000000E+00  0.00000000000E+00  0.45593999997E+02  0.45594000000E+02  0.51100000000E-03 0. -1.
         11   -1    0    0    0    0 -0.00000000000E+00 -0.00000000000E+00 -0.45593999997E+02  0.45594000000E+02  0.51100000000E-03 0.  1.
         23    2    1    2    0    0  0.17763568394E-14  0.35527136788E-14  0.00000000000E+00  0.91188000000E+02  0.91188000000E+02 0.  0.
    9900012    2    3    3    0    0 -0.11617091700E+02 -0.17781095630E+02  0.37848367882E+02  0.47787272671E+02  0.20000007416E+02 0.  0.
        -12    1    3    3    0    0  0.11617091700E+02  0.17781095630E+02 -0.37848367882E+02  0.43400727329E+02  0.00000000000E+00 0.  1.
         11    1    4    4    0    0 -0.33207699575E+01 -0.15602904725E+02  0.18576118242E+02  0.24485716616E+02  0.51100000000E-03 0. -1.
        -11    1    4    4    0    0 -0.52055219695E+01 -0.31242789500E+01  0.31139866838E+01  0.68231584519E+01  0.51100000000E-03 0.  1.
        -12    1    4    4    0    0 -0.30907997735E+01  0.94608804513E+00  0.16158262956E+02  0.16478397603E+02  0.00000000000E+00 0.  1.
</event>
<event>
 8    1  0.2994958E-010  0.9118800E+02  0.7816164E-02  0.1184000E+00
        -11   -1    0    0    0    0  0.00000000000E+00  0.00000000000E+00  0.45593999997E+02  0.45594000000E+02  0.51100000000E-03 0. -1.
         11   -1    0    0    0    0 -0.00000000000E+00 -0.00000000000E+00 -0.45593999997E+02  0.45594000000E+02  0.51100000000E-03 0.  1.
         23    2    1    2    0    0  0.00000000000E+00 -0.35527136788E-14 -0.35527136788E-14  0.91188000000E+02  0.91188000000E+02 0.  0.
    9900012    2    3    3    0    0  0.73756205168E+01 -0.28406440615E+02 -0.31973390503E+02  0.47787270205E+02  0.19999996175E+02 0.  0.
         12    1    3    3    0    0 -0.73756205168E+01  0.28406440615E+02  0.31973390503E+02  0.43400729795E+02  0.00000000000E+00 0. -1.
         11    1    4    4    0    0 -0.11960916185E+01 -0.20329207229E+02 -0.23663224474E+02  0.31219473002E+02  0.51100000000E-03 0. -1.
        -11    1    4    4    0    0  0.38202424447E+01 -0.32437050184E+01 -0.84090876509E+01  0.97892098744E+01  0.51100000000E-03 0.  1.
         12    1    4    4    0    0  0.47514696906E+01 -0.48335283672E+01  0.98921621376E-01  0.67785873296E+01  0.00000000000E+00 0. -1.
</event>
<event>
 8    1  0.2994958E-010  0.9118800E+02  0.7816164E-02  0.1184000E+00
        -11   -1    0    0    0    0  0.00000000000E+00  0.00000000000E+00  0.45593999997E+02  0.45594000000E+02  0.51100000000E-03 0. -1.
         11   -1    0    0    0    0 -0.00000000000E+00 -0.00000000000E+00 -0.45593999997E+02  0.45594000000E+02  0.51100000000E-03 0.  1.
         23    2    1    2    0    0 -0.17763568394E-14  0.44408920985E-15  0.00000000000E+00  0.91188000000E+02  0.91188000000E+02 0.  0.
    9900012    2    3    3    0    0 -0.15629764853E+02 -0.32190966990E+01 -0.40360513044E+02  0.47787272517E+02  0.20000006713E+02 0.  0.
         12    1    3    3    0    0  0.15629764853E+02  0.32190966990E+01  0.40360513044E+02  0.43400727483E+02  0.00000000000E+00 0. -1.
         11    1    4    4    0    0 -0.20850120379E+01  0.26354679228E+01 -0.64909690647E+01  0.73092849192E+01  0.51100000000E-03 0. -1.
        -11    1    4    4    0    0 -0.98410179236E+01  0.45729058971E+01 -0.13751246470E+02  0.17517245270E+02  0.51100000000E-03 0.  1.
         12    1    4    4    0    0 -0.37037348919E+01 -0.10427470519E+02 -0.20118297509E+02  0.22960742327E+02  0.00000000000E+00 0. -1.
</event>
<event>
 8    1  0.2994958E-010  0.9118800E+02  0.7816164E-02  0.1184000E+00
        -11   -1    0    0    0    0  0.00000000000E+00  0.00000000000E+00  0.45593999997E+02  0.45594000000E+02  0.51100000000E-03 0. -1.
         11   -1    0    0    0    0 -0.00000000000E+00 -0.00000000000E+00 -0.45593999997E+02  0.45594000000E+02  0.51100000000E-03 0.  1.
         23    2    1    2    0    0  0.00000000000E+00  0.00000000000E+00  0.00000000000E+00  0.91188000000E+02  0.91188000000E+02 0.  0.
    9900012    2    3    3    0    0  0.17681284678E+02 -0.18068663699E+02  0.35277737289E+02  0.47787272080E+02  0.20000004722E+02 0.  0.
        -12    1    3    3    0    0 -0.17681284678E+02  0.18068663699E+02 -0.35277737289E+02  0.43400727920E+02  0.00000000000E+00 0.  1.
         11    1    4    4    0    0  0.13100853385E+02 -0.12495615113E+02  0.20119070136E+02  0.27065656096E+02  0.51100000000E-03 0.  1.
        -11    1    4    4    0    0  0.80198254077E+01 -0.87426885856E+00  0.68949557315E+01  0.10612368275E+02  0.51100000000E-03 0. -1.
         12    1    4    4    0    0 -0.34393941144E+01 -0.46987797274E+01  0.82637114211E+01  0.10109247709E+02  0.00000000000E+00 0. -1.
</event>
<event>
 8    1  0.2994958E-010  0.9118800E+02  0.7816164E-02  0.1184000E+00
        -11   -1    0    0    0    0  0.00000000000E+00  0.00000000000E+00  0.45593999997E+02  0.45594000000E+02  0.51100000000E-03 0. -1.
         11   -1    0    0    0    0 -0.00000000000E+00 -0.00000000000E+00 -0.45593999997E+02  0.45594000000E+02  0.51100000000E-03 0.  1.
         23    2    1    2    0    0 -0.35527136788E-14  0.00000000000E+00 -0.71054273576E-14  0.91188000000E+02  0.91188000000E+02 0.  0.
    9900012    2    3    3    0    0  0.18891165984E+02  0.90689405581E+01  0.38006597476E+02  0.47787270896E+02  0.19999999323E+02 0.  0.
        -12    1    3    3    0    0 -0.18891165984E+02 -0.90689405581E+01 -0.38006597476E+02  0.43400729104E+02  0.00000000000E+00 0.  1.
         11    1    4    4    0    0  0.92519713608E+01  0.35185671739E+01  0.26829033948E+02  0.28596789188E+02  0.51100000000E-03 0. -1.
        -11    1    4    4    0    0  0.83233387541E+01  0.82508140850E+01  0.11164597689E+02  0.16186480250E+02  0.51100000000E-03 0.  1.
         12    1    4    4    0    0  0.13158558687E+01 -0.27004407009E+01  0.12965839260E-01  0.30040014579E+01  0.00000000000E+00 0. -1.
</event>
<event>
 8    1  0.2994958E-010  0.9118800E+02  0.7816164E-02  0.1184000E+00
        -11   -1    0    0    0    0  0.00000000000E+00  0.00000000000E+00  0.45593999997E+02  0.45594000000E+02  0.51100000000E-03 0. -1.
         11   -1    0    0    0    0 -0.00000000000E+00 -0.00000000000E+00 -0.45593999997E+02  0.45594000000E+02  0.51100000000E-03 0.  1.
         23    2    1    2    0    0  0.00000000000E+00  0.44408920985E-15  0.00000000000E+00  0.91188000000E+02  0.91188000000E+02 0.  0.
    9900012    2    3    3    0    0 -0.39082010684E+02  0.39401790040E+01 -0.18457916422E+02  0.47787271338E+02  0.20000001340E+02 0.  0.
         12    1    3    3    0    0  0.39082010684E+02 -0.39401790040E+01  0.18457916422E+02  0.43400728662E+02  0.00000000000E+00 0. -1.
         11    1    4    4    0    0 -0.11657290760E+02  0.52640653629E+01 -0.94587049161E+01  0.15908171201E+02  0.51100000000E-03 0. -1.
        -11    1    4    4    0    0 -0.18793234755E+02  0.10072452297E+01 -0.12147745736E+02  0.22400177282E+02  0.51100000000E-03 0.  1.
         12    1    4    4    0    0 -0.86314851694E+01 -0.23311315886E+01  0.31485342298E+01  0.94789228559E+01  0.00000000000E+00 0. -1.
</event>
<event>
 8    1  0.2994958E-010  0.9118800E+02  0.7816164E-02  0.1184000E+00
        -11   -1    0    0    0    0  0.00000000000E+00  0.00000000000E+00  0.45593999997E+02  0.45594000000E+02  0.51100000000E-03 0. -1.
         11   -1    0    0    0    0 -0.00000000000E+00 -0.00000000000E+00 -0.45593999997E+02  0.45594000000E+02  0.51100000000E-03 0.  1.
         23    2    1    2    0    0  0.00000000000E+00 -0.17763568394E-14  0.00000000000E+00  0.91188000000E+02  0.91188000000E+02 0.  0.
    9900012    2    3    3    0    0 -0.16162962026E+02  0.86927439405E+01  0.39329603800E+02  0.47787275654E+02  0.20000021017E+02 0.  0.
        -12    1    3    3    0    0  0.16162962026E+02 -0.86927439405E+01 -0.39329603800E+02  0.43400724346E+02  0.00000000000E+00 0.  1.
         11    1    4    4    0    0  0.21831572151E+01 -0.22643363804E+01  0.76642535117E+01  0.82845746313E+01  0.51100000000E-03 0.  1.
        -11    1    4    4    0    0 -0.68708112036E+01  0.17399064726E+01  0.39312457073E+01  0.81049376433E+01  0.51100000000E-03 0. -1.
         12    1    4    4    0    0 -0.11475308037E+02  0.92171738482E+01  0.27734104581E+02  0.31397763379E+02  0.00000000000E+00 0. -1.
</event>
<event>
 8    1  0.2994958E-010  0.9118800E+02  0.7816164E-02  0.1184000E+00
        -11   -1    0    0    0    0  0.00000000000E+00  0.00000000000E+00  0.45593999997E+02  0.45594000000E+02  0.51100000000E-03 0. -1.
         11   -1    0    0    0    0 -0.00000000000E+00 -0.00000000000E+00 -0.45593999997E+02  0.45594000000E+02  0.51100000000E-03 0.  1.
         23    2    1    2    0    0  0.00000000000E+00  0.00000000000E+00  0.00000000000E+00  0.91188000000E+02  0.91188000000E+02 0.  0.
    9900012    2    3    3    0    0 -0.12673353130E+02  0.52271432778E+01 -0.41178734038E+02  0.47787250659E+02  0.19999907054E+02 0.  0.
         12    1    3    3    0    0  0.12673353130E+02 -0.52271432778E+01  0.41178734038E+02  0.43400749341E+02  0.00000000000E+00 0. -1.
         11    1    4    4    0    0  0.31141121906E+01  0.21737609739E+00 -0.50599314470E+01  0.59454060931E+01  0.51100000000E-03 0. -1.
        -11    1    4    4    0    0 -0.59303332162E+01  0.87509466375E+01 -0.17490573751E+02  0.20436929552E+02  0.51100000000E-03 0.  1.
         12    1    4    4    0    0 -0.98571321040E+01 -0.37411794570E+01 -0.18628228840E+02  0.21404915014E+02  0.00000000000E+00 0. -1.
</event>
<event>
 8    1  0.2994958E-010  0.9118800E+02  0.7816164E-02  0.1184000E+00
        -11   -1    0    0    0    0  0.00000000000E+00  0.00000000000E+00  0.45593999997E+02  0.45594000000E+02  0.51100000000E-03 0. -1.
         11   -1    0    0    0    0 -0.00000000000E+00 -0.00000000000E+00 -0.45593999997E+02  0.45594000000E+02  0.51100000000E-03 0.  1.
         23    2    1    2    0    0  0.00000000000E+00  0.00000000000E+00 -0.35527136788E-14  0.91188000000E+02  0.91188000000E+02 0.  0.
    9900012    2    3    3    0    0 -0.16948894577E+01  0.29764515727E+02 -0.31540832867E+02  0.47787272072E+02  0.20000004683E+02 0.  0.
         12    1    3    3    0    0  0.16948894577E+01 -0.29764515727E+02  0.31540832867E+02  0.43400727928E+02  0.00000000000E+00 0. -1.
         11    1    4    4    0    0 -0.35357886745E+01  0.16758516285E+02 -0.98481628101E+01  0.19756922347E+02  0.51100000000E-03 0. -1.
        -11    1    4    4    0    0  0.20379428700E+01  0.10454045990E+02 -0.61923541494E+01  0.12320127389E+02  0.51100000000E-03 0.  1.
        -12    1    4    4    0    0 -0.19704365330E+00  0.25519534530E+01 -0.15500315907E+02  0.15710222336E+02  0.00000000000E+00 0.  1.
</event>
<event>
 8    1  0.2994958E-010  0.9118800E+02  0.7816164E-02  0.1184000E+00
        -11   -1    0    0    0    0  0.00000000000E+00  0.00000000000E+00  0.45593999997E+02  0.45594000000E+02  0.51100000000E-03 0. -1.
         11   -1    0    0    0    0 -0.00000000000E+00 -0.00000000000E+00 -0.45593999997E+02  0.45594000000E+02  0.51100000000E-03 0.  1.
         23    2    1    2    0    0  0.88817841970E-15  0.00000000000E+00 -0.35527136788E-14  0.91188000000E+02  0.91188000000E+02 0.  0.
    9900012    2    3    3    0    0  0.78200565190E+01 -0.34564390904E+02  0.25055399470E+02  0.47787269071E+02  0.19999991003E+02 0.  0.
        -12    1    3    3    0    0 -0.78200565190E+01  0.34564390904E+02 -0.25055399470E+02  0.43400730929E+02  0.00000000000E+00 0.  1.
         11    1    4    4    0    0 -0.22860626259E+01 -0.14147607755E+01  0.13030928121E+01  0.29875879099E+01  0.51100000000E-03 0. -1.
        -11    1    4    4    0    0  0.89802498308E+00 -0.21247071419E+02  0.72541989266E+01  0.22469265566E+02  0.51100000000E-03 0.  1.
         12    1    4    4    0    0  0.92080941617E+01 -0.11902558710E+02  0.16498107732E+02  0.22330415595E+02  0.00000000000E+00 0. -1.
</event>
<event>
 8    1  0.2994958E-010  0.9118800E+02  0.7816164E-02  0.1184000E+00
        -11   -1    0    0    0    0  0.00000000000E+00  0.00000000000E+00  0.45593999997E+02  0.45594000000E+02  0.51100000000E-03 0. -1.
         11   -1    0    0    0    0 -0.00000000000E+00 -0.00000000000E+00 -0.45593999997E+02  0.45594000000E+02  0.51100000000E-03 0.  1.
         23    2    1    2    0    0  0.22204460493E-15  0.00000000000E+00  0.00000000000E+00  0.91188000000E+02  0.91188000000E+02 0.  0.
    9900012    2    3    3    0    0  0.11423523046E+01  0.10767970770E+02  0.42028199156E+02  0.47787266278E+02  0.19999978268E+02 0.  0.
        -12    1    3    3    0    0 -0.11423523046E+01 -0.10767970770E+02 -0.42028199156E+02  0.43400733722E+02  0.00000000000E+00 0.  1.
         11    1    4    4    0    0 -0.50354429667E+01  0.35006550326E+01  0.10398614220E+02  0.12072342336E+02  0.51100000000E-03 0. -1.
        -11    1    4    4    0    0  0.38563056954E+01  0.97008552238E+01  0.12471874072E+02  0.16264234652E+02  0.51100000000E-03 0.  1.
        -12    1    4    4    0    0  0.23214895758E+01 -0.24335394862E+01  0.19157710865E+02  0.19450689290E+02  0.00000000000E+00 0.  1.
</event>
<event>
 8    1  0.2994958E-010  0.9118800E+02  0.7816164E-02  0.1184000E+00
        -11   -1    0    0    0    0  0.00000000000E+00  0.00000000000E+00  0.45593999997E+02  0.45594000000E+02  0.51100000000E-03 0. -1.
         11   -1    0    0    0    0 -0.00000000000E+00 -0.00000000000E+00 -0.45593999997E+02  0.45594000000E+02  0.51100000000E-03 0.  1.
         23    2    1    2    0    0  0.00000000000E+00  0.00000000000E+00  0.00000000000E+00  0.91188000000E+02  0.91188000000E+02 0.  0.
    9900012    2    3    3    0    0  0.26532912237E+02  0.30449354158E+02  0.15889142166E+02  0.47787269140E+02  0.19999991318E+02 0.  0.
        -12    1    3    3    0    0 -0.26532912237E+02 -0.30449354158E+02 -0.15889142166E+02  0.43400730860E+02  0.00000000000E+00 0.  1.
         11    1    4    4    0    0  0.11396278690E+02  0.90689445405E+01  0.15760748555E+00  0.14565224456E+02  0.51100000000E-03 0.  1.
        -11    1    4    4    0    0 -0.62089880153E-01  0.22641598982E+01  0.68836616312E+01  0.72467284281E+01  0.51100000000E-03 0. -1.
         12    1    4    4    0    0  0.15198723427E+02  0.19116249719E+02  0.88478730492E+01  0.25975316256E+02  0.00000000000E+00 0. -1.
</event>
<event>
 8    1  0.2994958E-010  0.9118800E+02  0.7816164E-02  0.1184000E+00
        -11   -1    0    0    0    0  0.00000000000E+00  0.00000000000E+00  0.45593999997E+02  0.45594000000E+02  0.51100000000E-03 0. -1.
         11   -1    0    0    0    0 -0.00000000000E+00 -0.00000000000E+00 -0.45593999997E+02  0.45594000000E+02  0.51100000000E-03 0.  1.
         23    2    1    2    0    0  0.00000000000E+00  0.00000000000E+00  0.00000000000E+00  0.91188000000E+02  0.91188000000E+02 0.  0.
    9900012    2    3    3    0    0 -0.30932824074E+02 -0.53506332268E+01  0.29969213838E+02  0.47787278125E+02  0.20000032285E+02 0.  0.
        -12    1    3    3    0    0  0.30932824074E+02  0.53506332268E+01 -0.29969213838E+02  0.43400721875E+02  0.00000000000E+00 0.  1.
         11    1    4    4    0    0 -0.10748672398E+02 -0.72470236096E+00  0.34228180189E+01  0.11303753150E+02  0.51100000000E-03 0. -1.
        -11    1    4    4    0    0 -0.49538210126E+01 -0.85459001437E+00 -0.66681877649E+00  0.50710269433E+01  0.51100000000E-03 0.  1.
         12    1    4    4    0    0 -0.15230330664E+02 -0.37713408515E+01  0.27213214596E+02  0.31412498032E+02  0.00000000000E+00 0. -1.
</event>
<event>
 8    1  0.2994958E-010  0.9118800E+02  0.7816164E-02  0.1184000E+00
        -11   -1    0    0    0    0  0.00000000000E+00  0.00000000000E+00  0.45593999997E+02  0.45594000000E+02  0.51100000000E-03 0. -1.
         11   -1    0    0    0    0 -0.00000000000E+00 -0.00000000000E+00 -0.45593999997E+02  0.45594000000E+02  0.51100000000E-03 0.  1.
         23    2    1    2    0    0 -0.10061396161E-15  0.00000000000E+00  0.00000000000E+00  0.91188000000E+02  0.91188000000E+02 0.  0.
    9900012    2    3    3    0    0 -0.20527332141E-01 -0.14370297161E+02 -0.40952624223E+02  0.47787270828E+02  0.19999999015E+02 0.  0.
         12    1    3    3    0    0  0.20527332141E-01  0.14370297161E+02  0.40952624223E+02  0.43400729172E+02  0.00000000000E+00 0. -1.
         11    1    4    4    0    0 -0.37139722904E+01 -0.49225788196E+00 -0.19213531940E+01  0.42104045356E+01  0.51100000000E-03 0. -1.
        -11    1    4    4    0    0  0.58737157867E+00 -0.74893807574E+01 -0.55236347639E+01  0.93245037813E+01  0.51100000000E-03 0.  1.
        -12    1    4    4    0    0  0.31060733796E+01 -0.63886585215E+01 -0.33507636265E+02  0.34252362512E+02  0.00000000000E+00 0.  1.
</event>
<event>
 8    1  0.2994958E-010  0.9118800E+02  0.7816164E-02  0.1184000E+00
        -11   -1    0    0    0    0  0.00000000000E+00  0.00000000000E+00  0.45593999997E+02  0.45594000000E+02  0.51100000000E-03 0.  1.
         11   -1    0    0    0    0 -0.00000000000E+00 -0.00000000000E+00 -0.45593999997E+02  0.45594000000E+02  0.51100000000E-03 0. -1.
         23    2    1    2    0    0  0.00000000000E+00  0.00000000000E+00  0.00000000000E+00  0.91188000000E+02  0.91188000000E+02 0.  0.
    9900012    2    3    3    0    0  0.18177311938E+02 -0.36942109031E+02 -0.13729093406E+02  0.47787284629E+02  0.20000061939E+02 0.  0.
         12    1    3    3    0    0 -0.18177311938E+02  0.36942109031E+02  0.13729093406E+02  0.43400715371E+02  0.00000000000E+00 0. -1.
         11    1    4    4    0    0  0.21560561811E+00 -0.25105055716E+01  0.29393391342E+01  0.38715421753E+01  0.51100000000E-03 0. -1.
        -11    1    4    4    0    0  0.23917462089E+00 -0.12179135858E+02 -0.50981453985E+01  0.13205288392E+02  0.51100000000E-03 0.  1.
         12    1    4    4    0    0  0.17722531699E+02 -0.22252467601E+02 -0.11570287142E+02  0.30710454062E+02  0.00000000000E+00 0. -1.
</event>
<event>
 8    1  0.2994958E-010  0.9118800E+02  0.7816164E-02  0.1184000E+00
        -11   -1    0    0    0    0  0.00000000000E+00  0.00000000000E+00  0.45593999997E+02  0.45594000000E+02  0.51100000000E-03 0. -1.
         11   -1    0    0    0    0 -0.00000000000E+00 -0.00000000000E+00 -0.45593999997E+02  0.45594000000E+02  0.51100000000E-03 0.  1.
         23    2    1    2    0    0  0.44408920985E-15  0.00000000000E+00  0.00000000000E+00  0.91188000000E+02  0.91188000000E+02 0.  0.
    9900012    2    3    3    0    0  0.26970704917E+01 -0.30557786418E+02 -0.30701327603E+02  0.47787262487E+02  0.19999960985E+02 0.  0.
         12    1    3    3    0    0 -0.26970704917E+01  0.30557786418E+02  0.30701327603E+02  0.43400737513E+02  0.00000000000E+00 0. -1.
         11    1    4    4    0    0 -0.58893694999E+01 -0.13313604228E+02 -0.19376581701E+02  0.24236102189E+02  0.51100000000E-03 0. -1.
        -11    1    4    4    0    0  0.29638968055E+01 -0.11571167029E+02 -0.97302631164E+01  0.15406317252E+02  0.51100000000E-03 0.  1.
         12    1    4    4    0    0  0.56225431861E+01 -0.56730151610E+01 -0.15944827863E+01  0.81448430465E+01  0.00000000000E+00 0. -1.
</event>
<event>
 8    1  0.2994958E-010  0.9118800E+02  0.7816164E-02  0.1184000E+00
        -11   -1    0    0    0    0  0.00000000000E+00  0.00000000000E+00  0.45593999997E+02  0.45594000000E+02  0.51100000000E-03 0. -1.
         11   -1    0    0    0    0 -0.00000000000E+00 -0.00000000000E+00 -0.45593999997E+02  0.45594000000E+02  0.51100000000E-03 0.  1.
         23    2    1    2    0    0 -0.71054273576E-14  0.00000000000E+00  0.00000000000E+00  0.91188000000E+02  0.91188000000E+02 0.  0.
    9900012    2    3    3    0    0  0.32987203247E+02  0.17527818143E+02  0.22096234026E+02  0.47787267921E+02  0.19999985757E+02 0.  0.
        -12    1    3    3    0    0 -0.32987203247E+02 -0.17527818143E+02 -0.22096234026E+02  0.43400732079E+02  0.00000000000E+00 0.  1.
         11    1    4    4    0    0  0.37670604827E+01 -0.17820473132E+01  0.72649405494E-01  0.41679389995E+01  0.51100000000E-03 0.  1.
        -11    1    4    4    0    0  0.16838151743E+02  0.32502883542E+01  0.12466479189E+02  0.21201434672E+02  0.51100000000E-03 0. -1.
         12    1    4    4    0    0  0.12381991021E+02  0.16059577102E+02  0.95571054320E+01  0.22417894249E+02  0.00000000000E+00 0. -1.
</event>
<event>
 8    1  0.2994958E-010  0.9118800E+02  0.7816164E-02  0.1184000E+00
        -11   -1    0    0    0    0  0.00000000000E+00  0.00000000000E+00  0.45593999997E+02  0.45594000000E+02  0.51100000000E-03 0. -1.
         11   -1    0    0    0    0 -0.00000000000E+00 -0.00000000000E+00 -0.45593999997E+02  0.45594000000E+02  0.51100000000E-03 0.  1.
         23    2    1    2    0    0  0.00000000000E+00  0.88817841970E-15 -0.71054273576E-14  0.91188000000E+02  0.91188000000E+02 0.  0.
    9900012    2    3    3    0    0 -0.27527827838E+01 -0.49858724112E+01  0.43025416339E+02  0.47787272035E+02  0.20000004517E+02 0.  0.
        -12    1    3    3    0    0  0.27527827838E+01  0.49858724112E+01 -0.43025416339E+02  0.43400727965E+02  0.00000000000E+00 0.  1.
         11    1    4    4    0    0 -0.20962650466E+00 -0.32692245898E+01  0.29586799226E+02  0.29767607586E+02  0.51100000000E-03 0. -1.
        -11    1    4    4    0    0 -0.36353705966E+01  0.43417819420E+01  0.80251342711E+01  0.98219025722E+01  0.51100000000E-03 0.  1.
        -12    1    4    4    0    0  0.10922143174E+01 -0.60584297635E+01  0.54134828411E+01  0.81977618766E+01  0.00000000000E+00 0.  1.
</event>
<event>
 8    1  0.2994958E-010  0.9118800E+02  0.7816164E-02  0.1184000E+00
        -11   -1    0    0    0    0  0.00000000000E+00  0.00000000000E+00  0.45593999997E+02  0.45594000000E+02  0.51100000000E-03 0. -1.
         11   -1    0    0    0    0 -0.00000000000E+00 -0.00000000000E+00 -0.45593999997E+02  0.45594000000E+02  0.51100000000E-03 0.  1.
         23    2    1    2    0    0  0.00000000000E+00 -0.17763568394E-14  0.00000000000E+00  0.91188000000E+02  0.91188000000E+02 0.  0.
    9900012    2    3    3    0    0 -0.21851327441E+02 -0.15651966959E+02  0.34075773486E+02  0.47787275129E+02  0.20000018625E+02 0.  0.
        -12    1    3    3    0    0  0.21851327441E+02  0.15651966959E+02 -0.34075773486E+02  0.43400724871E+02  0.00000000000E+00 0.  1.
         11    1    4    4    0    0 -0.25784294682E+01 -0.22435024942E+01  0.59470817296E+01  0.68592553039E+01  0.51100000000E-03 0. -1.
        -11    1    4    4    0    0  0.13434016270E+00 -0.48180498741E+01 -0.96523739774E+00  0.49156215643E+01  0.51100000000E-03 0.  1.
        -12    1    4    4    0    0 -0.19407238135E+02 -0.85904145903E+01  0.29093929154E+02  0.36012398261E+02  0.00000000000E+00 0.  1.
</event>
<event>
 8    1  0.2994958E-010  0.9118800E+02  0.7816164E-02  0.1184000E+00
        -11   -1    0    0    0    0  0.00000000000E+00  0.00000000000E+00  0.45593999997E+02  0.45594000000E+02  0.51100000000E-03 0. -1.
         11   -1    0    0    0    0 -0.00000000000E+00 -0.00000000000E+00 -0.45593999997E+02  0.45594000000E+02  0.51100000000E-03 0.  1.
         23    2    1    2    0    0 -0.17763568394E-14  0.00000000000E+00  0.00000000000E+00  0.91188000000E+02  0.91188000000E+02 0.  0.
    9900012    2    3    3    0    0  0.14815070450E+02  0.18887840711E+02  0.36157798570E+02  0.47787271474E+02  0.20000001960E+02 0.  0.
        -12    1    3    3    0    0 -0.14815070450E+02 -0.18887840711E+02 -0.36157798570E+02  0.43400728526E+02  0.00000000000E+00 0.  1.
         11    1    4    4    0    0  0.64991152043E-02  0.39053156540E+01 -0.12280513776E+01  0.40938543017E+01  0.51100000000E-03 0.  1.
        -11    1    4    4    0    0  0.20446367287E+01 -0.79998009003E+00  0.51621720529E+01  0.56096816364E+01  0.51100000000E-03 0. -1.
        -12    1    4    4    0    0  0.12763934606E+02  0.15782505147E+02  0.32223677895E+02  0.38083735536E+02  0.00000000000E+00 0.  1.
</event>
<event>
 8    1  0.2994958E-010  0.9118800E+02  0.7816164E-02  0.1184000E+00
        -11   -1    0    0    0    0  0.00000000000E+00  0.00000000000E+00  0.45593999997E+02  0.45594000000E+02  0.51100000000E-03 0. -1.
         11   -1    0    0    0    0 -0.00000000000E+00 -0.00000000000E+00 -0.45593999997E+02  0.45594000000E+02  0.51100000000E-03 0.  1.
         23    2    1    2    0    0  0.00000000000E+00 -0.35527136788E-14 -0.71054273576E-14  0.91188000000E+02  0.91188000000E+02 0.  0.
    9900012    2    3    3    0    0 -0.83995408630E+01 -0.22191794884E+02 -0.36339995346E+02  0.47787270644E+02  0.19999998176E+02 0.  0.
         12    1    3    3    0    0  0.83995408630E+01  0.22191794884E+02  0.36339995346E+02  0.43400729356E+02  0.00000000000E+00 0. -1.
         11    1    4    4    0    0 -0.66043210603E+00 -0.10734533006E+02 -0.19619610186E+02  0.22373991006E+02  0.51100000000E-03 0.  1.
        -11    1    4    4    0    0 -0.53180782355E+01 -0.74837084614E+01 -0.12588117615E+01  0.92667392197E+01  0.51100000000E-03 0. -1.
         12    1    4    4    0    0 -0.24210305215E+01 -0.39735534161E+01 -0.15461573399E+02  0.16146540419E+02  0.00000000000E+00 0. -1.
</event>
<event>
 8    1  0.2994958E-010  0.9118800E+02  0.7816164E-02  0.1184000E+00
        -11   -1    0    0    0    0  0.00000000000E+00  0.00000000000E+00  0.45593999997E+02  0.45594000000E+02  0.51100000000E-03 0. -1.
         11   -1    0    0    0    0 -0.00000000000E+00 -0.00000000000E+00 -0.45593999997E+02  0.45594000000E+02  0.51100000000E-03 0.  1.
         23    2    1    2    0    0 -0.17763568394E-14  0.00000000000E+00  0.35527136788E-14  0.91188000000E+02  0.91188000000E+02 0.  0.
    9900012    2    3    3    0    0 -0.13488896761E+02  0.36364454182E+02 -0.19475612696E+02  0.47787270125E+02  0.19999995808E+02 0.  0.
         12    1    3    3    0    0  0.13488896761E+02 -0.36364454182E+02  0.19475612696E+02  0.43400729875E+02  0.00000000000E+00 0. -1.
         11    1    4    4    0    0 -0.56154419038E+01  0.77173764617E+01 -0.14351719424E+01  0.96514665203E+01  0.51100000000E-03 0. -1.
        -11    1    4    4    0    0 -0.97062637589E+01  0.29855448109E+02 -0.17085946487E+02  0.35741976800E+02  0.51100000000E-03 0.  1.
         12    1    4    4    0    0  0.18328089013E+01 -0.12083703890E+01 -0.95449426675E+00  0.23938268047E+01  0.00000000000E+00 0. -1.
</event>
<event>
 8    1  0.2994958E-010  0.9118800E+02  0.7816164E-02  0.1184000E+00
        -11   -1    0    0    0    0  0.00000000000E+00  0.00000000000E+00  0.45593999997E+02  0.45594000000E+02  0.51100000000E-03 0. -1.
         11   -1    0    0    0    0 -0.00000000000E+00 -0.00000000000E+00 -0.45593999997E+02  0.45594000000E+02  0.51100000000E-03 0.  1.
         23    2    1    2    0    0  0.00000000000E+00 -0.17763568394E-14  0.17763568394E-14  0.91188000000E+02  0.91188000000E+02 0.  0.
    9900012    2    3    3    0    0  0.38792209602E+02  0.12675281798E+02 -0.14769053432E+02  0.47787271507E+02  0.20000002107E+02 0.  0.
         12    1    3    3    0    0 -0.38792209602E+02 -0.12675281798E+02  0.14769053432E+02  0.43400728493E+02  0.00000000000E+00 0. -1.
         11    1    4    4    0    0  0.11991734913E+02  0.76583085259E+01 -0.18303793919E+01  0.14345789789E+02  0.51100000000E-03 0. -1.
        -11    1    4    4    0    0  0.15040575133E+02  0.96045439009E+01 -0.50122874789E+01  0.18536158985E+02  0.51100000000E-03 0.  1.
        -12    1    4    4    0    0  0.11759899556E+02 -0.45875706285E+01 -0.79263865617E+01  0.14905322732E+02  0.00000000000E+00 0.  1.
</event>
<event>
 8    1  0.2994958E-010  0.9118800E+02  0.7816164E-02  0.1184000E+00
        -11   -1    0    0    0    0  0.00000000000E+00  0.00000000000E+00  0.45593999997E+02  0.45594000000E+02  0.51100000000E-03 0. -1.
         11   -1    0    0    0    0 -0.00000000000E+00 -0.00000000000E+00 -0.45593999997E+02  0.45594000000E+02  0.51100000000E-03 0.  1.
         23    2    1    2    0    0  0.35527136788E-14  0.00000000000E+00  0.35527136788E-14  0.91188000000E+02  0.91188000000E+02 0.  0.
    9900012    2    3    3    0    0 -0.20541058699E+02 -0.25060572401E+02 -0.28873096223E+02  0.47787273427E+02  0.20000010863E+02 0.  0.
         12    1    3    3    0    0  0.20541058699E+02  0.25060572401E+02  0.28873096223E+02  0.43400726573E+02  0.00000000000E+00 0. -1.
         11    1    4    4    0    0 -0.24316892692E+01 -0.95010213030E+01 -0.52072559943E+01  0.11103964776E+02  0.51100000000E-03 0. -1.
        -11    1    4    4    0    0 -0.12276338756E+02 -0.17791864245E+02 -0.16613279970E+02  0.27262795128E+02  0.51100000000E-03 0.  1.
         12    1    4    4    0    0 -0.58330306738E+01  0.22323131470E+01 -0.70525602592E+01  0.94205135230E+01  0.00000000000E+00 0. -1.
</event>
<event>
 8    1  0.2994958E-010  0.9118800E+02  0.7816164E-02  0.1184000E+00
        -11   -1    0    0    0    0  0.00000000000E+00  0.00000000000E+00  0.45593999997E+02  0.45594000000E+02  0.51100000000E-03 0. -1.
         11   -1    0    0    0    0 -0.00000000000E+00 -0.00000000000E+00 -0.45593999997E+02  0.45594000000E+02  0.51100000000E-03 0.  1.
         23    2    1    2    0    0  0.00000000000E+00  0.00000000000E+00  0.00000000000E+00  0.91188000000E+02  0.91188000000E+02 0.  0.
    9900012    2    3    3    0    0 -0.67789451225E+01 -0.99191906706E+01 -0.41704663015E+02  0.47787270079E+02  0.19999995597E+02 0.  0.
         12    1    3    3    0    0  0.67789451225E+01  0.99191906706E+01  0.41704663015E+02  0.43400729921E+02  0.00000000000E+00 0. -1.
         11    1    4    4    0    0 -0.40371813233E+01 -0.48405981908E+01 -0.36633741678E+01  0.72904413060E+01  0.51100000000E-03 0. -1.
        -11    1    4    4    0    0 -0.53734682444E+01 -0.57347519383E+01 -0.12190423493E+02  0.14504067222E+02  0.51100000000E-03 0.  1.
        -12    1    4    4    0    0  0.26317044451E+01  0.65615945861E+00 -0.25850865354E+02  0.25992761551E+02  0.00000000000E+00 0.  1.
</event>
<event>
 8    1  0.2994958E-010  0.9118800E+02  0.7816164E-02  0.1184000E+00
        -11   -1    0    0    0    0  0.00000000000E+00  0.00000000000E+00  0.45593999997E+02  0.45594000000E+02  0.51100000000E-03 0. -1.
         11   -1    0    0    0    0 -0.00000000000E+00 -0.00000000000E+00 -0.45593999997E+02  0.45594000000E+02  0.51100000000E-03 0.  1.
         23    2    1    2    0    0  0.00000000000E+00 -0.22204460493E-15  0.00000000000E+00  0.91188000000E+02  0.91188000000E+02 0.  0.
    9900012    2    3    3    0    0 -0.12861528060E+02  0.16239448426E+01 -0.41419412740E+02  0.47787264377E+02  0.19999969599E+02 0.  0.
         12    1    3    3    0    0  0.12861528060E+02 -0.16239448426E+01  0.41419412740E+02  0.43400735623E+02  0.00000000000E+00 0. -1.
         11    1    4    4    0    0  0.32379919651E+01 -0.35777338007E+01 -0.61179675451E+01  0.77919380297E+01  0.51100000000E-03 0. -1.
        -11    1    4    4    0    0 -0.36079312417E+01  0.84225482458E+00 -0.21088166674E+01  0.42630586475E+01  0.51100000000E-03 0.  1.
        -12    1    4    4    0    0 -0.12491588783E+02  0.43594238187E+01 -0.33192628528E+02  0.35732267700E+02  0.00000000000E+00 0.  1.
</event>
<event>
 8    1  0.2994958E-010  0.9118800E+02  0.7816164E-02  0.1184000E+00
        -11   -1    0    0    0    0  0.00000000000E+00  0.00000000000E+00  0.45593999997E+02  0.45594000000E+02  0.51100000000E-03 0. -1.
         11   -1    0    0    0    0 -0.00000000000E+00 -0.00000000000E+00 -0.45593999997E+02  0.45594000000E+02  0.51100000000E-03 0.  1.
         23    2    1    2    0    0 -0.17763568394E-14  0.00000000000E+00 -0.35527136788E-14  0.91188000000E+02  0.91188000000E+02 0.  0.
    9900012    2    3    3    0    0 -0.14316222142E+02 -0.33247207034E+02 -0.23943524365E+02  0.47787270157E+02  0.19999995952E+02 0.  0.
         12    1    3    3    0    0  0.14316222142E+02  0.33247207034E+02  0.23943524365E+02  0.43400729843E+02  0.00000000000E+00 0. -1.
         11    1    4    4    0    0 -0.27271364838E+01  0.17190766875E+00  0.17932875669E+00  0.27384274159E+01  0.51100000000E-03 0. -1.
        -11    1    4    4    0    0 -0.14683067035E+01 -0.35458735882E+01  0.17838822884E+01  0.42321838758E+01  0.51100000000E-03 0.  1.
        -12    1    4    4    0    0 -0.10120778954E+02 -0.29873241114E+02 -0.25906735410E+02  0.40816658865E+02  0.00000000000E+00 0.  1.
</event>
<event>
 8    1  0.2994958E-010  0.9118800E+02  0.7816164E-02  0.1184000E+00
        -11   -1    0    0    0    0  0.00000000000E+00  0.00000000000E+00  0.45593999997E+02  0.45594000000E+02  0.51100000000E-03 0. -1.
         11   -1    0    0    0    0 -0.00000000000E+00 -0.00000000000E+00 -0.45593999997E+02  0.45594000000E+02  0.51100000000E-03 0.  1.
         23    2    1    2    0    0  0.00000000000E+00  0.00000000000E+00  0.00000000000E+00  0.91188000000E+02  0.91188000000E+02 0.  0.
    9900012    2    3    3    0    0 -0.25084283300E+02 -0.17314530419E+02 -0.30896738628E+02  0.47787277770E+02  0.20000030663E+02 0.  0.
         12    1    3    3    0    0  0.25084283300E+02  0.17314530419E+02  0.30896738628E+02  0.43400722230E+02  0.00000000000E+00 0. -1.
         11    1    4    4    0    0 -0.12930340539E+00  0.11439424113E+01 -0.10614948850E+02  0.10677193590E+02  0.51100000000E-03 0. -1.
        -11    1    4    4    0    0 -0.41184772340E+01 -0.26676140973E+01 -0.37758042234E+01  0.61915036537E+01  0.51100000000E-03 0.  1.
         12    1    4    4    0    0 -0.20836502660E+02 -0.15790858733E+02 -0.16505985554E+02  0.30918580526E+02  0.00000000000E+00 0. -1.
</event>
<event>
 8    1  0.2994958E-010  0.9118800E+02  0.7816164E-02  0.1184000E+00
        -11   -1    0    0    0    0  0.00000000000E+00  0.00000000000E+00  0.45593999997E+02  0.45594000000E+02  0.51100000000E-03 0. -1.
         11   -1    0    0    0    0 -0.00000000000E+00 -0.00000000000E+00 -0.45593999997E+02  0.45594000000E+02  0.51100000000E-03 0.  1.
         23    2    1    2    0    0 -0.35527136788E-14  0.88817841970E-15  0.00000000000E+00  0.91188000000E+02  0.91188000000E+02 0.  0.
    9900012    2    3    3    0    0  0.16511611686E+02 -0.71974898129E+01 -0.39486525460E+02  0.47787275663E+02  0.20000021058E+02 0.  0.
         12    1    3    3    0    0 -0.16511611686E+02  0.71974898129E+01  0.39486525460E+02  0.43400724337E+02  0.00000000000E+00 0. -1.
         11    1    4    4    0    0 -0.14404072342E+01 -0.59307657950E+00 -0.26635818525E+01  0.30856411612E+01  0.51100000000E-03 0. -1.
        -11    1    4    4    0    0  0.10298434457E+02 -0.21034469650E+01 -0.49559974497E+01  0.11620849900E+02  0.51100000000E-03 0.  1.
        -12    1    4    4    0    0  0.76535844627E+01 -0.45009662683E+01 -0.31866946158E+02  0.33080784602E+02  0.00000000000E+00 0.  1.
</event>
<event>
 8    1  0.2994958E-010  0.9118800E+02  0.7816164E-02  0.1184000E+00
        -11   -1    0    0    0    0  0.00000000000E+00  0.00000000000E+00  0.45593999997E+02  0.45594000000E+02  0.51100000000E-03 0. -1.
         11   -1    0    0    0    0 -0.00000000000E+00 -0.00000000000E+00 -0.45593999997E+02  0.45594000000E+02  0.51100000000E-03 0.  1.
         23    2    1    2    0    0 -0.35527136788E-14  0.00000000000E+00  0.35527136788E-14  0.91188000000E+02  0.91188000000E+02 0.  0.
    9900012    2    3    3    0    0 -0.23388343382E+02 -0.19601050198E+02 -0.30861052253E+02  0.47787305061E+02  0.20000155097E+02 0.  0.
         12    1    3    3    0    0  0.23388343382E+02  0.19601050198E+02  0.30861052253E+02  0.43400694939E+02  0.00000000000E+00 0. -1.
         11    1    4    4    0    0 -0.84414670358E+01 -0.60439257927E+01 -0.31590196208E+01  0.10852041740E+02  0.51100000000E-03 0. -1.
        -11    1    4    4    0    0 -0.16845758477E+02 -0.85258406206E+01 -0.19631837463E+02  0.27237448107E+02  0.51100000000E-03 0.  1.
        -12    1    4    4    0    0  0.18988821308E+01 -0.50312837845E+01 -0.80701951691E+01  0.96978152145E+01  0.00000000000E+00 0.  1.
</event>
<event>
 8    1  0.2994958E-010  0.9118800E+02  0.7816164E-02  0.1184000E+00
        -11   -1    0    0    0    0  0.00000000000E+00  0.00000000000E+00  0.45593999997E+02  0.45594000000E+02  0.51100000000E-03 0. -1.
         11   -1    0    0    0    0 -0.00000000000E+00 -0.00000000000E+00 -0.45593999997E+02  0.45594000000E+02  0.51100000000E-03 0.  1.
         23    2    1    2    0    0  0.00000000000E+00  0.00000000000E+00  0.00000000000E+00  0.91188000000E+02  0.91188000000E+02 0.  0.
    9900012    2    3    3    0    0  0.20684179848E+02 -0.10592516322E+02  0.36654944571E+02  0.47787289642E+02  0.20000084796E+02 0.  0.
        -12    1    3    3    0    0 -0.20684179848E+02  0.10592516322E+02 -0.36654944571E+02  0.43400710358E+02  0.00000000000E+00 0.  1.
         11    1    4    4    0    0  0.37097365391E+01 -0.12099381610E+02  0.11521180450E+02  0.17114168976E+02  0.51100000000E-03 0. -1.
        -11    1    4    4    0    0  0.24941538147E+01  0.17339509446E+01  0.53967440946E+01  0.61929182308E+01  0.51100000000E-03 0.  1.
        -12    1    4    4    0    0  0.14480289494E+02 -0.22708565681E+00  0.19737020027E+02  0.24480202435E+02  0.00000000000E+00 0.  1.
</event>
<event>
 8    1  0.2994958E-010  0.9118800E+02  0.7816164E-02  0.1184000E+00
        -11   -1    0    0    0    0  0.00000000000E+00  0.00000000000E+00  0.45593999997E+02  0.45594000000E+02  0.51100000000E-03 0. -1.
         11   -1    0    0    0    0 -0.00000000000E+00 -0.00000000000E+00 -0.45593999997E+02  0.45594000000E+02  0.51100000000E-03 0.  1.
         23    2    1    2    0    0  0.00000000000E+00  0.44408920985E-15  0.00000000000E+00  0.91188000000E+02  0.91188000000E+02 0.  0.
    9900012    2    3    3    0    0 -0.14749811766E+02 -0.15512186104E+01 -0.40787990992E+02  0.47787269183E+02  0.19999991512E+02 0.  0.
         12    1    3    3    0    0  0.14749811766E+02  0.15512186104E+01  0.40787990992E+02  0.43400730817E+02  0.00000000000E+00 0. -1.
         11    1    4    4    0    0  0.19009733708E+01 -0.55927367305E+00 -0.66300308976E-01  0.19826454019E+01  0.51100000000E-03 0. -1.
        -11    1    4    4    0    0 -0.72256375581E+00 -0.40507604904E+01 -0.43894437861E+01  0.60164753755E+01  0.51100000000E-03 0.  1.
        -12    1    4    4    0    0 -0.15928221381E+02  0.30588155530E+01 -0.36332246897E+02  0.39788148405E+02  0.00000000000E+00 0.  1.
</event>
<event>
 8    1  0.2994958E-010  0.9118800E+02  0.7816164E-02  0.1184000E+00
        -11   -1    0    0    0    0  0.00000000000E+00  0.00000000000E+00  0.45593999997E+02  0.45594000000E+02  0.51100000000E-03 0. -1.
         11   -1    0    0    0    0 -0.00000000000E+00 -0.00000000000E+00 -0.45593999997E+02  0.45594000000E+02  0.51100000000E-03 0.  1.
         23    2    1    2    0    0  0.00000000000E+00  0.00000000000E+00  0.71054273576E-14  0.91188000000E+02  0.91188000000E+02 0.  0.
    9900012    2    3    3    0    0 -0.21523433188E+02 -0.10864625369E+02 -0.36087740304E+02  0.47787271194E+02  0.20000000684E+02 0.  0.
         12    1    3    3    0    0  0.21523433188E+02  0.10864625369E+02  0.36087740304E+02  0.43400728806E+02  0.00000000000E+00 0. -1.
         11    1    4    4    0    0 -0.14050100474E+02  0.50298958774E+00 -0.19291239475E+02  0.23870698411E+02  0.51100000000E-03 0. -1.
        -11    1    4    4    0    0 -0.63647422324E+01 -0.42542478408E+01 -0.27535161243E+01  0.81357494851E+01  0.51100000000E-03 0.  1.
         12    1    4    4    0    0 -0.11085904817E+01 -0.71133671154E+01 -0.14042984705E+02  0.15780823299E+02  0.00000000000E+00 0. -1.
</event>
<event>
 8    1  0.2994958E-010  0.9118800E+02  0.7816164E-02  0.1184000E+00
        -11   -1    0    0    0    0  0.00000000000E+00  0.00000000000E+00  0.45593999997E+02  0.45594000000E+02  0.51100000000E-03 0. -1.
         11   -1    0    0    0    0 -0.00000000000E+00 -0.00000000000E+00 -0.45593999997E+02  0.45594000000E+02  0.51100000000E-03 0.  1.
         23    2    1    2    0    0  0.00000000000E+00 -0.11102230246E-15  0.00000000000E+00  0.91188000000E+02  0.91188000000E+02 0.  0.
    9900012    2    3    3    0    0 -0.57698739266E+01 -0.98469637824E+00 -0.43004207254E+02  0.47787275194E+02  0.20000018921E+02 0.  0.
         12    1    3    3    0    0  0.57698739266E+01  0.98469637824E+00  0.43004207254E+02  0.43400724806E+02  0.00000000000E+00 0. -1.
         11    1    4    4    0    0  0.37970441262E+00  0.16900855554E+01 -0.10888851775E+02  0.11025772439E+02  0.51100000000E-03 0. -1.
        -11    1    4    4    0    0 -0.11138339753E+02 -0.55673920754E+00 -0.27381278261E+02  0.29565300108E+02  0.51100000000E-03 0.  1.
         12    1    4    4    0    0  0.49887614142E+01 -0.21180427261E+01 -0.47340772177E+01  0.71962026473E+01  0.00000000000E+00 0. -1.
</event>
<event>
 8    1  0.2994958E-010  0.9118800E+02  0.7816164E-02  0.1184000E+00
        -11   -1    0    0    0    0  0.00000000000E+00  0.00000000000E+00  0.45593999997E+02  0.45594000000E+02  0.51100000000E-03 0.  1.
         11   -1    0    0    0    0 -0.00000000000E+00 -0.00000000000E+00 -0.45593999997E+02  0.45594000000E+02  0.51100000000E-03 0. -1.
         23    2    1    2    0    0  0.00000000000E+00  0.00000000000E+00  0.00000000000E+00  0.91188000000E+02  0.91188000000E+02 0.  0.
    9900012    2    3    3    0    0 -0.35585667706E+02 -0.10094401481E+02  0.22702134440E+02  0.47787267339E+02  0.19999983107E+02 0.  0.
        -12    1    3    3    0    0  0.35585667706E+02  0.10094401481E+02 -0.22702134440E+02  0.43400732661E+02  0.00000000000E+00 0.  1.
         11    1    4    4    0    0 -0.58504233193E+01  0.12476811051E+01 -0.29790417614E+01  0.66827278287E+01  0.51100000000E-03 0. -1.
        -11    1    4    4    0    0 -0.36731815495E+01 -0.12594312511E+00  0.36768551255E+01  0.51987871895E+01  0.51100000000E-03 0.  1.
        -12    1    4    4    0    0 -0.26062062837E+02 -0.11216139461E+02  0.22004321076E+02  0.35905752321E+02  0.00000000000E+00 0.  1.
</event>
<event>
 8    1  0.2994958E-010  0.9118800E+02  0.7816164E-02  0.1184000E+00
        -11   -1    0    0    0    0  0.00000000000E+00  0.00000000000E+00  0.45593999997E+02  0.45594000000E+02  0.51100000000E-03 0. -1.
         11   -1    0    0    0    0 -0.00000000000E+00 -0.00000000000E+00 -0.45593999997E+02  0.45594000000E+02  0.51100000000E-03 0.  1.
         23    2    1    2    0    0 -0.17763568394E-14 -0.17763568394E-14  0.00000000000E+00  0.91188000000E+02  0.91188000000E+02 0.  0.
    9900012    2    3    3    0    0  0.84658291533E+01  0.15143219358E+02 -0.39782368467E+02  0.47787260414E+02  0.19999951529E+02 0.  0.
         12    1    3    3    0    0 -0.84658291533E+01 -0.15143219358E+02  0.39782368467E+02  0.43400739586E+02  0.00000000000E+00 0. -1.
         11    1    4    4    0    0 -0.20838978268E+01 -0.14212280603E+01 -0.75211180933E-01  0.25235245858E+01  0.51100000000E-03 0. -1.
        -11    1    4    4    0    0 -0.44738354860E-01  0.19083463492E+01 -0.12173010098E+02  0.12321767828E+02  0.51100000000E-03 0.  1.
        -12    1    4    4    0    0  0.10594465335E+02  0.14656101070E+02 -0.27534147189E+02  0.32941968000E+02  0.00000000000E+00 0.  1.
</event>
<event>
 8    1  0.2994958E-010  0.9118800E+02  0.7816164E-02  0.1184000E+00
        -11   -1    0    0    0    0  0.00000000000E+00  0.00000000000E+00  0.45593999997E+02  0.45594000000E+02  0.51100000000E-03 0. -1.
         11   -1    0    0    0    0 -0.00000000000E+00 -0.00000000000E+00 -0.45593999997E+02  0.45594000000E+02  0.51100000000E-03 0.  1.
         23    2    1    2    0    0  0.00000000000E+00  0.00000000000E+00  0.35527136788E-14  0.91188000000E+02  0.91188000000E+02 0.  0.
    9900012    2    3    3    0    0  0.32152303240E+02 -0.83714596136E+01 -0.27924386722E+02  0.47787270588E+02  0.19999997920E+02 0.  0.
         12    1    3    3    0    0 -0.32152303240E+02  0.83714596136E+01  0.27924386722E+02  0.43400729412E+02  0.00000000000E+00 0. -1.
         11    1    4    4    0    0  0.13821984678E+02 -0.31465199151E+01 -0.12645121509E+01  0.14231895140E+02  0.51100000000E-03 0.  1.
        -11    1    4    4    0    0  0.63341734293E+01 -0.50962816321E+01 -0.82580144181E+01  0.11588297627E+02  0.51100000000E-03 0. -1.
        -12    1    4    4    0    0  0.11996145132E+02 -0.12865806634E+00 -0.18401860153E+02  0.21967077821E+02  0.00000000000E+00 0.  1.
</event>
<event>
 8    1  0.2994958E-010  0.9118800E+02  0.7816164E-02  0.1184000E+00
        -11   -1    0    0    0    0  0.00000000000E+00  0.00000000000E+00  0.45593999997E+02  0.45594000000E+02  0.51100000000E-03 0. -1.
         11   -1    0    0    0    0 -0.00000000000E+00 -0.00000000000E+00 -0.45593999997E+02  0.45594000000E+02  0.51100000000E-03 0.  1.
         23    2    1    2    0    0 -0.17763568394E-14  0.00000000000E+00  0.71054273576E-14  0.91188000000E+02  0.91188000000E+02 0.  0.
    9900012    2    3    3    0    0 -0.11327273042E+02  0.93619995823E+01  0.40837103448E+02  0.47787272256E+02  0.20000005522E+02 0.  0.
        -12    1    3    3    0    0  0.11327273042E+02 -0.93619995823E+01 -0.40837103448E+02  0.43400727744E+02  0.00000000000E+00 0.  1.
         11    1    4    4    0    0 -0.20738373698E+01  0.83605818137E+01  0.14826649012E+02  0.17147292815E+02  0.51100000000E-03 0. -1.
        -11    1    4    4    0    0  0.33683470998E+01  0.60977577196E+00  0.73538423211E+01  0.81115094663E+01  0.51100000000E-03 0.  1.
        -12    1    4    4    0    0 -0.12621782772E+02  0.39164199663E+00  0.18656612114E+02  0.22528469974E+02  0.00000000000E+00 0.  1.
</event>
<event>
 8    1  0.2994958E-010  0.9118800E+02  0.7816164E-02  0.1184000E+00
        -11   -1    0    0    0    0  0.00000000000E+00  0.00000000000E+00  0.45593999997E+02  0.45594000000E+02  0.51100000000E-03 0. -1.
         11   -1    0    0    0    0 -0.00000000000E+00 -0.00000000000E+00 -0.45593999997E+02  0.45594000000E+02  0.51100000000E-03 0.  1.
         23    2    1    2    0    0  0.00000000000E+00  0.00000000000E+00  0.00000000000E+00  0.91188000000E+02  0.91188000000E+02 0.  0.
    9900012    2    3    3    0    0 -0.39584298275E+02  0.37096920860E+01 -0.17405342711E+02  0.47787257608E+02  0.19999938736E+02 0.  0.
         12    1    3    3    0    0  0.39584298275E+02 -0.37096920860E+01  0.17405342711E+02  0.43400742392E+02  0.00000000000E+00 0. -1.
         11    1    4    4    0    0 -0.86591207902E+01  0.24943010975E+01  0.11117818326E+01  0.90795357772E+01  0.51100000000E-03 0. -1.
        -11    1    4    4    0    0 -0.83178116124E+00 -0.21493766484E+00  0.20545109139E+01  0.22268977202E+01  0.51100000000E-03 0.  1.
        -12    1    4    4    0    0 -0.30093396324E+02  0.14303286534E+01 -0.20571635457E+02  0.36480824110E+02  0.00000000000E+00 0.  1.
</event>
<event>
 8    1  0.2994958E-010  0.9118800E+02  0.7816164E-02  0.1184000E+00
        -11   -1    0    0    0    0  0.00000000000E+00  0.00000000000E+00  0.45593999997E+02  0.45594000000E+02  0.51100000000E-03 0. -1.
         11   -1    0    0    0    0 -0.00000000000E+00 -0.00000000000E+00 -0.45593999997E+02  0.45594000000E+02  0.51100000000E-03 0.  1.
         23    2    1    2    0    0  0.00000000000E+00  0.00000000000E+00  0.00000000000E+00  0.91188000000E+02  0.91188000000E+02 0.  0.
    9900012    2    3    3    0    0  0.23360917530E+02  0.21604331456E+02  0.29515144410E+02  0.47787270109E+02  0.19999995737E+02 0.  0.
        -12    1    3    3    0    0 -0.23360917530E+02 -0.21604331456E+02 -0.29515144410E+02  0.43400729891E+02  0.00000000000E+00 0.  1.
         11    1    4    4    0    0  0.83120586985E+01  0.40431709623E+01  0.60339087410E+01  0.11038369725E+02  0.51100000000E-03 0. -1.
        -11    1    4    4    0    0  0.10146142843E+01  0.25975904281E+01 -0.24304443540E+01  0.36991861534E+01  0.51100000000E-03 0.  1.
         12    1    4    4    0    0  0.14034244547E+02  0.14963570066E+02  0.25911680023E+02  0.33049714231E+02  0.00000000000E+00 0. -1.
</event>
<event>
 8    1  0.2994958E-010  0.9118800E+02  0.7816164E-02  0.1184000E+00
        -11   -1    0    0    0    0  0.00000000000E+00  0.00000000000E+00  0.45593999997E+02  0.45594000000E+02  0.51100000000E-03 0. -1.
         11   -1    0    0    0    0 -0.00000000000E+00 -0.00000000000E+00 -0.45593999997E+02  0.45594000000E+02  0.51100000000E-03 0.  1.
         23    2    1    2    0    0  0.35527136788E-14  0.00000000000E+00  0.00000000000E+00  0.91188000000E+02  0.91188000000E+02 0.  0.
    9900012    2    3    3    0    0  0.18973233115E+02  0.16975219555E+02 -0.35149422731E+02  0.47787267609E+02  0.19999984336E+02 0.  0.
         12    1    3    3    0    0 -0.18973233115E+02 -0.16975219555E+02  0.35149422731E+02  0.43400732391E+02  0.00000000000E+00 0. -1.
         11    1    4    4    0    0  0.21129272845E+01 -0.14736963488E+01 -0.45070349225E+01  0.51913010596E+01  0.51100000000E-03 0. -1.
        -11    1    4    4    0    0  0.96865752918E+01 -0.63993783637E-01 -0.11193663832E+02  0.14803105969E+02  0.51100000000E-03 0.  1.
        -12    1    4    4    0    0  0.71737305391E+01  0.18512909687E+02 -0.19448723976E+02  0.27792860580E+02  0.00000000000E+00 0.  1.
</event>
<event>
 8    1  0.2994958E-010  0.9118800E+02  0.7816164E-02  0.1184000E+00
        -11   -1    0    0    0    0  0.00000000000E+00  0.00000000000E+00  0.45593999997E+02  0.45594000000E+02  0.51100000000E-03 0. -1.
         11   -1    0    0    0    0 -0.00000000000E+00 -0.00000000000E+00 -0.45593999997E+02  0.45594000000E+02  0.51100000000E-03 0.  1.
         23    2    1    2    0    0  0.00000000000E+00  0.00000000000E+00  0.71054273576E-14  0.91188000000E+02  0.91188000000E+02 0.  0.
    9900012    2    3    3    0    0  0.16771867873E+02  0.13930019808E+02 -0.37527028147E+02  0.47787322063E+02  0.20000232614E+02 0.  0.
         12    1    3    3    0    0 -0.16771867873E+02 -0.13930019808E+02  0.37527028147E+02  0.43400677937E+02  0.00000000000E+00 0. -1.
         11    1    4    4    0    0  0.12508251794E+01 -0.31880149986E+00 -0.10230986645E+02  0.10312094163E+02  0.51100000000E-03 0. -1.
        -11    1    4    4    0    0  0.11300730781E+02  0.72880410131E+01 -0.25946315473E+02  0.29223848906E+02  0.51100000000E-03 0.  1.
         12    1    4    4    0    0  0.42203119134E+01  0.69607802950E+01 -0.13497260285E+01  0.82513789947E+01  0.00000000000E+00 0. -1.
</event>
<event>
 8    1  0.3074443E-010  0.9118800E+02  0.7816164E-02  0.1184000E+00
        -11   -1    0    0    0    0  0.00000000000E+00  0.00000000000E+00  0.45593999997E+02  0.45594000000E+02  0.51100000000E-03 0. -1.
         11   -1    0    0    0    0 -0.00000000000E+00 -0.00000000000E+00 -0.45593999997E+02  0.45594000000E+02  0.51100000000E-03 0.  1.
         23    2    1    2    0    0 -0.44408920985E-15  0.00000000000E+00  0.00000000000E+00  0.91188000000E+02  0.91188000000E+02 0.  0.
    9900012    2    3    3    0    0 -0.23607106140E+01  0.12054300672E+02  0.41626244182E+02  0.47787270467E+02  0.19999997368E+02 0.  0.
        -12    1    3    3    0    0  0.23607106140E+01 -0.12054300672E+02 -0.41626244182E+02  0.43400729533E+02  0.00000000000E+00 0.  1.
         11    1    4    4    0    0  0.18831955554E+01 -0.15401914858E+01  0.14262044354E+01  0.28200486991E+01  0.51100000000E-03 0. -1.
        -11    1    4    4    0    0  0.14195084247E+01 -0.13588769562E+01  0.14960030124E+02  0.15088540430E+02  0.51100000000E-03 0.  1.
         12    1    4    4    0    0 -0.56634145942E+01  0.14953369114E+02  0.25240009623E+02  0.29878681338E+02  0.00000000000E+00 0. -1.
</event>
<event>
 8    1  0.2994958E-010  0.9118800E+02  0.7816164E-02  0.1184000E+00
        -11   -1    0    0    0    0  0.00000000000E+00  0.00000000000E+00  0.45593999997E+02  0.45594000000E+02  0.51100000000E-03 0. -1.
         11   -1    0    0    0    0 -0.00000000000E+00 -0.00000000000E+00 -0.45593999997E+02  0.45594000000E+02  0.51100000000E-03 0.  1.
         23    2    1    2    0    0  0.00000000000E+00  0.00000000000E+00  0.00000000000E+00  0.91188000000E+02  0.91188000000E+02 0.  0.
    9900012    2    3    3    0    0  0.14978487430E+02  0.47454946328E+01  0.40456743330E+02  0.47787275515E+02  0.20000020382E+02 0.  0.
        -12    1    3    3    0    0 -0.14978487430E+02 -0.47454946328E+01 -0.40456743330E+02  0.43400724485E+02  0.00000000000E+00 0.  1.
         11    1    4    4    0    0 -0.57601966575E+00  0.94598607131E+00  0.66595241336E+00  0.12923548972E+01  0.51100000000E-03 0. -1.
        -11    1    4    4    0    0  0.51779643271E+01  0.10487542627E+02  0.20033181490E+02  0.23197590948E+02  0.51100000000E-03 0.  1.
         12    1    4    4    0    0  0.10376542768E+02 -0.66880340655E+01  0.19757609426E+02  0.23297329669E+02  0.00000000000E+00 0. -1.
</event>
<event>
 8    1  0.2994958E-010  0.9118800E+02  0.7816164E-02  0.1184000E+00
        -11   -1    0    0    0    0  0.00000000000E+00  0.00000000000E+00  0.45593999997E+02  0.45594000000E+02  0.51100000000E-03 0. -1.
         11   -1    0    0    0    0 -0.00000000000E+00 -0.00000000000E+00 -0.45593999997E+02  0.45594000000E+02  0.51100000000E-03 0.  1.
         23    2    1    2    0    0  0.00000000000E+00  0.00000000000E+00 -0.88817841970E-15  0.91188000000E+02  0.91188000000E+02 0.  0.
    9900012    2    3    3    0    0  0.37209724600E+02  0.21389413908E+02 -0.64461193285E+01  0.47787273203E+02  0.20000009842E+02 0.  0.
         12    1    3    3    0    0 -0.37209724600E+02 -0.21389413908E+02  0.64461193285E+01  0.43400726797E+02  0.00000000000E+00 0. -1.
         11    1    4    4    0    0  0.13069420127E+02  0.11821093104E+02  0.16698644777E+01  0.17701311597E+02  0.51100000000E-03 0.  1.
        -11    1    4    4    0    0  0.20364525665E+02  0.85365559618E+01 -0.11691645984E+01  0.22112296113E+02  0.51100000000E-03 0. -1.
         12    1    4    4    0    0  0.37757788078E+01  0.10317648421E+01 -0.69468192077E+01  0.79736654933E+01  0.00000000000E+00 0. -1.
</event>
<event>
 8    1  0.2994958E-010  0.9118800E+02  0.7816164E-02  0.1184000E+00
        -11   -1    0    0    0    0  0.00000000000E+00  0.00000000000E+00  0.45593999997E+02  0.45594000000E+02  0.51100000000E-03 0. -1.
         11   -1    0    0    0    0 -0.00000000000E+00 -0.00000000000E+00 -0.45593999997E+02  0.45594000000E+02  0.51100000000E-03 0.  1.
         23    2    1    2    0    0  0.35527136788E-14 -0.35527136788E-14  0.00000000000E+00  0.91188000000E+02  0.91188000000E+02 0.  0.
    9900012    2    3    3    0    0  0.21163655481E+02 -0.20862128184E+02  0.31630590720E+02  0.47787274488E+02  0.20000015703E+02 0.  0.
        -12    1    3    3    0    0 -0.21163655481E+02  0.20862128184E+02 -0.31630590720E+02  0.43400725512E+02  0.00000000000E+00 0.  1.
         11    1    4    4    0    0  0.48680419109E+01 -0.76786110204E+01  0.25618587103E+01  0.94457408159E+01  0.51100000000E-03 0. -1.
        -11    1    4    4    0    0  0.89997795429E+00 -0.85043389788E+01  0.71288741816E+01  0.11133489531E+02  0.51100000000E-03 0.  1.
        -12    1    4    4    0    0  0.15395635615E+02 -0.46791781843E+01  0.21939857828E+02  0.27208044141E+02  0.00000000000E+00 0.  1.
</event>
<event>
 8    1  0.2994958E-010  0.9118800E+02  0.7816164E-02  0.1184000E+00
        -11   -1    0    0    0    0  0.00000000000E+00  0.00000000000E+00  0.45593999997E+02  0.45594000000E+02  0.51100000000E-03 0. -1.
         11   -1    0    0    0    0 -0.00000000000E+00 -0.00000000000E+00 -0.45593999997E+02  0.45594000000E+02  0.51100000000E-03 0.  1.
         23    2    1    2    0    0  0.44408920985E-15  0.88817841970E-15  0.00000000000E+00  0.91188000000E+02  0.91188000000E+02 0.  0.
    9900012    2    3    3    0    0  0.31194460702E+01  0.55801318764E+01  0.42927307335E+02  0.47787279607E+02  0.20000039041E+02 0.  0.
        -12    1    3    3    0    0 -0.31194460702E+01 -0.55801318764E+01 -0.42927307335E+02  0.43400720393E+02  0.00000000000E+00 0.  1.
         11    1    4    4    0    0 -0.34946922066E+01  0.64974536876E+01  0.17370258353E+02  0.18872086624E+02  0.51100000000E-03 0. -1.
        -11    1    4    4    0    0  0.62345057033E+01  0.47352227375E+01  0.13854845482E+02  0.15913772002E+02  0.51100000000E-03 0.  1.
         12    1    4    4    0    0  0.37963257353E+00 -0.56525445486E+01  0.11702203500E+02  0.13001420981E+02  0.00000000000E+00 0. -1.
</event>
<event>
 8    1  0.2994958E-010  0.9118800E+02  0.7816164E-02  0.1184000E+00
        -11   -1    0    0    0    0  0.00000000000E+00  0.00000000000E+00  0.45593999997E+02  0.45594000000E+02  0.51100000000E-03 0. -1.
         11   -1    0    0    0    0 -0.00000000000E+00 -0.00000000000E+00 -0.45593999997E+02  0.45594000000E+02  0.51100000000E-03 0.  1.
         23    2    1    2    0    0  0.00000000000E+00 -0.35527136788E-14  0.00000000000E+00  0.91188000000E+02  0.91188000000E+02 0.  0.
    9900012    2    3    3    0    0  0.18423560954E+02 -0.28239077272E+02  0.27326723953E+02  0.47787275059E+02  0.20000018303E+02 0.  0.
        -12    1    3    3    0    0 -0.18423560954E+02  0.28239077272E+02 -0.27326723953E+02  0.43400724941E+02  0.00000000000E+00 0.  1.
         11    1    4    4    0    0  0.67275401660E+01 -0.12562959363E+02  0.71504736631E+01  0.15944184473E+02  0.51100000000E-03 0. -1.
        -11    1    4    4    0    0 -0.28153955965E+01 -0.73522321829E+01  0.72380262486E+01  0.10694428207E+02  0.51100000000E-03 0.  1.
         12    1    4    4    0    0  0.14511416385E+02 -0.83238857263E+01  0.12938224041E+02  0.21148662379E+02  0.00000000000E+00 0. -1.
</event>
<event>
 8    1  0.2994958E-010  0.9118800E+02  0.7816164E-02  0.1184000E+00
        -11   -1    0    0    0    0  0.00000000000E+00  0.00000000000E+00  0.45593999997E+02  0.45594000000E+02  0.51100000000E-03 0. -1.
         11   -1    0    0    0    0 -0.00000000000E+00 -0.00000000000E+00 -0.45593999997E+02  0.45594000000E+02  0.51100000000E-03 0.  1.
         23    2    1    2    0    0  0.71054273576E-14  0.00000000000E+00  0.00000000000E+00  0.91188000000E+02  0.91188000000E+02 0.  0.
    9900012    2    3    3    0    0  0.32146276111E+02 -0.29076464369E+02 -0.21906511890E+01  0.47787276496E+02  0.20000024857E+02 0.  0.
         12    1    3    3    0    0 -0.32146276111E+02  0.29076464369E+02  0.21906511890E+01  0.43400723504E+02  0.00000000000E+00 0. -1.
         11    1    4    4    0    0  0.11533677159E+02 -0.81867130750E+01  0.73926407660E+00  0.14163138474E+02  0.51100000000E-03 0. -1.
        -11    1    4    4    0    0  0.13062095271E+01 -0.64788198830E+01  0.49709695705E+01  0.82699352559E+01  0.51100000000E-03 0.  1.
        -12    1    4    4    0    0  0.19306389424E+02 -0.14410931411E+02 -0.79008848361E+01  0.25354202767E+02  0.00000000000E+00 0.  1.
</event>
<event>
 8    1  0.2994958E-010  0.9118800E+02  0.7816164E-02  0.1184000E+00
        -11   -1    0    0    0    0  0.00000000000E+00  0.00000000000E+00  0.45593999997E+02  0.45594000000E+02  0.51100000000E-03 0. -1.
         11   -1    0    0    0    0 -0.00000000000E+00 -0.00000000000E+00 -0.45593999997E+02  0.45594000000E+02  0.51100000000E-03 0.  1.
         23    2    1    2    0    0  0.00000000000E+00  0.00000000000E+00  0.00000000000E+00  0.91188000000E+02  0.91188000000E+02 0.  0.
    9900012    2    3    3    0    0 -0.82237560716E+01 -0.46676305553E+01 -0.42358069209E+02  0.47787274590E+02  0.20000016168E+02 0.  0.
         12    1    3    3    0    0  0.82237560716E+01  0.46676305553E+01  0.42358069209E+02  0.43400725410E+02  0.00000000000E+00 0. -1.
         11    1    4    4    0    0 -0.94116137058E+00 -0.65948003895E+00  0.16393607348E+01  0.20020495816E+01  0.51100000000E-03 0. -1.
        -11    1    4    4    0    0  0.23631615857E+01 -0.61096402941E+00 -0.88029958546E+01  0.91351270381E+01  0.51100000000E-03 0.  1.
        -12    1    4    4    0    0 -0.96457562867E+01 -0.33971864869E+01 -0.35194434090E+02  0.36650097971E+02  0.00000000000E+00 0.  1.
</event>
<event>
 8    1  0.2994958E-010  0.9118800E+02  0.7816164E-02  0.1184000E+00
        -11   -1    0    0    0    0  0.00000000000E+00  0.00000000000E+00  0.45593999997E+02  0.45594000000E+02  0.51100000000E-03 0. -1.
         11   -1    0    0    0    0 -0.00000000000E+00 -0.00000000000E+00 -0.45593999997E+02  0.45594000000E+02  0.51100000000E-03 0.  1.
         23    2    1    2    0    0  0.71054273576E-14  0.00000000000E+00 -0.17763568394E-14  0.91188000000E+02  0.91188000000E+02 0.  0.
    9900012    2    3    3    0    0  0.35262211541E+02  0.20432998665E+02 -0.14922873517E+02  0.47787272457E+02  0.20000006442E+02 0.  0.
         12    1    3    3    0    0 -0.35262211541E+02 -0.20432998665E+02  0.14922873517E+02  0.43400727543E+02  0.00000000000E+00 0. -1.
         11    1    4    4    0    0 -0.17043572550E+01 -0.35761512009E+00 -0.13370161547E+01  0.21955260613E+01  0.51100000000E-03 0. -1.
        -11    1    4    4    0    0 -0.11949672510E+00  0.30009493643E+00 -0.14958934275E+01  0.15303704930E+01  0.51100000000E-03 0.  1.
        -12    1    4    4    0    0  0.37086065521E+02  0.20490518849E+02 -0.12089963935E+02  0.44061375903E+02  0.00000000000E+00 0.  1.
</event>
<event>
 8    1  0.2994958E-010  0.9118800E+02  0.7816164E-02  0.1184000E+00
        -11   -1    0    0    0    0  0.00000000000E+00  0.00000000000E+00  0.45593999997E+02  0.45594000000E+02  0.51100000000E-03 0.  1.
         11   -1    0    0    0    0 -0.00000000000E+00 -0.00000000000E+00 -0.45593999997E+02  0.45594000000E+02  0.51100000000E-03 0. -1.
         23    2    1    2    0    0  0.88817841970E-15  0.71054273576E-14  0.00000000000E+00  0.91188000000E+02  0.91188000000E+02 0.  0.
    9900012    2    3    3    0    0 -0.67373317221E+01  0.42822057820E+02  0.21223753775E+01  0.47787254016E+02  0.19999922362E+02 0.  0.
        -12    1    3    3    0    0  0.67373317221E+01 -0.42822057820E+02 -0.21223753775E+01  0.43400745984E+02  0.00000000000E+00 0.  1.
         11    1    4    4    0    0 -0.11091578444E+01 -0.16678337814E+00  0.40075241298E+01  0.41615258897E+01  0.51100000000E-03 0. -1.
        -11    1    4    4    0    0  0.63311826671E+00  0.45009876215E+01 -0.81117273320E+00  0.46171127096E+01  0.51100000000E-03 0.  1.
         12    1    4    4    0    0 -0.62612921444E+01  0.38487853577E+02 -0.10739760190E+01  0.39008615417E+02  0.00000000000E+00 0. -1.
</event>
<event>
 8    1  0.2994958E-010  0.9118800E+02  0.7816164E-02  0.1184000E+00
        -11   -1    0    0    0    0  0.00000000000E+00  0.00000000000E+00  0.45593999997E+02  0.45594000000E+02  0.51100000000E-03 0. -1.
         11   -1    0    0    0    0 -0.00000000000E+00 -0.00000000000E+00 -0.45593999997E+02  0.45594000000E+02  0.51100000000E-03 0.  1.
         23    2    1    2    0    0  0.00000000000E+00  0.00000000000E+00  0.00000000000E+00  0.91188000000E+02  0.91188000000E+02 0.  0.
    9900012    2    3    3    0    0  0.54099571450E+01 -0.37603773094E+02 -0.20983609234E+02  0.47787271392E+02  0.20000001583E+02 0.  0.
         12    1    3    3    0    0 -0.54099571450E+01  0.37603773094E+02  0.20983609234E+02  0.43400728608E+02  0.00000000000E+00 0. -1.
         11    1    4    4    0    0 -0.14200149289E+01 -0.53476624083E+01 -0.27258534059E+01  0.61679990826E+01  0.51100000000E-03 0. -1.
        -11    1    4    4    0    0 -0.30414474244E+01 -0.21261734835E+02 -0.15745740866E+02  0.26631562596E+02  0.51100000000E-03 0.  1.
         12    1    4    4    0    0  0.98714194984E+01 -0.10994375851E+02 -0.25120149624E+01  0.14987709713E+02  0.00000000000E+00 0. -1.
</event>
<event>
 8    1  0.2994958E-010  0.9118800E+02  0.7816164E-02  0.1184000E+00
        -11   -1    0    0    0    0  0.00000000000E+00  0.00000000000E+00  0.45593999997E+02  0.45594000000E+02  0.51100000000E-03 0.  1.
         11   -1    0    0    0    0 -0.00000000000E+00 -0.00000000000E+00 -0.45593999997E+02  0.45594000000E+02  0.51100000000E-03 0. -1.
         23    2    1    2    0    0  0.00000000000E+00  0.00000000000E+00  0.17763568394E-14  0.91188000000E+02  0.91188000000E+02 0.  0.
    9900012    2    3    3    0    0 -0.10849117727E+02 -0.41392846304E+02  0.72492894629E+01  0.47787270993E+02  0.19999999765E+02 0.  0.
         12    1    3    3    0    0  0.10849117727E+02  0.41392846304E+02 -0.72492894629E+01  0.43400729007E+02  0.00000000000E+00 0. -1.
         11    1    4    4    0    0 -0.50686857518E+01 -0.58884312988E+01 -0.15060381724E+01  0.79141234290E+01  0.51100000000E-03 0. -1.
        -11    1    4    4    0    0 -0.75641268976E+01 -0.17670294375E+02  0.10435748771E+02  0.21871446493E+02  0.51100000000E-03 0.  1.
         12    1    4    4    0    0  0.17836949227E+01 -0.17834120631E+02 -0.16804211358E+01  0.18001701071E+02  0.00000000000E+00 0. -1.
</event>
<event>
 8    1  0.2994958E-010  0.9118800E+02  0.7816164E-02  0.1184000E+00
        -11   -1    0    0    0    0  0.00000000000E+00  0.00000000000E+00  0.45593999997E+02  0.45594000000E+02  0.51100000000E-03 0. -1.
         11   -1    0    0    0    0 -0.00000000000E+00 -0.00000000000E+00 -0.45593999997E+02  0.45594000000E+02  0.51100000000E-03 0.  1.
         23    2    1    2    0    0  0.00000000000E+00  0.35527136788E-14  0.00000000000E+00  0.91188000000E+02  0.91188000000E+02 0.  0.
    9900012    2    3    3    0    0 -0.24346049592E+02 -0.28143400137E+02  0.22334738357E+02  0.47787289873E+02  0.20000085849E+02 0.  0.
        -12    1    3    3    0    0  0.24346049592E+02  0.28143400137E+02 -0.22334738357E+02  0.43400710127E+02  0.00000000000E+00 0.  1.
         11    1    4    4    0    0 -0.18445814073E+02 -0.17301547209E+02  0.13908377361E+02  0.28862337981E+02  0.51100000000E-03 0. -1.
        -11    1    4    4    0    0 -0.51932784324E+01 -0.25731570230E+01  0.88908191287E+01  0.10613102420E+02  0.51100000000E-03 0.  1.
         12    1    4    4    0    0 -0.70695708630E+00 -0.82686959049E+01 -0.46445813269E+00  0.83118494721E+01  0.00000000000E+00 0. -1.
</event>
<event>
 8    1  0.2994958E-010  0.9118800E+02  0.7816164E-02  0.1184000E+00
        -11   -1    0    0    0    0  0.00000000000E+00  0.00000000000E+00  0.45593999997E+02  0.45594000000E+02  0.51100000000E-03 0. -1.
         11   -1    0    0    0    0 -0.00000000000E+00 -0.00000000000E+00 -0.45593999997E+02  0.45594000000E+02  0.51100000000E-03 0.  1.
         23    2    1    2    0    0 -0.35527136788E-14  0.00000000000E+00  0.00000000000E+00  0.91188000000E+02  0.91188000000E+02 0.  0.
    9900012    2    3    3    0    0  0.16340802161E+02  0.20651965432E+02  0.34497792450E+02  0.47787272179E+02  0.20000005172E+02 0.  0.
        -12    1    3    3    0    0 -0.16340802161E+02 -0.20651965432E+02 -0.34497792450E+02  0.43400727821E+02  0.00000000000E+00 0.  1.
         11    1    4    4    0    0  0.12784029925E+02  0.13421112233E+02  0.11760339564E+02  0.21951384048E+02  0.51100000000E-03 0. -1.
        -11    1    4    4    0    0  0.34948145804E+01  0.92171100684E+00  0.19392296748E+01  0.41016938116E+01  0.51100000000E-03 0.  1.
        -12    1    4    4    0    0  0.61957655511E-01  0.63091421920E+01  0.20798223211E+02  0.21734194319E+02  0.00000000000E+00 0.  1.
</event>
<event>
 8    1  0.2994958E-010  0.9118800E+02  0.7816164E-02  0.1184000E+00
        -11   -1    0    0    0    0  0.00000000000E+00  0.00000000000E+00  0.45593999997E+02  0.45594000000E+02  0.51100000000E-03 0. -1.
         11   -1    0    0    0    0 -0.00000000000E+00 -0.00000000000E+00 -0.45593999997E+02  0.45594000000E+02  0.51100000000E-03 0.  1.
         23    2    1    2    0    0 -0.71054273576E-14  0.00000000000E+00  0.00000000000E+00  0.91188000000E+02  0.91188000000E+02 0.  0.
    9900012    2    3    3    0    0  0.28595799013E+02  0.25185236448E+02  0.20775198543E+02  0.47787254262E+02  0.19999923480E+02 0.  0.
        -12    1    3    3    0    0 -0.28595799013E+02 -0.25185236448E+02 -0.20775198543E+02  0.43400745738E+02  0.00000000000E+00 0.  1.
         11    1    4    4    0    0  0.13190831342E+02  0.11813300195E+02  0.53572734360E+01  0.18500066808E+02  0.51100000000E-03 0. -1.
        -11    1    4    4    0    0  0.12292774579E+02  0.13942797016E+01  0.60850264911E+01  0.13787090715E+02  0.51100000000E-03 0.  1.
         12    1    4    4    0    0  0.31121930925E+01  0.11977656552E+02  0.93328986157E+01  0.15500096738E+02  0.00000000000E+00 0. -1.
</event>
<event>
 8    1  0.2994958E-010  0.9118800E+02  0.7816164E-02  0.1184000E+00
        -11   -1    0    0    0    0  0.00000000000E+00  0.00000000000E+00  0.45593999997E+02  0.45594000000E+02  0.51100000000E-03 0.  1.
         11   -1    0    0    0    0 -0.00000000000E+00 -0.00000000000E+00 -0.45593999997E+02  0.45594000000E+02  0.51100000000E-03 0. -1.
         23    2    1    2    0    0 -0.35527136788E-14 -0.17763568394E-14  0.71054273576E-14  0.91188000000E+02  0.91188000000E+02 0.  0.
    9900012    2    3    3    0    0 -0.25765872085E+02 -0.14862089323E+02  0.31604788009E+02  0.47787257052E+02  0.19999936203E+02 0.  0.
        -12    1    3    3    0    0  0.25765872085E+02  0.14862089323E+02 -0.31604788009E+02  0.43400742948E+02  0.00000000000E+00 0.  1.
         11    1    4    4    0    0 -0.22103762866E+02 -0.13931981383E+02  0.24984011696E+02  0.36150757651E+02  0.51100000000E-03 0. -1.
        -11    1    4    4    0    0 -0.59377396096E+01 -0.63050650645E+00  0.17026344088E+01  0.62091266952E+01  0.51100000000E-03 0.  1.
        -12    1    4    4    0    0  0.22756303905E+01 -0.29960143377E+00  0.49181419045E+01  0.54273727057E+01  0.00000000000E+00 0.  1.
</event>
<event>
 8    1  0.2994958E-010  0.9118800E+02  0.7816164E-02  0.1184000E+00
        -11   -1    0    0    0    0  0.00000000000E+00  0.00000000000E+00  0.45593999997E+02  0.45594000000E+02  0.51100000000E-03 0. -1.
         11   -1    0    0    0    0 -0.00000000000E+00 -0.00000000000E+00 -0.45593999997E+02  0.45594000000E+02  0.51100000000E-03 0.  1.
         23    2    1    2    0    0  0.00000000000E+00  0.17763568394E-14  0.00000000000E+00  0.91188000000E+02  0.91188000000E+02 0.  0.
    9900012    2    3    3    0    0  0.12354534451E+02 -0.92647040334E+01 -0.40560498593E+02  0.47787270647E+02  0.19999998187E+02 0.  0.
         12    1    3    3    0    0 -0.12354534451E+02  0.92647040334E+01  0.40560498593E+02  0.43400729353E+02  0.00000000000E+00 0. -1.
         11    1    4    4    0    0  0.17884747758E+01 -0.51823840413E+01 -0.50206221324E+01  0.74338679860E+01  0.51100000000E-03 0. -1.
        -11    1    4    4    0    0  0.70146388287E+01 -0.99800787019E+01 -0.21616343812E+02  0.24820826917E+02  0.51100000000E-03 0.  1.
         12    1    4    4    0    0  0.35514208461E+01  0.58977587097E+01 -0.13923532648E+02  0.15532575744E+02  0.00000000000E+00 0. -1.
</event>
<event>
 8    1  0.2994958E-010  0.9118800E+02  0.7816164E-02  0.1184000E+00
        -11   -1    0    0    0    0  0.00000000000E+00  0.00000000000E+00  0.45593999997E+02  0.45594000000E+02  0.51100000000E-03 0. -1.
         11   -1    0    0    0    0 -0.00000000000E+00 -0.00000000000E+00 -0.45593999997E+02  0.45594000000E+02  0.51100000000E-03 0.  1.
         23    2    1    2    0    0 -0.35527136788E-14  0.55511151231E-15  0.00000000000E+00  0.91188000000E+02  0.91188000000E+02 0.  0.
    9900012    2    3    3    0    0  0.26295928425E+02  0.92350725843E+00 -0.34515135512E+02  0.47787270781E+02  0.19999998797E+02 0.  0.
         12    1    3    3    0    0 -0.26295928425E+02 -0.92350725843E+00  0.34515135512E+02  0.43400729219E+02  0.00000000000E+00 0. -1.
         11    1    4    4    0    0  0.21138255572E+01  0.18975846674E+01 -0.20179886285E+01  0.34844460710E+01  0.51100000000E-03 0. -1.
        -11    1    4    4    0    0  0.33093427731E+01 -0.73225050612E+01 -0.11451546154E+02  0.13989593973E+02  0.51100000000E-03 0.  1.
        -12    1    4    4    0    0  0.20872760094E+02  0.63484276522E+01 -0.21045600729E+02  0.30313230736E+02  0.00000000000E+00 0.  1.
</event>
<event>
 8    1  0.2994958E-010  0.9118800E+02  0.7816164E-02  0.1184000E+00
        -11   -1    0    0    0    0  0.00000000000E+00  0.00000000000E+00  0.45593999997E+02  0.45594000000E+02  0.51100000000E-03 0. -1.
         11   -1    0    0    0    0 -0.00000000000E+00 -0.00000000000E+00 -0.45593999997E+02  0.45594000000E+02  0.51100000000E-03 0.  1.
         23    2    1    2    0    0  0.00000000000E+00 -0.35527136788E-14  0.00000000000E+00  0.91188000000E+02  0.91188000000E+02 0.  0.
    9900012    2    3    3    0    0  0.14253642568E+02  0.13361530361E+02 -0.38754697597E+02  0.47787269523E+02  0.19999993065E+02 0.  0.
         12    1    3    3    0    0 -0.14253642568E+02 -0.13361530361E+02  0.38754697597E+02  0.43400730477E+02  0.00000000000E+00 0. -1.
         11    1    4    4    0    0  0.26035211723E+01  0.22678784683E+01 -0.15315915448E+01  0.37772169865E+01  0.51100000000E-03 0.  1.
        -11    1    4    4    0    0  0.63474160705E+01  0.12826929563E+02 -0.13620056718E+02  0.19756663637E+02  0.51100000000E-03 0. -1.
         12    1    4    4    0    0  0.53027053252E+01 -0.17332776705E+01 -0.23603049335E+02  0.24253388900E+02  0.00000000000E+00 0. -1.
</event>
<event>
 8    1  0.2994958E-010  0.9118800E+02  0.7816164E-02  0.1184000E+00
        -11   -1    0    0    0    0  0.00000000000E+00  0.00000000000E+00  0.45593999997E+02  0.45594000000E+02  0.51100000000E-03 0. -1.
         11   -1    0    0    0    0 -0.00000000000E+00 -0.00000000000E+00 -0.45593999997E+02  0.45594000000E+02  0.51100000000E-03 0.  1.
         23    2    1    2    0    0  0.17763568394E-14  0.00000000000E+00  0.71054273576E-14  0.91188000000E+02  0.91188000000E+02 0.  0.
    9900012    2    3    3    0    0 -0.43017993249E+01 -0.30561062545E+02 -0.30514571553E+02  0.47787273066E+02  0.20000009218E+02 0.  0.
         12    1    3    3    0    0  0.43017993249E+01  0.30561062545E+02  0.30514571553E+02  0.43400726934E+02  0.00000000000E+00 0. -1.
         11    1    4    4    0    0 -0.82253889579E+01 -0.10353166553E+02 -0.12382845732E+02  0.18115737630E+02  0.51100000000E-03 0. -1.
        -11    1    4    4    0    0 -0.26580845045E+01 -0.50912374688E+01 -0.93975351903E+01  0.11013617939E+02  0.51100000000E-03 0.  1.
        -12    1    4    4    0    0  0.65816741375E+01 -0.15116658523E+02 -0.87341906308E+01  0.18657917497E+02  0.00000000000E+00 0.  1.
</event>
<event>
 8    1  0.2994958E-010  0.9118800E+02  0.7816164E-02  0.1184000E+00
        -11   -1    0    0    0    0  0.00000000000E+00  0.00000000000E+00  0.45593999997E+02  0.45594000000E+02  0.51100000000E-03 0. -1.
         11   -1    0    0    0    0 -0.00000000000E+00 -0.00000000000E+00 -0.45593999997E+02  0.45594000000E+02  0.51100000000E-03 0.  1.
         23    2    1    2    0    0  0.00000000000E+00  0.00000000000E+00  0.00000000000E+00  0.91188000000E+02  0.91188000000E+02 0.  0.
    9900012    2    3    3    0    0 -0.40700886063E+02  0.14574737551E+02 -0.38260255268E+01  0.47787267606E+02  0.19999984323E+02 0.  0.
         12    1    3    3    0    0  0.40700886063E+02 -0.14574737551E+02  0.38260255268E+01  0.43400732394E+02  0.00000000000E+00 0. -1.
         11    1    4    4    0    0 -0.16368407881E+02  0.33694554327E+01 -0.62681654766E+01  0.17848470668E+02  0.51100000000E-03 0. -1.
        -11    1    4    4    0    0 -0.66347345715E+01  0.65750659908E+01 -0.45052732178E+01  0.10370568097E+02  0.51100000000E-03 0.  1.
         12    1    4    4    0    0 -0.17697743611E+02  0.46302161271E+01  0.69474131675E+01  0.19568228842E+02  0.00000000000E+00 0. -1.
</event>
<event>
 8    1  0.2994958E-010  0.9118800E+02  0.7816164E-02  0.1184000E+00
        -11   -1    0    0    0    0  0.00000000000E+00  0.00000000000E+00  0.45593999997E+02  0.45594000000E+02  0.51100000000E-03 0. -1.
         11   -1    0    0    0    0 -0.00000000000E+00 -0.00000000000E+00 -0.45593999997E+02  0.45594000000E+02  0.51100000000E-03 0.  1.
         23    2    1    2    0    0  0.00000000000E+00  0.00000000000E+00  0.35527136788E-14  0.91188000000E+02  0.91188000000E+02 0.  0.
    9900012    2    3    3    0    0  0.25059393335E+02 -0.30479778708E+02  0.18073006473E+02  0.47787266511E+02  0.19999979331E+02 0.  0.
        -12    1    3    3    0    0 -0.25059393335E+02  0.30479778708E+02 -0.18073006473E+02  0.43400733489E+02  0.00000000000E+00 0.  1.
         11    1    4    4    0    0  0.72170175478E+01 -0.93048224620E+01  0.11798408952E+02  0.16669358638E+02  0.51100000000E-03 0. -1.
        -11    1    4    4    0    0  0.13832676327E+02 -0.10779520685E+02  0.89071045344E+01  0.19669202120E+02  0.51100000000E-03 0.  1.
         12    1    4    4    0    0  0.40096994598E+01 -0.10395435561E+02 -0.26325070138E+01  0.11448705754E+02  0.00000000000E+00 0. -1.
</event>
<event>
 8    1  0.2994958E-010  0.9118800E+02  0.7816164E-02  0.1184000E+00
        -11   -1    0    0    0    0  0.00000000000E+00  0.00000000000E+00  0.45593999997E+02  0.45594000000E+02  0.51100000000E-03 0. -1.
         11   -1    0    0    0    0 -0.00000000000E+00 -0.00000000000E+00 -0.45593999997E+02  0.45594000000E+02  0.51100000000E-03 0.  1.
         23    2    1    2    0    0  0.26367796835E-15  0.00000000000E+00  0.00000000000E+00  0.91188000000E+02  0.91188000000E+02 0.  0.
    9900012    2    3    3    0    0  0.69618767233E-01  0.12813953723E+02 -0.41465900489E+02  0.47787272354E+02  0.20000005972E+02 0.  0.
         12    1    3    3    0    0 -0.69618767233E-01 -0.12813953723E+02  0.41465900489E+02  0.43400727646E+02  0.00000000000E+00 0. -1.
         11    1    4    4    0    0  0.43978962916E+01  0.63870804484E+00 -0.19512813729E+02  0.20012479598E+02  0.51100000000E-03 0.  1.
        -11    1    4    4    0    0 -0.28765653180E+01  0.32803507950E+01 -0.36172051103E+00  0.43779186100E+01  0.51100000000E-03 0. -1.
         12    1    4    4    0    0 -0.14517122064E+01  0.88948948835E+01 -0.21591366249E+02  0.23396874146E+02  0.00000000000E+00 0. -1.
</event>
<event>
 8    1  0.2994958E-010  0.9118800E+02  0.7816164E-02  0.1184000E+00
        -11   -1    0    0    0    0  0.00000000000E+00  0.00000000000E+00  0.45593999997E+02  0.45594000000E+02  0.51100000000E-03 0. -1.
         11   -1    0    0    0    0 -0.00000000000E+00 -0.00000000000E+00 -0.45593999997E+02  0.45594000000E+02  0.51100000000E-03 0.  1.
         23    2    1    2    0    0 -0.88817841970E-15  0.00000000000E+00  0.00000000000E+00  0.91188000000E+02  0.91188000000E+02 0.  0.
    9900012    2    3    3    0    0 -0.61351245942E+01 -0.28107418841E+02 -0.32495501052E+02  0.47787258805E+02  0.19999944194E+02 0.  0.
         12    1    3    3    0    0  0.61351245942E+01  0.28107418841E+02  0.32495501052E+02  0.43400741195E+02  0.00000000000E+00 0. -1.
         11    1    4    4    0    0  0.34242281430E+01 -0.10601740169E+02 -0.10514232539E+02  0.15318985578E+02  0.51100000000E-03 0. -1.
        -11    1    4    4    0    0 -0.79649746798E+00 -0.63169881838E+01 -0.15677714215E+02  0.16921272741E+02  0.51100000000E-03 0.  1.
         12    1    4    4    0    0 -0.87628552692E+01 -0.11188690487E+02 -0.63035542984E+01  0.15547000485E+02  0.00000000000E+00 0. -1.
</event>
<event>
 8    1  0.2994958E-010  0.9118800E+02  0.7816164E-02  0.1184000E+00
        -11   -1    0    0    0    0  0.00000000000E+00  0.00000000000E+00  0.45593999997E+02  0.45594000000E+02  0.51100000000E-03 0. -1.
         11   -1    0    0    0    0 -0.00000000000E+00 -0.00000000000E+00 -0.45593999997E+02  0.45594000000E+02  0.51100000000E-03 0.  1.
         23    2    1    2    0    0  0.00000000000E+00 -0.35527136788E-14  0.00000000000E+00  0.91188000000E+02  0.91188000000E+02 0.  0.
    9900012    2    3    3    0    0  0.22453532796E+02 -0.16704972228E+02 -0.33172371820E+02  0.47787268620E+02  0.19999988945E+02 0.  0.
         12    1    3    3    0    0 -0.22453532796E+02  0.16704972228E+02  0.33172371820E+02  0.43400731380E+02  0.00000000000E+00 0. -1.
         11    1    4    4    0    0  0.33145149669E+01 -0.20144870865E+00  0.11729663071E+01  0.35217099919E+01  0.51100000000E-03 0. -1.
        -11    1    4    4    0    0  0.87611906236E+01 -0.14885649221E+02 -0.19091719463E+02  0.25745577605E+02  0.51100000000E-03 0.  1.
         12    1    4    4    0    0  0.10377827206E+02 -0.16178742982E+01 -0.15253618664E+02  0.18519981023E+02  0.00000000000E+00 0. -1.
</event>
<event>
 8    1  0.2994958E-010  0.9118800E+02  0.7816164E-02  0.1184000E+00
        -11   -1    0    0    0    0  0.00000000000E+00  0.00000000000E+00  0.45593999997E+02  0.45594000000E+02  0.51100000000E-03 0. -1.
         11   -1    0    0    0    0 -0.00000000000E+00 -0.00000000000E+00 -0.45593999997E+02  0.45594000000E+02  0.51100000000E-03 0.  1.
         23    2    1    2    0    0  0.00000000000E+00  0.00000000000E+00  0.00000000000E+00  0.91188000000E+02  0.91188000000E+02 0.  0.
    9900012    2    3    3    0    0 -0.50450462822E+01 -0.16468406649E+02 -0.39836690020E+02  0.47787276719E+02  0.20000025872E+02 0.  0.
         12    1    3    3    0    0  0.50450462822E+01  0.16468406649E+02  0.39836690020E+02  0.43400723281E+02  0.00000000000E+00 0. -1.
         11    1    4    4    0    0  0.35161769218E+01  0.18489357175E+01 -0.45661051364E+01  0.60523862906E+01  0.51100000000E-03 0. -1.
        -11    1    4    4    0    0  0.10818253421E+01 -0.69780398758E+01 -0.15070609914E+02  0.16642916512E+02  0.51100000000E-03 0.  1.
         12    1    4    4    0    0 -0.96430485461E+01 -0.11339302491E+02 -0.20199974970E+02  0.25091973916E+02  0.00000000000E+00 0. -1.
</event>
<event>
 8    1  0.2994958E-010  0.9118800E+02  0.7816164E-02  0.1184000E+00
        -11   -1    0    0    0    0  0.00000000000E+00  0.00000000000E+00  0.45593999997E+02  0.45594000000E+02  0.51100000000E-03 0. -1.
         11   -1    0    0    0    0 -0.00000000000E+00 -0.00000000000E+00 -0.45593999997E+02  0.45594000000E+02  0.51100000000E-03 0.  1.
         23    2    1    2    0    0  0.00000000000E+00  0.00000000000E+00  0.00000000000E+00  0.91188000000E+02  0.91188000000E+02 0.  0.
    9900012    2    3    3    0    0  0.47923257146E+01 -0.11246477460E+02  0.41643411966E+02  0.47787269578E+02  0.19999993313E+02 0.  0.
        -12    1    3    3    0    0 -0.47923257146E+01  0.11246477460E+02 -0.41643411966E+02  0.43400730422E+02  0.00000000000E+00 0.  1.
         11    1    4    4    0    0 -0.30027325809E+01 -0.10875522221E+02  0.15074319865E+02  0.18828927377E+02  0.51100000000E-03 0. -1.
        -11    1    4    4    0    0  0.16756482856E+01 -0.39828663798E+01  0.11864089725E+02  0.12626466134E+02  0.51100000000E-03 0.  1.
        -12    1    4    4    0    0  0.61194100099E+01  0.36119111408E+01  0.14705002376E+02  0.16331876066E+02  0.00000000000E+00 0.  1.
</event>
<event>
 8    1  0.2994958E-010  0.9118800E+02  0.7816164E-02  0.1184000E+00
        -11   -1    0    0    0    0  0.00000000000E+00  0.00000000000E+00  0.45593999997E+02  0.45594000000E+02  0.51100000000E-03 0. -1.
         11   -1    0    0    0    0 -0.00000000000E+00 -0.00000000000E+00 -0.45593999997E+02  0.45594000000E+02  0.51100000000E-03 0.  1.
         23    2    1    2    0    0  0.17763568394E-14  0.35527136788E-14  0.00000000000E+00  0.91188000000E+02  0.91188000000E+02 0.  0.
    9900012    2    3    3    0    0  0.13092952317E+02  0.25294840195E+02  0.32747046931E+02  0.47787269320E+02  0.19999992136E+02 0.  0.
        -12    1    3    3    0    0 -0.13092952317E+02 -0.25294840195E+02 -0.32747046931E+02  0.43400730680E+02  0.00000000000E+00 0.  1.
         11    1    4    4    0    0  0.72611724554E+01  0.20908251669E+01  0.12223716082E+02  0.14370644050E+02  0.51100000000E-03 0. -1.
        -11    1    4    4    0    0  0.26551610509E+01  0.40350386589E+01 -0.41946418596E+00  0.48484397129E+01  0.51100000000E-03 0.  1.
         12    1    4    4    0    0  0.31766188107E+01  0.19168976369E+02  0.20942795035E+02  0.28568185557E+02  0.00000000000E+00 0. -1.
</event>
<event>
 8    1  0.2994958E-010  0.9118800E+02  0.7816164E-02  0.1184000E+00
        -11   -1    0    0    0    0  0.00000000000E+00  0.00000000000E+00  0.45593999997E+02  0.45594000000E+02  0.51100000000E-03 0. -1.
         11   -1    0    0    0    0 -0.00000000000E+00 -0.00000000000E+00 -0.45593999997E+02  0.45594000000E+02  0.51100000000E-03 0.  1.
         23    2    1    2    0    0  0.00000000000E+00  0.00000000000E+00  0.00000000000E+00  0.91188000000E+02  0.91188000000E+02 0.  0.
    9900012    2    3    3    0    0  0.23020755517E+02  0.48263854660E+01 -0.36474286957E+02  0.47787276616E+02  0.20000025402E+02 0.  0.
         12    1    3    3    0    0 -0.23020755517E+02 -0.48263854660E+01  0.36474286957E+02  0.43400723384E+02  0.00000000000E+00 0. -1.
         11    1    4    4    0    0  0.41286132010E+01 -0.16485261546E+01  0.24030967441E+00  0.44520595736E+01  0.51100000000E-03 0. -1.
        -11    1    4    4    0    0  0.80651220592E+01  0.47287012029E+01 -0.70531833771E+01  0.11711285365E+02  0.51100000000E-03 0.  1.
        -12    1    4    4    0    0  0.10827020257E+02  0.17462104177E+01 -0.29661413254E+02  0.31623931677E+02  0.00000000000E+00 0.  1.
</event>
<event>
 8    1  0.2994958E-010  0.9118800E+02  0.7816164E-02  0.1184000E+00
        -11   -1    0    0    0    0  0.00000000000E+00  0.00000000000E+00  0.45593999997E+02  0.45594000000E+02  0.51100000000E-03 0. -1.
         11   -1    0    0    0    0 -0.00000000000E+00 -0.00000000000E+00 -0.45593999997E+02  0.45594000000E+02  0.51100000000E-03 0.  1.
         23    2    1    2    0    0  0.00000000000E+00  0.00000000000E+00  0.00000000000E+00  0.91188000000E+02  0.91188000000E+02 0.  0.
    9900012    2    3    3    0    0 -0.10917076337E+02  0.25111188032E+02  0.33672970409E+02  0.47787271247E+02  0.20000000922E+02 0.  0.
        -12    1    3    3    0    0  0.10917076337E+02 -0.25111188032E+02 -0.33672970409E+02  0.43400728753E+02  0.00000000000E+00 0.  1.
         11    1    4    4    0    0 -0.47481829203E+01  0.89480108911E+01  0.21061213200E+02  0.23370640591E+02  0.51100000000E-03 0.  1.
        -11    1    4    4    0    0 -0.90287849648E+01  0.12668739463E+02  0.12403490265E+02  0.19896293337E+02  0.51100000000E-03 0. -1.
        -12    1    4    4    0    0  0.28598915483E+01  0.34944376775E+01  0.20826694451E+00  0.45203373182E+01  0.00000000000E+00 0.  1.
</event>
<event>
 8    1  0.2994958E-010  0.9118800E+02  0.7816164E-02  0.1184000E+00
        -11   -1    0    0    0    0  0.00000000000E+00  0.00000000000E+00  0.45593999997E+02  0.45594000000E+02  0.51100000000E-03 0. -1.
         11   -1    0    0    0    0 -0.00000000000E+00 -0.00000000000E+00 -0.45593999997E+02  0.45594000000E+02  0.51100000000E-03 0.  1.
         23    2    1    2    0    0  0.00000000000E+00 -0.88817841970E-15  0.00000000000E+00  0.91188000000E+02  0.91188000000E+02 0.  0.
    9900012    2    3    3    0    0  0.57877204564E+01 -0.74344840883E+01  0.42365717662E+02  0.47787270804E+02  0.19999998904E+02 0.  0.
        -12    1    3    3    0    0 -0.57877204564E+01  0.74344840883E+01 -0.42365717662E+02  0.43400729196E+02  0.00000000000E+00 0.  1.
         11    1    4    4    0    0  0.53565554051E+01  0.22075062200E+01  0.16250157930E+02  0.17252055023E+02  0.51100000000E-03 0. -1.
        -11    1    4    4    0    0  0.96801537127E+00  0.23302796514E+01  0.10138435665E+01  0.27193999432E+01  0.51100000000E-03 0.  1.
         12    1    4    4    0    0 -0.53685032002E+00 -0.11972269960E+02  0.25101716166E+02  0.27815815838E+02  0.00000000000E+00 0. -1.
</event>
<event>
 8    1  0.2994958E-010  0.9118800E+02  0.7816164E-02  0.1184000E+00
        -11   -1    0    0    0    0  0.00000000000E+00  0.00000000000E+00  0.45593999997E+02  0.45594000000E+02  0.51100000000E-03 0.  1.
         11   -1    0    0    0    0 -0.00000000000E+00 -0.00000000000E+00 -0.45593999997E+02  0.45594000000E+02  0.51100000000E-03 0. -1.
         23    2    1    2    0    0  0.00000000000E+00 -0.17763568394E-14 -0.17763568394E-14  0.91188000000E+02  0.91188000000E+02 0.  0.
    9900012    2    3    3    0    0 -0.38858410864E+02 -0.11779435801E+02 -0.15326177092E+02  0.47787275272E+02  0.20000019274E+02 0.  0.
         12    1    3    3    0    0  0.38858410864E+02  0.11779435801E+02  0.15326177092E+02  0.43400724728E+02  0.00000000000E+00 0. -1.
         11    1    4    4    0    0 -0.17303374669E+02 -0.87243687666E+01 -0.14312083449E+02  0.24090602281E+02  0.51100000000E-03 0.  1.
        -11    1    4    4    0    0 -0.86045790094E+00 -0.27219951585E+01  0.66573908127E+00  0.29313570624E+01  0.51100000000E-03 0. -1.
        -12    1    4    4    0    0 -0.20694578294E+02 -0.33307187568E+00 -0.16798327238E+01  0.20765315929E+02  0.00000000000E+00 0.  1.
</event>
<event>
 8    1  0.2994958E-010  0.9118800E+02  0.7816164E-02  0.1184000E+00
        -11   -1    0    0    0    0  0.00000000000E+00  0.00000000000E+00  0.45593999997E+02  0.45594000000E+02  0.51100000000E-03 0. -1.
         11   -1    0    0    0    0 -0.00000000000E+00 -0.00000000000E+00 -0.45593999997E+02  0.45594000000E+02  0.51100000000E-03 0.  1.
         23    2    1    2    0    0  0.35527136788E-14  0.00000000000E+00  0.35527136788E-14  0.91188000000E+02  0.91188000000E+02 0.  0.
    9900012    2    3    3    0    0  0.15633708127E+02 -0.26608724549E+02  0.30515344425E+02  0.47787270775E+02  0.19999998770E+02 0.  0.
        -12    1    3    3    0    0 -0.15633708127E+02  0.26608724549E+02 -0.30515344425E+02  0.43400729225E+02  0.00000000000E+00 0.  1.
         11    1    4    4    0    0  0.66771954578E+01 -0.12125440397E+02  0.15006606869E+02  0.20415912764E+02  0.51100000000E-03 0. -1.
        -11    1    4    4    0    0  0.75417436358E+01 -0.22307616493E+01  0.12346240546E+02  0.14638437433E+02  0.51100000000E-03 0.  1.
         12    1    4    4    0    0  0.14147690332E+01 -0.12252522503E+02  0.31624970102E+01  0.12732920578E+02  0.00000000000E+00 0. -1.
</event>
<event>
 8    1  0.2994958E-010  0.9118800E+02  0.7816164E-02  0.1184000E+00
        -11   -1    0    0    0    0  0.00000000000E+00  0.00000000000E+00  0.45593999997E+02  0.45594000000E+02  0.51100000000E-03 0. -1.
         11   -1    0    0    0    0 -0.00000000000E+00 -0.00000000000E+00 -0.45593999997E+02  0.45594000000E+02  0.51100000000E-03 0.  1.
         23    2    1    2    0    0 -0.35527136788E-14  0.00000000000E+00 -0.71054273576E-14  0.91188000000E+02  0.91188000000E+02 0.  0.
    9900012    2    3    3    0    0  0.31727705706E+02  0.16976919876E+02 -0.24264376584E+02  0.47787273176E+02  0.20000009718E+02 0.  0.
         12    1    3    3    0    0 -0.31727705706E+02 -0.16976919876E+02  0.24264376584E+02  0.43400726824E+02  0.00000000000E+00 0. -1.
         11    1    4    4    0    0  0.87615466621E+00  0.33272044464E+01 -0.60525232351E+01  0.69621098957E+01  0.51100000000E-03 0. -1.
        -11    1    4    4    0    0  0.20726772684E+02  0.11379017697E+02 -0.19121491060E+02  0.30409086969E+02  0.51100000000E-03 0.  1.
         12    1    4    4    0    0  0.10124778356E+02  0.22706977326E+01  0.90963771174E+00  0.10416076311E+02  0.00000000000E+00 0. -1.
</event>
<event>
 8    1  0.2994958E-010  0.9118800E+02  0.7816164E-02  0.1184000E+00
        -11   -1    0    0    0    0  0.00000000000E+00  0.00000000000E+00  0.45593999997E+02  0.45594000000E+02  0.51100000000E-03 0. -1.
         11   -1    0    0    0    0 -0.00000000000E+00 -0.00000000000E+00 -0.45593999997E+02  0.45594000000E+02  0.51100000000E-03 0.  1.
         23    2    1    2    0    0 -0.71054273576E-14 -0.71054273576E-14  0.62450045135E-16  0.91188000000E+02  0.91188000000E+02 0.  0.
    9900012    2    3    3    0    0 -0.35093135291E+02 -0.25536111776E+02  0.45361778517E-01  0.47787271816E+02  0.20000003519E+02 0.  0.
         12    1    3    3    0    0  0.35093135291E+02  0.25536111776E+02 -0.45361778517E-01  0.43400728184E+02  0.00000000000E+00 0. -1.
         11    1    4    4    0    0 -0.19190352205E+02 -0.12996100663E+02  0.21695678389E+01  0.23278214602E+02  0.51100000000E-03 0. -1.
        -11    1    4    4    0    0 -0.53013369831E+01 -0.12555210667E+02  0.30858159958E+00  0.13632047225E+02  0.51100000000E-03 0.  1.
         12    1    4    4    0    0 -0.10601446103E+02  0.15199553615E-01 -0.24327876600E+01  0.10877009989E+02  0.00000000000E+00 0. -1.
</event>
<event>
 8    1  0.2994958E-010  0.9118800E+02  0.7816164E-02  0.1184000E+00
        -11   -1    0    0    0    0  0.00000000000E+00  0.00000000000E+00  0.45593999997E+02  0.45594000000E+02  0.51100000000E-03 0. -1.
         11   -1    0    0    0    0 -0.00000000000E+00 -0.00000000000E+00 -0.45593999997E+02  0.45594000000E+02  0.51100000000E-03 0.  1.
         23    2    1    2    0    0  0.00000000000E+00 -0.71054273576E-14  0.00000000000E+00  0.91188000000E+02  0.91188000000E+02 0.  0.
    9900012    2    3    3    0    0  0.16300225371E+02  0.39330218847E+02  0.84297429353E+01  0.47787262361E+02  0.19999960408E+02 0.  0.
        -12    1    3    3    0    0 -0.16300225371E+02 -0.39330218847E+02 -0.84297429353E+01  0.43400737639E+02  0.00000000000E+00 0.  1.
         11    1    4    4    0    0 -0.68257984255E+00  0.30263494317E+01 -0.30723161986E+01  0.43662149752E+01  0.51100000000E-03 0.  1.
        -11    1    4    4    0    0 -0.10919574523E+01  0.92544072380E+01  0.20238823005E+01  0.95358546671E+01  0.51100000000E-03 0. -1.
         12    1    4    4    0    0  0.18074762666E+02  0.27049462177E+02  0.94781768334E+01  0.33885192719E+02  0.00000000000E+00 0. -1.
</event>
<event>
 8    1  0.2994958E-010  0.9118800E+02  0.7816164E-02  0.1184000E+00
        -11   -1    0    0    0    0  0.00000000000E+00  0.00000000000E+00  0.45593999997E+02  0.45594000000E+02  0.51100000000E-03 0. -1.
         11   -1    0    0    0    0 -0.00000000000E+00 -0.00000000000E+00 -0.45593999997E+02  0.45594000000E+02  0.51100000000E-03 0.  1.
         23    2    1    2    0    0  0.11102230246E-15  0.17763568394E-14 -0.71054273576E-14  0.91188000000E+02  0.91188000000E+02 0.  0.
    9900012    2    3    3    0    0  0.93183793888E+00 -0.11842295753E+02 -0.41743450581E+02  0.47787263174E+02  0.19999964114E+02 0.  0.
         12    1    3    3    0    0 -0.93183793888E+00  0.11842295753E+02  0.41743450581E+02  0.43400736826E+02  0.00000000000E+00 0. -1.
         11    1    4    4    0    0 -0.55600967257E+01 -0.38452193809E+01 -0.13809484384E+02  0.15375377943E+02  0.51100000000E-03 0. -1.
        -11    1    4    4    0    0 -0.32193220829E+01  0.40467772737E-01 -0.26900731655E+01  0.41954935598E+01  0.51100000000E-03 0.  1.
         12    1    4    4    0    0  0.97112567475E+01 -0.80375441448E+01 -0.25243893032E+02  0.28216391671E+02  0.00000000000E+00 0. -1.
</event>
<event>
 8    1  0.2994958E-010  0.9118800E+02  0.7816164E-02  0.1184000E+00
        -11   -1    0    0    0    0  0.00000000000E+00  0.00000000000E+00  0.45593999997E+02  0.45594000000E+02  0.51100000000E-03 0.  1.
         11   -1    0    0    0    0 -0.00000000000E+00 -0.00000000000E+00 -0.45593999997E+02  0.45594000000E+02  0.51100000000E-03 0. -1.
         23    2    1    2    0    0 -0.71054273576E-14  0.00000000000E+00  0.00000000000E+00  0.91188000000E+02  0.91188000000E+02 0.  0.
    9900012    2    3    3    0    0 -0.32893296981E+02  0.27327553355E+02  0.74066975921E+01  0.47787270422E+02  0.19999997164E+02 0.  0.
        -12    1    3    3    0    0  0.32893296981E+02 -0.27327553355E+02 -0.74066975921E+01  0.43400729578E+02  0.00000000000E+00 0.  1.
         11    1    4    4    0    0 -0.90470420514E+01  0.43425597880E+01 -0.80277001223E+00  0.10067335067E+02  0.51100000000E-03 0. -1.
        -11    1    4    4    0    0 -0.18486706198E+02  0.68748684017E+01  0.29319931239E+01  0.19940378771E+02  0.51100000000E-03 0.  1.
         12    1    4    4    0    0 -0.53595487310E+01  0.16110125165E+02  0.52774744804E+01  0.17779556584E+02  0.00000000000E+00 0. -1.
</event>
<event>
 8    1  0.2994958E-010  0.9118800E+02  0.7816164E-02  0.1184000E+00
        -11   -1    0    0    0    0  0.00000000000E+00  0.00000000000E+00  0.45593999997E+02  0.45594000000E+02  0.51100000000E-03 0. -1.
         11   -1    0    0    0    0 -0.00000000000E+00 -0.00000000000E+00 -0.45593999997E+02  0.45594000000E+02  0.51100000000E-03 0.  1.
         23    2    1    2    0    0  0.00000000000E+00 -0.35527136788E-14  0.00000000000E+00  0.91188000000E+02  0.91188000000E+02 0.  0.
    9900012    2    3    3    0    0 -0.16376348470E+02  0.21934145125E+02 -0.33679843538E+02  0.47787269910E+02  0.19999994830E+02 0.  0.
         12    1    3    3    0    0  0.16376348470E+02 -0.21934145125E+02  0.33679843538E+02  0.43400730090E+02  0.00000000000E+00 0. -1.
         11    1    4    4    0    0 -0.25821220874E+01  0.86213782872E+01 -0.52337317259E+01  0.10410930126E+02  0.51100000000E-03 0. -1.
        -11    1    4    4    0    0 -0.12116403499E+02  0.14938361293E+02 -0.29161073808E+02  0.34933223410E+02  0.51100000000E-03 0.  1.
         12    1    4    4    0    0 -0.16778228840E+01 -0.16255944560E+01  0.71496199623E+00  0.24431163749E+01  0.00000000000E+00 0. -1.
</event>
<event>
 8    1  0.2994958E-010  0.9118800E+02  0.7816164E-02  0.1184000E+00
        -11   -1    0    0    0    0  0.00000000000E+00  0.00000000000E+00  0.45593999997E+02  0.45594000000E+02  0.51100000000E-03 0. -1.
         11   -1    0    0    0    0 -0.00000000000E+00 -0.00000000000E+00 -0.45593999997E+02  0.45594000000E+02  0.51100000000E-03 0.  1.
         23    2    1    2    0    0 -0.44408920985E-15  0.00000000000E+00  0.00000000000E+00  0.91188000000E+02  0.91188000000E+02 0.  0.
    9900012    2    3    3    0    0 -0.22804830226E+01 -0.22480581380E+02 -0.37054642860E+02  0.47787266142E+02  0.19999977646E+02 0.  0.
         12    1    3    3    0    0  0.22804830226E+01  0.22480581380E+02  0.37054642860E+02  0.43400733858E+02  0.00000000000E+00 0. -1.
         11    1    4    4    0    0 -0.34444737723E+00  0.82388305885E-01 -0.68002943030E+00  0.76672818901E+00  0.51100000000E-03 0. -1.
        -11    1    4    4    0    0 -0.64098825304E+01 -0.11609256072E+02 -0.62593596591E+01  0.14664276464E+02  0.51100000000E-03 0.  1.
        -12    1    4    4    0    0  0.44738468850E+01 -0.10953713613E+02 -0.30115253770E+02  0.32356261489E+02  0.00000000000E+00 0.  1.
</event>
<event>
 8    1  0.2994958E-010  0.9118800E+02  0.7816164E-02  0.1184000E+00
        -11   -1    0    0    0    0  0.00000000000E+00  0.00000000000E+00  0.45593999997E+02  0.45594000000E+02  0.51100000000E-03 0. -1.
         11   -1    0    0    0    0 -0.00000000000E+00 -0.00000000000E+00 -0.45593999997E+02  0.45594000000E+02  0.51100000000E-03 0.  1.
         23    2    1    2    0    0 -0.71054273576E-14  0.35527136788E-14  0.88817841970E-15  0.91188000000E+02  0.91188000000E+02 0.  0.
    9900012    2    3    3    0    0 -0.31376054888E+02  0.29960004521E+02 -0.12507042337E+01  0.47787274749E+02  0.20000016890E+02 0.  0.
         12    1    3    3    0    0  0.31376054888E+02 -0.29960004521E+02  0.12507042337E+01  0.43400725251E+02  0.00000000000E+00 0. -1.
         11    1    4    4    0    0 -0.12445673133E+02  0.10047327211E+02  0.45919270737E+01  0.16641194618E+02  0.51100000000E-03 0. -1.
        -11    1    4    4    0    0 -0.18058220980E+02  0.15521916663E+02 -0.33722181638E-01  0.23812399696E+02  0.51100000000E-03 0.  1.
         12    1    4    4    0    0 -0.87216077523E+00  0.43907606483E+01 -0.58089091258E+01  0.73336804348E+01  0.00000000000E+00 0. -1.
</event>
<event>
 8    1  0.2994958E-010  0.9118800E+02  0.7816164E-02  0.1184000E+00
        -11   -1    0    0    0    0  0.00000000000E+00  0.00000000000E+00  0.45593999997E+02  0.45594000000E+02  0.51100000000E-03 0.  1.
         11   -1    0    0    0    0 -0.00000000000E+00 -0.00000000000E+00 -0.45593999997E+02  0.45594000000E+02  0.51100000000E-03 0. -1.
         23    2    1    2    0    0  0.00000000000E+00 -0.22204460493E-15  0.00000000000E+00  0.91188000000E+02  0.91188000000E+02 0.  0.
    9900012    2    3    3    0    0 -0.42689779959E+02 -0.97589612962E+00  0.77622700867E+01  0.47787279694E+02  0.20000039437E+02 0.  0.
        -12    1    3    3    0    0  0.42689779959E+02  0.97589612962E+00 -0.77622700867E+01  0.43400720306E+02  0.00000000000E+00 0.  1.
         11    1    4    4    0    0 -0.23707065210E+02 -0.53397774979E+00  0.52689313861E+00  0.23718931041E+02  0.51100000000E-03 0. -1.
        -11    1    4    4    0    0 -0.55316787547E+01  0.17276116173E+01 -0.34578104742E+01  0.67483750105E+01  0.51100000000E-03 0.  1.
        -12    1    4    4    0    0 -0.13451035994E+02 -0.21695299971E+01  0.10693187422E+02  0.17319973642E+02  0.00000000000E+00 0.  1.
</event>
<event>
 8    1  0.2994958E-010  0.9118800E+02  0.7816164E-02  0.1184000E+00
        -11   -1    0    0    0    0  0.00000000000E+00  0.00000000000E+00  0.45593999997E+02  0.45594000000E+02  0.51100000000E-03 0. -1.
         11   -1    0    0    0    0 -0.00000000000E+00 -0.00000000000E+00 -0.45593999997E+02  0.45594000000E+02  0.51100000000E-03 0.  1.
         23    2    1    2    0    0  0.00000000000E+00  0.00000000000E+00  0.00000000000E+00  0.91188000000E+02  0.91188000000E+02 0.  0.
    9900012    2    3    3    0    0  0.35337451630E+02 -0.11562371327E+02 -0.22387475341E+02  0.47787274539E+02  0.20000015932E+02 0.  0.
         12    1    3    3    0    0 -0.35337451630E+02  0.11562371327E+02  0.22387475341E+02  0.43400725461E+02  0.00000000000E+00 0. -1.
         11    1    4    4    0    0  0.15275104997E+02  0.60499332440E+00 -0.10079706783E+02  0.18311071479E+02  0.51100000000E-03 0. -1.
        -11    1    4    4    0    0  0.13225985680E+02 -0.83069913309E+01 -0.14514003405E+02  0.21321095124E+02  0.51100000000E-03 0.  1.
        -12    1    4    4    0    0  0.68363609535E+01 -0.38603733201E+01  0.22062348473E+01  0.81551079367E+01  0.00000000000E+00 0.  1.
</event>
<event>
 8    1  0.2994958E-010  0.9118800E+02  0.7816164E-02  0.1184000E+00
        -11   -1    0    0    0    0  0.00000000000E+00  0.00000000000E+00  0.45593999997E+02  0.45594000000E+02  0.51100000000E-03 0. -1.
         11   -1    0    0    0    0 -0.00000000000E+00 -0.00000000000E+00 -0.45593999997E+02  0.45594000000E+02  0.51100000000E-03 0.  1.
         23    2    1    2    0    0  0.00000000000E+00  0.00000000000E+00  0.00000000000E+00  0.91188000000E+02  0.91188000000E+02 0.  0.
    9900012    2    3    3    0    0 -0.11787321854E+02  0.26255673509E+02 -0.32485717816E+02  0.47787271781E+02  0.20000003357E+02 0.  0.
         12    1    3    3    0    0  0.11787321854E+02 -0.26255673509E+02  0.32485717816E+02  0.43400728219E+02  0.00000000000E+00 0. -1.
         11    1    4    4    0    0 -0.23445457916E+01  0.16152647836E+02 -0.13970555605E+02  0.21484444402E+02  0.51100000000E-03 0. -1.
        -11    1    4    4    0    0 -0.74753235861E+01  0.80379049804E+01 -0.42749932197E+01  0.11779810970E+02  0.51100000000E-03 0.  1.
         12    1    4    4    0    0 -0.19674524764E+01  0.20651206936E+01 -0.14240168992E+02  0.14523016410E+02  0.00000000000E+00 0. -1.
</event>
<event>
 8    1  0.3899244E-010  0.9118800E+02  0.7816164E-02  0.1184000E+00
        -11   -1    0    0    0    0  0.00000000000E+00  0.00000000000E+00  0.45593999997E+02  0.45594000000E+02  0.51100000000E-03 0. -1.
         11   -1    0    0    0    0 -0.00000000000E+00 -0.00000000000E+00 -0.45593999997E+02  0.45594000000E+02  0.51100000000E-03 0.  1.
         23    2    1    2    0    0  0.00000000000E+00  0.00000000000E+00  0.00000000000E+00  0.91188000000E+02  0.91188000000E+02 0.  0.
    9900012    2    3    3    0    0 -0.13276612322E+02  0.14524873524E+02  0.38683110404E+02  0.47787269405E+02  0.19999992527E+02 0.  0.
        -12    1    3    3    0    0  0.13276612322E+02 -0.14524873524E+02 -0.38683110404E+02  0.43400730595E+02  0.00000000000E+00 0.  1.
         11    1    4    4    0    0 -0.65555582039E+01  0.52599617573E+01  0.52758429129E+01  0.99235608405E+01  0.51100000000E-03 0.  1.
        -11    1    4    4    0    0 -0.53966950841E+01 -0.15083149800E+01  0.52176635350E+01  0.76565883353E+01  0.51100000000E-03 0. -1.
         12    1    4    4    0    0 -0.13243590339E+01  0.10773226746E+02  0.28189603956E+02  0.30207120230E+02  0.00000000000E+00 0. -1.
</event>
<event>
 8    1  0.2994958E-010  0.9118800E+02  0.7816164E-02  0.1184000E+00
        -11   -1    0    0    0    0  0.00000000000E+00  0.00000000000E+00  0.45593999997E+02  0.45594000000E+02  0.51100000000E-03 0. -1.
         11   -1    0    0    0    0 -0.00000000000E+00 -0.00000000000E+00 -0.45593999997E+02  0.45594000000E+02  0.51100000000E-03 0.  1.
         23    2    1    2    0    0  0.00000000000E+00  0.00000000000E+00  0.00000000000E+00  0.91188000000E+02  0.91188000000E+02 0.  0.
    9900012    2    3    3    0    0  0.19039880791E+02 -0.21681933408E+02 -0.32419132133E+02  0.47787269303E+02  0.19999992058E+02 0.  0.
         12    1    3    3    0    0 -0.19039880791E+02  0.21681933408E+02  0.32419132133E+02  0.43400730697E+02  0.00000000000E+00 0. -1.
         11    1    4    4    0    0 -0.13624508105E+01 -0.21755078263E+01 -0.98368216765E-01  0.25688096622E+01  0.51100000000E-03 0. -1.
        -11    1    4    4    0    0  0.46360185444E+01 -0.16447796213E+01  0.17786405552E+00  0.49223575480E+01  0.51100000000E-03 0.  1.
        -12    1    4    4    0    0  0.15766313057E+02 -0.17861645960E+02 -0.32498627971E+02  0.40296102092E+02  0.00000000000E+00 0.  1.
</event>
<event>
 8    1  0.2994958E-010  0.9118800E+02  0.7816164E-02  0.1184000E+00
        -11   -1    0    0    0    0  0.00000000000E+00  0.00000000000E+00  0.45593999997E+02  0.45594000000E+02  0.51100000000E-03 0. -1.
         11   -1    0    0    0    0 -0.00000000000E+00 -0.00000000000E+00 -0.45593999997E+02  0.45594000000E+02  0.51100000000E-03 0.  1.
         23    2    1    2    0    0  0.35527136788E-14  0.35527136788E-14 -0.35527136788E-14  0.91188000000E+02  0.91188000000E+02 0.  0.
    9900012    2    3    3    0    0 -0.18075273851E+02  0.28960493844E+02  0.26799204256E+02  0.47787273309E+02  0.20000010326E+02 0.  0.
        -12    1    3    3    0    0  0.18075273851E+02 -0.28960493844E+02 -0.26799204256E+02  0.43400726691E+02  0.00000000000E+00 0.  1.
         11    1    4    4    0    0 -0.53093572926E+01  0.66172355201E+01  0.10673675925E+02  0.13634677804E+02  0.51100000000E-03 0. -1.
        -11    1    4    4    0    0 -0.10705898930E+02  0.50653298489E+01  0.10604327631E+02  0.15897345789E+02  0.51100000000E-03 0.  1.
        -12    1    4    4    0    0 -0.20600176287E+01  0.17277928475E+02  0.55212007000E+01  0.18255249716E+02  0.00000000000E+00 0.  1.
</event>
<event>
 8    1  0.2994958E-010  0.9118800E+02  0.7816164E-02  0.1184000E+00
        -11   -1    0    0    0    0  0.00000000000E+00  0.00000000000E+00  0.45593999997E+02  0.45594000000E+02  0.51100000000E-03 0. -1.
         11   -1    0    0    0    0 -0.00000000000E+00 -0.00000000000E+00 -0.45593999997E+02  0.45594000000E+02  0.51100000000E-03 0.  1.
         23    2    1    2    0    0  0.00000000000E+00  0.00000000000E+00 -0.71054273576E-14  0.91188000000E+02  0.91188000000E+02 0.  0.
    9900012    2    3    3    0    0  0.18370004991E+02  0.18298281309E+02 -0.34804294910E+02  0.47787272744E+02  0.20000007748E+02 0.  0.
         12    1    3    3    0    0 -0.18370004991E+02 -0.18298281309E+02  0.34804294910E+02  0.43400727256E+02  0.00000000000E+00 0. -1.
         11    1    4    4    0    0  0.11807364494E+02  0.13312637242E+02 -0.33180915366E+02  0.37651205976E+02  0.51100000000E-03 0.  1.
        -11    1    4    4    0    0  0.15432184818E+00  0.29285205350E+01 -0.17299597158E+01  0.34048213809E+01  0.51100000000E-03 0. -1.
         12    1    4    4    0    0  0.64083186483E+01  0.20571235313E+01  0.10658017256E+00  0.67312453865E+01  0.00000000000E+00 0. -1.
</event>
<event>
 8    1  0.2994958E-010  0.9118800E+02  0.7816164E-02  0.1184000E+00
        -11   -1    0    0    0    0  0.00000000000E+00  0.00000000000E+00  0.45593999997E+02  0.45594000000E+02  0.51100000000E-03 0. -1.
         11   -1    0    0    0    0 -0.00000000000E+00 -0.00000000000E+00 -0.45593999997E+02  0.45594000000E+02  0.51100000000E-03 0.  1.
         23    2    1    2    0    0  0.00000000000E+00 -0.35527136788E-14  0.00000000000E+00  0.91188000000E+02  0.91188000000E+02 0.  0.
    9900012    2    3    3    0    0 -0.32205543862E+02  0.22941317081E+02 -0.17891955980E+02  0.47787272199E+02  0.20000005263E+02 0.  0.
         12    1    3    3    0    0  0.32205543862E+02 -0.22941317081E+02  0.17891955980E+02  0.43400727801E+02  0.00000000000E+00 0. -1.
         11    1    4    4    0    0 -0.17864668222E+02  0.15268497873E+02 -0.56722362688E+01  0.24175352377E+02  0.51100000000E-03 0.  1.
        -11    1    4    4    0    0 -0.11947709519E+02 -0.21018400420E+00 -0.67671052320E+01  0.13732649181E+02  0.51100000000E-03 0. -1.
         12    1    4    4    0    0 -0.23931661216E+01  0.78830032127E+01 -0.54526144790E+01  0.98792706408E+01  0.00000000000E+00 0. -1.
</event>
<event>
 8    1  0.2994958E-010  0.9118800E+02  0.7816164E-02  0.1184000E+00
        -11   -1    0    0    0    0  0.00000000000E+00  0.00000000000E+00  0.45593999997E+02  0.45594000000E+02  0.51100000000E-03 0. -1.
         11   -1    0    0    0    0 -0.00000000000E+00 -0.00000000000E+00 -0.45593999997E+02  0.45594000000E+02  0.51100000000E-03 0.  1.
         23    2    1    2    0    0  0.00000000000E+00  0.00000000000E+00  0.00000000000E+00  0.91188000000E+02  0.91188000000E+02 0.  0.
    9900012    2    3    3    0    0 -0.13195539402E+02 -0.22534391957E+02 -0.34665577147E+02  0.47787270514E+02  0.19999997580E+02 0.  0.
         12    1    3    3    0    0  0.13195539402E+02  0.22534391957E+02  0.34665577147E+02  0.43400729486E+02  0.00000000000E+00 0. -1.
         11    1    4    4    0    0 -0.68063267636E+01  0.22122535259E+01 -0.58643296669E+01  0.92525948997E+01  0.51100000000E-03 0. -1.
        -11    1    4    4    0    0 -0.97030047516E+00 -0.41971122115E+01 -0.57032983055E+01  0.71473663507E+01  0.51100000000E-03 0.  1.
         12    1    4    4    0    0 -0.54189121634E+01 -0.20549533272E+02 -0.23097949175E+02  0.31387309263E+02  0.00000000000E+00 0. -1.
</event>
<event>
 8    1  0.2994958E-010  0.9118800E+02  0.7816164E-02  0.1184000E+00
        -11   -1    0    0    0    0  0.00000000000E+00  0.00000000000E+00  0.45593999997E+02  0.45594000000E+02  0.51100000000E-03 0. -1.
         11   -1    0    0    0    0 -0.00000000000E+00 -0.00000000000E+00 -0.45593999997E+02  0.45594000000E+02  0.51100000000E-03 0.  1.
         23    2    1    2    0    0 -0.88817841970E-15 -0.35527136788E-14  0.00000000000E+00  0.91188000000E+02  0.91188000000E+02 0.  0.
    9900012    2    3    3    0    0  0.40283064999E+01  0.13997008074E+02  0.40883733371E+02  0.47787272556E+02  0.20000006892E+02 0.  0.
        -12    1    3    3    0    0 -0.40283064999E+01 -0.13997008074E+02 -0.40883733371E+02  0.43400727444E+02  0.00000000000E+00 0.  1.
         11    1    4    4    0    0 -0.35525243715E+01  0.46783226773E+01  0.45714539584E+01  0.74434752662E+01  0.51100000000E-03 0. -1.
        -11    1    4    4    0    0  0.10468915495E+02  0.80131434890E+01  0.21693335765E+02  0.25385221627E+02  0.51100000000E-03 0.  1.
         12    1    4    4    0    0 -0.28880846233E+01  0.13055419076E+01  0.14618943648E+02  0.14958575663E+02  0.00000000000E+00 0. -1.
</event>
<event>
 8    1  0.3593772E-010  0.9118800E+02  0.7816164E-02  0.1184000E+00
        -11   -1    0    0    0    0  0.00000000000E+00  0.00000000000E+00  0.45593999997E+02  0.45594000000E+02  0.51100000000E-03 0. -1.
         11   -1    0    0    0    0 -0.00000000000E+00 -0.00000000000E+00 -0.45593999997E+02  0.45594000000E+02  0.51100000000E-03 0.  1.
         23    2    1    2    0    0  0.00000000000E+00 -0.17763568394E-14  0.00000000000E+00  0.91188000000E+02  0.91188000000E+02 0.  0.
    9900012    2    3    3    0    0 -0.64940855146E+01  0.13888838925E+02  0.40602343422E+02  0.47787270920E+02  0.19999999432E+02 0.  0.
        -12    1    3    3    0    0  0.64940855146E+01 -0.13888838925E+02 -0.40602343422E+02  0.43400729080E+02  0.00000000000E+00 0.  1.
         11    1    4    4    0    0 -0.64838575001E+01  0.41288556837E+01  0.12322003873E+02  0.14523072576E+02  0.51100000000E-03 0. -1.
        -11    1    4    4    0    0 -0.18592570416E+01 -0.25681929245E+01  0.10905515169E+01  0.33528725768E+01  0.51100000000E-03 0.  1.
         12    1    4    4    0    0  0.18490290271E+01  0.12328176166E+02  0.27189788032E+02  0.29911325767E+02  0.00000000000E+00 0. -1.
</event>
<event>
 8    1  0.2994958E-010  0.9118800E+02  0.7816164E-02  0.1184000E+00
        -11   -1    0    0    0    0  0.00000000000E+00  0.00000000000E+00  0.45593999997E+02  0.45594000000E+02  0.51100000000E-03 0.  1.
         11   -1    0    0    0    0 -0.00000000000E+00 -0.00000000000E+00 -0.45593999997E+02  0.45594000000E+02  0.51100000000E-03 0. -1.
         23    2    1    2    0    0  0.00000000000E+00  0.00000000000E+00 -0.17763568394E-14  0.91188000000E+02  0.91188000000E+02 0.  0.
    9900012    2    3    3    0    0  0.36231585021E+02 -0.19903490395E+02 -0.13219123653E+02  0.47787286720E+02  0.20000071473E+02 0.  0.
         12    1    3    3    0    0 -0.36231585021E+02  0.19903490395E+02  0.13219123653E+02  0.43400713280E+02  0.00000000000E+00 0. -1.
         11    1    4    4    0    0  0.99223865556E+01 -0.10162145765E+02 -0.27292132592E+01  0.14462764839E+02  0.51100000000E-03 0.  1.
        -11    1    4    4    0    0  0.97903970449E+01 -0.61903403401E+01 -0.11598544968E+02  0.16392023470E+02  0.51100000000E-03 0. -1.
        -12    1    4    4    0    0  0.16518801420E+02 -0.35510042896E+01  0.11086345733E+01  0.16932498411E+02  0.00000000000E+00 0.  1.
</event>
<event>
 8    1  0.2994958E-010  0.9118800E+02  0.7816164E-02  0.1184000E+00
        -11   -1    0    0    0    0  0.00000000000E+00  0.00000000000E+00  0.45593999997E+02  0.45594000000E+02  0.51100000000E-03 0. -1.
         11   -1    0    0    0    0 -0.00000000000E+00 -0.00000000000E+00 -0.45593999997E+02  0.45594000000E+02  0.51100000000E-03 0.  1.
         23    2    1    2    0    0  0.88817841970E-15  0.00000000000E+00  0.71054273576E-14  0.91188000000E+02  0.91188000000E+02 0.  0.
    9900012    2    3    3    0    0  0.49525105926E+01  0.19191340743E+02  0.38610767948E+02  0.47787235926E+02  0.19999839882E+02 0.  0.
        -12    1    3    3    0    0 -0.49525105926E+01 -0.19191340743E+02 -0.38610767948E+02  0.43400764074E+02  0.00000000000E+00 0.  1.
         11    1    4    4    0    0  0.83039753373E-01 -0.22593875635E+01  0.14491065148E+01  0.26854492576E+01  0.51100000000E-03 0.  1.
        -11    1    4    4    0    0 -0.42208397598E+01  0.73827342565E+01  0.93757136432E+01  0.12657972190E+02  0.51100000000E-03 0. -1.
         12    1    4    4    0    0  0.90903105990E+01  0.14067994050E+02  0.27785947790E+02  0.32443814479E+02  0.00000000000E+00 0. -1.
</event>
<event>
 8    1  0.2994958E-010  0.9118800E+02  0.7816164E-02  0.1184000E+00
        -11   -1    0    0    0    0  0.00000000000E+00  0.00000000000E+00  0.45593999997E+02  0.45594000000E+02  0.51100000000E-03 0. -1.
         11   -1    0    0    0    0 -0.00000000000E+00 -0.00000000000E+00 -0.45593999997E+02  0.45594000000E+02  0.51100000000E-03 0.  1.
         23    2    1    2    0    0  0.71054273576E-14  0.88817841970E-15 -0.35527136788E-14  0.91188000000E+02  0.91188000000E+02 0.  0.
    9900012    2    3    3    0    0  0.38420605874E+02  0.55692471740E+01 -0.19402675340E+02  0.47787270972E+02  0.19999999668E+02 0.  0.
         12    1    3    3    0    0 -0.38420605874E+02 -0.55692471740E+01  0.19402675340E+02  0.43400729028E+02  0.00000000000E+00 0. -1.
         11    1    4    4    0    0  0.65402393510E+01  0.43889245834E+01 -0.18953755930E+01  0.81012245165E+01  0.51100000000E-03 0. -1.
        -11    1    4    4    0    0  0.31694323767E+02  0.24039731062E+01 -0.19536396763E+02  0.37309248780E+02  0.51100000000E-03 0.  1.
         12    1    4    4    0    0  0.18604275598E+00 -0.12236505155E+01  0.20290970156E+01  0.23767976754E+01  0.00000000000E+00 0. -1.
</event>
<event>
 8    1  0.2994958E-010  0.9118800E+02  0.7816164E-02  0.1184000E+00
        -11   -1    0    0    0    0  0.00000000000E+00  0.00000000000E+00  0.45593999997E+02  0.45594000000E+02  0.51100000000E-03 0. -1.
         11   -1    0    0    0    0 -0.00000000000E+00 -0.00000000000E+00 -0.45593999997E+02  0.45594000000E+02  0.51100000000E-03 0.  1.
         23    2    1    2    0    0  0.00000000000E+00  0.44408920985E-15  0.00000000000E+00  0.91188000000E+02  0.91188000000E+02 0.  0.
    9900012    2    3    3    0    0  0.26461669093E+02  0.27121902455E+01  0.34293546674E+02  0.47787271313E+02  0.20000001224E+02 0.  0.
        -12    1    3    3    0    0 -0.26461669093E+02 -0.27121902455E+01 -0.34293546674E+02  0.43400728687E+02  0.00000000000E+00 0.  1.
         11    1    4    4    0    0  0.16982585590E+02  0.10246118378E+01  0.23029252834E+02  0.28632228853E+02  0.51100000000E-03 0. -1.
        -11    1    4    4    0    0  0.61264801391E+01  0.32270453564E+01  0.13261140795E+02  0.14960128211E+02  0.51100000000E-03 0.  1.
        -12    1    4    4    0    0  0.33526033639E+01 -0.15394669486E+01 -0.19968469551E+01  0.41949142499E+01  0.00000000000E+00 0.  1.
</event>
<event>
 8    1  0.2994958E-010  0.9118800E+02  0.7816164E-02  0.1184000E+00
        -11   -1    0    0    0    0  0.00000000000E+00  0.00000000000E+00  0.45593999997E+02  0.45594000000E+02  0.51100000000E-03 0. -1.
         11   -1    0    0    0    0 -0.00000000000E+00 -0.00000000000E+00 -0.45593999997E+02  0.45594000000E+02  0.51100000000E-03 0.  1.
         23    2    1    2    0    0  0.22204460493E-15 -0.17763568394E-14  0.71054273576E-14  0.91188000000E+02  0.91188000000E+02 0.  0.
    9900012    2    3    3    0    0 -0.11786276567E+01 -0.15790190619E+02  0.40409211840E+02  0.47787266314E+02  0.19999978433E+02 0.  0.
        -12    1    3    3    0    0  0.11786276567E+01  0.15790190619E+02 -0.40409211840E+02  0.43400733686E+02  0.00000000000E+00 0.  1.
         11    1    4    4    0    0 -0.48878430854E+00 -0.16594408418E+01  0.13490207241E+02  0.13600674457E+02  0.51100000000E-03 0. -1.
        -11    1    4    4    0    0  0.58760173897E+01 -0.84367764534E+01  0.21793254965E+02  0.24096737114E+02  0.51100000000E-03 0.  1.
        -12    1    4    4    0    0 -0.65658607378E+01 -0.56939733238E+01  0.51257496332E+01  0.10089854743E+02  0.00000000000E+00 0.  1.
</event>
<event>
 8    1  0.2994958E-010  0.9118800E+02  0.7816164E-02  0.1184000E+00
        -11   -1    0    0    0    0  0.00000000000E+00  0.00000000000E+00  0.45593999997E+02  0.45594000000E+02  0.51100000000E-03 0. -1.
         11   -1    0    0    0    0 -0.00000000000E+00 -0.00000000000E+00 -0.45593999997E+02  0.45594000000E+02  0.51100000000E-03 0.  1.
         23    2    1    2    0    0  0.88817841970E-15  0.00000000000E+00 -0.71054273576E-14  0.91188000000E+02  0.91188000000E+02 0.  0.
    9900012    2    3    3    0    0  0.45147141506E+01 -0.26383296712E+02 -0.34163757004E+02  0.47787270953E+02  0.19999999581E+02 0.  0.
         12    1    3    3    0    0 -0.45147141506E+01  0.26383296712E+02  0.34163757004E+02  0.43400729047E+02  0.00000000000E+00 0. -1.
         11    1    4    4    0    0  0.94560663688E+00 -0.15266293832E+02 -0.12105562518E+02  0.19506371867E+02  0.51100000000E-03 0. -1.
        -11    1    4    4    0    0  0.44632080884E+01 -0.77289766735E+01 -0.38184355891E+01  0.97076133766E+01  0.51100000000E-03 0.  1.
        -12    1    4    4    0    0 -0.89410057465E+00 -0.33880262062E+01 -0.18239758897E+02  0.18573285709E+02  0.00000000000E+00 0.  1.
</event>
<event>
 8    1  0.2994958E-010  0.9118800E+02  0.7816164E-02  0.1184000E+00
        -11   -1    0    0    0    0  0.00000000000E+00  0.00000000000E+00  0.45593999997E+02  0.45594000000E+02  0.51100000000E-03 0. -1.
         11   -1    0    0    0    0 -0.00000000000E+00 -0.00000000000E+00 -0.45593999997E+02  0.45594000000E+02  0.51100000000E-03 0.  1.
         23    2    1    2    0    0  0.00000000000E+00  0.17763568394E-14  0.00000000000E+00  0.91188000000E+02  0.91188000000E+02 0.  0.
    9900012    2    3    3    0    0  0.40226017104E+02  0.96969105644E+01  0.13094301725E+02  0.47787271156E+02  0.20000000510E+02 0.  0.
        -12    1    3    3    0    0 -0.40226017104E+02 -0.96969105644E+01 -0.13094301725E+02  0.43400728844E+02  0.00000000000E+00 0.  1.
         11    1    4    4    0    0  0.12189185964E+02  0.62591621323E+01  0.41475873456E+01  0.14316279060E+02  0.51100000000E-03 0. -1.
        -11    1    4    4    0    0  0.17661500546E+02  0.94766410453E+01  0.37569152289E+01  0.20392394154E+02  0.51100000000E-03 0.  1.
         12    1    4    4    0    0  0.10375330593E+02 -0.60388926132E+01  0.51897991503E+01  0.13078597942E+02  0.00000000000E+00 0. -1.
</event>
<event>
 8    1  0.2994958E-010  0.9118800E+02  0.7816164E-02  0.1184000E+00
        -11   -1    0    0    0    0  0.00000000000E+00  0.00000000000E+00  0.45593999997E+02  0.45594000000E+02  0.51100000000E-03 0. -1.
         11   -1    0    0    0    0 -0.00000000000E+00 -0.00000000000E+00 -0.45593999997E+02  0.45594000000E+02  0.51100000000E-03 0.  1.
         23    2    1    2    0    0  0.00000000000E+00  0.00000000000E+00  0.00000000000E+00  0.91188000000E+02  0.91188000000E+02 0.  0.
    9900012    2    3    3    0    0 -0.21037378490E+02  0.16346726872E+02  0.34261284147E+02  0.47787281520E+02  0.20000047763E+02 0.  0.
        -12    1    3    3    0    0  0.21037378490E+02 -0.16346726872E+02 -0.34261284147E+02  0.43400718480E+02  0.00000000000E+00 0.  1.
         11    1    4    4    0    0 -0.85572730348E+00  0.76841087819E+00  0.10232470722E+02  0.10296901565E+02  0.51100000000E-03 0. -1.
        -11    1    4    4    0    0 -0.13709488286E+01  0.17046461154E+00  0.85616033511E+01  0.86723474952E+01  0.51100000000E-03 0.  1.
         12    1    4    4    0    0 -0.18810702358E+02  0.15407851382E+02  0.15467210074E+02  0.28818032460E+02  0.00000000000E+00 0. -1.
</event>
<event>
 8    1  0.2994958E-010  0.9118800E+02  0.7816164E-02  0.1184000E+00
        -11   -1    0    0    0    0  0.00000000000E+00  0.00000000000E+00  0.45593999997E+02  0.45594000000E+02  0.51100000000E-03 0. -1.
         11   -1    0    0    0    0 -0.00000000000E+00 -0.00000000000E+00 -0.45593999997E+02  0.45594000000E+02  0.51100000000E-03 0.  1.
         23    2    1    2    0    0  0.00000000000E+00 -0.17763568394E-14  0.00000000000E+00  0.91188000000E+02  0.91188000000E+02 0.  0.
    9900012    2    3    3    0    0  0.31944593679E+02  0.10122004302E+02  0.27580991608E+02  0.47787272650E+02  0.20000007321E+02 0.  0.
        -12    1    3    3    0    0 -0.31944593679E+02 -0.10122004302E+02 -0.27580991608E+02  0.43400727350E+02  0.00000000000E+00 0.  1.
         11    1    4    4    0    0  0.61542514346E+00 -0.10084214801E+01  0.28798848833E+00  0.12159768169E+01  0.51100000000E-03 0. -1.
        -11    1    4    4    0    0  0.39911943452E+01  0.90948722896E+01  0.10348681971E+02  0.14343693843E+02  0.51100000000E-03 0.  1.
         12    1    4    4    0    0  0.27337974190E+02  0.20355534929E+01  0.16944321149E+02  0.32227601990E+02  0.00000000000E+00 0. -1.
</event>
<event>
 8    1  0.2994958E-010  0.9118800E+02  0.7816164E-02  0.1184000E+00
        -11   -1    0    0    0    0  0.00000000000E+00  0.00000000000E+00  0.45593999997E+02  0.45594000000E+02  0.51100000000E-03 0. -1.
         11   -1    0    0    0    0 -0.00000000000E+00 -0.00000000000E+00 -0.45593999997E+02  0.45594000000E+02  0.51100000000E-03 0.  1.
         23    2    1    2    0    0 -0.88817841970E-15  0.00000000000E+00  0.00000000000E+00  0.91188000000E+02  0.91188000000E+02 0.  0.
    9900012    2    3    3    0    0 -0.73873036498E+01 -0.17813297417E+02  0.38881069558E+02  0.47787269706E+02  0.19999993897E+02 0.  0.
        -12    1    3    3    0    0  0.73873036498E+01  0.17813297417E+02 -0.38881069558E+02  0.43400730294E+02  0.00000000000E+00 0.  1.
         11    1    4    4    0    0 -0.10887019409E+02 -0.66024612489E+01  0.21444780904E+02  0.24939894034E+02  0.51100000000E-03 0. -1.
        -11    1    4    4    0    0 -0.11160872944E+00  0.13156347620E+01  0.36943236227E+00  0.13710696068E+01  0.51100000000E-03 0.  1.
        -12    1    4    4    0    0  0.36113244883E+01 -0.12526470930E+02  0.17066856292E+02  0.21476306066E+02  0.00000000000E+00 0.  1.
</event>
<event>
 8    1  0.3289905E-010  0.9118800E+02  0.7816164E-02  0.1184000E+00
        -11   -1    0    0    0    0  0.00000000000E+00  0.00000000000E+00  0.45593999997E+02  0.45594000000E+02  0.51100000000E-03 0. -1.
         11   -1    0    0    0    0 -0.00000000000E+00 -0.00000000000E+00 -0.45593999997E+02  0.45594000000E+02  0.51100000000E-03 0.  1.
         23    2    1    2    0    0  0.35527136788E-14  0.00000000000E+00  0.00000000000E+00  0.91188000000E+02  0.91188000000E+02 0.  0.
    9900012    2    3    3    0    0 -0.24139211599E+02  0.10560318162E+02  0.34487701437E+02  0.47787269514E+02  0.19999993022E+02 0.  0.
        -12    1    3    3    0    0  0.24139211599E+02 -0.10560318162E+02 -0.34487701437E+02  0.43400730486E+02  0.00000000000E+00 0.  1.
         11    1    4    4    0    0 -0.29114708330E+00  0.61026576314E+01  0.76509501420E+01  0.97910282977E+01  0.51100000000E-03 0. -1.
        -11    1    4    4    0    0 -0.15587526462E+01  0.51157696429E+00 -0.11483120632E+01  0.20025088409E+01  0.51100000000E-03 0.  1.
         12    1    4    4    0    0 -0.22289311870E+02  0.39460835664E+01  0.27985063358E+02  0.35993732375E+02  0.00000000000E+00 0. -1.
</event>
<event>
 8    1  0.2994958E-010  0.9118800E+02  0.7816164E-02  0.1184000E+00
        -11   -1    0    0    0    0  0.00000000000E+00  0.00000000000E+00  0.45593999997E+02  0.45594000000E+02  0.51100000000E-03 0. -1.
         11   -1    0    0    0    0 -0.00000000000E+00 -0.00000000000E+00 -0.45593999997E+02  0.45594000000E+02  0.51100000000E-03 0.  1.
         23    2    1    2    0    0  0.00000000000E+00  0.00000000000E+00  0.71054273576E-14  0.91188000000E+02  0.91188000000E+02 0.  0.
    9900012    2    3    3    0    0 -0.43990697912E+01 -0.47182303325E+01 -0.42918642186E+02  0.47787270057E+02  0.19999995497E+02 0.  0.
         12    1    3    3    0    0  0.43990697912E+01  0.47182303325E+01  0.42918642186E+02  0.43400729943E+02  0.00000000000E+00 0. -1.
         11    1    4    4    0    0  0.69759603071E+00  0.26672352957E+01 -0.62091860682E+01  0.67937306566E+01  0.51100000000E-03 0. -1.
        -11    1    4    4    0    0  0.27739475723E+01 -0.64136636151E+01 -0.57949644406E+01  0.90780768465E+01  0.51100000000E-03 0.  1.
         12    1    4    4    0    0 -0.78706133942E+01 -0.97180201309E+00 -0.30914491677E+02  0.31915462554E+02  0.00000000000E+00 0. -1.
</event>
<event>
 8    1  0.2994958E-010  0.9118800E+02  0.7816164E-02  0.1184000E+00
        -11   -1    0    0    0    0  0.00000000000E+00  0.00000000000E+00  0.45593999997E+02  0.45594000000E+02  0.51100000000E-03 0. -1.
         11   -1    0    0    0    0 -0.00000000000E+00 -0.00000000000E+00 -0.45593999997E+02  0.45594000000E+02  0.51100000000E-03 0.  1.
         23    2    1    2    0    0  0.35527136788E-14 -0.44408920985E-15  0.00000000000E+00  0.91188000000E+02  0.91188000000E+02 0.  0.
    9900012    2    3    3    0    0  0.25873399518E+02  0.10066220161E+01 -0.34830699176E+02  0.47787266186E+02  0.19999977848E+02 0.  0.
         12    1    3    3    0    0 -0.25873399518E+02 -0.10066220161E+01  0.34830699176E+02  0.43400733814E+02  0.00000000000E+00 0. -1.
         11    1    4    4    0    0  0.14289563892E+02  0.42088329941E+01 -0.14943472258E+02  0.21100077601E+02  0.51100000000E-03 0. -1.
        -11    1    4    4    0    0  0.57929441653E+01  0.16352343175E+01 -0.17899094033E+02  0.18884113981E+02  0.51100000000E-03 0.  1.
         12    1    4    4    0    0  0.57908914615E+01 -0.48374452955E+01 -0.19881328842E+01  0.78030746037E+01  0.00000000000E+00 0. -1.
</event>
<event>
 8    1  0.2994958E-010  0.9118800E+02  0.7816164E-02  0.1184000E+00
        -11   -1    0    0    0    0  0.00000000000E+00  0.00000000000E+00  0.45593999997E+02  0.45594000000E+02  0.51100000000E-03 0. -1.
         11   -1    0    0    0    0 -0.00000000000E+00 -0.00000000000E+00 -0.45593999997E+02  0.45594000000E+02  0.51100000000E-03 0.  1.
         23    2    1    2    0    0 -0.35527136788E-14  0.17763568394E-14  0.00000000000E+00  0.91188000000E+02  0.91188000000E+02 0.  0.
    9900012    2    3    3    0    0 -0.19259963432E+02  0.55750745669E+01 -0.38491499243E+02  0.47787272336E+02  0.20000005888E+02 0.  0.
         12    1    3    3    0    0  0.19259963432E+02 -0.55750745669E+01  0.38491499243E+02  0.43400727664E+02  0.00000000000E+00 0. -1.
         11    1    4    4    0    0 -0.18439313445E+02  0.61235106303E+01 -0.32912668299E+02  0.38219751407E+02  0.51100000000E-03 0. -1.
        -11    1    4    4    0    0 -0.30303050804E+01  0.21383677385E+01 -0.10456714433E+01  0.38534133562E+01  0.51100000000E-03 0.  1.
         12    1    4    4    0    0  0.22096550930E+01 -0.26868038019E+01 -0.45331595000E+01  0.57141075727E+01  0.00000000000E+00 0. -1.
</event>
<event>
 8    1  0.2994958E-010  0.9118800E+02  0.7816164E-02  0.1184000E+00
        -11   -1    0    0    0    0  0.00000000000E+00  0.00000000000E+00  0.45593999997E+02  0.45594000000E+02  0.51100000000E-03 0. -1.
         11   -1    0    0    0    0 -0.00000000000E+00 -0.00000000000E+00 -0.45593999997E+02  0.45594000000E+02  0.51100000000E-03 0.  1.
         23    2    1    2    0    0  0.35527136788E-14  0.88817841970E-15  0.00000000000E+00  0.91188000000E+02  0.91188000000E+02 0.  0.
    9900012    2    3    3    0    0 -0.24789976130E+02 -0.13668241331E+01  0.35597922646E+02  0.47787271648E+02  0.20000002752E+02 0.  0.
        -12    1    3    3    0    0  0.24789976130E+02  0.13668241331E+01 -0.35597922646E+02  0.43400728352E+02  0.00000000000E+00 0.  1.
         11    1    4    4    0    0 -0.81451694754E+01  0.12716388762E+01  0.17027201885E+02  0.18917887184E+02  0.51100000000E-03 0. -1.
        -11    1    4    4    0    0 -0.10692509701E+02  0.54686013291E+01  0.92808981975E+01  0.15177958881E+02  0.51100000000E-03 0.  1.
        -12    1    4    4    0    0 -0.59522969542E+01 -0.81070643384E+01  0.92898225637E+01  0.13691425583E+02  0.00000000000E+00 0.  1.
</event>
<event>
 8    1  0.2994958E-010  0.9118800E+02  0.7816164E-02  0.1184000E+00
        -11   -1    0    0    0    0  0.00000000000E+00  0.00000000000E+00  0.45593999997E+02  0.45594000000E+02  0.51100000000E-03 0.  1.
         11   -1    0    0    0    0 -0.00000000000E+00 -0.00000000000E+00 -0.45593999997E+02  0.45594000000E+02  0.51100000000E-03 0. -1.
         23    2    1    2    0    0  0.71054273576E-14  0.00000000000E+00  0.00000000000E+00  0.91188000000E+02  0.91188000000E+02 0.  0.
    9900012    2    3    3    0    0 -0.33683673947E+02  0.18940974905E+02  0.19755322664E+02  0.47787271959E+02  0.20000004169E+02 0.  0.
        -12    1    3    3    0    0  0.33683673947E+02 -0.18940974905E+02 -0.19755322664E+02  0.43400728041E+02  0.00000000000E+00 0.  1.
         11    1    4    4    0    0 -0.82085532018E+01 -0.11039275899E+01 -0.21036423764E+01  0.85454264551E+01  0.51100000000E-03 0.  1.
        -11    1    4    4    0    0 -0.37361301598E+01  0.34623012899E+01  0.21088574939E+01  0.55130281138E+01  0.51100000000E-03 0. -1.
        -12    1    4    4    0    0 -0.21738990586E+02  0.16582601205E+02  0.19750107547E+02  0.33728817390E+02  0.00000000000E+00 0.  1.
</event>
<event>
 8    1  0.2994958E-010  0.9118800E+02  0.7816164E-02  0.1184000E+00
        -11   -1    0    0    0    0  0.00000000000E+00  0.00000000000E+00  0.45593999997E+02  0.45594000000E+02  0.51100000000E-03 0. -1.
         11   -1    0    0    0    0 -0.00000000000E+00 -0.00000000000E+00 -0.45593999997E+02  0.45594000000E+02  0.51100000000E-03 0.  1.
         23    2    1    2    0    0  0.26645352591E-14  0.17763568394E-14  0.00000000000E+00  0.91188000000E+02  0.91188000000E+02 0.  0.
    9900012    2    3    3    0    0 -0.35979390219E+01 -0.14440375240E+02  0.40769519294E+02  0.47787270678E+02  0.19999998329E+02 0.  0.
        -12    1    3    3    0    0  0.35979390219E+01  0.14440375240E+02 -0.40769519294E+02  0.43400729322E+02  0.00000000000E+00 0.  1.
         11    1    4    4    0    0 -0.28291026035E+01 -0.28312599764E+01  0.58956611479E+01  0.71259157465E+01  0.51100000000E-03 0. -1.
        -11    1    4    4    0    0 -0.84288177061E+01 -0.31639213206E+01  0.19891162375E+02  0.21833774455E+02  0.51100000000E-03 0.  1.
         12    1    4    4    0    0  0.76599812877E+01 -0.84451939424E+01  0.14982695771E+02  0.18827580477E+02  0.00000000000E+00 0. -1.
</event>
<event>
 8    1  0.2994958E-010  0.9118800E+02  0.7816164E-02  0.1184000E+00
        -11   -1    0    0    0    0  0.00000000000E+00  0.00000000000E+00  0.45593999997E+02  0.45594000000E+02  0.51100000000E-03 0. -1.
         11   -1    0    0    0    0 -0.00000000000E+00 -0.00000000000E+00 -0.45593999997E+02  0.45594000000E+02  0.51100000000E-03 0.  1.
         23    2    1    2    0    0  0.17763568394E-14 -0.44408920985E-15  0.71054273576E-14  0.91188000000E+02  0.91188000000E+02 0.  0.
    9900012    2    3    3    0    0  0.12223172084E+02  0.51472962892E+00  0.41640755191E+02  0.47787269877E+02  0.19999994676E+02 0.  0.
        -12    1    3    3    0    0 -0.12223172084E+02 -0.51472962892E+00 -0.41640755191E+02  0.43400730123E+02  0.00000000000E+00 0.  1.
         11    1    4    4    0    0  0.67142254361E+00 -0.60972278723E+01  0.10371667485E+02  0.12049833304E+02  0.51100000000E-03 0. -1.
        -11    1    4    4    0    0  0.67436486242E+01 -0.21547202086E+01  0.15864127424E+02  0.17372108540E+02  0.51100000000E-03 0.  1.
         12    1    4    4    0    0  0.48081009166E+01  0.87666777098E+01  0.15404960281E+02  0.18365328033E+02  0.00000000000E+00 0. -1.
</event>
<event>
 8    1  0.2994958E-010  0.9118800E+02  0.7816164E-02  0.1184000E+00
        -11   -1    0    0    0    0  0.00000000000E+00  0.00000000000E+00  0.45593999997E+02  0.45594000000E+02  0.51100000000E-03 0. -1.
         11   -1    0    0    0    0 -0.00000000000E+00 -0.00000000000E+00 -0.45593999997E+02  0.45594000000E+02  0.51100000000E-03 0.  1.
         23    2    1    2    0    0  0.00000000000E+00  0.00000000000E+00 -0.35527136788E-14  0.91188000000E+02  0.91188000000E+02 0.  0.
    9900012    2    3    3    0    0  0.21258051376E+02  0.30034575292E+02  0.23013973965E+02  0.47787268913E+02  0.19999990281E+02 0.  0.
        -12    1    3    3    0    0 -0.21258051376E+02 -0.30034575292E+02 -0.23013973965E+02  0.43400731087E+02  0.00000000000E+00 0.  1.
         11    1    4    4    0    0  0.16919289169E+02  0.21616044981E+02  0.18245695358E+02  0.32960903294E+02  0.51100000000E-03 0. -1.
        -11    1    4    4    0    0  0.75550801052E+01  0.48615412877E+01  0.44354262914E+01  0.10019322619E+02  0.51100000000E-03 0.  1.
        -12    1    4    4    0    0 -0.32163178991E+01  0.35569890230E+01  0.33285231565E+00  0.48070429998E+01  0.00000000000E+00 0.  1.
</event>
<event>
 8    1  0.2994958E-010  0.9118800E+02  0.7816164E-02  0.1184000E+00
        -11   -1    0    0    0    0  0.00000000000E+00  0.00000000000E+00  0.45593999997E+02  0.45594000000E+02  0.51100000000E-03 0. -1.
         11   -1    0    0    0    0 -0.00000000000E+00 -0.00000000000E+00 -0.45593999997E+02  0.45594000000E+02  0.51100000000E-03 0.  1.
         23    2    1    2    0    0  0.00000000000E+00 -0.17763568394E-14  0.00000000000E+00  0.91188000000E+02  0.91188000000E+02 0.  0.
    9900012    2    3    3    0    0  0.23320046241E+02 -0.12593695087E+02  0.34368562582E+02  0.47787264908E+02  0.19999972021E+02 0.  0.
        -12    1    3    3    0    0 -0.23320046241E+02  0.12593695087E+02 -0.34368562582E+02  0.43400735092E+02  0.00000000000E+00 0.  1.
         11    1    4    4    0    0  0.41660005134E+01  0.15997807614E+01  0.86204715879E+00  0.45451055353E+01  0.51100000000E-03 0.  1.
        -11    1    4    4    0    0  0.12452774832E+02 -0.98060314256E+00  0.14347057480E+02  0.19022913608E+02  0.51100000000E-03 0. -1.
        -12    1    4    4    0    0  0.67012708955E+01 -0.13212872705E+02  0.19159457943E+02  0.24219245765E+02  0.00000000000E+00 0.  1.
</event>
<event>
 8    1  0.2994958E-010  0.9118800E+02  0.7816164E-02  0.1184000E+00
        -11   -1    0    0    0    0  0.00000000000E+00  0.00000000000E+00  0.45593999997E+02  0.45594000000E+02  0.51100000000E-03 0. -1.
         11   -1    0    0    0    0 -0.00000000000E+00 -0.00000000000E+00 -0.45593999997E+02  0.45594000000E+02  0.51100000000E-03 0.  1.
         23    2    1    2    0    0 -0.17763568394E-14 -0.35527136788E-14  0.00000000000E+00  0.91188000000E+02  0.91188000000E+02 0.  0.
    9900012    2    3    3    0    0  0.91522286127E+01  0.28617133591E+02  0.31319640227E+02  0.47787268583E+02  0.19999988778E+02 0.  0.
        -12    1    3    3    0    0 -0.91522286127E+01 -0.28617133591E+02 -0.31319640227E+02  0.43400731417E+02  0.00000000000E+00 0.  1.
         11    1    4    4    0    0  0.59249647782E+01  0.11701449653E+02  0.59437229048E+01  0.14399894924E+02  0.51100000000E-03 0. -1.
        -11    1    4    4    0    0 -0.21473436192E+01  0.11962056750E+02  0.80357575643E+01  0.14569670078E+02  0.51100000000E-03 0.  1.
         12    1    4    4    0    0  0.53746074538E+01  0.49536271892E+01  0.17340159758E+02  0.18817703581E+02  0.00000000000E+00 0. -1.
</event>
<event>
 8    1  0.2994958E-010  0.9118800E+02  0.7816164E-02  0.1184000E+00
        -11   -1    0    0    0    0  0.00000000000E+00  0.00000000000E+00  0.45593999997E+02  0.45594000000E+02  0.51100000000E-03 0. -1.
         11   -1    0    0    0    0 -0.00000000000E+00 -0.00000000000E+00 -0.45593999997E+02  0.45594000000E+02  0.51100000000E-03 0.  1.
         23    2    1    2    0    0  0.35527136788E-14  0.88817841970E-15  0.00000000000E+00  0.91188000000E+02  0.91188000000E+02 0.  0.
    9900012    2    3    3    0    0 -0.21423256605E+02 -0.20566995864E+01  0.37688691235E+02  0.47787269778E+02  0.19999994228E+02 0.  0.
        -12    1    3    3    0    0  0.21423256605E+02  0.20566995864E+01 -0.37688691235E+02  0.43400730222E+02  0.00000000000E+00 0.  1.
         11    1    4    4    0    0 -0.60189677595E+01  0.34626919386E+01  0.10704194321E+02  0.12759231352E+02  0.51100000000E-03 0. -1.
        -11    1    4    4    0    0 -0.78977464300E+00 -0.74506469371E+01  0.75675021799E+01  0.10649083213E+02  0.51100000000E-03 0.  1.
        -12    1    4    4    0    0 -0.14614514203E+02  0.19312554120E+01  0.19416994734E+02  0.24378955214E+02  0.00000000000E+00 0.  1.
</event>
<event>
 8    1  0.2994958E-010  0.9118800E+02  0.7816164E-02  0.1184000E+00
        -11   -1    0    0    0    0  0.00000000000E+00  0.00000000000E+00  0.45593999997E+02  0.45594000000E+02  0.51100000000E-03 0.  1.
         11   -1    0    0    0    0 -0.00000000000E+00 -0.00000000000E+00 -0.45593999997E+02  0.45594000000E+02  0.51100000000E-03 0. -1.
         23    2    1    2    0    0 -0.88817841970E-15  0.00000000000E+00  0.00000000000E+00  0.91188000000E+02  0.91188000000E+02 0.  0.
    9900012    2    3    3    0    0 -0.55488674942E+01  0.41140101025E+02  0.12661968203E+02  0.47787270955E+02  0.19999999594E+02 0.  0.
        -12    1    3    3    0    0  0.55488674942E+01 -0.41140101025E+02 -0.12661968203E+02  0.43400729045E+02  0.00000000000E+00 0.  1.
         11    1    4    4    0    0  0.54831643797E+00  0.90971992383E+01  0.49605533176E+01  0.10376260134E+02  0.51100000000E-03 0.  1.
        -11    1    4    4    0    0 -0.37231065195E+01  0.32799391840E+02  0.94862271617E+01  0.34346035189E+02  0.51100000000E-03 0. -1.
         12    1    4    4    0    0 -0.23740774126E+01 -0.75649005267E+00 -0.17848122763E+01  0.30649756317E+01  0.00000000000E+00 0. -1.
</event>
<event>
 8    1  0.2994958E-010  0.9118800E+02  0.7816164E-02  0.1184000E+00
        -11   -1    0    0    0    0  0.00000000000E+00  0.00000000000E+00  0.45593999997E+02  0.45594000000E+02  0.51100000000E-03 0. -1.
         11   -1    0    0    0    0 -0.00000000000E+00 -0.00000000000E+00 -0.45593999997E+02  0.45594000000E+02  0.51100000000E-03 0.  1.
         23    2    1    2    0    0  0.35527136788E-14 -0.44408920985E-15 -0.71054273576E-14  0.91188000000E+02  0.91188000000E+02 0.  0.
    9900012    2    3    3    0    0  0.17943480261E+02 -0.24235541043E+01 -0.39443390787E+02  0.47787272182E+02  0.20000005185E+02 0.  0.
         12    1    3    3    0    0 -0.17943480261E+02  0.24235541043E+01  0.39443390787E+02  0.43400727818E+02  0.00000000000E+00 0. -1.
         11    1    4    4    0    0  0.18497364168E+01  0.64283235670E+00 -0.42856843662E+00  0.20046020593E+01  0.51100000000E-03 0. -1.
        -11    1    4    4    0    0 -0.30589978238E+01 -0.63141407619E+00 -0.13095775196E+02  0.13463115526E+02  0.51100000000E-03 0.  1.
        -12    1    4    4    0    0  0.19152741668E+02 -0.24349723848E+01 -0.25919047155E+02  0.32319554596E+02  0.00000000000E+00 0.  1.
</event>
<event>
 8    1  0.3009048E-010  0.9118800E+02  0.7816164E-02  0.1184000E+00
        -11   -1    0    0    0    0  0.00000000000E+00  0.00000000000E+00  0.45593999997E+02  0.45594000000E+02  0.51100000000E-03 0. -1.
         11   -1    0    0    0    0 -0.00000000000E+00 -0.00000000000E+00 -0.45593999997E+02  0.45594000000E+02  0.51100000000E-03 0.  1.
         23    2    1    2    0    0  0.00000000000E+00  0.00000000000E+00  0.35527136788E-14  0.91188000000E+02  0.91188000000E+02 0.  0.
    9900012    2    3    3    0    0 -0.16040061676E+02 -0.29233824836E+02  0.27779906382E+02  0.47787270839E+02  0.19999999063E+02 0.  0.
        -12    1    3    3    0    0  0.16040061676E+02  0.29233824836E+02 -0.27779906382E+02  0.43400729161E+02  0.00000000000E+00 0.  1.
         11    1    4    4    0    0 -0.26400697225E+01 -0.48420324915E+01 -0.44902285068E+00  0.55332511754E+01  0.51100000000E-03 0. -1.
        -11    1    4    4    0    0 -0.13759105494E+01 -0.89421309601E+01  0.15759266433E+01  0.91835930329E+01  0.51100000000E-03 0.  1.
         12    1    4    4    0    0 -0.12024081404E+02 -0.15449661384E+02  0.26653002590E+02  0.33070426631E+02  0.00000000000E+00 0. -1.
</event>
<event>
 8    1  0.2994958E-010  0.9118800E+02  0.7816164E-02  0.1184000E+00
        -11   -1    0    0    0    0  0.00000000000E+00  0.00000000000E+00  0.45593999997E+02  0.45594000000E+02  0.51100000000E-03 0. -1.
         11   -1    0    0    0    0 -0.00000000000E+00 -0.00000000000E+00 -0.45593999997E+02  0.45594000000E+02  0.51100000000E-03 0.  1.
         23    2    1    2    0    0  0.00000000000E+00 -0.35527136788E-14  0.00000000000E+00  0.91188000000E+02  0.91188000000E+02 0.  0.
    9900012    2    3    3    0    0 -0.16532871414E+02 -0.16832826292E+02  0.36427236421E+02  0.47787269229E+02  0.19999991724E+02 0.  0.
        -12    1    3    3    0    0  0.16532871414E+02  0.16832826292E+02 -0.36427236421E+02  0.43400730771E+02  0.00000000000E+00 0.  1.
         11    1    4    4    0    0 -0.10114378657E+02 -0.46195078051E+01  0.19512970025E+02  0.22458773507E+02  0.51100000000E-03 0. -1.
        -11    1    4    4    0    0 -0.66826720856E+01 -0.44697067764E+01  0.15487794744E+02  0.17450162497E+02  0.51100000000E-03 0.  1.
        -12    1    4    4    0    0  0.26417932858E+00 -0.77436117104E+01  0.14264716521E+01  0.78783332256E+01  0.00000000000E+00 0.  1.
</event>
<event>
 8    1  0.2994958E-010  0.9118800E+02  0.7816164E-02  0.1184000E+00
        -11   -1    0    0    0    0  0.00000000000E+00  0.00000000000E+00  0.45593999997E+02  0.45594000000E+02  0.51100000000E-03 0. -1.
         11   -1    0    0    0    0 -0.00000000000E+00 -0.00000000000E+00 -0.45593999997E+02  0.45594000000E+02  0.51100000000E-03 0.  1.
         23    2    1    2    0    0 -0.44408920985E-15  0.00000000000E+00  0.00000000000E+00  0.91188000000E+02  0.91188000000E+02 0.  0.
    9900012    2    3    3    0    0  0.39752826346E+01 -0.20015615018E+02 -0.38303991018E+02  0.47787269079E+02  0.19999991040E+02 0.  0.
         12    1    3    3    0    0 -0.39752826346E+01  0.20015615018E+02  0.38303991018E+02  0.43400730921E+02  0.00000000000E+00 0. -1.
         11    1    4    4    0    0 -0.45257165836E+00 -0.16494267645E+01 -0.12428817672E+01  0.21142812268E+01  0.51100000000E-03 0. -1.
        -11    1    4    4    0    0 -0.31989156570E+01 -0.99738583214E+01 -0.48858275863E+01  0.11557777583E+02  0.51100000000E-03 0.  1.
         12    1    4    4    0    0  0.76267699500E+01 -0.83923299320E+01 -0.32175281664E+02  0.34115210269E+02  0.00000000000E+00 0. -1.
</event>
<event>
 8    1  0.2994958E-010  0.9118800E+02  0.7816164E-02  0.1184000E+00
        -11   -1    0    0    0    0  0.00000000000E+00  0.00000000000E+00  0.45593999997E+02  0.45594000000E+02  0.51100000000E-03 0. -1.
         11   -1    0    0    0    0 -0.00000000000E+00 -0.00000000000E+00 -0.45593999997E+02  0.45594000000E+02  0.51100000000E-03 0.  1.
         23    2    1    2    0    0  0.00000000000E+00  0.00000000000E+00  0.00000000000E+00  0.91188000000E+02  0.91188000000E+02 0.  0.
    9900012    2    3    3    0    0  0.34368965477E+02  0.20277980211E+02  0.17064618943E+02  0.47787268565E+02  0.19999988697E+02 0.  0.
        -12    1    3    3    0    0 -0.34368965477E+02 -0.20277980211E+02 -0.17064618943E+02  0.43400731435E+02  0.00000000000E+00 0.  1.
         11    1    4    4    0    0  0.66034523990E+01  0.48894699870E+01  0.69774332546E+01  0.10779474729E+02  0.51100000000E-03 0. -1.
        -11    1    4    4    0    0  0.31903494049E+01  0.77808280536E+01 -0.19075497167E+01  0.86231294034E+01  0.51100000000E-03 0.  1.
        -12    1    4    4    0    0  0.24575163673E+02  0.76076821707E+01  0.11994735405E+02  0.28384664433E+02  0.00000000000E+00 0.  1.
</event>
<event>
 8    1  0.2994958E-010  0.9118800E+02  0.7816164E-02  0.1184000E+00
        -11   -1    0    0    0    0  0.00000000000E+00  0.00000000000E+00  0.45593999997E+02  0.45594000000E+02  0.51100000000E-03 0. -1.
         11   -1    0    0    0    0 -0.00000000000E+00 -0.00000000000E+00 -0.45593999997E+02  0.45594000000E+02  0.51100000000E-03 0.  1.
         23    2    1    2    0    0 -0.88817841970E-15 -0.88817841970E-15  0.00000000000E+00  0.91188000000E+02  0.91188000000E+02 0.  0.
    9900012    2    3    3    0    0 -0.60338567159E+01  0.30129485145E+01 -0.42873513926E+02  0.47787268647E+02  0.19999989069E+02 0.  0.
         12    1    3    3    0    0  0.60338567159E+01 -0.30129485145E+01  0.42873513926E+02  0.43400731353E+02  0.00000000000E+00 0. -1.
         11    1    4    4    0    0  0.31441879201E+01  0.18113204989E+01 -0.21811316602E+01  0.42336904949E+01  0.51100000000E-03 0. -1.
        -11    1    4    4    0    0 -0.25084941659E+00  0.53251933525E+01 -0.19050766660E+02  0.19782626728E+02  0.51100000000E-03 0.  1.
        -12    1    4    4    0    0 -0.89271952194E+01 -0.41235653369E+01 -0.21641615605E+02  0.23770951424E+02  0.00000000000E+00 0.  1.
</event>
<event>
 8    1  0.2994958E-010  0.9118800E+02  0.7816164E-02  0.1184000E+00
        -11   -1    0    0    0    0  0.00000000000E+00  0.00000000000E+00  0.45593999997E+02  0.45594000000E+02  0.51100000000E-03 0. -1.
         11   -1    0    0    0    0 -0.00000000000E+00 -0.00000000000E+00 -0.45593999997E+02  0.45594000000E+02  0.51100000000E-03 0.  1.
         23    2    1    2    0    0 -0.14203048460E-15 -0.14210854715E-13  0.17763568394E-14  0.91188000000E+02  0.91188000000E+02 0.  0.
    9900012    2    3    3    0    0  0.10651013603E-02 -0.40702252697E+02  0.15064875031E+02  0.47787264575E+02  0.19999970503E+02 0.  0.
        -12    1    3    3    0    0 -0.10651013603E-02  0.40702252697E+02 -0.15064875031E+02  0.43400735425E+02  0.00000000000E+00 0.  1.
         11    1    4    4    0    0 -0.13425420984E+01 -0.24405344645E+02  0.11471350397E+02  0.27000280494E+02  0.51100000000E-03 0.  1.
        -11    1    4    4    0    0 -0.50044889900E+00 -0.17847027967E+02  0.21613528751E+01  0.17984390533E+02  0.51100000000E-03 0. -1.
        -12    1    4    4    0    0  0.18440560988E+01  0.15501199153E+01  0.14321717594E+01  0.28025935481E+01  0.00000000000E+00 0.  1.
</event>
<event>
 8    1  0.2994958E-010  0.9118800E+02  0.7816164E-02  0.1184000E+00
        -11   -1    0    0    0    0  0.00000000000E+00  0.00000000000E+00  0.45593999997E+02  0.45594000000E+02  0.51100000000E-03 0. -1.
         11   -1    0    0    0    0 -0.00000000000E+00 -0.00000000000E+00 -0.45593999997E+02  0.45594000000E+02  0.51100000000E-03 0.  1.
         23    2    1    2    0    0  0.22204460493E-15  0.71054273576E-14 -0.88817841970E-15  0.91188000000E+02  0.91188000000E+02 0.  0.
    9900012    2    3    3    0    0 -0.16019982607E+01  0.43117311043E+02 -0.46855445891E+01  0.47787271457E+02  0.20000001879E+02 0.  0.
         12    1    3    3    0    0  0.16019982607E+01 -0.43117311043E+02  0.46855445891E+01  0.43400728543E+02  0.00000000000E+00 0. -1.
         11    1    4    4    0    0  0.68132644743E+01  0.11257562844E+02  0.18177530362E+01  0.13283731416E+02  0.51100000000E-03 0.  1.
        -11    1    4    4    0    0 -0.55436624934E+00  0.38035283211E+01 -0.35245010054E+01  0.52150030898E+01  0.51100000000E-03 0. -1.
        -12    1    4    4    0    0 -0.78608964856E+01  0.28056219878E+02 -0.29787966198E+01  0.29288536950E+02  0.00000000000E+00 0.  1.
</event>
<event>
 8    1  0.2994958E-010  0.9118800E+02  0.7816164E-02  0.1184000E+00
        -11   -1    0    0    0    0  0.00000000000E+00  0.00000000000E+00  0.45593999997E+02  0.45594000000E+02  0.51100000000E-03 0. -1.
         11   -1    0    0    0    0 -0.00000000000E+00 -0.00000000000E+00 -0.45593999997E+02  0.45594000000E+02  0.51100000000E-03 0.  1.
         23    2    1    2    0    0  0.00000000000E+00  0.00000000000E+00  0.00000000000E+00  0.91188000000E+02  0.91188000000E+02 0.  0.
    9900012    2    3    3    0    0 -0.25931849015E+02 -0.30063055474E+02 -0.17532138164E+02  0.47787263066E+02  0.19999963622E+02 0.  0.
         12    1    3    3    0    0  0.25931849015E+02  0.30063055474E+02  0.17532138164E+02  0.43400736934E+02  0.00000000000E+00 0. -1.
         11    1    4    4    0    0 -0.50588880676E+01 -0.49407047532E+01  0.32818373930E+01  0.77957276039E+01  0.51100000000E-03 0. -1.
        -11    1    4    4    0    0 -0.10133934851E+02 -0.49132372661E+01 -0.67363763260E+01  0.13123082803E+02  0.51100000000E-03 0.  1.
        -12    1    4    4    0    0 -0.10739026097E+02 -0.20209113455E+02 -0.14077599231E+02  0.26868452659E+02  0.00000000000E+00 0.  1.
</event>
<event>
 8    1  0.2994958E-010  0.9118800E+02  0.7816164E-02  0.1184000E+00
        -11   -1    0    0    0    0  0.00000000000E+00  0.00000000000E+00  0.45593999997E+02  0.45594000000E+02  0.51100000000E-03 0. -1.
         11   -1    0    0    0    0 -0.00000000000E+00 -0.00000000000E+00 -0.45593999997E+02  0.45594000000E+02  0.51100000000E-03 0.  1.
         23    2    1    2    0    0  0.71054273576E-14  0.00000000000E+00  0.00000000000E+00  0.91188000000E+02  0.91188000000E+02 0.  0.
    9900012    2    3    3    0    0 -0.36886982995E+02 -0.17749360762E+02  0.14419883092E+02  0.47787281684E+02  0.20000048511E+02 0.  0.
        -12    1    3    3    0    0  0.36886982995E+02  0.17749360762E+02 -0.14419883092E+02  0.43400718316E+02  0.00000000000E+00 0.  1.
         11    1    4    4    0    0 -0.17512185273E+02 -0.71832300615E+01  0.32548420222E+01  0.19205973654E+02  0.51100000000E-03 0. -1.
        -11    1    4    4    0    0 -0.71265145206E+01 -0.64283198380E+01 -0.23473676744E+01  0.98803158053E+01  0.51100000000E-03 0.  1.
        -12    1    4    4    0    0 -0.12248283202E+02 -0.41378108623E+01  0.13512408744E+02  0.18700992225E+02  0.00000000000E+00 0.  1.
</event>
<event>
 8    1  0.2994958E-010  0.9118800E+02  0.7816164E-02  0.1184000E+00
        -11   -1    0    0    0    0  0.00000000000E+00  0.00000000000E+00  0.45593999997E+02  0.45594000000E+02  0.51100000000E-03 0. -1.
         11   -1    0    0    0    0 -0.00000000000E+00 -0.00000000000E+00 -0.45593999997E+02  0.45594000000E+02  0.51100000000E-03 0.  1.
         23    2    1    2    0    0  0.00000000000E+00 -0.17763568394E-14 -0.71054273576E-14  0.91188000000E+02  0.91188000000E+02 0.  0.
    9900012    2    3    3    0    0 -0.22752014474E+02  0.12776991702E+02  0.34680238596E+02  0.47787255437E+02  0.19999928838E+02 0.  0.
        -12    1    3    3    0    0  0.22752014474E+02 -0.12776991702E+02 -0.34680238596E+02  0.43400744563E+02  0.00000000000E+00 0.  1.
         11    1    4    4    0    0 -0.13604325209E+02  0.58803429431E+01  0.18570784267E+02  0.23759842720E+02  0.51100000000E-03 0. -1.
        -11    1    4    4    0    0 -0.47931307759E+01  0.75364173952E+01  0.17298628437E+02  0.19468287954E+02  0.51100000000E-03 0.  1.
        -12    1    4    4    0    0 -0.43545584886E+01 -0.63976863624E+00 -0.11891741086E+01  0.45591247624E+01  0.00000000000E+00 0.  1.
</event>
<event>
 8    1  0.2994958E-010  0.9118800E+02  0.7816164E-02  0.1184000E+00
        -11   -1    0    0    0    0  0.00000000000E+00  0.00000000000E+00  0.45593999997E+02  0.45594000000E+02  0.51100000000E-03 0.  1.
         11   -1    0    0    0    0 -0.00000000000E+00 -0.00000000000E+00 -0.45593999997E+02  0.45594000000E+02  0.51100000000E-03 0. -1.
         23    2    1    2    0    0 -0.71054273576E-14  0.00000000000E+00 -0.44408920985E-15  0.91188000000E+02  0.91188000000E+02 0.  0.
    9900012    2    3    3    0    0 -0.36713042904E+02  0.22973136501E+02 -0.28304402546E+01  0.47787263693E+02  0.19999966482E+02 0.  0.
        -12    1    3    3    0    0  0.36713042904E+02 -0.22973136501E+02  0.28304402546E+01  0.43400736307E+02  0.00000000000E+00 0.  1.
         11    1    4    4    0    0 -0.14085467200E+02  0.46530413235E+01  0.21226202796E+01  0.14985215945E+02  0.51100000000E-03 0.  1.
        -11    1    4    4    0    0 -0.20474751487E+02  0.88755012838E+01 -0.99529030348E+00  0.22337873098E+02  0.51100000000E-03 0. -1.
        -12    1    4    4    0    0 -0.21528242178E+01  0.94445938934E+01 -0.39577702307E+01  0.10464174651E+02  0.00000000000E+00 0.  1.
</event>
<event>
 8    1  0.2994958E-010  0.9118800E+02  0.7816164E-02  0.1184000E+00
        -11   -1    0    0    0    0  0.00000000000E+00  0.00000000000E+00  0.45593999997E+02  0.45594000000E+02  0.51100000000E-03 0. -1.
         11   -1    0    0    0    0 -0.00000000000E+00 -0.00000000000E+00 -0.45593999997E+02  0.45594000000E+02  0.51100000000E-03 0.  1.
         23    2    1    2    0    0  0.11102230246E-14 -0.17763568394E-14  0.00000000000E+00  0.91188000000E+02  0.91188000000E+02 0.  0.
    9900012    2    3    3    0    0 -0.84205288800E+00  0.88764231929E+01 -0.42474971208E+02  0.47787272807E+02  0.20000008036E+02 0.  0.
         12    1    3    3    0    0  0.84205288800E+00 -0.88764231929E+01  0.42474971208E+02  0.43400727193E+02  0.00000000000E+00 0. -1.
         11    1    4    4    0    0  0.46656672161E+01  0.25764387810E+00 -0.58177711042E+01  0.74619898031E+01  0.51100000000E-03 0. -1.
        -11    1    4    4    0    0  0.30632713539E+01  0.51159399900E+01 -0.23446594094E+02  0.24192958650E+02  0.51100000000E-03 0.  1.
        -12    1    4    4    0    0 -0.85709914581E+01  0.35028393248E+01 -0.13210606010E+02  0.16132324354E+02  0.00000000000E+00 0.  1.
</event>
<event>
 8    1  0.2994958E-010  0.9118800E+02  0.7816164E-02  0.1184000E+00
        -11   -1    0    0    0    0  0.00000000000E+00  0.00000000000E+00  0.45593999997E+02  0.45594000000E+02  0.51100000000E-03 0. -1.
         11   -1    0    0    0    0 -0.00000000000E+00 -0.00000000000E+00 -0.45593999997E+02  0.45594000000E+02  0.51100000000E-03 0.  1.
         23    2    1    2    0    0  0.61062266354E-15  0.00000000000E+00  0.88817841970E-15  0.91188000000E+02  0.91188000000E+02 0.  0.
    9900012    2    3    3    0    0 -0.33900741816E+00 -0.43058734249E+02 -0.54270837828E+01  0.47787276970E+02  0.20000027015E+02 0.  0.
         12    1    3    3    0    0  0.33900741816E+00  0.43058734249E+02  0.54270837828E+01  0.43400723030E+02  0.00000000000E+00 0. -1.
         11    1    4    4    0    0  0.42918277991E+01 -0.98919208183E+00 -0.69303637281E+00  0.44585408495E+01  0.51100000000E-03 0. -1.
        -11    1    4    4    0    0 -0.22158339154E+01 -0.70985831026E+01  0.18464250841E+01  0.76621855797E+01  0.51100000000E-03 0.  1.
         12    1    4    4    0    0 -0.24150013018E+01 -0.34970959065E+02 -0.65804724941E+01  0.35666550540E+02  0.00000000000E+00 0. -1.
</event>
<event>
 8    1  0.2994958E-010  0.9118800E+02  0.7816164E-02  0.1184000E+00
        -11   -1    0    0    0    0  0.00000000000E+00  0.00000000000E+00  0.45593999997E+02  0.45594000000E+02  0.51100000000E-03 0.  1.
         11   -1    0    0    0    0 -0.00000000000E+00 -0.00000000000E+00 -0.45593999997E+02  0.45594000000E+02  0.51100000000E-03 0. -1.
         23    2    1    2    0    0 -0.35527136788E-14 -0.71054273576E-14  0.35527136788E-14  0.91188000000E+02  0.91188000000E+02 0.  0.
    9900012    2    3    3    0    0 -0.28484234770E+02 -0.30672760432E+02  0.11465293804E+02  0.47787276216E+02  0.20000023581E+02 0.  0.
        -12    1    3    3    0    0  0.28484234770E+02  0.30672760432E+02 -0.11465293804E+02  0.43400723784E+02  0.00000000000E+00 0.  1.
         11    1    4    4    0    0 -0.52678032419E+01 -0.34790569585E+01 -0.17532965216E+01  0.65519185946E+01  0.51100000000E-03 0. -1.
        -11    1    4    4    0    0 -0.19298918947E+02 -0.28839392863E+02  0.10783366747E+02  0.36337857008E+02  0.51100000000E-03 0.  1.
        -12    1    4    4    0    0 -0.39175125809E+01  0.16456893897E+01  0.24352235781E+01  0.48975006140E+01  0.00000000000E+00 0.  1.
</event>
<event>
 8    1  0.2994958E-010  0.9118800E+02  0.7816164E-02  0.1184000E+00
        -11   -1    0    0    0    0  0.00000000000E+00  0.00000000000E+00  0.45593999997E+02  0.45594000000E+02  0.51100000000E-03 0. -1.
         11   -1    0    0    0    0 -0.00000000000E+00 -0.00000000000E+00 -0.45593999997E+02  0.45594000000E+02  0.51100000000E-03 0.  1.
         23    2    1    2    0    0  0.00000000000E+00  0.35527136788E-14  0.00000000000E+00  0.91188000000E+02  0.91188000000E+02 0.  0.
    9900012    2    3    3    0    0  0.18323301851E+02 -0.27724222213E+02 -0.27915003962E+02  0.47787270349E+02  0.19999996828E+02 0.  0.
         12    1    3    3    0    0 -0.18323301851E+02  0.27724222213E+02  0.27915003962E+02  0.43400729651E+02  0.00000000000E+00 0. -1.
         11    1    4    4    0    0 -0.32429616695E+01 -0.15234157713E+01  0.14837718264E-01  0.35829898718E+01  0.51100000000E-03 0. -1.
        -11    1    4    4    0    0  0.25144931418E+01 -0.21398331437E+01 -0.12239840147E+01  0.35213206006E+01  0.51100000000E-03 0.  1.
        -12    1    4    4    0    0  0.19051770378E+02 -0.24060973298E+02 -0.26705857666E+02  0.40682959876E+02  0.00000000000E+00 0.  1.
</event>
<event>
 8    1  0.2994958E-010  0.9118800E+02  0.7816164E-02  0.1184000E+00
        -11   -1    0    0    0    0  0.00000000000E+00  0.00000000000E+00  0.45593999997E+02  0.45594000000E+02  0.51100000000E-03 0.  1.
         11   -1    0    0    0    0 -0.00000000000E+00 -0.00000000000E+00 -0.45593999997E+02  0.45594000000E+02  0.51100000000E-03 0. -1.
         23    2    1    2    0    0  0.22204460493E-15 -0.71054273576E-14  0.00000000000E+00  0.91188000000E+02  0.91188000000E+02 0.  0.
    9900012    2    3    3    0    0 -0.55247749448E+00 -0.36653193804E+02 -0.23234901376E+02  0.47787280082E+02  0.20000041208E+02 0.  0.
         12    1    3    3    0    0  0.55247749448E+00  0.36653193804E+02  0.23234901376E+02  0.43400719918E+02  0.00000000000E+00 0. -1.
         11    1    4    4    0    0  0.65485730142E+01 -0.10322818906E+02 -0.48385964690E+01  0.13147487013E+02  0.51100000000E-03 0. -1.
        -11    1    4    4    0    0  0.24853322385E+01 -0.95441992264E+01 -0.45480748263E+01  0.10860644553E+02  0.51100000000E-03 0.  1.
        -12    1    4    4    0    0 -0.95863827472E+01 -0.16786175671E+02 -0.13848230081E+02  0.23779148517E+02  0.00000000000E+00 0.  1.
</event>
<event>
 8    1  0.2994958E-010  0.9118800E+02  0.7816164E-02  0.1184000E+00
        -11   -1    0    0    0    0  0.00000000000E+00  0.00000000000E+00  0.45593999997E+02  0.45594000000E+02  0.51100000000E-03 0. -1.
         11   -1    0    0    0    0 -0.00000000000E+00 -0.00000000000E+00 -0.45593999997E+02  0.45594000000E+02  0.51100000000E-03 0.  1.
         23    2    1    2    0    0  0.00000000000E+00 -0.88817841970E-15  0.00000000000E+00  0.91188000000E+02  0.91188000000E+02 0.  0.
    9900012    2    3    3    0    0  0.40044091598E+02  0.52974113256E+01  0.15875500686E+02  0.47787270044E+02  0.19999995438E+02 0.  0.
        -12    1    3    3    0    0 -0.40044091598E+02 -0.52974113256E+01 -0.15875500686E+02  0.43400729956E+02  0.00000000000E+00 0.  1.
         11    1    4    4    0    0 -0.99971879083E+00  0.12179118296E+01  0.12727583700E+01  0.20255026573E+01  0.51100000000E-03 0. -1.
        -11    1    4    4    0    0  0.11278801820E+01  0.26095210522E+01 -0.79781264108E+00  0.29526630519E+01  0.51100000000E-03 0.  1.
         12    1    4    4    0    0  0.39915930207E+02  0.14699784438E+01  0.15400554957E+02  0.42809104335E+02  0.00000000000E+00 0. -1.
</event>
<event>
 8    1  0.2994958E-010  0.9118800E+02  0.7816164E-02  0.1184000E+00
        -11   -1    0    0    0    0  0.00000000000E+00  0.00000000000E+00  0.45593999997E+02  0.45594000000E+02  0.51100000000E-03 0. -1.
         11   -1    0    0    0    0 -0.00000000000E+00 -0.00000000000E+00 -0.45593999997E+02  0.45594000000E+02  0.51100000000E-03 0.  1.
         23    2    1    2    0    0  0.00000000000E+00 -0.17763568394E-14 -0.71054273576E-14  0.91188000000E+02  0.91188000000E+02 0.  0.
    9900012    2    3    3    0    0  0.11122045390E+02  0.14280437132E+02  0.39446070692E+02  0.47787271074E+02  0.20000000133E+02 0.  0.
        -12    1    3    3    0    0 -0.11122045390E+02 -0.14280437132E+02 -0.39446070692E+02  0.43400728926E+02  0.00000000000E+00 0.  1.
         11    1    4    4    0    0  0.35764281979E+01  0.82283226329E+01  0.10586749959E+02  0.13877154138E+02  0.51100000000E-03 0. -1.
        -11    1    4    4    0    0  0.49506385263E+01  0.71055788762E+01  0.52330771169E+01  0.10118456866E+02  0.51100000000E-03 0.  1.
        -12    1    4    4    0    0  0.25949786655E+01 -0.10534643772E+01  0.23626243616E+02  0.23791660069E+02  0.00000000000E+00 0.  1.
</event>
<event>
 8    1  0.2994958E-010  0.9118800E+02  0.7816164E-02  0.1184000E+00
        -11   -1    0    0    0    0  0.00000000000E+00  0.00000000000E+00  0.45593999997E+02  0.45594000000E+02  0.51100000000E-03 0. -1.
         11   -1    0    0    0    0 -0.00000000000E+00 -0.00000000000E+00 -0.45593999997E+02  0.45594000000E+02  0.51100000000E-03 0.  1.
         23    2    1    2    0    0  0.00000000000E+00 -0.35527136788E-14  0.00000000000E+00  0.91188000000E+02  0.91188000000E+02 0.  0.
    9900012    2    3    3    0    0 -0.15789889492E+02 -0.30503539674E+02 -0.26529918342E+02  0.47787272932E+02  0.20000008604E+02 0.  0.
         12    1    3    3    0    0  0.15789889492E+02  0.30503539674E+02  0.26529918342E+02  0.43400727068E+02  0.00000000000E+00 0. -1.
         11    1    4    4    0    0 -0.19865928803E+00 -0.36983152985E+00  0.21582134972E+01  0.21986647388E+01  0.51100000000E-03 0. -1.
        -11    1    4    4    0    0 -0.69518784232E+00 -0.83331445335E+01 -0.33950720201E+01  0.90250262180E+01  0.51100000000E-03 0.  1.
        -12    1    4    4    0    0 -0.14896042361E+02 -0.21800563611E+02 -0.25293059820E+02  0.36563581975E+02  0.00000000000E+00 0.  1.
</event>
<event>
 8    1  0.2994958E-010  0.9118800E+02  0.7816164E-02  0.1184000E+00
        -11   -1    0    0    0    0  0.00000000000E+00  0.00000000000E+00  0.45593999997E+02  0.45594000000E+02  0.51100000000E-03 0. -1.
         11   -1    0    0    0    0 -0.00000000000E+00 -0.00000000000E+00 -0.45593999997E+02  0.45594000000E+02  0.51100000000E-03 0.  1.
         23    2    1    2    0    0  0.00000000000E+00  0.00000000000E+00  0.00000000000E+00  0.91188000000E+02  0.91188000000E+02 0.  0.
    9900012    2    3    3    0    0 -0.11551905837E+02 -0.11916867536E+02 -0.40101933548E+02  0.47787270345E+02  0.19999996810E+02 0.  0.
         12    1    3    3    0    0  0.11551905837E+02  0.11916867536E+02  0.40101933548E+02  0.43400729655E+02  0.00000000000E+00 0. -1.
         11    1    4    4    0    0 -0.39384517778E+01  0.20661217780E+01 -0.10657067690E+02  0.11547872255E+02  0.51100000000E-03 0.  1.
        -11    1    4    4    0    0  0.18054415673E+01  0.15390614229E+01 -0.68764516962E+01  0.72741953169E+01  0.51100000000E-03 0. -1.
        -12    1    4    4    0    0 -0.94188956262E+01 -0.15522050737E+02 -0.22568414161E+02  0.28965202772E+02  0.00000000000E+00 0.  1.
</event>
<event>
 8    1  0.2994958E-010  0.9118800E+02  0.7816164E-02  0.1184000E+00
        -11   -1    0    0    0    0  0.00000000000E+00  0.00000000000E+00  0.45593999997E+02  0.45594000000E+02  0.51100000000E-03 0. -1.
         11   -1    0    0    0    0 -0.00000000000E+00 -0.00000000000E+00 -0.45593999997E+02  0.45594000000E+02  0.51100000000E-03 0.  1.
         23    2    1    2    0    0  0.00000000000E+00  0.00000000000E+00  0.00000000000E+00  0.91188000000E+02  0.91188000000E+02 0.  0.
    9900012    2    3    3    0    0 -0.10232697411E+02  0.37810336840E+02  0.18689353626E+02  0.47787290245E+02  0.20000087543E+02 0.  0.
        -12    1    3    3    0    0  0.10232697411E+02 -0.37810336840E+02 -0.18689353626E+02  0.43400709755E+02  0.00000000000E+00 0.  1.
         11    1    4    4    0    0 -0.68878894106E+01  0.16577009850E+02  0.10521719707E+01  0.17981861478E+02  0.51100000000E-03 0. -1.
        -11    1    4    4    0    0  0.26219138037E+01  0.13903790188E+01  0.71474815808E+00  0.30526137982E+01  0.51100000000E-03 0.  1.
         12    1    4    4    0    0 -0.59667218040E+01  0.19842947972E+02  0.16922433498E+02  0.26752814969E+02  0.00000000000E+00 0. -1.
</event>
<event>
 8    1  0.2994958E-010  0.9118800E+02  0.7816164E-02  0.1184000E+00
        -11   -1    0    0    0    0  0.00000000000E+00  0.00000000000E+00  0.45593999997E+02  0.45594000000E+02  0.51100000000E-03 0. -1.
         11   -1    0    0    0    0 -0.00000000000E+00 -0.00000000000E+00 -0.45593999997E+02  0.45594000000E+02  0.51100000000E-03 0.  1.
         23    2    1    2    0    0  0.35527136788E-14  0.00000000000E+00  0.00000000000E+00  0.91188000000E+02  0.91188000000E+02 0.  0.
    9900012    2    3    3    0    0  0.30461880317E+02 -0.35758787036E+01 -0.30706846102E+02  0.47787268917E+02  0.19999990302E+02 0.  0.
         12    1    3    3    0    0 -0.30461880317E+02  0.35758787036E+01  0.30706846102E+02  0.43400731083E+02  0.00000000000E+00 0. -1.
         11    1    4    4    0    0  0.13542853319E+01 -0.24844105633E+01 -0.12825306783E+01  0.31066492896E+01  0.51100000000E-03 0. -1.
        -11    1    4    4    0    0  0.20087827092E+02  0.50597717083E+00 -0.84600654700E+01  0.21802511741E+02  0.51100000000E-03 0.  1.
        -12    1    4    4    0    0  0.90197678932E+01 -0.15974453112E+01 -0.20964249954E+02  0.22878107887E+02  0.00000000000E+00 0.  1.
</event>
<event>
 8    1  0.2994958E-010  0.9118800E+02  0.7816164E-02  0.1184000E+00
        -11   -1    0    0    0    0  0.00000000000E+00  0.00000000000E+00  0.45593999997E+02  0.45594000000E+02  0.51100000000E-03 0. -1.
         11   -1    0    0    0    0 -0.00000000000E+00 -0.00000000000E+00 -0.45593999997E+02  0.45594000000E+02  0.51100000000E-03 0.  1.
         23    2    1    2    0    0  0.35527136788E-14  0.00000000000E+00  0.35527136788E-14  0.91188000000E+02  0.91188000000E+02 0.  0.
    9900012    2    3    3    0    0  0.30366406607E+02 -0.18602672766E+02 -0.24808167585E+02  0.47787271168E+02  0.20000000561E+02 0.  0.
         12    1    3    3    0    0 -0.30366406607E+02  0.18602672766E+02  0.24808167585E+02  0.43400728832E+02  0.00000000000E+00 0. -1.
         11    1    4    4    0    0  0.10127608399E+02 -0.15127958218E+02 -0.18722763799E+02  0.26114468332E+02  0.51100000000E-03 0. -1.
        -11    1    4    4    0    0  0.61086864646E+01 -0.15038309846E+01 -0.34147988274E+01  0.71581009525E+01  0.51100000000E-03 0.  1.
         12    1    4    4    0    0  0.14130111743E+02 -0.19708835633E+01 -0.26706049581E+01  0.14514701883E+02  0.00000000000E+00 0. -1.
</event>
<event>
 8    1  0.2994958E-010  0.9118800E+02  0.7816164E-02  0.1184000E+00
        -11   -1    0    0    0    0  0.00000000000E+00  0.00000000000E+00  0.45593999997E+02  0.45594000000E+02  0.51100000000E-03 0. -1.
         11   -1    0    0    0    0 -0.00000000000E+00 -0.00000000000E+00 -0.45593999997E+02  0.45594000000E+02  0.51100000000E-03 0.  1.
         23    2    1    2    0    0  0.00000000000E+00 -0.35527136788E-14  0.00000000000E+00  0.91188000000E+02  0.91188000000E+02 0.  0.
    9900012    2    3    3    0    0 -0.14543401527E+02 -0.27031481433E+02  0.30682439135E+02  0.47787267429E+02  0.19999983515E+02 0.  0.
        -12    1    3    3    0    0  0.14543401527E+02  0.27031481433E+02 -0.30682439135E+02  0.43400732571E+02  0.00000000000E+00 0.  1.
         11    1    4    4    0    0  0.13653467712E+01 -0.15548842232E+01 -0.32071374131E+00  0.20939661693E+01  0.51100000000E-03 0.  1.
        -11    1    4    4    0    0 -0.72581757800E+01 -0.23561570327E+02  0.23905007277E+02  0.34340618589E+02  0.51100000000E-03 0. -1.
         12    1    4    4    0    0 -0.86505725183E+01 -0.19150268821E+01  0.70981455998E+01  0.11352682670E+02  0.00000000000E+00 0. -1.
</event>
<event>
 8    1  0.2994958E-010  0.9118800E+02  0.7816164E-02  0.1184000E+00
        -11   -1    0    0    0    0  0.00000000000E+00  0.00000000000E+00  0.45593999997E+02  0.45594000000E+02  0.51100000000E-03 0.  1.
         11   -1    0    0    0    0 -0.00000000000E+00 -0.00000000000E+00 -0.45593999997E+02  0.45594000000E+02  0.51100000000E-03 0. -1.
         23    2    1    2    0    0  0.00000000000E+00 -0.17763568394E-14  0.00000000000E+00  0.91188000000E+02  0.91188000000E+02 0.  0.
    9900012    2    3    3    0    0 -0.41897191032E+02  0.10620759551E+02  0.39302748682E+01  0.47787283297E+02  0.20000055864E+02 0.  0.
        -12    1    3    3    0    0  0.41897191032E+02 -0.10620759551E+02 -0.39302748682E+01  0.43400716703E+02  0.00000000000E+00 0.  1.
         11    1    4    4    0    0 -0.11884921262E+02  0.40920952555E+01 -0.21624483531E+01  0.12754323977E+02  0.51100000000E-03 0. -1.
        -11    1    4    4    0    0 -0.24792256984E+01  0.64869117555E+01  0.17253108611E+01  0.71556468621E+01  0.51100000000E-03 0.  1.
         12    1    4    4    0    0 -0.27533044072E+02  0.41752539706E-01  0.43674123602E+01  0.27877312458E+02  0.00000000000E+00 0. -1.
</event>
<event>
 8    1  0.2994958E-010  0.9118800E+02  0.7816164E-02  0.1184000E+00
        -11   -1    0    0    0    0  0.00000000000E+00  0.00000000000E+00  0.45593999997E+02  0.45594000000E+02  0.51100000000E-03 0. -1.
         11   -1    0    0    0    0 -0.00000000000E+00 -0.00000000000E+00 -0.45593999997E+02  0.45594000000E+02  0.51100000000E-03 0.  1.
         23    2    1    2    0    0  0.00000000000E+00  0.00000000000E+00  0.00000000000E+00  0.91188000000E+02  0.91188000000E+02 0.  0.
    9900012    2    3    3    0    0 -0.50470227728E+01  0.14710266822E+02 -0.40518622978E+02  0.47787271931E+02  0.20000004044E+02 0.  0.
         12    1    3    3    0    0  0.50470227728E+01 -0.14710266822E+02  0.40518622978E+02  0.43400728069E+02  0.00000000000E+00 0. -1.
         11    1    4    4    0    0 -0.13392196146E+01  0.25215121714E+01  0.12689636725E+00  0.28579075835E+01  0.51100000000E-03 0. -1.
        -11    1    4    4    0    0 -0.74093573839E+01  0.80433257609E+01 -0.14290622794E+02  0.17994876111E+02  0.51100000000E-03 0.  1.
         12    1    4    4    0    0  0.37015542256E+01  0.41454288901E+01 -0.26354896551E+02  0.26934488237E+02  0.00000000000E+00 0. -1.
</event>
<event>
 8    1  0.2994958E-010  0.9118800E+02  0.7816164E-02  0.1184000E+00
        -11   -1    0    0    0    0  0.00000000000E+00  0.00000000000E+00  0.45593999997E+02  0.45594000000E+02  0.51100000000E-03 0.  1.
         11   -1    0    0    0    0 -0.00000000000E+00 -0.00000000000E+00 -0.45593999997E+02  0.45594000000E+02  0.51100000000E-03 0. -1.
         23    2    1    2    0    0  0.00000000000E+00  0.00000000000E+00  0.00000000000E+00  0.91188000000E+02  0.91188000000E+02 0.  0.
    9900012    2    3    3    0    0 -0.10354102086E+02 -0.41054413623E+02 -0.95368191586E+01  0.47787271578E+02  0.20000002431E+02 0.  0.
         12    1    3    3    0    0  0.10354102086E+02  0.41054413623E+02  0.95368191586E+01  0.43400728422E+02  0.00000000000E+00 0. -1.
         11    1    4    4    0    0 -0.99918086782E+00 -0.26113982907E+01 -0.50351134385E+01  0.57593516162E+01  0.51100000000E-03 0. -1.
        -11    1    4    4    0    0  0.20722339860E+01 -0.19393474622E+01  0.16545234402E+01  0.32852199846E+01  0.51100000000E-03 0.  1.
        -12    1    4    4    0    0 -0.11427155204E+02 -0.36503667870E+02 -0.61562291603E+01  0.38742699977E+02  0.00000000000E+00 0.  1.
</event>
<event>
 8    1  0.2994958E-010  0.9118800E+02  0.7816164E-02  0.1184000E+00
        -11   -1    0    0    0    0  0.00000000000E+00  0.00000000000E+00  0.45593999997E+02  0.45594000000E+02  0.51100000000E-03 0. -1.
         11   -1    0    0    0    0 -0.00000000000E+00 -0.00000000000E+00 -0.45593999997E+02  0.45594000000E+02  0.51100000000E-03 0.  1.
         23    2    1    2    0    0  0.00000000000E+00  0.00000000000E+00  0.00000000000E+00  0.91188000000E+02  0.91188000000E+02 0.  0.
    9900012    2    3    3    0    0 -0.27544353681E+02  0.33401796980E+02 -0.30417010224E+01  0.47787269518E+02  0.19999993042E+02 0.  0.
         12    1    3    3    0    0  0.27544353681E+02 -0.33401796980E+02  0.30417010224E+01  0.43400730482E+02  0.00000000000E+00 0. -1.
         11    1    4    4    0    0 -0.15442649623E+02  0.87453309368E+01  0.31839947695E+00  0.17749862508E+02  0.51100000000E-03 0. -1.
        -11    1    4    4    0    0  0.53208366556E+00  0.96240394778E+01  0.16332070076E+01  0.97761247071E+01  0.51100000000E-03 0.  1.
         12    1    4    4    0    0 -0.12633787724E+02  0.15032426566E+02 -0.49933075070E+01  0.20261282303E+02  0.00000000000E+00 0. -1.
</event>
<event>
 8    1  0.2994958E-010  0.9118800E+02  0.7816164E-02  0.1184000E+00
        -11   -1    0    0    0    0  0.00000000000E+00  0.00000000000E+00  0.45593999997E+02  0.45594000000E+02  0.51100000000E-03 0. -1.
         11   -1    0    0    0    0 -0.00000000000E+00 -0.00000000000E+00 -0.45593999997E+02  0.45594000000E+02  0.51100000000E-03 0.  1.
         23    2    1    2    0    0 -0.35527136788E-14 -0.35527136788E-14  0.00000000000E+00  0.91188000000E+02  0.91188000000E+02 0.  0.
    9900012    2    3    3    0    0  0.26295336871E+02  0.26344908893E+02 -0.22318699828E+02  0.47787270424E+02  0.19999997172E+02 0.  0.
         12    1    3    3    0    0 -0.26295336871E+02 -0.26344908893E+02  0.22318699828E+02  0.43400729576E+02  0.00000000000E+00 0. -1.
         11    1    4    4    0    0  0.74573381285E+01 -0.65060052821E+00 -0.19701017516E+01  0.77405732464E+01  0.51100000000E-03 0. -1.
        -11    1    4    4    0    0 -0.70345820479E+00  0.44783132966E+01 -0.15042654285E+01  0.47762912567E+01  0.51100000000E-03 0.  1.
        -12    1    4    4    0    0  0.19541456947E+02  0.22517196125E+02 -0.18844332648E+02  0.35270405921E+02  0.00000000000E+00 0.  1.
</event>
<event>
 8    1  0.2994958E-010  0.9118800E+02  0.7816164E-02  0.1184000E+00
        -11   -1    0    0    0    0  0.00000000000E+00  0.00000000000E+00  0.45593999997E+02  0.45594000000E+02  0.51100000000E-03 0. -1.
         11   -1    0    0    0    0 -0.00000000000E+00 -0.00000000000E+00 -0.45593999997E+02  0.45594000000E+02  0.51100000000E-03 0.  1.
         23    2    1    2    0    0  0.00000000000E+00 -0.35527136788E-14  0.00000000000E+00  0.91188000000E+02  0.91188000000E+02 0.  0.
    9900012    2    3    3    0    0 -0.78569656968E+01 -0.25037858394E+02  0.34568726525E+02  0.47787272858E+02  0.20000008268E+02 0.  0.
        -12    1    3    3    0    0  0.78569656968E+01  0.25037858394E+02 -0.34568726525E+02  0.43400727142E+02  0.00000000000E+00 0.  1.
         11    1    4    4    0    0  0.21395890241E+01 -0.68832941348E+00  0.69340309365E+01  0.72891991236E+01  0.51100000000E-03 0. -1.
        -11    1    4    4    0    0  0.24535974619E+01 -0.29818567331E+00  0.16962248479E+01  0.29977048214E+01  0.51100000000E-03 0.  1.
         12    1    4    4    0    0 -0.12450152183E+02 -0.24051343307E+02  0.25938470740E+02  0.37500368913E+02  0.00000000000E+00 0. -1.
</event>
<event>
 8    1  0.2994958E-010  0.9118800E+02  0.7816164E-02  0.1184000E+00
        -11   -1    0    0    0    0  0.00000000000E+00  0.00000000000E+00  0.45593999997E+02  0.45594000000E+02  0.51100000000E-03 0. -1.
         11   -1    0    0    0    0 -0.00000000000E+00 -0.00000000000E+00 -0.45593999997E+02  0.45594000000E+02  0.51100000000E-03 0.  1.
         23    2    1    2    0    0  0.00000000000E+00  0.17763568394E-14  0.00000000000E+00  0.91188000000E+02  0.91188000000E+02 0.  0.
    9900012    2    3    3    0    0  0.18917275450E+02  0.90711305481E+01  0.37993081883E+02  0.47787274306E+02  0.20000014869E+02 0.  0.
        -12    1    3    3    0    0 -0.18917275450E+02 -0.90711305481E+01 -0.37993081883E+02  0.43400725694E+02  0.00000000000E+00 0.  1.
         11    1    4    4    0    0  0.35777461748E+01  0.54601854010E+01  0.99736260919E+01  0.11920029781E+02  0.51100000000E-03 0. -1.
        -11    1    4    4    0    0  0.68185575927E+01  0.96662850232E+01  0.16627624422E+02  0.20406069881E+02  0.51100000000E-03 0.  1.
        -12    1    4    4    0    0  0.85209716824E+01 -0.60553398762E+01  0.11391831368E+02  0.15461174643E+02  0.00000000000E+00 0.  1.
</event>
<event>
 8    1  0.2994958E-010  0.9118800E+02  0.7816164E-02  0.1184000E+00
        -11   -1    0    0    0    0  0.00000000000E+00  0.00000000000E+00  0.45593999997E+02  0.45594000000E+02  0.51100000000E-03 0. -1.
         11   -1    0    0    0    0 -0.00000000000E+00 -0.00000000000E+00 -0.45593999997E+02  0.45594000000E+02  0.51100000000E-03 0.  1.
         23    2    1    2    0    0  0.22204460493E-15  0.00000000000E+00  0.00000000000E+00  0.91188000000E+02  0.91188000000E+02 0.  0.
    9900012    2    3    3    0    0  0.27838507135E+00  0.35425369932E+02  0.25071677674E+02  0.47787270116E+02  0.19999995767E+02 0.  0.
        -12    1    3    3    0    0 -0.27838507135E+00 -0.35425369932E+02 -0.25071677674E+02  0.43400729884E+02  0.00000000000E+00 0.  1.
         11    1    4    4    0    0 -0.37089403814E+01  0.84519788256E+00  0.31219354641E+01  0.49210851970E+01  0.51100000000E-03 0. -1.
        -11    1    4    4    0    0  0.39912684977E+01  0.20866599949E+02  0.19692836888E+02  0.28968138404E+02  0.51100000000E-03 0.  1.
         12    1    4    4    0    0 -0.39430448750E-02  0.13713572100E+02  0.22569053225E+01  0.13898046515E+02  0.00000000000E+00 0. -1.
</event>
<event>
 8    1  0.2994958E-010  0.9118800E+02  0.7816164E-02  0.1184000E+00
        -11   -1    0    0    0    0  0.00000000000E+00  0.00000000000E+00  0.45593999997E+02  0.45594000000E+02  0.51100000000E-03 0. -1.
         11   -1    0    0    0    0 -0.00000000000E+00 -0.00000000000E+00 -0.45593999997E+02  0.45594000000E+02  0.51100000000E-03 0.  1.
         23    2    1    2    0    0 -0.71054273576E-14  0.00000000000E+00  0.71054273576E-14  0.91188000000E+02  0.91188000000E+02 0.  0.
    9900012    2    3    3    0    0 -0.19979216183E+02 -0.18443324182E+02  0.33827479993E+02  0.47787266264E+02  0.19999978202E+02 0.  0.
        -12    1    3    3    0    0  0.19979216183E+02  0.18443324182E+02 -0.33827479993E+02  0.43400733736E+02  0.00000000000E+00 0.  1.
         11    1    4    4    0    0 -0.49967937098E+01 -0.71306206792E+01  0.94737887963E+01  0.12867259734E+02  0.51100000000E-03 0. -1.
        -11    1    4    4    0    0 -0.16837347455E+02 -0.40870282291E+01  0.14715365037E+02  0.22731960705E+02  0.51100000000E-03 0.  1.
         12    1    4    4    0    0  0.18549249820E+01 -0.72256752740E+01  0.96383261600E+01  0.12188045825E+02  0.00000000000E+00 0. -1.
</event>
<event>
 8    1  0.2994958E-010  0.9118800E+02  0.7816164E-02  0.1184000E+00
        -11   -1    0    0    0    0  0.00000000000E+00  0.00000000000E+00  0.45593999997E+02  0.45594000000E+02  0.51100000000E-03 0. -1.
         11   -1    0    0    0    0 -0.00000000000E+00 -0.00000000000E+00 -0.45593999997E+02  0.45594000000E+02  0.51100000000E-03 0.  1.
         23    2    1    2    0    0  0.00000000000E+00  0.00000000000E+00 -0.35527136788E-14  0.91188000000E+02  0.91188000000E+02 0.  0.
    9900012    2    3    3    0    0 -0.30591210757E+02 -0.92789274599E+01 -0.29354755979E+02  0.47787281470E+02  0.20000047533E+02 0.  0.
         12    1    3    3    0    0  0.30591210757E+02  0.92789274599E+01  0.29354755979E+02  0.43400718530E+02  0.00000000000E+00 0. -1.
         11    1    4    4    0    0 -0.20025653859E+02 -0.99428942898E+01 -0.86167262931E+01  0.23961133771E+02  0.51100000000E-03 0. -1.
        -11    1    4    4    0    0 -0.67856004475E+01 -0.49523223450E+00 -0.80691288026E+01  0.10554642026E+02  0.51100000000E-03 0.  1.
         12    1    4    4    0    0 -0.37799564508E+01  0.11591990645E+01 -0.12668900883E+02  0.13271505673E+02  0.00000000000E+00 0. -1.
</event>
<event>
 8    1  0.2994958E-010  0.9118800E+02  0.7816164E-02  0.1184000E+00
        -11   -1    0    0    0    0  0.00000000000E+00  0.00000000000E+00  0.45593999997E+02  0.45594000000E+02  0.51100000000E-03 0.  1.
         11   -1    0    0    0    0 -0.00000000000E+00 -0.00000000000E+00 -0.45593999997E+02  0.45594000000E+02  0.51100000000E-03 0. -1.
         23    2    1    2    0    0  0.00000000000E+00  0.00000000000E+00  0.17763568394E-14  0.91188000000E+02  0.91188000000E+02 0.  0.
    9900012    2    3    3    0    0  0.23905470912E+02 -0.34442591235E+02  0.11218721477E+02  0.47787270259E+02  0.19999996418E+02 0.  0.
         12    1    3    3    0    0 -0.23905470912E+02  0.34442591235E+02 -0.11218721477E+02  0.43400729741E+02  0.00000000000E+00 0. -1.
         11    1    4    4    0    0 -0.29308674969E+00  0.12133432172E+01 -0.95020439020E+00  0.15687543625E+01  0.51100000000E-03 0. -1.
        -11    1    4    4    0    0  0.36789658895E+01 -0.68668637384E+01 -0.21404643519E+01  0.80789971854E+01  0.51100000000E-03 0.  1.
        -12    1    4    4    0    0  0.20519591773E+02 -0.28789070713E+02  0.14309390219E+02  0.38139518711E+02  0.00000000000E+00 0.  1.
</event>
<event>
 8    1  0.2994958E-010  0.9118800E+02  0.7816164E-02  0.1184000E+00
        -11   -1    0    0    0    0  0.00000000000E+00  0.00000000000E+00  0.45593999997E+02  0.45594000000E+02  0.51100000000E-03 0.  1.
         11   -1    0    0    0    0 -0.00000000000E+00 -0.00000000000E+00 -0.45593999997E+02  0.45594000000E+02  0.51100000000E-03 0. -1.
         23    2    1    2    0    0  0.71054273576E-14  0.11102230246E-15  0.00000000000E+00  0.91188000000E+02  0.91188000000E+02 0.  0.
    9900012    2    3    3    0    0 -0.43302767148E+02 -0.28169286672E+00 -0.29007246724E+01  0.47787271929E+02  0.20000004031E+02 0.  0.
         12    1    3    3    0    0  0.43302767148E+02  0.28169286672E+00  0.29007246724E+01  0.43400728071E+02  0.00000000000E+00 0. -1.
         11    1    4    4    0    0  0.59647017779E+00 -0.27822937651E+01  0.11931014943E+01  0.30855188713E+01  0.51100000000E-03 0. -1.
        -11    1    4    4    0    0 -0.91186810107E+00 -0.10136608539E+01 -0.35688912602E+00  0.14093906023E+01  0.51100000000E-03 0.  1.
        -12    1    4    4    0    0 -0.42987369224E+02  0.35142617523E+01 -0.37369370406E+01  0.43292362455E+02  0.00000000000E+00 0.  1.
</event>
<event>
 8    1  0.2994958E-010  0.9118800E+02  0.7816164E-02  0.1184000E+00
        -11   -1    0    0    0    0  0.00000000000E+00  0.00000000000E+00  0.45593999997E+02  0.45594000000E+02  0.51100000000E-03 0. -1.
         11   -1    0    0    0    0 -0.00000000000E+00 -0.00000000000E+00 -0.45593999997E+02  0.45594000000E+02  0.51100000000E-03 0.  1.
         23    2    1    2    0    0  0.00000000000E+00  0.71054273576E-14 -0.35527136788E-14  0.91188000000E+02  0.91188000000E+02 0.  0.
    9900012    2    3    3    0    0  0.12390357915E+02  0.37771244886E+02 -0.17419385675E+02  0.47787275273E+02  0.20000019280E+02 0.  0.
         12    1    3    3    0    0 -0.12390357915E+02 -0.37771244886E+02  0.17419385675E+02  0.43400724727E+02  0.00000000000E+00 0. -1.
         11    1    4    4    0    0  0.77239600403E+01  0.10859282032E+02 -0.25345677063E+01  0.13564940054E+02  0.51100000000E-03 0. -1.
        -11    1    4    4    0    0  0.78271010528E+01  0.26434732816E+02 -0.13915753203E+02  0.30882143666E+02  0.51100000000E-03 0.  1.
         12    1    4    4    0    0 -0.31607031778E+01  0.47723003811E+00 -0.96906476570E+00  0.33401915526E+01  0.00000000000E+00 0. -1.
</event>
<event>
 8    1  0.2994958E-010  0.9118800E+02  0.7816164E-02  0.1184000E+00
        -11   -1    0    0    0    0  0.00000000000E+00  0.00000000000E+00  0.45593999997E+02  0.45594000000E+02  0.51100000000E-03 0. -1.
         11   -1    0    0    0    0 -0.00000000000E+00 -0.00000000000E+00 -0.45593999997E+02  0.45594000000E+02  0.51100000000E-03 0.  1.
         23    2    1    2    0    0  0.00000000000E+00  0.00000000000E+00  0.00000000000E+00  0.91188000000E+02  0.91188000000E+02 0.  0.
    9900012    2    3    3    0    0 -0.19556006059E+02  0.11262558641E+02 -0.37072100554E+02  0.47787271440E+02  0.20000001801E+02 0.  0.
         12    1    3    3    0    0  0.19556006059E+02 -0.11262558641E+02  0.37072100554E+02  0.43400728560E+02  0.00000000000E+00 0. -1.
         11    1    4    4    0    0 -0.30090393077E+01 -0.29005131092E+01 -0.18732282604E+02  0.19192855589E+02  0.51100000000E-03 0. -1.
        -11    1    4    4    0    0 -0.87509991295E+01  0.90596950101E+01 -0.98693359707E+01  0.16001932765E+02  0.51100000000E-03 0.  1.
         12    1    4    4    0    0 -0.77959676216E+01  0.51033767400E+01 -0.84704819795E+01  0.12592483086E+02  0.00000000000E+00 0. -1.
</event>
<event>
 8    1  0.2994958E-010  0.9118800E+02  0.7816164E-02  0.1184000E+00
        -11   -1    0    0    0    0  0.00000000000E+00  0.00000000000E+00  0.45593999997E+02  0.45594000000E+02  0.51100000000E-03 0.  1.
         11   -1    0    0    0    0 -0.00000000000E+00 -0.00000000000E+00 -0.45593999997E+02  0.45594000000E+02  0.51100000000E-03 0. -1.
         23    2    1    2    0    0 -0.17763568394E-14  0.00000000000E+00  0.00000000000E+00  0.91188000000E+02  0.91188000000E+02 0.  0.
    9900012    2    3    3    0    0  0.11187792125E+02 -0.36585201508E+02 -0.20493395724E+02  0.47787275002E+02  0.20000018045E+02 0.  0.
         12    1    3    3    0    0 -0.11187792125E+02  0.36585201508E+02  0.20493395724E+02  0.43400724998E+02  0.00000000000E+00 0. -1.
         11    1    4    4    0    0  0.68615117037E+01 -0.10494369846E+02 -0.13439217248E+02  0.18380008211E+02  0.51100000000E-03 0. -1.
        -11    1    4    4    0    0  0.72020464024E+01 -0.15310037739E+02 -0.68336164736E+01  0.18247329731E+02  0.51100000000E-03 0.  1.
        -12    1    4    4    0    0 -0.28757659812E+01 -0.10780793923E+02 -0.22056200255E+00  0.11159937060E+02  0.00000000000E+00 0.  1.
</event>
<event>
 8    1  0.2994958E-010  0.9118800E+02  0.7816164E-02  0.1184000E+00
        -11   -1    0    0    0    0  0.00000000000E+00  0.00000000000E+00  0.45593999997E+02  0.45594000000E+02  0.51100000000E-03 0.  1.
         11   -1    0    0    0    0 -0.00000000000E+00 -0.00000000000E+00 -0.45593999997E+02  0.45594000000E+02  0.51100000000E-03 0. -1.
         23    2    1    2    0    0  0.00000000000E+00  0.00000000000E+00  0.88817841970E-15  0.91188000000E+02  0.91188000000E+02 0.  0.
    9900012    2    3    3    0    0 -0.33988653088E+02  0.26889631962E+02 -0.23113834807E+01  0.47787270290E+02  0.19999996559E+02 0.  0.
         12    1    3    3    0    0  0.33988653088E+02 -0.26889631962E+02  0.23113834807E+01  0.43400729710E+02  0.00000000000E+00 0. -1.
         11    1    4    4    0    0 -0.13141923254E+02  0.17418318816E+02  0.10913799293E+01  0.21847175735E+02  0.51100000000E-03 0. -1.
        -11    1    4    4    0    0 -0.84690475984E+01  0.53014109345E+01  0.41875661298E+01  0.10833532917E+02  0.51100000000E-03 0.  1.
        -12    1    4    4    0    0 -0.12377682235E+02  0.41699022117E+01 -0.75903295397E+01  0.15106561637E+02  0.00000000000E+00 0.  1.
</event>
<event>
 8    1  0.2994958E-010  0.9118800E+02  0.7816164E-02  0.1184000E+00
        -11   -1    0    0    0    0  0.00000000000E+00  0.00000000000E+00  0.45593999997E+02  0.45594000000E+02  0.51100000000E-03 0. -1.
         11   -1    0    0    0    0 -0.00000000000E+00 -0.00000000000E+00 -0.45593999997E+02  0.45594000000E+02  0.51100000000E-03 0.  1.
         23    2    1    2    0    0  0.00000000000E+00  0.00000000000E+00  0.00000000000E+00  0.91188000000E+02  0.91188000000E+02 0.  0.
    9900012    2    3    3    0    0  0.31745767694E+02  0.70811830615E+01  0.28734766329E+02  0.47787265951E+02  0.19999976776E+02 0.  0.
        -12    1    3    3    0    0 -0.31745767694E+02 -0.70811830615E+01 -0.28734766329E+02  0.43400734049E+02  0.00000000000E+00 0.  1.
         11    1    4    4    0    0  0.12121880243E+02 -0.21089742994E+01  0.71617588956E+01  0.14236521484E+02  0.51100000000E-03 0. -1.
        -11    1    4    4    0    0  0.85250386034E+01  0.16763908557E+01  0.17507326363E+02  0.19544642389E+02  0.51100000000E-03 0.  1.
        -12    1    4    4    0    0  0.11098848848E+02  0.75137665052E+01  0.40656810701E+01  0.14006102077E+02  0.00000000000E+00 0.  1.
</event>
<event>
 8    1  0.2994958E-010  0.9118800E+02  0.7816164E-02  0.1184000E+00
        -11   -1    0    0    0    0  0.00000000000E+00  0.00000000000E+00  0.45593999997E+02  0.45594000000E+02  0.51100000000E-03 0. -1.
         11   -1    0    0    0    0 -0.00000000000E+00 -0.00000000000E+00 -0.45593999997E+02  0.45594000000E+02  0.51100000000E-03 0.  1.
         23    2    1    2    0    0  0.00000000000E+00  0.00000000000E+00  0.35527136788E-14  0.91188000000E+02  0.91188000000E+02 0.  0.
    9900012    2    3    3    0    0  0.44201166292E+00 -0.37523314254E+02  0.21804266969E+02  0.47787302483E+02  0.20000143339E+02 0.  0.
        -12    1    3    3    0    0 -0.44201166292E+00  0.37523314254E+02 -0.21804266969E+02  0.43400697517E+02  0.00000000000E+00 0.  1.
         11    1    4    4    0    0 -0.43531884074E+00 -0.21074957557E+02  0.19114699017E+02  0.28455492568E+02  0.51100000000E-03 0. -1.
        -11    1    4    4    0    0 -0.16804556353E+00 -0.14578750938E+02  0.56853603497E+01  0.15649010856E+02  0.51100000000E-03 0.  1.
        -12    1    4    4    0    0  0.10453760672E+01 -0.18696057591E+01 -0.29957923973E+01  0.36827990583E+01  0.00000000000E+00 0.  1.
</event>
<event>
 8    1  0.2994958E-010  0.9118800E+02  0.7816164E-02  0.1184000E+00
        -11   -1    0    0    0    0  0.00000000000E+00  0.00000000000E+00  0.45593999997E+02  0.45594000000E+02  0.51100000000E-03 0. -1.
         11   -1    0    0    0    0 -0.00000000000E+00 -0.00000000000E+00 -0.45593999997E+02  0.45594000000E+02  0.51100000000E-03 0.  1.
         23    2    1    2    0    0  0.00000000000E+00  0.17763568394E-14 -0.71054273576E-14  0.91188000000E+02  0.91188000000E+02 0.  0.
    9900012    2    3    3    0    0  0.17247665843E+02  0.10484129985E+02 -0.38421660917E+02  0.47787274358E+02  0.20000015110E+02 0.  0.
         12    1    3    3    0    0 -0.17247665843E+02 -0.10484129985E+02  0.38421660917E+02  0.43400725642E+02  0.00000000000E+00 0. -1.
         11    1    4    4    0    0  0.51075140169E+01  0.51763205141E+01 -0.29483280027E+01  0.78468867566E+01  0.51100000000E-03 0. -1.
        -11    1    4    4    0    0  0.71197110594E+01  0.82287492934E+01 -0.14207977368E+02  0.17896067212E+02  0.51100000000E-03 0.  1.
         12    1    4    4    0    0  0.50204407669E+01 -0.29209398225E+01 -0.21265355546E+02  0.22044320390E+02  0.00000000000E+00 0. -1.
</event>
<event>
 8    1  0.2994958E-010  0.9118800E+02  0.7816164E-02  0.1184000E+00
        -11   -1    0    0    0    0  0.00000000000E+00  0.00000000000E+00  0.45593999997E+02  0.45594000000E+02  0.51100000000E-03 0. -1.
         11   -1    0    0    0    0 -0.00000000000E+00 -0.00000000000E+00 -0.45593999997E+02  0.45594000000E+02  0.51100000000E-03 0.  1.
         23    2    1    2    0    0  0.35527136788E-14  0.88817841970E-15  0.00000000000E+00  0.91188000000E+02  0.91188000000E+02 0.  0.
    9900012    2    3    3    0    0  0.21867776230E+02 -0.46524362501E+01 -0.37199172293E+02  0.47787271670E+02  0.20000002852E+02 0.  0.
         12    1    3    3    0    0 -0.21867776230E+02  0.46524362501E+01  0.37199172293E+02  0.43400728330E+02  0.00000000000E+00 0. -1.
         11    1    4    4    0    0  0.52775100830E+01 -0.59931946987E+01 -0.45640080348E+01  0.91978619785E+01  0.51100000000E-03 0. -1.
        -11    1    4    4    0    0  0.10833001561E+02 -0.34344093744E+01 -0.11491983369E+02  0.16162140099E+02  0.51100000000E-03 0.  1.
        -12    1    4    4    0    0  0.57572645861E+01  0.47751678230E+01 -0.21143180889E+02  0.22427269592E+02  0.00000000000E+00 0.  1.
</event>
<event>
 8    1  0.2994958E-010  0.9118800E+02  0.7816164E-02  0.1184000E+00
        -11   -1    0    0    0    0  0.00000000000E+00  0.00000000000E+00  0.45593999997E+02  0.45594000000E+02  0.51100000000E-03 0. -1.
         11   -1    0    0    0    0 -0.00000000000E+00 -0.00000000000E+00 -0.45593999997E+02  0.45594000000E+02  0.51100000000E-03 0.  1.
         23    2    1    2    0    0  0.00000000000E+00  0.00000000000E+00  0.00000000000E+00  0.91188000000E+02  0.91188000000E+02 0.  0.
    9900012    2    3    3    0    0 -0.12929405544E+02 -0.22754903923E+02  0.34621779145E+02  0.47787276832E+02  0.20000026389E+02 0.  0.
        -12    1    3    3    0    0  0.12929405544E+02  0.22754903923E+02 -0.34621779145E+02  0.43400723168E+02  0.00000000000E+00 0.  1.
         11    1    4    4    0    0 -0.67824746552E+01 -0.13788413547E+02  0.26452195766E+02  0.30591517969E+02  0.51100000000E-03 0. -1.
        -11    1    4    4    0    0 -0.64972956028E+01 -0.10753252550E+02  0.87203161337E+01  0.15293502029E+02  0.51100000000E-03 0.  1.
        -12    1    4    4    0    0  0.35036471376E+00  0.17867621737E+01 -0.55073275405E+00  0.19022568345E+01  0.00000000000E+00 0.  1.
</event>
<event>
 8    1  0.2994958E-010  0.9118800E+02  0.7816164E-02  0.1184000E+00
        -11   -1    0    0    0    0  0.00000000000E+00  0.00000000000E+00  0.45593999997E+02  0.45594000000E+02  0.51100000000E-03 0. -1.
         11   -1    0    0    0    0 -0.00000000000E+00 -0.00000000000E+00 -0.45593999997E+02  0.45594000000E+02  0.51100000000E-03 0.  1.
         23    2    1    2    0    0  0.00000000000E+00  0.00000000000E+00  0.00000000000E+00  0.91188000000E+02  0.91188000000E+02 0.  0.
    9900012    2    3    3    0    0 -0.18356467839E+02 -0.92598503884E+01  0.38221964198E+02  0.47787270883E+02  0.19999999263E+02 0.  0.
        -12    1    3    3    0    0  0.18356467839E+02  0.92598503884E+01 -0.38221964198E+02  0.43400729117E+02  0.00000000000E+00 0.  1.
         11    1    4    4    0    0 -0.93925885050E+01 -0.47348078284E+01  0.21083804284E+02  0.23561959327E+02  0.51100000000E-03 0. -1.
        -11    1    4    4    0    0  0.34766569967E+01  0.53415302603E+00  0.50639580059E+01  0.61657225266E+01  0.51100000000E-03 0.  1.
         12    1    4    4    0    0 -0.12440536331E+02 -0.50591955860E+01  0.12074201909E+02  0.18059589029E+02  0.00000000000E+00 0. -1.
</event>
<event>
 8    1  0.2994958E-010  0.9118800E+02  0.7816164E-02  0.1184000E+00
        -11   -1    0    0    0    0  0.00000000000E+00  0.00000000000E+00  0.45593999997E+02  0.45594000000E+02  0.51100000000E-03 0.  1.
         11   -1    0    0    0    0 -0.00000000000E+00 -0.00000000000E+00 -0.45593999997E+02  0.45594000000E+02  0.51100000000E-03 0. -1.
         23    2    1    2    0    0  0.00000000000E+00 -0.44408920985E-15  0.00000000000E+00  0.91188000000E+02  0.91188000000E+02 0.  0.
    9900012    2    3    3    0    0  0.42347128977E+02 -0.14596567608E+01 -0.93921925658E+01  0.47787271762E+02  0.20000003271E+02 0.  0.
        -12    1    3    3    0    0 -0.42347128977E+02  0.14596567608E+01  0.93921925658E+01  0.43400728238E+02  0.00000000000E+00 0.  1.
         11    1    4    4    0    0  0.85646527862E+01 -0.11913497283E+01 -0.48859225835E+01  0.99320104347E+01  0.51100000000E-03 0.  1.
        -11    1    4    4    0    0  0.11043136314E+02 -0.29572988195E+01 -0.89640637207E+01  0.14527591494E+02  0.51100000000E-03 0. -1.
        -12    1    4    4    0    0  0.22739339876E+02  0.26889917869E+01  0.44577937384E+01  0.23327669833E+02  0.00000000000E+00 0.  1.
</event>
<event>
 8    1  0.2994958E-010  0.9118800E+02  0.7816164E-02  0.1184000E+00
        -11   -1    0    0    0    0  0.00000000000E+00  0.00000000000E+00  0.45593999997E+02  0.45594000000E+02  0.51100000000E-03 0.  1.
         11   -1    0    0    0    0 -0.00000000000E+00 -0.00000000000E+00 -0.45593999997E+02  0.45594000000E+02  0.51100000000E-03 0. -1.
         23    2    1    2    0    0  0.00000000000E+00  0.22204460493E-15  0.00000000000E+00  0.91188000000E+02  0.91188000000E+02 0.  0.
    9900012    2    3    3    0    0 -0.28988909895E+02  0.19295275697E+01 -0.32241951600E+02  0.47787269401E+02  0.19999992508E+02 0.  0.
         12    1    3    3    0    0  0.28988909895E+02 -0.19295275697E+01  0.32241951600E+02  0.43400730599E+02  0.00000000000E+00 0. -1.
         11    1    4    4    0    0  0.12712257068E+01  0.86968758976E+00 -0.16867977170E+01  0.22842193636E+01  0.51100000000E-03 0. -1.
        -11    1    4    4    0    0 -0.64884784958E+00 -0.34713431399E+01 -0.17363913744E+01  0.39352613627E+01  0.51100000000E-03 0.  1.
         12    1    4    4    0    0 -0.29611287752E+02  0.45311831199E+01 -0.28818762509E+02  0.41567788675E+02  0.00000000000E+00 0. -1.
</event>
<event>
 8    1  0.2994958E-010  0.9118800E+02  0.7816164E-02  0.1184000E+00
        -11   -1    0    0    0    0  0.00000000000E+00  0.00000000000E+00  0.45593999997E+02  0.45594000000E+02  0.51100000000E-03 0. -1.
         11   -1    0    0    0    0 -0.00000000000E+00 -0.00000000000E+00 -0.45593999997E+02  0.45594000000E+02  0.51100000000E-03 0.  1.
         23    2    1    2    0    0 -0.35527136788E-14 -0.35527136788E-14  0.00000000000E+00  0.91188000000E+02  0.91188000000E+02 0.  0.
    9900012    2    3    3    0    0  0.31564693332E+02  0.24512690349E+02  0.16923971168E+02  0.47787278193E+02  0.20000032593E+02 0.  0.
        -12    1    3    3    0    0 -0.31564693332E+02 -0.24512690349E+02 -0.16923971168E+02  0.43400721807E+02  0.00000000000E+00 0.  1.
         11    1    4    4    0    0  0.38734714385E+01  0.51562405349E+01 -0.56032391621E-01  0.64493206874E+01  0.51100000000E-03 0. -1.
        -11    1    4    4    0    0  0.68863070693E+01  0.23037756438E+01 -0.29717463377E+01  0.78460106951E+01  0.51100000000E-03 0.  1.
         12    1    4    4    0    0  0.20804914824E+02  0.17052674170E+02  0.19951749897E+02  0.33491946811E+02  0.00000000000E+00 0. -1.
</event>
<event>
 8    1  0.2994958E-010  0.9118800E+02  0.7816164E-02  0.1184000E+00
        -11   -1    0    0    0    0  0.00000000000E+00  0.00000000000E+00  0.45593999997E+02  0.45594000000E+02  0.51100000000E-03 0. -1.
         11   -1    0    0    0    0 -0.00000000000E+00 -0.00000000000E+00 -0.45593999997E+02  0.45594000000E+02  0.51100000000E-03 0.  1.
         23    2    1    2    0    0  0.35527136788E-14  0.00000000000E+00  0.17763568394E-14  0.91188000000E+02  0.91188000000E+02 0.  0.
    9900012    2    3    3    0    0  0.31064833692E+02  0.26745019061E+02 -0.14258453540E+02  0.47787269197E+02  0.19999991576E+02 0.  0.
         12    1    3    3    0    0 -0.31064833692E+02 -0.26745019061E+02  0.14258453540E+02  0.43400730803E+02  0.00000000000E+00 0. -1.
         11    1    4    4    0    0  0.89737055765E+01  0.31765692911E+01 -0.56985828615E+01  0.11094675801E+02  0.51100000000E-03 0. -1.
        -11    1    4    4    0    0  0.42308229153E+01 -0.10476786733E+01 -0.40450264896E+01  0.59464050237E+01  0.51100000000E-03 0.  1.
         12    1    4    4    0    0  0.17860305200E+02  0.24616128443E+02 -0.45148441893E+01  0.30746188372E+02  0.00000000000E+00 0. -1.
</event>
<event>
 8    1  0.2994958E-010  0.9118800E+02  0.7816164E-02  0.1184000E+00
        -11   -1    0    0    0    0  0.00000000000E+00  0.00000000000E+00  0.45593999997E+02  0.45594000000E+02  0.51100000000E-03 0. -1.
         11   -1    0    0    0    0 -0.00000000000E+00 -0.00000000000E+00 -0.45593999997E+02  0.45594000000E+02  0.51100000000E-03 0.  1.
         23    2    1    2    0    0  0.00000000000E+00 -0.17763568394E-14  0.00000000000E+00  0.91188000000E+02  0.91188000000E+02 0.  0.
    9900012    2    3    3    0    0 -0.17696131655E+02  0.14489367760E+02 -0.36885338137E+02  0.47787273933E+02  0.20000013171E+02 0.  0.
         12    1    3    3    0    0  0.17696131655E+02 -0.14489367760E+02  0.36885338137E+02  0.43400726067E+02  0.00000000000E+00 0. -1.
         11    1    4    4    0    0 -0.12737507842E+02  0.33912072208E+01 -0.13474647047E+02  0.18849681848E+02  0.51100000000E-03 0. -1.
        -11    1    4    4    0    0 -0.35315268258E+01 -0.15393024692E+01 -0.29738012952E+01  0.48666855474E+01  0.51100000000E-03 0.  1.
         12    1    4    4    0    0 -0.14270969874E+01  0.12637463008E+02 -0.20436889795E+02  0.24070906538E+02  0.00000000000E+00 0. -1.
</event>
<event>
 8    1  0.2994958E-010  0.9118800E+02  0.7816164E-02  0.1184000E+00
        -11   -1    0    0    0    0  0.00000000000E+00  0.00000000000E+00  0.45593999997E+02  0.45594000000E+02  0.51100000000E-03 0. -1.
         11   -1    0    0    0    0 -0.00000000000E+00 -0.00000000000E+00 -0.45593999997E+02  0.45594000000E+02  0.51100000000E-03 0.  1.
         23    2    1    2    0    0  0.71054273576E-14  0.88817841970E-15  0.00000000000E+00  0.91188000000E+02  0.91188000000E+02 0.  0.
    9900012    2    3    3    0    0  0.32229584376E+02  0.44006661396E+01 -0.28731715436E+02  0.47787269091E+02  0.19999991096E+02 0.  0.
         12    1    3    3    0    0 -0.32229584376E+02 -0.44006661396E+01  0.28731715436E+02  0.43400730909E+02  0.00000000000E+00 0. -1.
         11    1    4    4    0    0  0.38124198904E+01 -0.35746455849E+01 -0.73241256827E+01  0.89975248682E+01  0.51100000000E-03 0. -1.
        -11    1    4    4    0    0  0.18305573287E+02  0.10826433817E+02 -0.17632306351E+02  0.27626145408E+02  0.51100000000E-03 0.  1.
         12    1    4    4    0    0  0.10111591199E+02 -0.28511220924E+01 -0.37752834019E+01  0.11163598816E+02  0.00000000000E+00 0. -1.
</event>
<event>
 8    1  0.2994958E-010  0.9118800E+02  0.7816164E-02  0.1184000E+00
        -11   -1    0    0    0    0  0.00000000000E+00  0.00000000000E+00  0.45593999997E+02  0.45594000000E+02  0.51100000000E-03 0. -1.
         11   -1    0    0    0    0 -0.00000000000E+00 -0.00000000000E+00 -0.45593999997E+02  0.45594000000E+02  0.51100000000E-03 0.  1.
         23    2    1    2    0    0  0.00000000000E+00  0.00000000000E+00  0.00000000000E+00  0.91188000000E+02  0.91188000000E+02 0.  0.
    9900012    2    3    3    0    0  0.22430299973E+02 -0.11007340211E+02  0.35487227455E+02  0.47787271805E+02  0.20000003468E+02 0.  0.
        -12    1    3    3    0    0 -0.22430299973E+02  0.11007340211E+02 -0.35487227455E+02  0.43400728195E+02  0.00000000000E+00 0.  1.
         11    1    4    4    0    0 -0.46449582168E+00  0.11522432493E+01  0.10590889951E+01  0.16325105312E+01  0.51100000000E-03 0. -1.
        -11    1    4    4    0    0  0.15550166788E+02 -0.11085599157E+01  0.10506846258E+02  0.18799744966E+02  0.51100000000E-03 0.  1.
         12    1    4    4    0    0  0.73446290070E+01 -0.11051023544E+02  0.23921292201E+02  0.27355016308E+02  0.00000000000E+00 0. -1.
</event>
<event>
 8    1  0.2994958E-010  0.9118800E+02  0.7816164E-02  0.1184000E+00
        -11   -1    0    0    0    0  0.00000000000E+00  0.00000000000E+00  0.45593999997E+02  0.45594000000E+02  0.51100000000E-03 0. -1.
         11   -1    0    0    0    0 -0.00000000000E+00 -0.00000000000E+00 -0.45593999997E+02  0.45594000000E+02  0.51100000000E-03 0.  1.
         23    2    1    2    0    0  0.00000000000E+00  0.17763568394E-14  0.17763568394E-14  0.91188000000E+02  0.91188000000E+02 0.  0.
    9900012    2    3    3    0    0 -0.39354286018E+02  0.15534914721E+02  0.96710890173E+01  0.47787269982E+02  0.19999995154E+02 0.  0.
        -12    1    3    3    0    0  0.39354286018E+02 -0.15534914721E+02 -0.96710890173E+01  0.43400730018E+02  0.00000000000E+00 0.  1.
         11    1    4    4    0    0 -0.42295165790E+01  0.70478322932E+01  0.37701858300E+01  0.90429559315E+01  0.51100000000E-03 0. -1.
        -11    1    4    4    0    0 -0.15764978585E+01  0.26324872958E+01 -0.21544840014E+01  0.37492847896E+01  0.51100000000E-03 0.  1.
        -12    1    4    4    0    0 -0.33548271580E+02  0.58545951320E+01  0.80553871887E+01  0.34995029260E+02  0.00000000000E+00 0.  1.
</event>
<event>
 8    1  0.2994958E-010  0.9118800E+02  0.7816164E-02  0.1184000E+00
        -11   -1    0    0    0    0  0.00000000000E+00  0.00000000000E+00  0.45593999997E+02  0.45594000000E+02  0.51100000000E-03 0. -1.
         11   -1    0    0    0    0 -0.00000000000E+00 -0.00000000000E+00 -0.45593999997E+02  0.45594000000E+02  0.51100000000E-03 0.  1.
         23    2    1    2    0    0  0.17763568394E-14  0.00000000000E+00  0.35527136788E-14  0.91188000000E+02  0.91188000000E+02 0.  0.
    9900012    2    3    3    0    0 -0.13693602239E+02  0.25970840641E+02  0.31962852609E+02  0.47787271287E+02  0.20000001107E+02 0.  0.
        -12    1    3    3    0    0  0.13693602239E+02 -0.25970840641E+02 -0.31962852609E+02  0.43400728713E+02  0.00000000000E+00 0.  1.
         11    1    4    4    0    0  0.19992344620E+01  0.26916263667E+01  0.22448392614E+01  0.40349838293E+01  0.51100000000E-03 0. -1.
        -11    1    4    4    0    0 -0.14310975331E+02  0.17720180609E+02  0.13328262427E+02  0.26390365577E+02  0.51100000000E-03 0.  1.
         12    1    4    4    0    0 -0.13818613701E+01  0.55590336652E+01  0.16389750921E+02  0.17361921881E+02  0.00000000000E+00 0. -1.
</event>
<event>
 8    1  0.2994958E-010  0.9118800E+02  0.7816164E-02  0.1184000E+00
        -11   -1    0    0    0    0  0.00000000000E+00  0.00000000000E+00  0.45593999997E+02  0.45594000000E+02  0.51100000000E-03 0. -1.
         11   -1    0    0    0    0 -0.00000000000E+00 -0.00000000000E+00 -0.45593999997E+02  0.45594000000E+02  0.51100000000E-03 0.  1.
         23    2    1    2    0    0  0.00000000000E+00 -0.88817841970E-15  0.00000000000E+00  0.91188000000E+02  0.91188000000E+02 0.  0.
    9900012    2    3    3    0    0 -0.13958195936E+02 -0.79540339975E+01  0.40317792501E+02  0.47787282463E+02  0.20000052060E+02 0.  0.
        -12    1    3    3    0    0  0.13958195936E+02  0.79540339975E+01 -0.40317792501E+02  0.43400717537E+02  0.00000000000E+00 0.  1.
         11    1    4    4    0    0 -0.16198230136E+01 -0.38950080284E+00  0.90092256803E-01  0.16684287059E+01  0.51100000000E-03 0. -1.
        -11    1    4    4    0    0 -0.78100870925E+01 -0.11030550170E+02  0.14729276135E+02  0.19990549597E+02  0.51100000000E-03 0.  1.
         12    1    4    4    0    0 -0.45282858295E+01  0.34660169758E+01  0.25498424109E+02  0.26128304160E+02  0.00000000000E+00 0. -1.
</event>
<event>
 8    1  0.2994958E-010  0.9118800E+02  0.7816164E-02  0.1184000E+00
        -11   -1    0    0    0    0  0.00000000000E+00  0.00000000000E+00  0.45593999997E+02  0.45594000000E+02  0.51100000000E-03 0. -1.
         11   -1    0    0    0    0 -0.00000000000E+00 -0.00000000000E+00 -0.45593999997E+02  0.45594000000E+02  0.51100000000E-03 0.  1.
         23    2    1    2    0    0 -0.17763568394E-14  0.00000000000E+00 -0.35527136788E-14  0.91188000000E+02  0.91188000000E+02 0.  0.
    9900012    2    3    3    0    0 -0.90087931914E+01  0.34758102849E+02 -0.24379089184E+02  0.47787262012E+02  0.19999958818E+02 0.  0.
         12    1    3    3    0    0  0.90087931914E+01 -0.34758102849E+02  0.24379089184E+02  0.43400737988E+02  0.00000000000E+00 0. -1.
         11    1    4    4    0    0 -0.49076452814E+01  0.28779335243E+01 -0.56531006627E+01  0.80202887069E+01  0.51100000000E-03 0. -1.
        -11    1    4    4    0    0 -0.15385122523E+00  0.16250946178E+02 -0.17058853198E+02  0.23561014294E+02  0.51100000000E-03 0.  1.
         12    1    4    4    0    0 -0.39472966847E+01  0.15629223146E+02 -0.16671353236E+01  0.16205959011E+02  0.00000000000E+00 0. -1.
</event>
<event>
 8    1  0.2994958E-010  0.9118800E+02  0.7816164E-02  0.1184000E+00
        -11   -1    0    0    0    0  0.00000000000E+00  0.00000000000E+00  0.45593999997E+02  0.45594000000E+02  0.51100000000E-03 0. -1.
         11   -1    0    0    0    0 -0.00000000000E+00 -0.00000000000E+00 -0.45593999997E+02  0.45594000000E+02  0.51100000000E-03 0.  1.
         23    2    1    2    0    0  0.17763568394E-14  0.44408920985E-15  0.00000000000E+00  0.91188000000E+02  0.91188000000E+02 0.  0.
    9900012    2    3    3    0    0  0.98148350690E+01  0.16011922407E+00 -0.42276077030E+02  0.47787270574E+02  0.19999997857E+02 0.  0.
         12    1    3    3    0    0 -0.98148350690E+01 -0.16011922407E+00  0.42276077030E+02  0.43400729426E+02  0.00000000000E+00 0. -1.
         11    1    4    4    0    0  0.55570236823E+01 -0.35383385133E+00 -0.36366467531E+01  0.66506323360E+01  0.51100000000E-03 0. -1.
        -11    1    4    4    0    0  0.60850654905E+01 -0.52378797777E+01 -0.20319350042E+02  0.21848098155E+02  0.51100000000E-03 0.  1.
         12    1    4    4    0    0 -0.18272541038E+01  0.57518328531E+01 -0.18320080235E+02  0.19288540084E+02  0.00000000000E+00 0. -1.
</event>
<event>
 8    1  0.2994958E-010  0.9118800E+02  0.7816164E-02  0.1184000E+00
        -11   -1    0    0    0    0  0.00000000000E+00  0.00000000000E+00  0.45593999997E+02  0.45594000000E+02  0.51100000000E-03 0. -1.
         11   -1    0    0    0    0 -0.00000000000E+00 -0.00000000000E+00 -0.45593999997E+02  0.45594000000E+02  0.51100000000E-03 0.  1.
         23    2    1    2    0    0  0.35527136788E-14  0.35527136788E-14  0.00000000000E+00  0.91188000000E+02  0.91188000000E+02 0.  0.
    9900012    2    3    3    0    0  0.15283430056E+02  0.24488607384E+02 -0.32409073048E+02  0.47787272567E+02  0.20000006942E+02 0.  0.
         12    1    3    3    0    0 -0.15283430056E+02 -0.24488607384E+02  0.32409073048E+02  0.43400727433E+02  0.00000000000E+00 0. -1.
         11    1    4    4    0    0  0.64046231834E+01  0.10198846195E+02 -0.10009073511E+02  0.15659412972E+02  0.51100000000E-03 0.  1.
        -11    1    4    4    0    0  0.10830778123E+02  0.16365122893E+02 -0.16752972830E+02  0.25802811880E+02  0.51100000000E-03 0. -1.
         12    1    4    4    0    0 -0.19519712499E+01 -0.20753617034E+01 -0.56470267071E+01  0.63250477145E+01  0.00000000000E+00 0. -1.
</event>
<event>
 8    1  0.2994958E-010  0.9118800E+02  0.7816164E-02  0.1184000E+00
        -11   -1    0    0    0    0  0.00000000000E+00  0.00000000000E+00  0.45593999997E+02  0.45594000000E+02  0.51100000000E-03 0. -1.
         11   -1    0    0    0    0 -0.00000000000E+00 -0.00000000000E+00 -0.45593999997E+02  0.45594000000E+02  0.51100000000E-03 0.  1.
         23    2    1    2    0    0  0.00000000000E+00 -0.44408920985E-15  0.35527136788E-14  0.91188000000E+02  0.91188000000E+02 0.  0.
    9900012    2    3    3    0    0  0.31879463184E+02 -0.55678842246E+00  0.29445086099E+02  0.47787270955E+02  0.19999999591E+02 0.  0.
        -12    1    3    3    0    0 -0.31879463184E+02  0.55678842246E+00 -0.29445086099E+02  0.43400729045E+02  0.00000000000E+00 0.  1.
         11    1    4    4    0    0  0.85851751618E+01 -0.25770162622E+01  0.33291815863E+01  0.95618876625E+01  0.51100000000E-03 0. -1.
        -11    1    4    4    0    0  0.16188046171E+02  0.59196547221E+01  0.24506989840E+02  0.29961436917E+02  0.51100000000E-03 0.  1.
        -12    1    4    4    0    0  0.71062418514E+01 -0.38994268824E+01  0.16089146728E+01  0.82639463748E+01  0.00000000000E+00 0.  1.
</event>
<event>
 8    1  0.2994958E-010  0.9118800E+02  0.7816164E-02  0.1184000E+00
        -11   -1    0    0    0    0  0.00000000000E+00  0.00000000000E+00  0.45593999997E+02  0.45594000000E+02  0.51100000000E-03 0. -1.
         11   -1    0    0    0    0 -0.00000000000E+00 -0.00000000000E+00 -0.45593999997E+02  0.45594000000E+02  0.51100000000E-03 0.  1.
         23    2    1    2    0    0 -0.71054273576E-14  0.00000000000E+00  0.00000000000E+00  0.91188000000E+02  0.91188000000E+02 0.  0.
    9900012    2    3    3    0    0 -0.32393597355E+02  0.10318591543E+02  0.26977856905E+02  0.47787271386E+02  0.20000001558E+02 0.  0.
        -12    1    3    3    0    0  0.32393597355E+02 -0.10318591543E+02 -0.26977856905E+02  0.43400728614E+02  0.00000000000E+00 0.  1.
         11    1    4    4    0    0 -0.14286965773E+02  0.48644709851E+01  0.16477194159E+02  0.22344538406E+02  0.51100000000E-03 0. -1.
        -11    1    4    4    0    0 -0.10901263439E+02 -0.36138318266E+01  0.64549871804E+01  0.13174376069E+02  0.51100000000E-03 0.  1.
        -12    1    4    4    0    0 -0.72053681424E+01  0.90679523844E+01  0.40456755656E+01  0.12268356911E+02  0.00000000000E+00 0.  1.
</event>
<event>
 8    1  0.2994958E-010  0.9118800E+02  0.7816164E-02  0.1184000E+00
        -11   -1    0    0    0    0  0.00000000000E+00  0.00000000000E+00  0.45593999997E+02  0.45594000000E+02  0.51100000000E-03 0. -1.
         11   -1    0    0    0    0 -0.00000000000E+00 -0.00000000000E+00 -0.45593999997E+02  0.45594000000E+02  0.51100000000E-03 0.  1.
         23    2    1    2    0    0  0.44408920985E-15  0.00000000000E+00  0.71054273576E-14  0.91188000000E+02  0.91188000000E+02 0.  0.
    9900012    2    3    3    0    0 -0.39580425006E+01  0.20055616398E+02  0.38284840681E+02  0.47787275634E+02  0.20000020925E+02 0.  0.
        -12    1    3    3    0    0  0.39580425006E+01 -0.20055616398E+02 -0.38284840681E+02  0.43400724366E+02  0.00000000000E+00 0.  1.
         11    1    4    4    0    0 -0.23996374015E+01  0.81242595268E+00  0.90612510358E+01  0.94087494484E+01  0.51100000000E-03 0. -1.
        -11    1    4    4    0    0  0.37399999412E+01  0.12249923164E+01  0.12926824193E+02  0.13512623346E+02  0.51100000000E-03 0.  1.
        -12    1    4    4    0    0 -0.52984050402E+01  0.18018198129E+02  0.16296765453E+02  0.24865902839E+02  0.00000000000E+00 0.  1.
</event>
<event>
 8    1  0.2994958E-010  0.9118800E+02  0.7816164E-02  0.1184000E+00
        -11   -1    0    0    0    0  0.00000000000E+00  0.00000000000E+00  0.45593999997E+02  0.45594000000E+02  0.51100000000E-03 0. -1.
         11   -1    0    0    0    0 -0.00000000000E+00 -0.00000000000E+00 -0.45593999997E+02  0.45594000000E+02  0.51100000000E-03 0.  1.
         23    2    1    2    0    0  0.35527136788E-14 -0.17763568394E-14 -0.35527136788E-14  0.91188000000E+02  0.91188000000E+02 0.  0.
    9900012    2    3    3    0    0  0.29348847671E+02  0.10025750584E+02 -0.30360384278E+02  0.47787268809E+02  0.19999989807E+02 0.  0.
         12    1    3    3    0    0 -0.29348847671E+02 -0.10025750584E+02  0.30360384278E+02  0.43400731191E+02  0.00000000000E+00 0. -1.
         11    1    4    4    0    0  0.65201678453E+01  0.66126345693E+01 -0.15215369019E+02  0.17825458741E+02  0.51100000000E-03 0. -1.
        -11    1    4    4    0    0  0.48055963609E+01  0.55249352125E+01 -0.67833213827E+01  0.99815887878E+01  0.51100000000E-03 0.  1.
         12    1    4    4    0    0  0.18023083465E+02 -0.21118191980E+01 -0.83616938766E+01  0.19980221280E+02  0.00000000000E+00 0. -1.
</event>
<event>
 8    1  0.2994958E-010  0.9118800E+02  0.7816164E-02  0.1184000E+00
        -11   -1    0    0    0    0  0.00000000000E+00  0.00000000000E+00  0.45593999997E+02  0.45594000000E+02  0.51100000000E-03 0. -1.
         11   -1    0    0    0    0 -0.00000000000E+00 -0.00000000000E+00 -0.45593999997E+02  0.45594000000E+02  0.51100000000E-03 0.  1.
         23    2    1    2    0    0  0.00000000000E+00  0.00000000000E+00  0.35527136788E-14  0.91188000000E+02  0.91188000000E+02 0.  0.
    9900012    2    3    3    0    0 -0.36062163009E+02 -0.97131557516E+01 -0.22108771883E+02  0.47787276622E+02  0.20000025431E+02 0.  0.
         12    1    3    3    0    0  0.36062163009E+02  0.97131557516E+01  0.22108771883E+02  0.43400723378E+02  0.00000000000E+00 0. -1.
         11    1    4    4    0    0 -0.52803662768E+01 -0.92800805987E+00 -0.77797254654E+01  0.94481530234E+01  0.51100000000E-03 0.  1.
        -11    1    4    4    0    0 -0.19843164945E+02  0.12704575751E+00 -0.13891499747E+02  0.24222739340E+02  0.51100000000E-03 0. -1.
         12    1    4    4    0    0 -0.10938631788E+02 -0.89121934493E+01 -0.43754667082E+00  0.14116384259E+02  0.00000000000E+00 0. -1.
</event>
<event>
 8    1  0.2994958E-010  0.9118800E+02  0.7816164E-02  0.1184000E+00
        -11   -1    0    0    0    0  0.00000000000E+00  0.00000000000E+00  0.45593999997E+02  0.45594000000E+02  0.51100000000E-03 0. -1.
         11   -1    0    0    0    0 -0.00000000000E+00 -0.00000000000E+00 -0.45593999997E+02  0.45594000000E+02  0.51100000000E-03 0.  1.
         23    2    1    2    0    0  0.00000000000E+00  0.00000000000E+00 -0.35527136788E-14  0.91188000000E+02  0.91188000000E+02 0.  0.
    9900012    2    3    3    0    0  0.31516938639E+01  0.33639077067E+02 -0.27241567497E+02  0.47787266368E+02  0.19999978679E+02 0.  0.
         12    1    3    3    0    0 -0.31516938639E+01 -0.33639077067E+02  0.27241567497E+02  0.43400733632E+02  0.00000000000E+00 0. -1.
         11    1    4    4    0    0 -0.50644521079E+01  0.32983193337E+01 -0.72615694828E+00  0.60872727683E+01  0.51100000000E-03 0. -1.
        -11    1    4    4    0    0  0.41890038017E+01  0.50415543484E+01 -0.58609512904E+01  0.87929388368E+01  0.51100000000E-03 0.  1.
         12    1    4    4    0    0  0.40271421702E+01  0.25299203385E+02 -0.20654459258E+02  0.32907054763E+02  0.00000000000E+00 0. -1.
</event>
<event>
 8    1  0.2994958E-010  0.9118800E+02  0.7816164E-02  0.1184000E+00
        -11   -1    0    0    0    0  0.00000000000E+00  0.00000000000E+00  0.45593999997E+02  0.45594000000E+02  0.51100000000E-03 0. -1.
         11   -1    0    0    0    0 -0.00000000000E+00 -0.00000000000E+00 -0.45593999997E+02  0.45594000000E+02  0.51100000000E-03 0.  1.
         23    2    1    2    0    0 -0.71054273576E-14  0.00000000000E+00  0.00000000000E+00  0.91188000000E+02  0.91188000000E+02 0.  0.
    9900012    2    3    3    0    0  0.37980130954E+02  0.94855577406E+01 -0.18739185796E+02  0.47787271467E+02  0.20000001926E+02 0.  0.
         12    1    3    3    0    0 -0.37980130954E+02 -0.94855577406E+01  0.18739185796E+02  0.43400728533E+02  0.00000000000E+00 0. -1.
         11    1    4    4    0    0  0.32748202757E+02  0.12464031265E+02 -0.15657908881E+02  0.38379251816E+02  0.51100000000E-03 0.  1.
        -11    1    4    4    0    0  0.11687246834E+01  0.15041537969E+01  0.95927354783E+00  0.21327451866E+01  0.51100000000E-03 0. -1.
        -12    1    4    4    0    0  0.40632035139E+01 -0.44826273211E+01 -0.40405504620E+01  0.72752744643E+01  0.00000000000E+00 0.  1.
</event>
<event>
 8    1  0.2994958E-010  0.9118800E+02  0.7816164E-02  0.1184000E+00
        -11   -1    0    0    0    0  0.00000000000E+00  0.00000000000E+00  0.45593999997E+02  0.45594000000E+02  0.51100000000E-03 0. -1.
         11   -1    0    0    0    0 -0.00000000000E+00 -0.00000000000E+00 -0.45593999997E+02  0.45594000000E+02  0.51100000000E-03 0.  1.
         23    2    1    2    0    0  0.00000000000E+00  0.00000000000E+00 -0.17763568394E-14  0.91188000000E+02  0.91188000000E+02 0.  0.
    9900012    2    3    3    0    0 -0.22966970654E+02  0.34352269834E+02 -0.13268887753E+02  0.47787267679E+02  0.19999984656E+02 0.  0.
         12    1    3    3    0    0  0.22966970654E+02 -0.34352269834E+02  0.13268887753E+02  0.43400732321E+02  0.00000000000E+00 0. -1.
         11    1    4    4    0    0  0.60616302645E+00 -0.29247364620E+00 -0.43132555727E-01  0.67441465497E+00  0.51100000000E-03 0. -1.
        -11    1    4    4    0    0 -0.20388674111E+02  0.19916637324E+02 -0.14522634361E+02  0.31988707122E+02  0.51100000000E-03 0.  1.
        -12    1    4    4    0    0 -0.31844595699E+01  0.14728106156E+02  0.12968791638E+01  0.15124145902E+02  0.00000000000E+00 0.  1.
</event>
<event>
 8    1  0.3197367E-010  0.9118800E+02  0.7816164E-02  0.1184000E+00
        -11   -1    0    0    0    0  0.00000000000E+00  0.00000000000E+00  0.45593999997E+02  0.45594000000E+02  0.51100000000E-03 0. -1.
         11   -1    0    0    0    0 -0.00000000000E+00 -0.00000000000E+00 -0.45593999997E+02  0.45594000000E+02  0.51100000000E-03 0.  1.
         23    2    1    2    0    0  0.00000000000E+00  0.00000000000E+00  0.00000000000E+00  0.91188000000E+02  0.91188000000E+02 0.  0.
    9900012    2    3    3    0    0 -0.96511381185E+01  0.23929562834E+02  0.34897773147E+02  0.47787274027E+02  0.20000013597E+02 0.  0.
        -12    1    3    3    0    0  0.96511381185E+01 -0.23929562834E+02 -0.34897773147E+02  0.43400725973E+02  0.00000000000E+00 0.  1.
         11    1    4    4    0    0  0.12568186646E+01  0.93706725519E+01  0.12864019775E+02  0.15964714287E+02  0.51100000000E-03 0. -1.
        -11    1    4    4    0    0  0.13969485664E+01  0.36341464784E+01 -0.49468158246E+00  0.39246905678E+01  0.51100000000E-03 0.  1.
         12    1    4    4    0    0 -0.12304905350E+02  0.10924743804E+02  0.22528434954E+02  0.27897869172E+02  0.00000000000E+00 0. -1.
</event>
<event>
 8    1  0.2994958E-010  0.9118800E+02  0.7816164E-02  0.1184000E+00
        -11   -1    0    0    0    0  0.00000000000E+00  0.00000000000E+00  0.45593999997E+02  0.45594000000E+02  0.51100000000E-03 0. -1.
         11   -1    0    0    0    0 -0.00000000000E+00 -0.00000000000E+00 -0.45593999997E+02  0.45594000000E+02  0.51100000000E-03 0.  1.
         23    2    1    2    0    0  0.00000000000E+00  0.00000000000E+00  0.00000000000E+00  0.91188000000E+02  0.91188000000E+02 0.  0.
    9900012    2    3    3    0    0 -0.22521151854E+02 -0.17778051731E+02 -0.32563195208E+02  0.47787273205E+02  0.20000009850E+02 0.  0.
         12    1    3    3    0    0  0.22521151854E+02  0.17778051731E+02  0.32563195208E+02  0.43400726795E+02  0.00000000000E+00 0. -1.
         11    1    4    4    0    0 -0.20553398641E+01  0.20048398540E+01 -0.59384772588E+01  0.65961592773E+01  0.51100000000E-03 0. -1.
        -11    1    4    4    0    0 -0.14928990801E+02 -0.53293274184E+01 -0.11826204252E+02  0.19777148539E+02  0.51100000000E-03 0.  1.
         12    1    4    4    0    0 -0.55368211886E+01 -0.14453564167E+02 -0.14798513697E+02  0.21413965388E+02  0.00000000000E+00 0. -1.
</event>
<event>
 8    1  0.2994958E-010  0.9118800E+02  0.7816164E-02  0.1184000E+00
        -11   -1    0    0    0    0  0.00000000000E+00  0.00000000000E+00  0.45593999997E+02  0.45594000000E+02  0.51100000000E-03 0. -1.
         11   -1    0    0    0    0 -0.00000000000E+00 -0.00000000000E+00 -0.45593999997E+02  0.45594000000E+02  0.51100000000E-03 0.  1.
         23    2    1    2    0    0  0.35527136788E-14  0.35527136788E-14  0.00000000000E+00  0.91188000000E+02  0.91188000000E+02 0.  0.
    9900012    2    3    3    0    0  0.17697305578E+02  0.31921310843E+02 -0.23483146756E+02  0.47787275442E+02  0.20000020048E+02 0.  0.
         12    1    3    3    0    0 -0.17697305578E+02 -0.31921310843E+02  0.23483146756E+02  0.43400724558E+02  0.00000000000E+00 0. -1.
         11    1    4    4    0    0  0.16009796544E+01  0.46948109028E+01 -0.75565410958E+01  0.90391204695E+01  0.51100000000E-03 0. -1.
        -11    1    4    4    0    0  0.64286223022E+01  0.54006665977E-02 -0.32230392475E+01  0.71913278415E+01  0.51100000000E-03 0.  1.
        -12    1    4    4    0    0  0.96677036215E+01  0.27221099273E+02 -0.12703566413E+02  0.31556827131E+02  0.00000000000E+00 0.  1.
</event>
<event>
 8    1  0.2994958E-010  0.9118800E+02  0.7816164E-02  0.1184000E+00
        -11   -1    0    0    0    0  0.00000000000E+00  0.00000000000E+00  0.45593999997E+02  0.45594000000E+02  0.51100000000E-03 0. -1.
         11   -1    0    0    0    0 -0.00000000000E+00 -0.00000000000E+00 -0.45593999997E+02  0.45594000000E+02  0.51100000000E-03 0.  1.
         23    2    1    2    0    0  0.00000000000E+00 -0.88817841970E-15  0.71054273576E-14  0.91188000000E+02  0.91188000000E+02 0.  0.
    9900012    2    3    3    0    0 -0.23701136402E+02  0.74771549447E+01 -0.35580487509E+02  0.47787276456E+02  0.20000024671E+02 0.  0.
         12    1    3    3    0    0  0.23701136402E+02 -0.74771549447E+01  0.35580487509E+02  0.43400723544E+02  0.00000000000E+00 0. -1.
         11    1    4    4    0    0 -0.10897142478E+02 -0.32059197319E+00 -0.55755072880E+01  0.12244867299E+02  0.51100000000E-03 0. -1.
        -11    1    4    4    0    0 -0.13650964234E+02  0.28076400981E+01 -0.20794865501E+02  0.25033140013E+02  0.51100000000E-03 0.  1.
         12    1    4    4    0    0  0.84697030983E+00  0.49901068198E+01 -0.92101147197E+01  0.10509269143E+02  0.00000000000E+00 0. -1.
</event>
<event>
 8    1  0.2994958E-010  0.9118800E+02  0.7816164E-02  0.1184000E+00
        -11   -1    0    0    0    0  0.00000000000E+00  0.00000000000E+00  0.45593999997E+02  0.45594000000E+02  0.51100000000E-03 0. -1.
         11   -1    0    0    0    0 -0.00000000000E+00 -0.00000000000E+00 -0.45593999997E+02  0.45594000000E+02  0.51100000000E-03 0.  1.
         23    2    1    2    0    0  0.17763568394E-14  0.17763568394E-14  0.00000000000E+00  0.91188000000E+02  0.91188000000E+02 0.  0.
    9900012    2    3    3    0    0 -0.13976309311E+02 -0.90981533959E+01  0.40068808284E+02  0.47787274033E+02  0.20000013626E+02 0.  0.
        -12    1    3    3    0    0  0.13976309311E+02  0.90981533959E+01 -0.40068808284E+02  0.43400725967E+02  0.00000000000E+00 0.  1.
         11    1    4    4    0    0 -0.10369413149E+02 -0.69252706751E+01  0.22009076473E+02  0.25295919640E+02  0.51100000000E-03 0. -1.
        -11    1    4    4    0    0 -0.82999864513E+01 -0.25864109381E+01  0.11812020115E+02  0.14666394107E+02  0.51100000000E-03 0.  1.
        -12    1    4    4    0    0  0.46930902890E+01  0.41352821727E+00  0.62477116955E+01  0.78249602860E+01  0.00000000000E+00 0.  1.
</event>
<event>
 8    1  0.2994958E-010  0.9118800E+02  0.7816164E-02  0.1184000E+00
        -11   -1    0    0    0    0  0.00000000000E+00  0.00000000000E+00  0.45593999997E+02  0.45594000000E+02  0.51100000000E-03 0. -1.
         11   -1    0    0    0    0 -0.00000000000E+00 -0.00000000000E+00 -0.45593999997E+02  0.45594000000E+02  0.51100000000E-03 0.  1.
         23    2    1    2    0    0  0.00000000000E+00 -0.35527136788E-14  0.00000000000E+00  0.91188000000E+02  0.91188000000E+02 0.  0.
    9900012    2    3    3    0    0  0.20302827403E+02  0.16958186346E+02 -0.34406950746E+02  0.47787272537E+02  0.20000006803E+02 0.  0.
         12    1    3    3    0    0 -0.20302827403E+02 -0.16958186346E+02  0.34406950746E+02  0.43400727463E+02  0.00000000000E+00 0. -1.
         11    1    4    4    0    0  0.10367857540E+02  0.34560894001E+01 -0.96038383190E+01  0.14548908365E+02  0.51100000000E-03 0. -1.
        -11    1    4    4    0    0  0.10777498325E+02  0.25127163385E+01 -0.13408100717E+02  0.17385205741E+02  0.51100000000E-03 0.  1.
         12    1    4    4    0    0 -0.84252846244E+00  0.10989380607E+02 -0.11395011711E+02  0.15853158431E+02  0.00000000000E+00 0. -1.
</event>
<event>
 8    1  0.2994958E-010  0.9118800E+02  0.7816164E-02  0.1184000E+00
        -11   -1    0    0    0    0  0.00000000000E+00  0.00000000000E+00  0.45593999997E+02  0.45594000000E+02  0.51100000000E-03 0. -1.
         11   -1    0    0    0    0 -0.00000000000E+00 -0.00000000000E+00 -0.45593999997E+02  0.45594000000E+02  0.51100000000E-03 0.  1.
         23    2    1    2    0    0  0.00000000000E+00  0.35527136788E-14 -0.44408920985E-15  0.91188000000E+02  0.91188000000E+02 0.  0.
    9900012    2    3    3    0    0 -0.35225806322E+02  0.25187187863E+02  0.28933594228E+01  0.47787269681E+02  0.19999993783E+02 0.  0.
         12    1    3    3    0    0  0.35225806322E+02 -0.25187187863E+02 -0.28933594228E+01  0.43400730319E+02  0.00000000000E+00 0. -1.
         11    1    4    4    0    0 -0.70206746974E+01  0.58832426243E+01  0.31572755222E+01  0.96886947505E+01  0.51100000000E-03 0. -1.
        -11    1    4    4    0    0 -0.28518224590E+02  0.19784232859E+02  0.29499275521E+01  0.34833993116E+02  0.51100000000E-03 0.  1.
         12    1    4    4    0    0  0.31309296554E+00 -0.48028762074E+00 -0.32138436515E+01  0.32645818139E+01  0.00000000000E+00 0. -1.
</event>
<event>
 8    1  0.2994958E-010  0.9118800E+02  0.7816164E-02  0.1184000E+00
        -11   -1    0    0    0    0  0.00000000000E+00  0.00000000000E+00  0.45593999997E+02  0.45594000000E+02  0.51100000000E-03 0. -1.
         11   -1    0    0    0    0 -0.00000000000E+00 -0.00000000000E+00 -0.45593999997E+02  0.45594000000E+02  0.51100000000E-03 0.  1.
         23    2    1    2    0    0  0.00000000000E+00  0.44408920985E-15  0.00000000000E+00  0.91188000000E+02  0.91188000000E+02 0.  0.
    9900012    2    3    3    0    0 -0.11828254343E+02 -0.28258777273E+01  0.41662088438E+02  0.47787276519E+02  0.20000024959E+02 0.  0.
        -12    1    3    3    0    0  0.11828254343E+02  0.28258777273E+01 -0.41662088438E+02  0.43400723481E+02  0.00000000000E+00 0.  1.
         11    1    4    4    0    0 -0.10269266899E+02 -0.26349818700E+01  0.18099942274E+02  0.20976388695E+02  0.51100000000E-03 0. -1.
        -11    1    4    4    0    0 -0.54956518446E+01  0.16428730284E+01  0.20998535163E+02  0.21767859340E+02  0.51100000000E-03 0.  1.
        -12    1    4    4    0    0  0.39366644004E+01 -0.18337688857E+01  0.25636110005E+01  0.50430284839E+01  0.00000000000E+00 0.  1.
</event>
<event>
 8    1  0.2994958E-010  0.9118800E+02  0.7816164E-02  0.1184000E+00
        -11   -1    0    0    0    0  0.00000000000E+00  0.00000000000E+00  0.45593999997E+02  0.45594000000E+02  0.51100000000E-03 0. -1.
         11   -1    0    0    0    0 -0.00000000000E+00 -0.00000000000E+00 -0.45593999997E+02  0.45594000000E+02  0.51100000000E-03 0.  1.
         23    2    1    2    0    0 -0.35527136788E-14  0.00000000000E+00  0.00000000000E+00  0.91188000000E+02  0.91188000000E+02 0.  0.
    9900012    2    3    3    0    0 -0.20577181414E+02  0.12168596343E+02  0.36223307698E+02  0.47787272443E+02  0.20000006375E+02 0.  0.
        -12    1    3    3    0    0  0.20577181414E+02 -0.12168596343E+02 -0.36223307698E+02  0.43400727557E+02  0.00000000000E+00 0.  1.
         11    1    4    4    0    0 -0.20680731317E+02  0.12611612599E+02  0.29138998822E+02  0.37892303609E+02  0.51100000000E-03 0. -1.
        -11    1    4    4    0    0 -0.31674641827E+01 -0.13984966235E+01  0.40883721189E+01  0.53575562525E+01  0.51100000000E-03 0.  1.
        -12    1    4    4    0    0  0.32710140855E+01  0.95548036749E+00  0.29959367565E+01  0.45374125809E+01  0.00000000000E+00 0.  1.
</event>
<event>
 8    1  0.2994958E-010  0.9118800E+02  0.7816164E-02  0.1184000E+00
        -11   -1    0    0    0    0  0.00000000000E+00  0.00000000000E+00  0.45593999997E+02  0.45594000000E+02  0.51100000000E-03 0. -1.
         11   -1    0    0    0    0 -0.00000000000E+00 -0.00000000000E+00 -0.45593999997E+02  0.45594000000E+02  0.51100000000E-03 0.  1.
         23    2    1    2    0    0  0.00000000000E+00  0.00000000000E+00  0.00000000000E+00  0.91188000000E+02  0.91188000000E+02 0.  0.
    9900012    2    3    3    0    0 -0.27668439599E+02  0.33023016777E+02 -0.52498437037E+01  0.47787273672E+02  0.20000011979E+02 0.  0.
         12    1    3    3    0    0  0.27668439599E+02 -0.33023016777E+02  0.52498437037E+01  0.43400726328E+02  0.00000000000E+00 0. -1.
         11    1    4    4    0    0 -0.84721720670E+01  0.33056430064E+01  0.97969734793E+00  0.91468454875E+01  0.51100000000E-03 0. -1.
        -11    1    4    4    0    0 -0.28111706876E+01  0.40378459647E+01  0.41731583878E+01  0.64515216701E+01  0.51100000000E-03 0.  1.
        -12    1    4    4    0    0 -0.16385096845E+02  0.25679527806E+02 -0.10402699439E+02  0.32188906514E+02  0.00000000000E+00 0.  1.
</event>
<event>
 8    1  0.2994958E-010  0.9118800E+02  0.7816164E-02  0.1184000E+00
        -11   -1    0    0    0    0  0.00000000000E+00  0.00000000000E+00  0.45593999997E+02  0.45594000000E+02  0.51100000000E-03 0.  1.
         11   -1    0    0    0    0 -0.00000000000E+00 -0.00000000000E+00 -0.45593999997E+02  0.45594000000E+02  0.51100000000E-03 0. -1.
         23    2    1    2    0    0  0.71054273576E-14  0.00000000000E+00  0.00000000000E+00  0.91188000000E+02  0.91188000000E+02 0.  0.
    9900012    2    3    3    0    0  0.33320171663E+02  0.21009977122E+02 -0.18220043865E+02  0.47787274468E+02  0.20000015609E+02 0.  0.
        -12    1    3    3    0    0 -0.33320171663E+02 -0.21009977122E+02  0.18220043865E+02  0.43400725532E+02  0.00000000000E+00 0.  1.
         11    1    4    4    0    0  0.93109615702E+01  0.16533000538E+02 -0.97607268030E+01  0.21337898213E+02  0.51100000000E-03 0. -1.
        -11    1    4    4    0    0  0.34652965222E+01 -0.94310072112E+00 -0.25223388878E+01  0.43886117034E+01  0.51100000000E-03 0.  1.
        -12    1    4    4    0    0  0.20543913570E+02  0.54200773047E+01 -0.59369781737E+01  0.22060764552E+02  0.00000000000E+00 0.  1.
</event>
<event>
 8    1  0.2994958E-010  0.9118800E+02  0.7816164E-02  0.1184000E+00
        -11   -1    0    0    0    0  0.00000000000E+00  0.00000000000E+00  0.45593999997E+02  0.45594000000E+02  0.51100000000E-03 0. -1.
         11   -1    0    0    0    0 -0.00000000000E+00 -0.00000000000E+00 -0.45593999997E+02  0.45594000000E+02  0.51100000000E-03 0.  1.
         23    2    1    2    0    0  0.00000000000E+00  0.00000000000E+00  0.00000000000E+00  0.91188000000E+02  0.91188000000E+02 0.  0.
    9900012    2    3    3    0    0 -0.26623600769E+02 -0.27217560091E+02  0.20832932576E+02  0.47787276792E+02  0.20000026205E+02 0.  0.
        -12    1    3    3    0    0  0.26623600769E+02  0.27217560091E+02 -0.20832932576E+02  0.43400723208E+02  0.00000000000E+00 0.  1.
         11    1    4    4    0    0 -0.10628815953E+02 -0.11062224256E+02  0.38805092867E+00  0.15345850183E+02  0.51100000000E-03 0. -1.
        -11    1    4    4    0    0 -0.14285126823E+02 -0.89997982181E+01  0.98633218435E+01  0.19553678282E+02  0.51100000000E-03 0.  1.
        -12    1    4    4    0    0 -0.17096579936E+01 -0.71555376170E+01  0.10581559804E+02  0.12887748327E+02  0.00000000000E+00 0.  1.
</event>
<event>
 8    1  0.2994958E-010  0.9118800E+02  0.7816164E-02  0.1184000E+00
        -11   -1    0    0    0    0  0.00000000000E+00  0.00000000000E+00  0.45593999997E+02  0.45594000000E+02  0.51100000000E-03 0. -1.
         11   -1    0    0    0    0 -0.00000000000E+00 -0.00000000000E+00 -0.45593999997E+02  0.45594000000E+02  0.51100000000E-03 0.  1.
         23    2    1    2    0    0  0.35527136788E-14  0.35527136788E-14  0.00000000000E+00  0.91188000000E+02  0.91188000000E+02 0.  0.
    9900012    2    3    3    0    0 -0.17590661559E+02 -0.25958629396E+02 -0.30005689194E+02  0.47787271916E+02  0.20000003974E+02 0.  0.
         12    1    3    3    0    0  0.17590661559E+02  0.25958629396E+02  0.30005689194E+02  0.43400728084E+02  0.00000000000E+00 0. -1.
         11    1    4    4    0    0 -0.10105194549E+02 -0.24751498368E+01 -0.57168735808E+01  0.11871140105E+02  0.51100000000E-03 0. -1.
        -11    1    4    4    0    0 -0.83965684608E+01 -0.12920950427E+02 -0.11082850496E+02  0.18981119494E+02  0.51100000000E-03 0.  1.
         12    1    4    4    0    0  0.91110145102E+00 -0.10562529132E+02 -0.13205965117E+02  0.16935012318E+02  0.00000000000E+00 0. -1.
</event>
<event>
 8    1  0.2994958E-010  0.9118800E+02  0.7816164E-02  0.1184000E+00
        -11   -1    0    0    0    0  0.00000000000E+00  0.00000000000E+00  0.45593999997E+02  0.45594000000E+02  0.51100000000E-03 0. -1.
         11   -1    0    0    0    0 -0.00000000000E+00 -0.00000000000E+00 -0.45593999997E+02  0.45594000000E+02  0.51100000000E-03 0.  1.
         23    2    1    2    0    0 -0.35527136788E-14  0.44408920985E-15  0.00000000000E+00  0.91188000000E+02  0.91188000000E+02 0.  0.
    9900012    2    3    3    0    0 -0.22987098133E+02 -0.20338972545E+01 -0.36757036463E+02  0.47787272493E+02  0.20000006603E+02 0.  0.
         12    1    3    3    0    0  0.22987098133E+02  0.20338972545E+01  0.36757036463E+02  0.43400727507E+02  0.00000000000E+00 0. -1.
         11    1    4    4    0    0  0.10373326728E+01  0.10721432079E+01  0.13355663962E+01  0.20023206516E+01  0.51100000000E-03 0. -1.
        -11    1    4    4    0    0 -0.28424939967E+01  0.11878769435E+01 -0.92072519219E+01  0.97089809954E+01  0.51100000000E-03 0.  1.
        -12    1    4    4    0    0 -0.21181936810E+02 -0.42939174059E+01 -0.28885350937E+02  0.36075970846E+02  0.00000000000E+00 0.  1.
</event>
<event>
 8    1  0.2994958E-010  0.9118800E+02  0.7816164E-02  0.1184000E+00
        -11   -1    0    0    0    0  0.00000000000E+00  0.00000000000E+00  0.45593999997E+02  0.45594000000E+02  0.51100000000E-03 0. -1.
         11   -1    0    0    0    0 -0.00000000000E+00 -0.00000000000E+00 -0.45593999997E+02  0.45594000000E+02  0.51100000000E-03 0.  1.
         23    2    1    2    0    0  0.00000000000E+00 -0.71054273576E-14  0.00000000000E+00  0.91188000000E+02  0.91188000000E+02 0.  0.
    9900012    2    3    3    0    0 -0.15764082333E+02  0.38070747467E+02 -0.13628470434E+02  0.47787270618E+02  0.19999998056E+02 0.  0.
         12    1    3    3    0    0  0.15764082333E+02 -0.38070747467E+02  0.13628470434E+02  0.43400729382E+02  0.00000000000E+00 0. -1.
         11    1    4    4    0    0 -0.86755088811E+01  0.79995347381E+01  0.20913411373E+01  0.11984603389E+02  0.51100000000E-03 0. -1.
        -11    1    4    4    0    0 -0.30067727283E+01  0.11085660662E+02 -0.11867910930E+01  0.11547338564E+02  0.51100000000E-03 0.  1.
        -12    1    4    4    0    0 -0.40818007241E+01  0.18985552067E+02 -0.14533020478E+02  0.24255328665E+02  0.00000000000E+00 0.  1.
</event>
<event>
 8    1  0.2994958E-010  0.9118800E+02  0.7816164E-02  0.1184000E+00
        -11   -1    0    0    0    0  0.00000000000E+00  0.00000000000E+00  0.45593999997E+02  0.45594000000E+02  0.51100000000E-03 0. -1.
         11   -1    0    0    0    0 -0.00000000000E+00 -0.00000000000E+00 -0.45593999997E+02  0.45594000000E+02  0.51100000000E-03 0.  1.
         23    2    1    2    0    0  0.71054273576E-14 -0.11102230246E-15  0.00000000000E+00  0.91188000000E+02  0.91188000000E+02 0.  0.
    9900012    2    3    3    0    0  0.38183048071E+02  0.33700890023E+00  0.20629182621E+02  0.47787286750E+02  0.20000071608E+02 0.  0.
        -12    1    3    3    0    0 -0.38183048071E+02 -0.33700890023E+00 -0.20629182621E+02  0.43400713250E+02  0.00000000000E+00 0.  1.
         11    1    4    4    0    0  0.18105984328E+02  0.33864650453E+00  0.12656208188E+02  0.22093459573E+02  0.51100000000E-03 0. -1.
        -11    1    4    4    0    0  0.31715178560E+01 -0.13168822629E+01  0.80339261998E+01  0.87370861762E+01  0.51100000000E-03 0.  1.
        -12    1    4    4    0    0  0.16905545887E+02  0.13152446586E+01 -0.60951766878E-01  0.16956741001E+02  0.00000000000E+00 0.  1.
</event>
<event>
 8    1  0.2994958E-010  0.9118800E+02  0.7816164E-02  0.1184000E+00
        -11   -1    0    0    0    0  0.00000000000E+00  0.00000000000E+00  0.45593999997E+02  0.45594000000E+02  0.51100000000E-03 0. -1.
         11   -1    0    0    0    0 -0.00000000000E+00 -0.00000000000E+00 -0.45593999997E+02  0.45594000000E+02  0.51100000000E-03 0.  1.
         23    2    1    2    0    0  0.00000000000E+00  0.00000000000E+00  0.00000000000E+00  0.91188000000E+02  0.91188000000E+02 0.  0.
    9900012    2    3    3    0    0 -0.99387321345E+01  0.15315716882E+02 -0.39373490529E+02  0.47787293364E+02  0.20000101764E+02 0.  0.
         12    1    3    3    0    0  0.99387321345E+01 -0.15315716882E+02  0.39373490529E+02  0.43400706636E+02  0.00000000000E+00 0. -1.
         11    1    4    4    0    0 -0.44936380433E+01  0.26293766529E+01 -0.21679039349E+02  0.22295451370E+02  0.51100000000E-03 0. -1.
        -11    1    4    4    0    0 -0.52091569465E+01  0.27128371573E+01 -0.13399785998E+02  0.14630415803E+02  0.51100000000E-03 0.  1.
         12    1    4    4    0    0 -0.23593714473E+00  0.99735030719E+01 -0.42946651823E+01  0.10861426190E+02  0.00000000000E+00 0. -1.
</event>
<event>
 8    1  0.2994958E-010  0.9118800E+02  0.7816164E-02  0.1184000E+00
        -11   -1    0    0    0    0  0.00000000000E+00  0.00000000000E+00  0.45593999997E+02  0.45594000000E+02  0.51100000000E-03 0. -1.
         11   -1    0    0    0    0 -0.00000000000E+00 -0.00000000000E+00 -0.45593999997E+02  0.45594000000E+02  0.51100000000E-03 0.  1.
         23    2    1    2    0    0  0.00000000000E+00  0.88817841970E-15  0.00000000000E+00  0.91188000000E+02  0.91188000000E+02 0.  0.
    9900012    2    3    3    0    0 -0.33318566697E+02 -0.69785236369E+01 -0.26922051433E+02  0.47787268068E+02  0.19999986428E+02 0.  0.
         12    1    3    3    0    0  0.33318566697E+02  0.69785236369E+01  0.26922051433E+02  0.43400731932E+02  0.00000000000E+00 0. -1.
         11    1    4    4    0    0 -0.59127138075E+00  0.24510427834E+01 -0.38566016278E+01  0.46076663235E+01  0.51100000000E-03 0. -1.
        -11    1    4    4    0    0 -0.16115986891E+02  0.19158325339E+01 -0.12301827266E+02  0.20364930693E+02  0.51100000000E-03 0.  1.
         12    1    4    4    0    0 -0.16611308425E+02 -0.11345398954E+02 -0.10763622540E+02  0.22814671052E+02  0.00000000000E+00 0. -1.
</event>
<event>
 8    1  0.2994958E-010  0.9118800E+02  0.7816164E-02  0.1184000E+00
        -11   -1    0    0    0    0  0.00000000000E+00  0.00000000000E+00  0.45593999997E+02  0.45594000000E+02  0.51100000000E-03 0.  1.
         11   -1    0    0    0    0 -0.00000000000E+00 -0.00000000000E+00 -0.45593999997E+02  0.45594000000E+02  0.51100000000E-03 0. -1.
         23    2    1    2    0    0  0.00000000000E+00  0.88817841970E-15 -0.35527136788E-14  0.91188000000E+02  0.91188000000E+02 0.  0.
    9900012    2    3    3    0    0  0.32111920341E+02 -0.52269877455E+01  0.28724991554E+02  0.47787286082E+02  0.20000068560E+02 0.  0.
        -12    1    3    3    0    0 -0.32111920341E+02  0.52269877455E+01 -0.28724991554E+02  0.43400713918E+02  0.00000000000E+00 0.  1.
         11    1    4    4    0    0  0.36029781665E+01  0.14809838370E+01  0.55581729877E+01  0.67873449902E+01  0.51100000000E-03 0. -1.
        -11    1    4    4    0    0  0.22428691806E+01 -0.37536746503E+01 -0.17171568708E+01  0.46977828304E+01  0.51100000000E-03 0.  1.
         12    1    4    4    0    0  0.26266072994E+02 -0.29542969323E+01  0.24883975437E+02  0.36302158261E+02  0.00000000000E+00 0. -1.
</event>
<event>
 8    1  0.3412957E-010  0.9118800E+02  0.7816164E-02  0.1184000E+00
        -11   -1    0    0    0    0  0.00000000000E+00  0.00000000000E+00  0.45593999997E+02  0.45594000000E+02  0.51100000000E-03 0. -1.
         11   -1    0    0    0    0 -0.00000000000E+00 -0.00000000000E+00 -0.45593999997E+02  0.45594000000E+02  0.51100000000E-03 0.  1.
         23    2    1    2    0    0  0.00000000000E+00  0.44408920985E-15  0.00000000000E+00  0.91188000000E+02  0.91188000000E+02 0.  0.
    9900012    2    3    3    0    0  0.18475946217E+02 -0.36794862313E+01  0.39098899106E+02  0.47787272830E+02  0.20000008142E+02 0.  0.
        -12    1    3    3    0    0 -0.18475946217E+02  0.36794862313E+01 -0.39098899106E+02  0.43400727170E+02  0.00000000000E+00 0.  1.
         11    1    4    4    0    0  0.96733009769E+01  0.12305426077E+01  0.12730463945E+02  0.16035950219E+02  0.51100000000E-03 0. -1.
        -11    1    4    4    0    0  0.28953496815E+01 -0.35457851983E+01 -0.11860257418E+00  0.45792695141E+01  0.51100000000E-03 0.  1.
         12    1    4    4    0    0  0.59072955589E+01 -0.13642436407E+01  0.26487037735E+02  0.27172053097E+02  0.00000000000E+00 0. -1.
</event>
<event>
 8    1  0.2994958E-010  0.9118800E+02  0.7816164E-02  0.1184000E+00
        -11   -1    0    0    0    0  0.00000000000E+00  0.00000000000E+00  0.45593999997E+02  0.45594000000E+02  0.51100000000E-03 0. -1.
         11   -1    0    0    0    0 -0.00000000000E+00 -0.00000000000E+00 -0.45593999997E+02  0.45594000000E+02  0.51100000000E-03 0.  1.
         23    2    1    2    0    0  0.00000000000E+00  0.17763568394E-14 -0.71054273576E-14  0.91188000000E+02  0.91188000000E+02 0.  0.
    9900012    2    3    3    0    0  0.74711194037E+01 -0.15978284209E+02  0.39654758245E+02  0.47787273706E+02  0.20000012133E+02 0.  0.
        -12    1    3    3    0    0 -0.74711194037E+01  0.15978284209E+02 -0.39654758245E+02  0.43400726294E+02  0.00000000000E+00 0.  1.
         11    1    4    4    0    0  0.31352077605E+01  0.14509630506E+01  0.21317050658E+02  0.21595172389E+02  0.51100000000E-03 0. -1.
        -11    1    4    4    0    0 -0.92349912686E+00 -0.11034500972E+01  0.22826129190E+01  0.26982910802E+01  0.51100000000E-03 0.  1.
         12    1    4    4    0    0  0.52594107701E+01 -0.16325797163E+02  0.16055094668E+02  0.23493810237E+02  0.00000000000E+00 0. -1.
</event>
<event>
 8    1  0.2994958E-010  0.9118800E+02  0.7816164E-02  0.1184000E+00
        -11   -1    0    0    0    0  0.00000000000E+00  0.00000000000E+00  0.45593999997E+02  0.45594000000E+02  0.51100000000E-03 0. -1.
         11   -1    0    0    0    0 -0.00000000000E+00 -0.00000000000E+00 -0.45593999997E+02  0.45594000000E+02  0.51100000000E-03 0.  1.
         23    2    1    2    0    0  0.00000000000E+00  0.88817841970E-15  0.00000000000E+00  0.91188000000E+02  0.91188000000E+02 0.  0.
    9900012    2    3    3    0    0  0.35784748372E+02 -0.65224284076E+01  0.23675577591E+02  0.47787271174E+02  0.20000000589E+02 0.  0.
        -12    1    3    3    0    0 -0.35784748372E+02  0.65224284076E+01 -0.23675577591E+02  0.43400728826E+02  0.00000000000E+00 0.  1.
         11    1    4    4    0    0  0.24094082065E+02 -0.47205207226E+01  0.13607019818E+02  0.28070609096E+02  0.51100000000E-03 0. -1.
        -11    1    4    4    0    0  0.68364347200E+01 -0.25856399861E+01  0.12307187959E+02  0.14313952967E+02  0.51100000000E-03 0.  1.
        -12    1    4    4    0    0  0.48542315877E+01  0.78373230104E+00 -0.22386301860E+01  0.54027091109E+01  0.00000000000E+00 0.  1.
</event>
<event>
 8    1  0.2994958E-010  0.9118800E+02  0.7816164E-02  0.1184000E+00
        -11   -1    0    0    0    0  0.00000000000E+00  0.00000000000E+00  0.45593999997E+02  0.45594000000E+02  0.51100000000E-03 0.  1.
         11   -1    0    0    0    0 -0.00000000000E+00 -0.00000000000E+00 -0.45593999997E+02  0.45594000000E+02  0.51100000000E-03 0. -1.
         23    2    1    2    0    0  0.00000000000E+00  0.00000000000E+00  0.00000000000E+00  0.91188000000E+02  0.91188000000E+02 0.  0.
    9900012    2    3    3    0    0  0.32827248739E+02  0.73009686381E+01 -0.27435210942E+02  0.47787271870E+02  0.20000003762E+02 0.  0.
         12    1    3    3    0    0 -0.32827248739E+02 -0.73009686381E+01  0.27435210942E+02  0.43400728130E+02  0.00000000000E+00 0. -1.
         11    1    4    4    0    0  0.46124829760E+01  0.75578651021E+01 -0.11278039196E+02  0.14338427127E+02  0.51100000000E-03 0. -1.
        -11    1    4    4    0    0  0.13370904800E+00  0.11366707521E+01 -0.92899838929E+00  0.14740884562E+01  0.51100000000E-03 0.  1.
        -12    1    4    4    0    0  0.28081056715E+02 -0.13935672162E+01 -0.15228173357E+02  0.31974756287E+02  0.00000000000E+00 0.  1.
</event>
<event>
 8    1  0.2994958E-010  0.9118800E+02  0.7816164E-02  0.1184000E+00
        -11   -1    0    0    0    0  0.00000000000E+00  0.00000000000E+00  0.45593999997E+02  0.45594000000E+02  0.51100000000E-03 0. -1.
         11   -1    0    0    0    0 -0.00000000000E+00 -0.00000000000E+00 -0.45593999997E+02  0.45594000000E+02  0.51100000000E-03 0.  1.
         23    2    1    2    0    0  0.35527136788E-14  0.00000000000E+00  0.00000000000E+00  0.91188000000E+02  0.91188000000E+02 0.  0.
    9900012    2    3    3    0    0 -0.16975336359E+02 -0.17026211287E+02 -0.36132664993E+02  0.47787269651E+02  0.19999993646E+02 0.  0.
         12    1    3    3    0    0  0.16975336359E+02  0.17026211287E+02  0.36132664993E+02  0.43400730349E+02  0.00000000000E+00 0. -1.
         11    1    4    4    0    0 -0.73302926944E+01 -0.43843327775E+01 -0.22452215092E+01  0.88315675152E+01  0.51100000000E-03 0. -1.
        -11    1    4    4    0    0 -0.66950222123E+01 -0.67489363335E+00 -0.96496284199E+01  0.11764103567E+02  0.51100000000E-03 0.  1.
        -12    1    4    4    0    0 -0.29500214524E+01 -0.11966984877E+02 -0.24237815064E+02  0.27191598568E+02  0.00000000000E+00 0.  1.
</event>
<event>
 8    1  0.3776370E-010  0.9118800E+02  0.7816164E-02  0.1184000E+00
        -11   -1    0    0    0    0  0.00000000000E+00  0.00000000000E+00  0.45593999997E+02  0.45594000000E+02  0.51100000000E-03 0. -1.
         11   -1    0    0    0    0 -0.00000000000E+00 -0.00000000000E+00 -0.45593999997E+02  0.45594000000E+02  0.51100000000E-03 0.  1.
         23    2    1    2    0    0 -0.44408920985E-15  0.00000000000E+00  0.00000000000E+00  0.91188000000E+02  0.91188000000E+02 0.  0.
    9900012    2    3    3    0    0 -0.38130175870E+01 -0.11606078808E+02  0.41645933532E+02  0.47787263276E+02  0.19999964580E+02 0.  0.
        -12    1    3    3    0    0  0.38130175870E+01  0.11606078808E+02 -0.41645933532E+02  0.43400736724E+02  0.00000000000E+00 0.  1.
         11    1    4    4    0    0  0.37818379687E+01 -0.57870145596E+01  0.95601070310E+01  0.11797774478E+02  0.51100000000E-03 0.  1.
        -11    1    4    4    0    0  0.23916816325E+01 -0.35842177060E+00  0.57468397295E+00  0.24857331166E+01  0.51100000000E-03 0. -1.
         12    1    4    4    0    0 -0.99865371883E+01 -0.54606424779E+01  0.31511142528E+02  0.33503755681E+02  0.00000000000E+00 0. -1.
</event>
<event>
 8    1  0.2994958E-010  0.9118800E+02  0.7816164E-02  0.1184000E+00
        -11   -1    0    0    0    0  0.00000000000E+00  0.00000000000E+00  0.45593999997E+02  0.45594000000E+02  0.51100000000E-03 0. -1.
         11   -1    0    0    0    0 -0.00000000000E+00 -0.00000000000E+00 -0.45593999997E+02  0.45594000000E+02  0.51100000000E-03 0.  1.
         23    2    1    2    0    0  0.00000000000E+00  0.00000000000E+00 -0.71054273576E-14  0.91188000000E+02  0.91188000000E+02 0.  0.
    9900012    2    3    3    0    0  0.94829659250E+01 -0.12849537394E+02  0.40355739285E+02  0.47787274808E+02  0.20000017160E+02 0.  0.
        -12    1    3    3    0    0 -0.94829659250E+01  0.12849537394E+02 -0.40355739285E+02  0.43400725192E+02  0.00000000000E+00 0.  1.
         11    1    4    4    0    0  0.52147491805E+01  0.20813240601E+00  0.19569068336E+02  0.20253033450E+02  0.51100000000E-03 0. -1.
        -11    1    4    4    0    0 -0.57270503515E-01  0.21597015976E+01  0.33902672614E+01  0.40201372198E+01  0.51100000000E-03 0.  1.
         12    1    4    4    0    0  0.43254872480E+01 -0.15217371398E+02  0.17396403687E+02  0.23514104138E+02  0.00000000000E+00 0. -1.
</event>
<event>
 8    1  0.2994958E-010  0.9118800E+02  0.7816164E-02  0.1184000E+00
        -11   -1    0    0    0    0  0.00000000000E+00  0.00000000000E+00  0.45593999997E+02  0.45594000000E+02  0.51100000000E-03 0. -1.
         11   -1    0    0    0    0 -0.00000000000E+00 -0.00000000000E+00 -0.45593999997E+02  0.45594000000E+02  0.51100000000E-03 0.  1.
         23    2    1    2    0    0  0.00000000000E+00  0.00000000000E+00  0.00000000000E+00  0.91188000000E+02  0.91188000000E+02 0.  0.
    9900012    2    3    3    0    0 -0.36734417232E+02 -0.81241781868E+01  0.21638015484E+02  0.47787269653E+02  0.19999993655E+02 0.  0.
        -12    1    3    3    0    0  0.36734417232E+02  0.81241781868E+01 -0.21638015484E+02  0.43400730347E+02  0.00000000000E+00 0.  1.
         11    1    4    4    0    0 -0.86944868734E+01  0.14335362751E+01 -0.16400599049E-01  0.88118895525E+01  0.51100000000E-03 0. -1.
        -11    1    4    4    0    0 -0.64702584599E+01  0.52552914221E+00 -0.42236172283E+00  0.65052913157E+01  0.51100000000E-03 0.  1.
         12    1    4    4    0    0 -0.21569671899E+02 -0.10083243604E+02  0.22076777806E+02  0.32470088785E+02  0.00000000000E+00 0. -1.
</event>
<event>
 8    1  0.2994958E-010  0.9118800E+02  0.7816164E-02  0.1184000E+00
        -11   -1    0    0    0    0  0.00000000000E+00  0.00000000000E+00  0.45593999997E+02  0.45594000000E+02  0.51100000000E-03 0. -1.
         11   -1    0    0    0    0 -0.00000000000E+00 -0.00000000000E+00 -0.45593999997E+02  0.45594000000E+02  0.51100000000E-03 0.  1.
         23    2    1    2    0    0  0.44408920985E-15  0.00000000000E+00  0.00000000000E+00  0.91188000000E+02  0.91188000000E+02 0.  0.
    9900012    2    3    3    0    0  0.28000683377E+01 -0.25913379458E+02 -0.34702732934E+02  0.47787270850E+02  0.19999999115E+02 0.  0.
         12    1    3    3    0    0 -0.28000683377E+01  0.25913379458E+02  0.34702732934E+02  0.43400729150E+02  0.00000000000E+00 0. -1.
         11    1    4    4    0    0  0.42288170716E+01 -0.50885691348E+01 -0.80258768087E+01  0.10401496454E+02  0.51100000000E-03 0. -1.
        -11    1    4    4    0    0 -0.37293931930E+01 -0.21885570759E+02 -0.26857959218E+02  0.34845897242E+02  0.51100000000E-03 0.  1.
         12    1    4    4    0    0  0.23006444591E+01  0.10607604358E+01  0.18110309190E+00  0.25398771544E+01  0.00000000000E+00 0. -1.
</event>
<event>
 8    1  0.2994958E-010  0.9118800E+02  0.7816164E-02  0.1184000E+00
        -11   -1    0    0    0    0  0.00000000000E+00  0.00000000000E+00  0.45593999997E+02  0.45594000000E+02  0.51100000000E-03 0.  1.
         11   -1    0    0    0    0 -0.00000000000E+00 -0.00000000000E+00 -0.45593999997E+02  0.45594000000E+02  0.51100000000E-03 0. -1.
         23    2    1    2    0    0  0.71054273576E-14  0.88817841970E-15  0.00000000000E+00  0.91188000000E+02  0.91188000000E+02 0.  0.
    9900012    2    3    3    0    0  0.37101772139E+02 -0.48574240643E+01 -0.21988344219E+02  0.47787270215E+02  0.19999996219E+02 0.  0.
         12    1    3    3    0    0 -0.37101772139E+02  0.48574240643E+01  0.21988344219E+02  0.43400729785E+02  0.00000000000E+00 0. -1.
         11    1    4    4    0    0  0.29247464017E+02 -0.11981290081E+01 -0.21379547239E+02  0.36248237266E+02  0.51100000000E-03 0. -1.
        -11    1    4    4    0    0  0.85262156382E+01 -0.87362376072E+00 -0.10671976463E+01  0.86370413141E+01  0.51100000000E-03 0.  1.
        -12    1    4    4    0    0 -0.67190751599E+00 -0.27856712955E+01  0.45840066654E+00  0.29019916346E+01  0.00000000000E+00 0.  1.
</event>
<event>
 8    1  0.2994958E-010  0.9118800E+02  0.7816164E-02  0.1184000E+00
        -11   -1    0    0    0    0  0.00000000000E+00  0.00000000000E+00  0.45593999997E+02  0.45594000000E+02  0.51100000000E-03 0. -1.
         11   -1    0    0    0    0 -0.00000000000E+00 -0.00000000000E+00 -0.45593999997E+02  0.45594000000E+02  0.51100000000E-03 0.  1.
         23    2    1    2    0    0  0.00000000000E+00 -0.35527136788E-14  0.00000000000E+00  0.91188000000E+02  0.91188000000E+02 0.  0.
    9900012    2    3    3    0    0 -0.35091318713E+02 -0.16391902462E+02  0.19583879287E+02  0.47787269093E+02  0.19999991102E+02 0.  0.
        -12    1    3    3    0    0  0.35091318713E+02  0.16391902462E+02 -0.19583879287E+02  0.43400730907E+02  0.00000000000E+00 0.  1.
         11    1    4    4    0    0 -0.30170421977E+02 -0.97516382144E+01  0.12788778713E+02  0.34189204018E+02  0.51100000000E-03 0.  1.
        -11    1    4    4    0    0 -0.58914450615E+01 -0.76963959622E+01  0.40575200970E+01  0.10507478542E+02  0.51100000000E-03 0. -1.
        -12    1    4    4    0    0  0.97054832557E+00  0.10561317142E+01  0.27375804764E+01  0.30905865325E+01  0.00000000000E+00 0.  1.
</event>
<event>
 8    1  0.2994958E-010  0.9118800E+02  0.7816164E-02  0.1184000E+00
        -11   -1    0    0    0    0  0.00000000000E+00  0.00000000000E+00  0.45593999997E+02  0.45594000000E+02  0.51100000000E-03 0. -1.
         11   -1    0    0    0    0 -0.00000000000E+00 -0.00000000000E+00 -0.45593999997E+02  0.45594000000E+02  0.51100000000E-03 0.  1.
         23    2    1    2    0    0  0.44408920985E-15  0.71054273576E-14  0.35527136788E-14  0.91188000000E+02  0.91188000000E+02 0.  0.
    9900012    2    3    3    0    0  0.25908536436E+01  0.36370789203E+02 -0.23538798427E+02  0.47787287319E+02  0.20000074203E+02 0.  0.
         12    1    3    3    0    0 -0.25908536436E+01 -0.36370789203E+02  0.23538798427E+02  0.43400712681E+02  0.00000000000E+00 0. -1.
         11    1    4    4    0    0  0.32166018122E+01  0.18622798501E+02 -0.98243287382E+01  0.21299591232E+02  0.51100000000E-03 0. -1.
        -11    1    4    4    0    0  0.47209748618E+01  0.16328593602E+02 -0.90777022343E+01  0.19269542049E+02  0.51100000000E-03 0.  1.
         12    1    4    4    0    0 -0.53467230303E+01  0.14193970992E+01 -0.46367674542E+01  0.72181540378E+01  0.00000000000E+00 0. -1.
</event>
<event>
 8    1  0.2994958E-010  0.9118800E+02  0.7816164E-02  0.1184000E+00
        -11   -1    0    0    0    0  0.00000000000E+00  0.00000000000E+00  0.45593999997E+02  0.45594000000E+02  0.51100000000E-03 0. -1.
         11   -1    0    0    0    0 -0.00000000000E+00 -0.00000000000E+00 -0.45593999997E+02  0.45594000000E+02  0.51100000000E-03 0.  1.
         23    2    1    2    0    0 -0.35527136788E-14  0.35527136788E-14 -0.17763568394E-14  0.91188000000E+02  0.91188000000E+02 0.  0.
    9900012    2    3    3    0    0 -0.27303794663E+02  0.30597626277E+02 -0.14209563313E+02  0.47787266984E+02  0.19999981487E+02 0.  0.
         12    1    3    3    0    0  0.27303794663E+02 -0.30597626277E+02  0.14209563313E+02  0.43400733016E+02  0.00000000000E+00 0. -1.
         11    1    4    4    0    0  0.58355341654E+00  0.79378945544E+01 -0.36361441427E+01  0.87505570699E+01  0.51100000000E-03 0. -1.
        -11    1    4    4    0    0 -0.77747662771E+01  0.52010771105E+01  0.20303972254E+01  0.95718706075E+01  0.51100000000E-03 0.  1.
        -12    1    4    4    0    0 -0.20112581802E+02  0.17458654612E+02 -0.12603816396E+02  0.29464839307E+02  0.00000000000E+00 0.  1.
</event>
<event>
 8    1  0.2994958E-010  0.9118800E+02  0.7816164E-02  0.1184000E+00
        -11   -1    0    0    0    0  0.00000000000E+00  0.00000000000E+00  0.45593999997E+02  0.45594000000E+02  0.51100000000E-03 0. -1.
         11   -1    0    0    0    0 -0.00000000000E+00 -0.00000000000E+00 -0.45593999997E+02  0.45594000000E+02  0.51100000000E-03 0.  1.
         23    2    1    2    0    0  0.00000000000E+00  0.00000000000E+00  0.00000000000E+00  0.91188000000E+02  0.91188000000E+02 0.  0.
    9900012    2    3    3    0    0  0.16785516211E+02  0.52320699487E+01 -0.39679908702E+02  0.47787271147E+02  0.20000000467E+02 0.  0.
         12    1    3    3    0    0 -0.16785516211E+02 -0.52320699487E+01  0.39679908702E+02  0.43400728853E+02  0.00000000000E+00 0. -1.
         11    1    4    4    0    0 -0.10097298233E+01 -0.51032407337E+00 -0.56823167480E+00  0.12660459996E+01  0.51100000000E-03 0. -1.
        -11    1    4    4    0    0  0.10214124009E+02  0.10068952219E+02 -0.14446874099E+02  0.20357413872E+02  0.51100000000E-03 0.  1.
        -12    1    4    4    0    0  0.75811220253E+01 -0.43265581966E+01 -0.24664802928E+02  0.26163811276E+02  0.00000000000E+00 0.  1.
</event>
<event>
 8    1  0.2994958E-010  0.9118800E+02  0.7816164E-02  0.1184000E+00
        -11   -1    0    0    0    0  0.00000000000E+00  0.00000000000E+00  0.45593999997E+02  0.45594000000E+02  0.51100000000E-03 0. -1.
         11   -1    0    0    0    0 -0.00000000000E+00 -0.00000000000E+00 -0.45593999997E+02  0.45594000000E+02  0.51100000000E-03 0.  1.
         23    2    1    2    0    0  0.00000000000E+00  0.35527136788E-14  0.00000000000E+00  0.91188000000E+02  0.91188000000E+02 0.  0.
    9900012    2    3    3    0    0 -0.22888502886E+02  0.31275934290E+02  0.19533423322E+02  0.47787282762E+02  0.20000053427E+02 0.  0.
        -12    1    3    3    0    0  0.22888502886E+02 -0.31275934290E+02 -0.19533423322E+02  0.43400717238E+02  0.00000000000E+00 0.  1.
         11    1    4    4    0    0 -0.18799021294E+02  0.16076410759E+02  0.19817950210E+02  0.31695509702E+02  0.51100000000E-03 0. -1.
        -11    1    4    4    0    0  0.43354883363E+00  0.21265178730E+01  0.53145825266E+00  0.22343882811E+01  0.51100000000E-03 0.  1.
         12    1    4    4    0    0 -0.45230304251E+01  0.13073005658E+02 -0.81598514049E+00  0.13857384779E+02  0.00000000000E+00 0. -1.
</event>
<event>
 8    1  0.2994958E-010  0.9118800E+02  0.7816164E-02  0.1184000E+00
        -11   -1    0    0    0    0  0.00000000000E+00  0.00000000000E+00  0.45593999997E+02  0.45594000000E+02  0.51100000000E-03 0.  1.
         11   -1    0    0    0    0 -0.00000000000E+00 -0.00000000000E+00 -0.45593999997E+02  0.45594000000E+02  0.51100000000E-03 0. -1.
         23    2    1    2    0    0 -0.35527136788E-14  0.00000000000E+00  0.71054273576E-14  0.91188000000E+02  0.91188000000E+02 0.  0.
    9900012    2    3    3    0    0  0.22232856237E+02 -0.18048230710E+02  0.32612649521E+02  0.47787269165E+02  0.19999991431E+02 0.  0.
        -12    1    3    3    0    0 -0.22232856237E+02  0.18048230710E+02 -0.32612649521E+02  0.43400730835E+02  0.00000000000E+00 0.  1.
         11    1    4    4    0    0  0.41295749888E+01 -0.59123392146E+01  0.19953050357E+01  0.74826724519E+01  0.51100000000E-03 0.  1.
        -11    1    4    4    0    0  0.22049177045E+01 -0.19704352830E+00 -0.13978973294E+01  0.26181301420E+01  0.51100000000E-03 0. -1.
         12    1    4    4    0    0  0.15898363544E+02 -0.11938847967E+02  0.32015241815E+02  0.37686466571E+02  0.00000000000E+00 0. -1.
</event>
<event>
 8    1  0.2994958E-010  0.9118800E+02  0.7816164E-02  0.1184000E+00
        -11   -1    0    0    0    0  0.00000000000E+00  0.00000000000E+00  0.45593999997E+02  0.45594000000E+02  0.51100000000E-03 0. -1.
         11   -1    0    0    0    0 -0.00000000000E+00 -0.00000000000E+00 -0.45593999997E+02  0.45594000000E+02  0.51100000000E-03 0.  1.
         23    2    1    2    0    0 -0.17763568394E-14  0.00000000000E+00  0.00000000000E+00  0.91188000000E+02  0.91188000000E+02 0.  0.
    9900012    2    3    3    0    0 -0.13137519855E+02 -0.50775043920E+01  0.41051769364E+02  0.47787271358E+02  0.20000001428E+02 0.  0.
        -12    1    3    3    0    0  0.13137519855E+02  0.50775043920E+01 -0.41051769364E+02  0.43400728642E+02  0.00000000000E+00 0.  1.
         11    1    4    4    0    0  0.30034224160E+01  0.12203004061E+01  0.28433229734E+01  0.43120952079E+01  0.51100000000E-03 0. -1.
        -11    1    4    4    0    0  0.45321752616E+00  0.13914583743E+01  0.46745829217E+00  0.15362552032E+01  0.51100000000E-03 0.  1.
        -12    1    4    4    0    0 -0.16594159798E+02 -0.76892631724E+01  0.37740988098E+02  0.41938920946E+02  0.00000000000E+00 0.  1.
</event>
<event>
 8    1  0.2994958E-010  0.9118800E+02  0.7816164E-02  0.1184000E+00
        -11   -1    0    0    0    0  0.00000000000E+00  0.00000000000E+00  0.45593999997E+02  0.45594000000E+02  0.51100000000E-03 0. -1.
         11   -1    0    0    0    0 -0.00000000000E+00 -0.00000000000E+00 -0.45593999997E+02  0.45594000000E+02  0.51100000000E-03 0.  1.
         23    2    1    2    0    0  0.17763568394E-14  0.35527136788E-14  0.00000000000E+00  0.91188000000E+02  0.91188000000E+02 0.  0.
    9900012    2    3    3    0    0  0.88132933001E+01 -0.31496086612E+02 -0.28529742086E+02  0.47787265051E+02  0.19999972673E+02 0.  0.
         12    1    3    3    0    0 -0.88132933001E+01  0.31496086612E+02  0.28529742086E+02  0.43400734949E+02  0.00000000000E+00 0. -1.
         11    1    4    4    0    0  0.10745390090E+00 -0.15063568864E+02 -0.18271849561E+02  0.23680860202E+02  0.51100000000E-03 0. -1.
        -11    1    4    4    0    0 -0.81747236531E+00 -0.49463680280E+01 -0.73626183097E+01  0.89074668886E+01  0.51100000000E-03 0.  1.
        -12    1    4    4    0    0  0.95233117645E+01 -0.11486149720E+02 -0.28952742149E+01  0.15198937960E+02  0.00000000000E+00 0.  1.
</event>
<event>
 8    1  0.2994958E-010  0.9118800E+02  0.7816164E-02  0.1184000E+00
        -11   -1    0    0    0    0  0.00000000000E+00  0.00000000000E+00  0.45593999997E+02  0.45594000000E+02  0.51100000000E-03 0. -1.
         11   -1    0    0    0    0 -0.00000000000E+00 -0.00000000000E+00 -0.45593999997E+02  0.45594000000E+02  0.51100000000E-03 0.  1.
         23    2    1    2    0    0  0.00000000000E+00  0.00000000000E+00 -0.71054273576E-14  0.91188000000E+02  0.91188000000E+02 0.  0.
    9900012    2    3    3    0    0  0.90991964699E+01  0.22400976515E+02 -0.36041976279E+02  0.47787272133E+02  0.20000004965E+02 0.  0.
         12    1    3    3    0    0 -0.90991964699E+01 -0.22400976515E+02  0.36041976279E+02  0.43400727867E+02  0.00000000000E+00 0. -1.
         11    1    4    4    0    0 -0.28888884965E+01 -0.58640496003E+00 -0.49692928906E+01  0.57778386630E+01  0.51100000000E-03 0. -1.
        -11    1    4    4    0    0 -0.16585870922E+01  0.70932281829E+01 -0.89918587146E+01  0.11572308352E+02  0.51100000000E-03 0.  1.
         12    1    4    4    0    0  0.13646672059E+02  0.15894153293E+02 -0.22080824674E+02  0.30437125118E+02  0.00000000000E+00 0. -1.
</event>
<event>
 8    1  0.2994958E-010  0.9118800E+02  0.7816164E-02  0.1184000E+00
        -11   -1    0    0    0    0  0.00000000000E+00  0.00000000000E+00  0.45593999997E+02  0.45594000000E+02  0.51100000000E-03 0. -1.
         11   -1    0    0    0    0 -0.00000000000E+00 -0.00000000000E+00 -0.45593999997E+02  0.45594000000E+02  0.51100000000E-03 0.  1.
         23    2    1    2    0    0  0.00000000000E+00 -0.44408920985E-15  0.00000000000E+00  0.91188000000E+02  0.91188000000E+02 0.  0.
    9900012    2    3    3    0    0 -0.17753149815E+02 -0.24943798530E+01 -0.39525015590E+02  0.47787272857E+02  0.20000008262E+02 0.  0.
         12    1    3    3    0    0  0.17753149815E+02  0.24943798530E+01  0.39525015590E+02  0.43400727143E+02  0.00000000000E+00 0. -1.
         11    1    4    4    0    0 -0.54871859562E+01  0.16578147135E+01 -0.85328159825E+01  0.10279421589E+02  0.51100000000E-03 0. -1.
        -11    1    4    4    0    0 -0.15042993286E+02  0.98814578015E+00 -0.19838050726E+02  0.24916186224E+02  0.51100000000E-03 0.  1.
         12    1    4    4    0    0  0.27770294269E+01 -0.51403403466E+01 -0.11154148881E+02  0.12591665044E+02  0.00000000000E+00 0. -1.
</event>
<event>
 8    1  0.2994958E-010  0.9118800E+02  0.7816164E-02  0.1184000E+00
        -11   -1    0    0    0    0  0.00000000000E+00  0.00000000000E+00  0.45593999997E+02  0.45594000000E+02  0.51100000000E-03 0. -1.
         11   -1    0    0    0    0 -0.00000000000E+00 -0.00000000000E+00 -0.45593999997E+02  0.45594000000E+02  0.51100000000E-03 0.  1.
         23    2    1    2    0    0  0.00000000000E+00  0.00000000000E+00 -0.35527136788E-14  0.91188000000E+02  0.91188000000E+02 0.  0.
    9900012    2    3    3    0    0 -0.19639072385E+02 -0.29043639868E+02 -0.25581186026E+02  0.47787271211E+02  0.20000000759E+02 0.  0.
         12    1    3    3    0    0  0.19639072385E+02  0.29043639868E+02  0.25581186026E+02  0.43400728789E+02  0.00000000000E+00 0. -1.
         11    1    4    4    0    0 -0.51196369974E+01 -0.40117303970E-01 -0.58279082529E+01  0.77573711557E+01  0.51100000000E-03 0. -1.
        -11    1    4    4    0    0 -0.32862967581E+01 -0.93555442217E+01 -0.13119534428E+02  0.16445307475E+02  0.51100000000E-03 0.  1.
        -12    1    4    4    0    0 -0.11233138630E+02 -0.19647978342E+02 -0.66337433452E+01  0.23584592580E+02  0.00000000000E+00 0.  1.
</event>
<event>
 8    1  0.2994958E-010  0.9118800E+02  0.7816164E-02  0.1184000E+00
        -11   -1    0    0    0    0  0.00000000000E+00  0.00000000000E+00  0.45593999997E+02  0.45594000000E+02  0.51100000000E-03 0. -1.
         11   -1    0    0    0    0 -0.00000000000E+00 -0.00000000000E+00 -0.45593999997E+02  0.45594000000E+02  0.51100000000E-03 0.  1.
         23    2    1    2    0    0 -0.71054273576E-14  0.00000000000E+00  0.00000000000E+00  0.91188000000E+02  0.91188000000E+02 0.  0.
    9900012    2    3    3    0    0 -0.29484210072E+02  0.28966778871E+02  0.13237461921E+02  0.47787270515E+02  0.19999997588E+02 0.  0.
        -12    1    3    3    0    0  0.29484210072E+02 -0.28966778871E+02 -0.13237461921E+02  0.43400729485E+02  0.00000000000E+00 0.  1.
         11    1    4    4    0    0 -0.15908942896E+02  0.17548082469E+02  0.44942003577E+01  0.24108660260E+02  0.51100000000E-03 0. -1.
        -11    1    4    4    0    0 -0.12835227459E+02  0.13654916443E+02  0.97407084529E+01  0.21120634659E+02  0.51100000000E-03 0.  1.
        -12    1    4    4    0    0 -0.74003971662E+00 -0.22362200411E+01 -0.99744688938E+00  0.25579755963E+01  0.00000000000E+00 0.  1.
</event>
<event>
 8    1  0.4039417E-010  0.9118800E+02  0.7816164E-02  0.1184000E+00
        -11   -1    0    0    0    0  0.00000000000E+00  0.00000000000E+00  0.45593999997E+02  0.45594000000E+02  0.51100000000E-03 0. -1.
         11   -1    0    0    0    0 -0.00000000000E+00 -0.00000000000E+00 -0.45593999997E+02  0.45594000000E+02  0.51100000000E-03 0.  1.
         23    2    1    2    0    0 -0.35527136788E-14  0.00000000000E+00  0.00000000000E+00  0.91188000000E+02  0.91188000000E+02 0.  0.
    9900012    2    3    3    0    0  0.17255975283E+02  0.95373868255E+01  0.38663849929E+02  0.47787265885E+02  0.19999976476E+02 0.  0.
        -12    1    3    3    0    0 -0.17255975283E+02 -0.95373868255E+01 -0.38663849929E+02  0.43400734115E+02  0.00000000000E+00 0.  1.
         11    1    4    4    0    0  0.12405711584E+02  0.94405491536E+01  0.17352981633E+02  0.23327057681E+02  0.51100000000E-03 0. -1.
        -11    1    4    4    0    0 -0.27564991139E+01 -0.16051531906E+01  0.23571356187E+01  0.39662189446E+01  0.51100000000E-03 0.  1.
         12    1    4    4    0    0  0.76067628132E+01  0.17019908626E+01  0.18953732676E+02  0.20493989259E+02  0.00000000000E+00 0. -1.
</event>
<event>
 8    1  0.2994958E-010  0.9118800E+02  0.7816164E-02  0.1184000E+00
        -11   -1    0    0    0    0  0.00000000000E+00  0.00000000000E+00  0.45593999997E+02  0.45594000000E+02  0.51100000000E-03 0. -1.
         11   -1    0    0    0    0 -0.00000000000E+00 -0.00000000000E+00 -0.45593999997E+02  0.45594000000E+02  0.51100000000E-03 0.  1.
         23    2    1    2    0    0  0.00000000000E+00  0.00000000000E+00  0.00000000000E+00  0.91188000000E+02  0.91188000000E+02 0.  0.
    9900012    2    3    3    0    0  0.21636633132E+02  0.19433288552E+02 -0.32215317885E+02  0.47787270702E+02  0.19999998437E+02 0.  0.
         12    1    3    3    0    0 -0.21636633132E+02 -0.19433288552E+02  0.32215317885E+02  0.43400729298E+02  0.00000000000E+00 0. -1.
         11    1    4    4    0    0  0.18946795931E+02  0.13263211119E+02 -0.16181927470E+02  0.28226735946E+02  0.51100000000E-03 0. -1.
        -11    1    4    4    0    0  0.58008197668E+01  0.36499619885E+01 -0.12329709204E+02  0.14106504238E+02  0.51100000000E-03 0.  1.
        -12    1    4    4    0    0 -0.31109825666E+01  0.25201154450E+01 -0.37036812109E+01  0.54540305186E+01  0.00000000000E+00 0.  1.
</event>
<event>
 8    1  0.3487977E-010  0.9118800E+02  0.7816164E-02  0.1184000E+00
        -11   -1    0    0    0    0  0.00000000000E+00  0.00000000000E+00  0.45593999997E+02  0.45594000000E+02  0.51100000000E-03 0. -1.
         11   -1    0    0    0    0 -0.00000000000E+00 -0.00000000000E+00 -0.45593999997E+02  0.45594000000E+02  0.51100000000E-03 0.  1.
         23    2    1    2    0    0 -0.22204460493E-14  0.00000000000E+00 -0.71054273576E-14  0.91188000000E+02  0.91188000000E+02 0.  0.
    9900012    2    3    3    0    0  0.37185616761E+01 -0.36474335351E+01  0.43087022536E+02  0.47787274391E+02  0.20000015258E+02 0.  0.
        -12    1    3    3    0    0 -0.37185616761E+01  0.36474335351E+01 -0.43087022536E+02  0.43400725609E+02  0.00000000000E+00 0.  1.
         11    1    4    4    0    0  0.64235710162E+00 -0.18004444027E+01  0.89434668732E+00  0.21104688937E+01  0.51100000000E-03 0.  1.
        -11    1    4    4    0    0  0.81903534454E+01 -0.85367414018E+00  0.95025073638E+01  0.12574112118E+02  0.51100000000E-03 0. -1.
         12    1    4    4    0    0 -0.51141488709E+01 -0.99331499227E+00  0.32690168485E+02  0.33102693379E+02  0.00000000000E+00 0. -1.
</event>
<event>
 8    1 -0.2994958E-010  0.9118800E+02  0.7816164E-02  0.1184000E+00
        -11   -1    0    0    0    0  0.00000000000E+00  0.00000000000E+00  0.45593999997E+02  0.45594000000E+02  0.51100000000E-03 0. -1.
         11   -1    0    0    0    0 -0.00000000000E+00 -0.00000000000E+00 -0.45593999997E+02  0.45594000000E+02  0.51100000000E-03 0.  1.
         23    2    1    2    0    0  0.44408920985E-15  0.00000000000E+00  0.35527136788E-14  0.91188000000E+02  0.91188000000E+02 0.  0.
    9900012    2    3    3    0    0 -0.32533406689E+01 -0.38405063511E+02  0.19952231245E+02  0.47787255070E+02  0.19999927168E+02 0.  0.
        -12    1    3    3    0    0  0.32533406689E+01  0.38405063511E+02 -0.19952231245E+02  0.43400744930E+02  0.00000000000E+00 0.  1.
         11    1    4    4    0    0 -0.53894049347E+01 -0.31289173597E+02  0.15344465349E+02  0.35263446897E+02  0.51100000000E-03 0. -1.
        -11    1    4    4    0    0 -0.30003261003E+01 -0.27708485441E+01 -0.44747660435E+00  0.41085026391E+01  0.51100000000E-03 0.  1.
         12    1    4    4    0    0  0.51363903661E+01 -0.43450413695E+01  0.50552425004E+01  0.84153055342E+01  0.00000000000E+00 0. -1.
</event>
<event>
 8    1  0.2994958E-010  0.9118800E+02  0.7816164E-02  0.1184000E+00
        -11   -1    0    0    0    0  0.00000000000E+00  0.00000000000E+00  0.45593999997E+02  0.45594000000E+02  0.51100000000E-03 0. -1.
         11   -1    0    0    0    0 -0.00000000000E+00 -0.00000000000E+00 -0.45593999997E+02  0.45594000000E+02  0.51100000000E-03 0.  1.
         23    2    1    2    0    0  0.00000000000E+00  0.00000000000E+00 -0.35527136788E-14  0.91188000000E+02  0.91188000000E+02 0.  0.
    9900012    2    3    3    0    0  0.30233035576E+02 -0.51598221860E+01 -0.30707707511E+02  0.47787268373E+02  0.19999987822E+02 0.  0.
         12    1    3    3    0    0 -0.30233035576E+02  0.51598221860E+01  0.30707707511E+02  0.43400731627E+02  0.00000000000E+00 0. -1.
         11    1    4    4    0    0  0.54963000382E+01 -0.25480743632E+01  0.79644326348E+00  0.61103452606E+01  0.51100000000E-03 0. -1.
        -11    1    4    4    0    0  0.39826439225E+01 -0.33953210854E+01 -0.20147130780E+01  0.56079164521E+01  0.51100000000E-03 0.  1.
        -12    1    4    4    0    0  0.20754091615E+02  0.78357326270E+00 -0.29489437697E+02  0.36069006661E+02  0.00000000000E+00 0.  1.
</event>
<event>
 8    1  0.2994958E-010  0.9118800E+02  0.7816164E-02  0.1184000E+00
        -11   -1    0    0    0    0  0.00000000000E+00  0.00000000000E+00  0.45593999997E+02  0.45594000000E+02  0.51100000000E-03 0. -1.
         11   -1    0    0    0    0 -0.00000000000E+00 -0.00000000000E+00 -0.45593999997E+02  0.45594000000E+02  0.51100000000E-03 0.  1.
         23    2    1    2    0    0  0.00000000000E+00  0.35527136788E-14  0.35527136788E-14  0.91188000000E+02  0.91188000000E+02 0.  0.
    9900012    2    3    3    0    0 -0.29533797221E+02  0.16625678527E+02  0.27110235596E+02  0.47787271447E+02  0.20000001837E+02 0.  0.
        -12    1    3    3    0    0  0.29533797221E+02 -0.16625678527E+02 -0.27110235596E+02  0.43400728553E+02  0.00000000000E+00 0.  1.
         11    1    4    4    0    0 -0.42162080189E+01  0.40511061895E+01  0.14912562425E+02  0.16017877192E+02  0.51100000000E-03 0. -1.
        -11    1    4    4    0    0 -0.78077687197E+01  0.73178113064E+01  0.21729688884E+01  0.10919405146E+02  0.51100000000E-03 0.  1.
        -12    1    4    4    0    0 -0.17509820483E+02  0.52567610316E+01  0.10024704283E+02  0.20849989109E+02  0.00000000000E+00 0.  1.
</event>
<event>
 8    1  0.2994958E-010  0.9118800E+02  0.7816164E-02  0.1184000E+00
        -11   -1    0    0    0    0  0.00000000000E+00  0.00000000000E+00  0.45593999997E+02  0.45594000000E+02  0.51100000000E-03 0. -1.
         11   -1    0    0    0    0 -0.00000000000E+00 -0.00000000000E+00 -0.45593999997E+02  0.45594000000E+02  0.51100000000E-03 0.  1.
         23    2    1    2    0    0  0.35527136788E-14 -0.71054273576E-14  0.00000000000E+00  0.91188000000E+02  0.91188000000E+02 0.  0.
    9900012    2    3    3    0    0 -0.16998636094E+02  0.39737297351E+02  0.39518483157E+01  0.47787268037E+02  0.19999986288E+02 0.  0.
        -12    1    3    3    0    0  0.16998636094E+02 -0.39737297351E+02 -0.39518483157E+01  0.43400731963E+02  0.00000000000E+00 0.  1.
         11    1    4    4    0    0 -0.87406960507E+00 -0.42495670758E+00  0.90344875835E+00  0.13269535779E+01  0.51100000000E-03 0.  1.
        -11    1    4    4    0    0 -0.11945009607E+02  0.39931710874E+02  0.47334980026E+01  0.41947953364E+02  0.51100000000E-03 0. -1.
         12    1    4    4    0    0 -0.41795568813E+01  0.23054318502E+00 -0.16850984453E+01  0.45123610953E+01  0.00000000000E+00 0. -1.
</event>
<event>
 8    1  0.2994958E-010  0.9118800E+02  0.7816164E-02  0.1184000E+00
        -11   -1    0    0    0    0  0.00000000000E+00  0.00000000000E+00  0.45593999997E+02  0.45594000000E+02  0.51100000000E-03 0.  1.
         11   -1    0    0    0    0 -0.00000000000E+00 -0.00000000000E+00 -0.45593999997E+02  0.45594000000E+02  0.51100000000E-03 0. -1.
         23    2    1    2    0    0  0.00000000000E+00 -0.88817841970E-15 -0.17763568394E-14  0.91188000000E+02  0.91188000000E+02 0.  0.
    9900012    2    3    3    0    0 -0.41438797633E+02 -0.50067813184E+01  0.11890399976E+02  0.47787269361E+02  0.19999992323E+02 0.  0.
        -12    1    3    3    0    0  0.41438797633E+02  0.50067813184E+01 -0.11890399976E+02  0.43400730639E+02  0.00000000000E+00 0.  1.
         11    1    4    4    0    0 -0.97538577713E+01  0.88776908836E+00  0.20662637745E+01  0.10009761317E+02  0.51100000000E-03 0.  1.
        -11    1    4    4    0    0 -0.12457695889E+01  0.23996247557E+01  0.52411198888E+01  0.58974128892E+01  0.51100000000E-03 0. -1.
         12    1    4    4    0    0 -0.30439170273E+02 -0.82941751625E+01  0.45830163125E+01  0.31880095154E+02  0.00000000000E+00 0. -1.
</event>
<event>
 8    1  0.2994958E-010  0.9118800E+02  0.7816164E-02  0.1184000E+00
        -11   -1    0    0    0    0  0.00000000000E+00  0.00000000000E+00  0.45593999997E+02  0.45594000000E+02  0.51100000000E-03 0.  1.
         11   -1    0    0    0    0 -0.00000000000E+00 -0.00000000000E+00 -0.45593999997E+02  0.45594000000E+02  0.51100000000E-03 0. -1.
         23    2    1    2    0    0  0.00000000000E+00 -0.88817841970E-15 -0.35527136788E-14  0.91188000000E+02  0.91188000000E+02 0.  0.
    9900012    2    3    3    0    0  0.33810033026E+02 -0.56191330322E+01  0.26625743058E+02  0.47787272095E+02  0.20000004791E+02 0.  0.
        -12    1    3    3    0    0 -0.33810033026E+02  0.56191330322E+01 -0.26625743058E+02  0.43400727905E+02  0.00000000000E+00 0.  1.
         11    1    4    4    0    0  0.15210511214E+01 -0.22897703076E+01 -0.28904170707E+00  0.27640893519E+01  0.51100000000E-03 0.  1.
        -11    1    4    4    0    0  0.11931079702E+02  0.47307209146E+01  0.16137372891E+02  0.20619049137E+02  0.51100000000E-03 0. -1.
         12    1    4    4    0    0  0.20357902203E+02 -0.80600836392E+01  0.10777411874E+02  0.24404133606E+02  0.00000000000E+00 0. -1.
</event>
<event>
 8    1  0.3047518E-010  0.9118800E+02  0.7816164E-02  0.1184000E+00
        -11   -1    0    0    0    0  0.00000000000E+00  0.00000000000E+00  0.45593999997E+02  0.45594000000E+02  0.51100000000E-03 0. -1.
         11   -1    0    0    0    0 -0.00000000000E+00 -0.00000000000E+00 -0.45593999997E+02  0.45594000000E+02  0.51100000000E-03 0.  1.
         23    2    1    2    0    0  0.35527136788E-14  0.00000000000E+00  0.00000000000E+00  0.91188000000E+02  0.91188000000E+02 0.  0.
    9900012    2    3    3    0    0  0.20433889257E+02  0.19271069706E+02  0.33086343061E+02  0.47787262046E+02  0.19999958974E+02 0.  0.
        -12    1    3    3    0    0 -0.20433889257E+02 -0.19271069706E+02 -0.33086343061E+02  0.43400737954E+02  0.00000000000E+00 0.  1.
         11    1    4    4    0    0  0.13279408255E+01 -0.23183991787E+01  0.35540451146E+01  0.44463061664E+01  0.51100000000E-03 0. -1.
        -11    1    4    4    0    0  0.21033582285E+01  0.36971401346E+01 -0.70188695723E+00  0.43111027097E+01  0.51100000000E-03 0.  1.
         12    1    4    4    0    0  0.17002590203E+02  0.17892328750E+02  0.30234184903E+02  0.39029853170E+02  0.00000000000E+00 0. -1.
</event>
<event>
 8    1  0.2994958E-010  0.9118800E+02  0.7816164E-02  0.1184000E+00
        -11   -1    0    0    0    0  0.00000000000E+00  0.00000000000E+00  0.45593999997E+02  0.45594000000E+02  0.51100000000E-03 0. -1.
         11   -1    0    0    0    0 -0.00000000000E+00 -0.00000000000E+00 -0.45593999997E+02  0.45594000000E+02  0.51100000000E-03 0.  1.
         23    2    1    2    0    0  0.00000000000E+00  0.17763568394E-14  0.00000000000E+00  0.91188000000E+02  0.91188000000E+02 0.  0.
    9900012    2    3    3    0    0  0.14070988219E+02  0.12789281179E+02 -0.39013652533E+02  0.47787268364E+02  0.19999987780E+02 0.  0.
         12    1    3    3    0    0 -0.14070988219E+02 -0.12789281179E+02  0.39013652533E+02  0.43400731636E+02  0.00000000000E+00 0. -1.
         11    1    4    4    0    0  0.61814800208E+01  0.57160526501E+01 -0.54782505636E+01  0.10044659409E+02  0.51100000000E-03 0. -1.
        -11    1    4    4    0    0 -0.27327790705E+01  0.46354993837E+01 -0.17844292117E+02  0.18637990702E+02  0.51100000000E-03 0.  1.
        -12    1    4    4    0    0  0.10622287268E+02  0.24377291454E+01 -0.15691109853E+02  0.19104618254E+02  0.00000000000E+00 0.  1.
</event>
<event>
 8    1  0.2994958E-010  0.9118800E+02  0.7816164E-02  0.1184000E+00
        -11   -1    0    0    0    0  0.00000000000E+00  0.00000000000E+00  0.45593999997E+02  0.45594000000E+02  0.51100000000E-03 0. -1.
         11   -1    0    0    0    0 -0.00000000000E+00 -0.00000000000E+00 -0.45593999997E+02  0.45594000000E+02  0.51100000000E-03 0.  1.
         23    2    1    2    0    0  0.00000000000E+00 -0.88817841970E-15  0.00000000000E+00  0.91188000000E+02  0.91188000000E+02 0.  0.
    9900012    2    3    3    0    0  0.12548167267E+02 -0.47752204626E+01 -0.41271831040E+02  0.47787271094E+02  0.20000000225E+02 0.  0.
         12    1    3    3    0    0 -0.12548167267E+02  0.47752204626E+01  0.41271831040E+02  0.43400728906E+02  0.00000000000E+00 0. -1.
         11    1    4    4    0    0  0.61797348617E+01 -0.60138679040E+01 -0.36855237783E+01  0.93775698296E+01  0.51100000000E-03 0. -1.
        -11    1    4    4    0    0 -0.52081636671E+00 -0.55004542946E+00 -0.48271876143E+01  0.48862603479E+01  0.51100000000E-03 0.  1.
        -12    1    4    4    0    0  0.68892487721E+01  0.17886928709E+01 -0.32759119647E+02  0.33523440916E+02  0.00000000000E+00 0.  1.
</event>
<event>
 8    1  0.2994958E-010  0.9118800E+02  0.7816164E-02  0.1184000E+00
        -11   -1    0    0    0    0  0.00000000000E+00  0.00000000000E+00  0.45593999997E+02  0.45594000000E+02  0.51100000000E-03 0. -1.
         11   -1    0    0    0    0 -0.00000000000E+00 -0.00000000000E+00 -0.45593999997E+02  0.45594000000E+02  0.51100000000E-03 0.  1.
         23    2    1    2    0    0 -0.44408920985E-15  0.00000000000E+00  0.00000000000E+00  0.91188000000E+02  0.91188000000E+02 0.  0.
    9900012    2    3    3    0    0 -0.22615515039E+01 -0.27905240736E+02  0.33163327407E+02  0.47787270047E+02  0.19999995452E+02 0.  0.
        -12    1    3    3    0    0  0.22615515039E+01  0.27905240736E+02 -0.33163327407E+02  0.43400729953E+02  0.00000000000E+00 0.  1.
         11    1    4    4    0    0 -0.28405229684E+01 -0.21597260343E+02  0.17388215071E+02  0.27872212841E+02  0.51100000000E-03 0. -1.
        -11    1    4    4    0    0 -0.48264244288E+01 -0.32236085556E+01  0.61776882330E+01  0.84764294990E+01  0.51100000000E-03 0.  1.
        -12    1    4    4    0    0  0.54053958933E+01 -0.30843718374E+01  0.95974241038E+01  0.11438627707E+02  0.00000000000E+00 0.  1.
</event>
<event>
 8    1  0.2994958E-010  0.9118800E+02  0.7816164E-02  0.1184000E+00
        -11   -1    0    0    0    0  0.00000000000E+00  0.00000000000E+00  0.45593999997E+02  0.45594000000E+02  0.51100000000E-03 0. -1.
         11   -1    0    0    0    0 -0.00000000000E+00 -0.00000000000E+00 -0.45593999997E+02  0.45594000000E+02  0.51100000000E-03 0.  1.
         23    2    1    2    0    0 -0.88817841970E-15  0.00000000000E+00  0.00000000000E+00  0.91188000000E+02  0.91188000000E+02 0.  0.
    9900012    2    3    3    0    0 -0.64112666178E+01  0.45598153870E+01  0.42681695269E+02  0.47787269971E+02  0.19999995108E+02 0.  0.
        -12    1    3    3    0    0  0.64112666178E+01 -0.45598153870E+01 -0.42681695269E+02  0.43400730029E+02  0.00000000000E+00 0.  1.
         11    1    4    4    0    0 -0.27812302983E+01 -0.68140378188E+00  0.10401972575E+02  0.10788910362E+02  0.51100000000E-03 0. -1.
        -11    1    4    4    0    0  0.50887390773E+00  0.52377558948E+01  0.89024716202E+00  0.53371883738E+01  0.51100000000E-03 0.  1.
        -12    1    4    4    0    0 -0.41389102272E+01  0.34632740560E-02  0.31389475531E+02  0.31661171235E+02  0.00000000000E+00 0.  1.
</event>
<event>
 8    1  0.2994958E-010  0.9118800E+02  0.7816164E-02  0.1184000E+00
        -11   -1    0    0    0    0  0.00000000000E+00  0.00000000000E+00  0.45593999997E+02  0.45594000000E+02  0.51100000000E-03 0. -1.
         11   -1    0    0    0    0 -0.00000000000E+00 -0.00000000000E+00 -0.45593999997E+02  0.45594000000E+02  0.51100000000E-03 0.  1.
         23    2    1    2    0    0  0.00000000000E+00 -0.13322676296E-14  0.00000000000E+00  0.91188000000E+02  0.91188000000E+02 0.  0.
    9900012    2    3    3    0    0 -0.20786960222E+02  0.10822700986E+01  0.38083519365E+02  0.47787268773E+02  0.19999989643E+02 0.  0.
        -12    1    3    3    0    0  0.20786960222E+02 -0.10822700986E+01 -0.38083519365E+02  0.43400731227E+02  0.00000000000E+00 0.  1.
         11    1    4    4    0    0 -0.42281287230E+01  0.31536355043E+01  0.13007999518E+02  0.14036756788E+02  0.51100000000E-03 0. -1.
        -11    1    4    4    0    0  0.23052817480E+00  0.14568859992E+01 -0.15094524284E+01  0.21104755267E+01  0.51100000000E-03 0.  1.
        -12    1    4    4    0    0 -0.16789359674E+02 -0.35282514050E+01  0.26584972275E+02  0.31640036459E+02  0.00000000000E+00 0.  1.
</event>
<event>
 8    1  0.2994958E-010  0.9118800E+02  0.7816164E-02  0.1184000E+00
        -11   -1    0    0    0    0  0.00000000000E+00  0.00000000000E+00  0.45593999997E+02  0.45594000000E+02  0.51100000000E-03 0. -1.
         11   -1    0    0    0    0 -0.00000000000E+00 -0.00000000000E+00 -0.45593999997E+02  0.45594000000E+02  0.51100000000E-03 0.  1.
         23    2    1    2    0    0  0.00000000000E+00  0.00000000000E+00 -0.35527136788E-14  0.91188000000E+02  0.91188000000E+02 0.  0.
    9900012    2    3    3    0    0  0.34122202082E+02 -0.31562136855E+01 -0.26633382878E+02  0.47787269093E+02  0.19999991102E+02 0.  0.
         12    1    3    3    0    0 -0.34122202082E+02  0.31562136855E+01  0.26633382878E+02  0.43400730907E+02  0.00000000000E+00 0. -1.
         11    1    4    4    0    0  0.16207519461E+02  0.96057631985E+00 -0.43619480503E+01  0.16811691914E+02  0.51100000000E-03 0. -1.
        -11    1    4    4    0    0  0.38393285804E+01 -0.29477037987E+01 -0.29175307635E+00  0.48491774304E+01  0.51100000000E-03 0.  1.
        -12    1    4    4    0    0  0.14075354040E+02 -0.11690862066E+01 -0.21979681752E+02  0.26126399748E+02  0.00000000000E+00 0.  1.
</event>
<event>
 8    1  0.2994958E-010  0.9118800E+02  0.7816164E-02  0.1184000E+00
        -11   -1    0    0    0    0  0.00000000000E+00  0.00000000000E+00  0.45593999997E+02  0.45594000000E+02  0.51100000000E-03 0. -1.
         11   -1    0    0    0    0 -0.00000000000E+00 -0.00000000000E+00 -0.45593999997E+02  0.45594000000E+02  0.51100000000E-03 0.  1.
         23    2    1    2    0    0  0.00000000000E+00 -0.71054273576E-14 -0.35527136788E-14  0.91188000000E+02  0.91188000000E+02 0.  0.
    9900012    2    3    3    0    0  0.23197454769E+02  0.25589523698E+02  0.26280736591E+02  0.47787277118E+02  0.20000027694E+02 0.  0.
        -12    1    3    3    0    0 -0.23197454769E+02 -0.25589523698E+02 -0.26280736591E+02  0.43400722882E+02  0.00000000000E+00 0.  1.
         11    1    4    4    0    0 -0.26170529501E+00  0.28799926023E+00 -0.33468456455E+00  0.51327113128E+00  0.51100000000E-03 0.  1.
        -11    1    4    4    0    0  0.45670754263E+01  0.55778636883E+00  0.12060231449E+02  0.12908078341E+02  0.51100000000E-03 0. -1.
         12    1    4    4    0    0  0.18892084638E+02  0.24743738069E+02  0.14555189706E+02  0.34365927646E+02  0.00000000000E+00 0. -1.
</event>
<event>
 8    1  0.2994958E-010  0.9118800E+02  0.7816164E-02  0.1184000E+00
        -11   -1    0    0    0    0  0.00000000000E+00  0.00000000000E+00  0.45593999997E+02  0.45594000000E+02  0.51100000000E-03 0. -1.
         11   -1    0    0    0    0 -0.00000000000E+00 -0.00000000000E+00 -0.45593999997E+02  0.45594000000E+02  0.51100000000E-03 0.  1.
         23    2    1    2    0    0 -0.35527136788E-14  0.00000000000E+00  0.71054273576E-14  0.91188000000E+02  0.91188000000E+02 0.  0.
    9900012    2    3    3    0    0  0.15112378089E+02 -0.21284266912E+02 -0.34673036501E+02  0.47787269019E+02  0.19999990766E+02 0.  0.
         12    1    3    3    0    0 -0.15112378089E+02  0.21284266912E+02  0.34673036501E+02  0.43400730981E+02  0.00000000000E+00 0. -1.
         11    1    4    4    0    0  0.77630051498E+01 -0.13057217222E+02 -0.19039892704E+02  0.24357189595E+02  0.51100000000E-03 0. -1.
        -11    1    4    4    0    0 -0.20221948709E+01 -0.77903865069E+01 -0.66374517375E+01  0.10432409111E+02  0.51100000000E-03 0.  1.
         12    1    4    4    0    0  0.93715678097E+01 -0.43666318309E+00 -0.89956920592E+01  0.12997670313E+02  0.00000000000E+00 0. -1.
</event>
<event>
 8    1  0.2994958E-010  0.9118800E+02  0.7816164E-02  0.1184000E+00
        -11   -1    0    0    0    0  0.00000000000E+00  0.00000000000E+00  0.45593999997E+02  0.45594000000E+02  0.51100000000E-03 0. -1.
         11   -1    0    0    0    0 -0.00000000000E+00 -0.00000000000E+00 -0.45593999997E+02  0.45594000000E+02  0.51100000000E-03 0.  1.
         23    2    1    2    0    0  0.00000000000E+00  0.88817841970E-15  0.17763568394E-14  0.91188000000E+02  0.91188000000E+02 0.  0.
    9900012    2    3    3    0    0  0.40977727850E+02 -0.71577041583E+01 -0.12378061130E+02  0.47787270675E+02  0.19999998317E+02 0.  0.
         12    1    3    3    0    0 -0.40977727850E+02  0.71577041583E+01  0.12378061130E+02  0.43400729325E+02  0.00000000000E+00 0. -1.
         11    1    4    4    0    0  0.11476581883E+01  0.12201349461E+01  0.31888506880E+00  0.17051500087E+01  0.51100000000E-03 0. -1.
        -11    1    4    4    0    0  0.23732200829E+02  0.26824363601E+01 -0.11517157591E+02  0.26515236003E+02  0.51100000000E-03 0.  1.
         12    1    4    4    0    0  0.16097868832E+02 -0.11060275464E+02 -0.11797886077E+01  0.19566884664E+02  0.00000000000E+00 0. -1.
</event>
<event>
 8    1  0.2994958E-010  0.9118800E+02  0.7816164E-02  0.1184000E+00
        -11   -1    0    0    0    0  0.00000000000E+00  0.00000000000E+00  0.45593999997E+02  0.45594000000E+02  0.51100000000E-03 0. -1.
         11   -1    0    0    0    0 -0.00000000000E+00 -0.00000000000E+00 -0.45593999997E+02  0.45594000000E+02  0.51100000000E-03 0.  1.
         23    2    1    2    0    0  0.17763568394E-14  0.00000000000E+00  0.00000000000E+00  0.91188000000E+02  0.91188000000E+02 0.  0.
    9900012    2    3    3    0    0  0.81263302240E+01 -0.14070057170E+02 -0.40244498231E+02  0.47787269712E+02  0.19999993925E+02 0.  0.
         12    1    3    3    0    0 -0.81263302240E+01  0.14070057170E+02  0.40244498231E+02  0.43400730288E+02  0.00000000000E+00 0. -1.
         11    1    4    4    0    0  0.52053941953E+01 -0.71898105846E+01 -0.75737441474E+01  0.11668380592E+02  0.51100000000E-03 0. -1.
        -11    1    4    4    0    0  0.37954955985E+01  0.14578136372E+01 -0.24281174969E+01  0.47356902643E+01  0.51100000000E-03 0.  1.
         12    1    4    4    0    0 -0.87455956983E+00 -0.83380602225E+01 -0.30242636586E+02  0.31383198856E+02  0.00000000000E+00 0. -1.
</event>
<event>
 8    1  0.2994958E-010  0.9118800E+02  0.7816164E-02  0.1184000E+00
        -11   -1    0    0    0    0  0.00000000000E+00  0.00000000000E+00  0.45593999997E+02  0.45594000000E+02  0.51100000000E-03 0. -1.
         11   -1    0    0    0    0 -0.00000000000E+00 -0.00000000000E+00 -0.45593999997E+02  0.45594000000E+02  0.51100000000E-03 0.  1.
         23    2    1    2    0    0  0.17763568394E-14  0.00000000000E+00  0.00000000000E+00  0.91188000000E+02  0.91188000000E+02 0.  0.
    9900012    2    3    3    0    0  0.87717647147E+01  0.40882075640E+02 -0.11633357338E+02  0.47787274571E+02  0.20000016078E+02 0.  0.
         12    1    3    3    0    0 -0.87717647147E+01 -0.40882075640E+02  0.11633357338E+02  0.43400725429E+02  0.00000000000E+00 0. -1.
         11    1    4    4    0    0  0.19419525970E+01  0.63838338114E+01 -0.58665812758E-02  0.66726717811E+01  0.51100000000E-03 0. -1.
        -11    1    4    4    0    0  0.17404851128E+01  0.91571242330E+01 -0.12086742078E+02  0.15263405484E+02  0.51100000000E-03 0.  1.
        -12    1    4    4    0    0  0.50893270049E+01  0.25341117596E+02  0.45925132140E+00  0.25851197306E+02  0.00000000000E+00 0.  1.
</event>
<event>
 8    1  0.2994958E-010  0.9118800E+02  0.7816164E-02  0.1184000E+00
        -11   -1    0    0    0    0  0.00000000000E+00  0.00000000000E+00  0.45593999997E+02  0.45594000000E+02  0.51100000000E-03 0. -1.
         11   -1    0    0    0    0 -0.00000000000E+00 -0.00000000000E+00 -0.45593999997E+02  0.45594000000E+02  0.51100000000E-03 0.  1.
         23    2    1    2    0    0  0.00000000000E+00  0.00000000000E+00  0.00000000000E+00  0.91188000000E+02  0.91188000000E+02 0.  0.
    9900012    2    3    3    0    0  0.33457468242E+02  0.16075451387E+02  0.22490020067E+02  0.47787270501E+02  0.19999997521E+02 0.  0.
        -12    1    3    3    0    0 -0.33457468242E+02 -0.16075451387E+02 -0.22490020067E+02  0.43400729499E+02  0.00000000000E+00 0.  1.
         11    1    4    4    0    0  0.13469833229E+02  0.74284558325E+01  0.17484735303E+02  0.23288072745E+02  0.51100000000E-03 0. -1.
        -11    1    4    4    0    0 -0.56302908092E+00 -0.50935127839E+00 -0.95967585731E+00  0.12236905176E+01  0.51100000000E-03 0.  1.
         12    1    4    4    0    0  0.20550664093E+02  0.91563468330E+01  0.59649606216E+01  0.23275507239E+02  0.00000000000E+00 0. -1.
</event>
<event>
 8    1  0.2994958E-010  0.9118800E+02  0.7816164E-02  0.1184000E+00
        -11   -1    0    0    0    0  0.00000000000E+00  0.00000000000E+00  0.45593999997E+02  0.45594000000E+02  0.51100000000E-03 0. -1.
         11   -1    0    0    0    0 -0.00000000000E+00 -0.00000000000E+00 -0.45593999997E+02  0.45594000000E+02  0.51100000000E-03 0.  1.
         23    2    1    2    0    0 -0.88817841970E-15  0.00000000000E+00  0.00000000000E+00  0.91188000000E+02  0.91188000000E+02 0.  0.
    9900012    2    3    3    0    0  0.56166507277E+01  0.24794660713E+02 -0.35175297911E+02  0.47787267882E+02  0.19999985581E+02 0.  0.
         12    1    3    3    0    0 -0.56166507277E+01 -0.24794660713E+02  0.35175297911E+02  0.43400732118E+02  0.00000000000E+00 0. -1.
         11    1    4    4    0    0  0.61073397567E+01  0.75029453831E+01 -0.11448245852E+02  0.14988533006E+02  0.51100000000E-03 0. -1.
        -11    1    4    4    0    0  0.64347286254E+01  0.92370089929E+01 -0.16409157735E+02  0.19899460431E+02  0.51100000000E-03 0.  1.
         12    1    4    4    0    0 -0.69254176544E+01  0.80547063368E+01 -0.73178943231E+01  0.12899274444E+02  0.00000000000E+00 0. -1.
</event>
<event>
 8    1  0.2994958E-010  0.9118800E+02  0.7816164E-02  0.1184000E+00
        -11   -1    0    0    0    0  0.00000000000E+00  0.00000000000E+00  0.45593999997E+02  0.45594000000E+02  0.51100000000E-03 0. -1.
         11   -1    0    0    0    0 -0.00000000000E+00 -0.00000000000E+00 -0.45593999997E+02  0.45594000000E+02  0.51100000000E-03 0.  1.
         23    2    1    2    0    0  0.00000000000E+00 -0.22204460493E-15  0.00000000000E+00  0.91188000000E+02  0.91188000000E+02 0.  0.
    9900012    2    3    3    0    0  0.23143159678E+02  0.19083709617E+01 -0.36665734963E+02  0.47787264523E+02  0.19999970265E+02 0.  0.
         12    1    3    3    0    0 -0.23143159678E+02 -0.19083709617E+01  0.36665734963E+02  0.43400735477E+02  0.00000000000E+00 0. -1.
         11    1    4    4    0    0  0.89243365290E+01 -0.52100710992E+01 -0.89815425373E+01  0.13691483848E+02  0.51100000000E-03 0.  1.
        -11    1    4    4    0    0  0.73622596073E+01  0.12514429092E+01 -0.34313110990E+01  0.82184470553E+01  0.51100000000E-03 0. -1.
         12    1    4    4    0    0  0.68565635418E+01  0.58669991517E+01 -0.24252881326E+02  0.25877333620E+02  0.00000000000E+00 0. -1.
</event>
<event>
 8    1  0.2994958E-010  0.9118800E+02  0.7816164E-02  0.1184000E+00
        -11   -1    0    0    0    0  0.00000000000E+00  0.00000000000E+00  0.45593999997E+02  0.45594000000E+02  0.51100000000E-03 0.  1.
         11   -1    0    0    0    0 -0.00000000000E+00 -0.00000000000E+00 -0.45593999997E+02  0.45594000000E+02  0.51100000000E-03 0. -1.
         23    2    1    2    0    0  0.35527136788E-14 -0.35527136788E-14  0.17763568394E-14  0.91188000000E+02  0.91188000000E+02 0.  0.
    9900012    2    3    3    0    0  0.26320355014E+02  0.31782027742E+02 -0.13444848119E+02  0.47787282075E+02  0.20000050292E+02 0.  0.
         12    1    3    3    0    0 -0.26320355014E+02 -0.31782027742E+02  0.13444848119E+02  0.43400717925E+02  0.00000000000E+00 0. -1.
         11    1    4    4    0    0  0.27138012627E+01  0.15545831617E+01 -0.29845621964E+01  0.43230843001E+01  0.51100000000E-03 0. -1.
        -11    1    4    4    0    0  0.41207862010E+01  0.14119502127E+02  0.27125494943E+01  0.14956575285E+02  0.51100000000E-03 0.  1.
        -12    1    4    4    0    0  0.19485767550E+02  0.16107942454E+02 -0.13172835417E+02  0.28507622490E+02  0.00000000000E+00 0.  1.
</event>
<event>
 8    1  0.2994958E-010  0.9118800E+02  0.7816164E-02  0.1184000E+00
        -11   -1    0    0    0    0  0.00000000000E+00  0.00000000000E+00  0.45593999997E+02  0.45594000000E+02  0.51100000000E-03 0. -1.
         11   -1    0    0    0    0 -0.00000000000E+00 -0.00000000000E+00 -0.45593999997E+02  0.45594000000E+02  0.51100000000E-03 0.  1.
         23    2    1    2    0    0  0.00000000000E+00 -0.44408920985E-15  0.00000000000E+00  0.91188000000E+02  0.91188000000E+02 0.  0.
    9900012    2    3    3    0    0 -0.32732334436E+02  0.29656605411E+01 -0.28344708096E+02  0.47787270316E+02  0.19999996677E+02 0.  0.
         12    1    3    3    0    0  0.32732334436E+02 -0.29656605411E+01  0.28344708096E+02  0.43400729684E+02  0.00000000000E+00 0. -1.
         11    1    4    4    0    0 -0.48614623438E+01  0.20392590068E+01 -0.11984682811E+02  0.13092937629E+02  0.51100000000E-03 0. -1.
        -11    1    4    4    0    0 -0.48654847320E+01  0.34593971882E+01 -0.82221426976E+01  0.10160905540E+02  0.51100000000E-03 0.  1.
         12    1    4    4    0    0 -0.23005387360E+02 -0.25329956539E+01 -0.81378825876E+01  0.24533427147E+02  0.00000000000E+00 0. -1.
</event>
<event>
 8    1  0.2994958E-010  0.9118800E+02  0.7816164E-02  0.1184000E+00
        -11   -1    0    0    0    0  0.00000000000E+00  0.00000000000E+00  0.45593999997E+02  0.45594000000E+02  0.51100000000E-03 0. -1.
         11   -1    0    0    0    0 -0.00000000000E+00 -0.00000000000E+00 -0.45593999997E+02  0.45594000000E+02  0.51100000000E-03 0.  1.
         23    2    1    2    0    0 -0.44408920985E-15  0.00000000000E+00  0.71054273576E-14  0.91188000000E+02  0.91188000000E+02 0.  0.
    9900012    2    3    3    0    0  0.90341095166E+00 -0.13974299078E+02  0.41079513246E+02  0.47787267350E+02  0.19999983156E+02 0.  0.
        -12    1    3    3    0    0 -0.90341095166E+00  0.13974299078E+02 -0.41079513246E+02  0.43400732650E+02  0.00000000000E+00 0.  1.
         11    1    4    4    0    0 -0.32495661115E+01  0.38499691499E+00  0.59603900579E+01  0.67995700188E+01  0.51100000000E-03 0. -1.
        -11    1    4    4    0    0  0.61112995617E+01 -0.40748223680E+01  0.44667347907E+01  0.85967365678E+01  0.51100000000E-03 0.  1.
         12    1    4    4    0    0 -0.19583224986E+01 -0.10284473625E+02  0.30652388397E+02  0.32390960763E+02  0.00000000000E+00 0. -1.
</event>
<event>
 8    1  0.2994958E-010  0.9118800E+02  0.7816164E-02  0.1184000E+00
        -11   -1    0    0    0    0  0.00000000000E+00  0.00000000000E+00  0.45593999997E+02  0.45594000000E+02  0.51100000000E-03 0. -1.
         11   -1    0    0    0    0 -0.00000000000E+00 -0.00000000000E+00 -0.45593999997E+02  0.45594000000E+02  0.51100000000E-03 0.  1.
         23    2    1    2    0    0  0.00000000000E+00  0.17763568394E-14  0.00000000000E+00  0.91188000000E+02  0.91188000000E+02 0.  0.
    9900012    2    3    3    0    0  0.31158311865E+02  0.10639340473E+02  0.28276980329E+02  0.47787267512E+02  0.19999983892E+02 0.  0.
        -12    1    3    3    0    0 -0.31158311865E+02 -0.10639340473E+02 -0.28276980329E+02  0.43400732488E+02  0.00000000000E+00 0.  1.
         11    1    4    4    0    0  0.90279728956E+01  0.12217348630E+02  0.60127773573E+01  0.16337729156E+02  0.51100000000E-03 0. -1.
        -11    1    4    4    0    0  0.49387659056E+01 -0.59022631605E+00  0.44674638802E+01  0.66856570026E+01  0.51100000000E-03 0.  1.
         12    1    4    4    0    0  0.17191573064E+02 -0.98778184093E+00  0.17796739092E+02  0.24763881353E+02  0.00000000000E+00 0. -1.
</event>
<event>
 8    1  0.2994958E-010  0.9118800E+02  0.7816164E-02  0.1184000E+00
        -11   -1    0    0    0    0  0.00000000000E+00  0.00000000000E+00  0.45593999997E+02  0.45594000000E+02  0.51100000000E-03 0. -1.
         11   -1    0    0    0    0 -0.00000000000E+00 -0.00000000000E+00 -0.45593999997E+02  0.45594000000E+02  0.51100000000E-03 0.  1.
         23    2    1    2    0    0  0.00000000000E+00  0.00000000000E+00  0.00000000000E+00  0.91188000000E+02  0.91188000000E+02 0.  0.
    9900012    2    3    3    0    0 -0.22648039859E+02  0.27196762171E+02  0.25120224365E+02  0.47787271271E+02  0.20000001034E+02 0.  0.
        -12    1    3    3    0    0  0.22648039859E+02 -0.27196762171E+02 -0.25120224365E+02  0.43400728729E+02  0.00000000000E+00 0.  1.
         11    1    4    4    0    0 -0.88220796654E+01  0.15026952751E+02  0.19962902925E+02  0.26498224319E+02  0.51100000000E-03 0. -1.
        -11    1    4    4    0    0 -0.11028674943E+02  0.72171144630E+01  0.74687558616E+01  0.15149281388E+02  0.51100000000E-03 0.  1.
         12    1    4    4    0    0 -0.27972852503E+01  0.49526949572E+01 -0.23114344211E+01  0.61397655651E+01  0.00000000000E+00 0. -1.
</event>
<event>
 8    1  0.2994958E-010  0.9118800E+02  0.7816164E-02  0.1184000E+00
        -11   -1    0    0    0    0  0.00000000000E+00  0.00000000000E+00  0.45593999997E+02  0.45594000000E+02  0.51100000000E-03 0.  1.
         11   -1    0    0    0    0 -0.00000000000E+00 -0.00000000000E+00 -0.45593999997E+02  0.45594000000E+02  0.51100000000E-03 0. -1.
         23    2    1    2    0    0  0.00000000000E+00  0.00000000000E+00  0.17763568394E-14  0.91188000000E+02  0.91188000000E+02 0.  0.
    9900012    2    3    3    0    0  0.36588442522E+02 -0.20061805421E+02 -0.11934674290E+02  0.47787232572E+02  0.19999824588E+02 0.  0.
         12    1    3    3    0    0 -0.36588442522E+02  0.20061805421E+02  0.11934674290E+02  0.43400767428E+02  0.00000000000E+00 0. -1.
         11    1    4    4    0    0  0.78983167282E+01  0.13996813151E+01 -0.21736063623E+01  0.83106606117E+01  0.51100000000E-03 0. -1.
        -11    1    4    4    0    0  0.14162229151E+02 -0.93364312616E+01  0.21779830677E+01  0.17102084485E+02  0.51100000000E-03 0.  1.
         12    1    4    4    0    0  0.14527896643E+02 -0.12125055474E+02 -0.11939050995E+02  0.22374487476E+02  0.00000000000E+00 0. -1.
</event>
<event>
 8    1  0.2994958E-010  0.9118800E+02  0.7816164E-02  0.1184000E+00
        -11   -1    0    0    0    0  0.00000000000E+00  0.00000000000E+00  0.45593999997E+02  0.45594000000E+02  0.51100000000E-03 0. -1.
         11   -1    0    0    0    0 -0.00000000000E+00 -0.00000000000E+00 -0.45593999997E+02  0.45594000000E+02  0.51100000000E-03 0.  1.
         23    2    1    2    0    0  0.00000000000E+00  0.35527136788E-14  0.00000000000E+00  0.91188000000E+02  0.91188000000E+02 0.  0.
    9900012    2    3    3    0    0 -0.52940856386E+01  0.27579283742E+02  0.33090467833E+02  0.47787270791E+02  0.19999998845E+02 0.  0.
        -12    1    3    3    0    0  0.52940856386E+01 -0.27579283742E+02 -0.33090467833E+02  0.43400729209E+02  0.00000000000E+00 0.  1.
         11    1    4    4    0    0 -0.64741925457E+01  0.13195597572E+02  0.17620765559E+02  0.22946249009E+02  0.51100000000E-03 0. -1.
        -11    1    4    4    0    0 -0.10569730817E+01 -0.87294374236E+00 -0.14182234985E+01  0.19724555826E+01  0.51100000000E-03 0.  1.
         12    1    4    4    0    0  0.22370799888E+01  0.15256629912E+02  0.16887925772E+02  0.22868566200E+02  0.00000000000E+00 0. -1.
</event>
<event>
 8    1  0.2994958E-010  0.9118800E+02  0.7816164E-02  0.1184000E+00
        -11   -1    0    0    0    0  0.00000000000E+00  0.00000000000E+00  0.45593999997E+02  0.45594000000E+02  0.51100000000E-03 0. -1.
         11   -1    0    0    0    0 -0.00000000000E+00 -0.00000000000E+00 -0.45593999997E+02  0.45594000000E+02  0.51100000000E-03 0.  1.
         23    2    1    2    0    0  0.00000000000E+00  0.24424906542E-14 -0.71054273576E-14  0.91188000000E+02  0.91188000000E+02 0.  0.
    9900012    2    3    3    0    0  0.28845468936E+01 -0.10840840119E+01  0.43291199144E+02  0.47787265303E+02  0.19999973823E+02 0.  0.
        -12    1    3    3    0    0 -0.28845468936E+01  0.10840840119E+01 -0.43291199144E+02  0.43400734697E+02  0.00000000000E+00 0.  1.
         11    1    4    4    0    0 -0.52965228707E-01 -0.85684938223E+01  0.35356722786E+02  0.36380210804E+02  0.51100000000E-03 0. -1.
        -11    1    4    4    0    0  0.15873882675E+01  0.25129356651E+01  0.21964949182E+01  0.36958405479E+01  0.51100000000E-03 0.  1.
         12    1    4    4    0    0  0.13501238548E+01  0.49714741454E+01  0.57379814392E+01  0.77112139510E+01  0.00000000000E+00 0. -1.
</event>
<event>
 8    1  0.2994958E-010  0.9118800E+02  0.7816164E-02  0.1184000E+00
        -11   -1    0    0    0    0  0.00000000000E+00  0.00000000000E+00  0.45593999997E+02  0.45594000000E+02  0.51100000000E-03 0. -1.
         11   -1    0    0    0    0 -0.00000000000E+00 -0.00000000000E+00 -0.45593999997E+02  0.45594000000E+02  0.51100000000E-03 0.  1.
         23    2    1    2    0    0  0.00000000000E+00  0.00000000000E+00  0.35527136788E-14  0.91188000000E+02  0.91188000000E+02 0.  0.
    9900012    2    3    3    0    0 -0.32831609450E+02 -0.11053736436E+02 -0.26144289299E+02  0.47787268080E+02  0.19999986484E+02 0.  0.
         12    1    3    3    0    0  0.32831609450E+02  0.11053736436E+02  0.26144289299E+02  0.43400731920E+02  0.00000000000E+00 0. -1.
         11    1    4    4    0    0 -0.13889296680E+02 -0.61676516841E+01 -0.43316102717E+01  0.15802383914E+02  0.51100000000E-03 0. -1.
        -11    1    4    4    0    0 -0.70842435573E+01  0.34059201767E+01 -0.33930387419E+01  0.85615133705E+01  0.51100000000E-03 0.  1.
        -12    1    4    4    0    0 -0.11858069213E+02 -0.82920049283E+01 -0.18419640285E+02  0.23423370796E+02  0.00000000000E+00 0.  1.
</event>
<event>
 8    1  0.2994958E-010  0.9118800E+02  0.7816164E-02  0.1184000E+00
        -11   -1    0    0    0    0  0.00000000000E+00  0.00000000000E+00  0.45593999997E+02  0.45594000000E+02  0.51100000000E-03 0.  1.
         11   -1    0    0    0    0 -0.00000000000E+00 -0.00000000000E+00 -0.45593999997E+02  0.45594000000E+02  0.51100000000E-03 0. -1.
         23    2    1    2    0    0  0.71054273576E-14 -0.17763568394E-14 -0.35527136788E-14  0.91188000000E+02  0.91188000000E+02 0.  0.
    9900012    2    3    3    0    0  0.30955318639E+02 -0.19400055617E+01 -0.30358327042E+02  0.47787269656E+02  0.19999993668E+02 0.  0.
         12    1    3    3    0    0 -0.30955318639E+02  0.19400055617E+01  0.30358327042E+02  0.43400730344E+02  0.00000000000E+00 0. -1.
         11    1    4    4    0    0  0.11811921975E+02 -0.77572738993E+01 -0.11978068182E+02  0.18524872921E+02  0.51100000000E-03 0. -1.
        -11    1    4    4    0    0 -0.12382059093E+01 -0.31580928471E+00 -0.24807754190E+00  0.13017035400E+01  0.51100000000E-03 0.  1.
        -12    1    4    4    0    0  0.20381602573E+02  0.61330776223E+01 -0.18132181318E+02  0.27960693194E+02  0.00000000000E+00 0.  1.
</event>
<event>
 8    1  0.2994958E-010  0.9118800E+02  0.7816164E-02  0.1184000E+00
        -11   -1    0    0    0    0  0.00000000000E+00  0.00000000000E+00  0.45593999997E+02  0.45594000000E+02  0.51100000000E-03 0. -1.
         11   -1    0    0    0    0 -0.00000000000E+00 -0.00000000000E+00 -0.45593999997E+02  0.45594000000E+02  0.51100000000E-03 0.  1.
         23    2    1    2    0    0 -0.35527136788E-14  0.71054273576E-14 -0.71054273576E-14  0.91188000000E+02  0.91188000000E+02 0.  0.
    9900012    2    3    3    0    0  0.16241524471E+02 -0.31755393614E+02  0.24727126917E+02  0.47787274818E+02  0.20000017207E+02 0.  0.
        -12    1    3    3    0    0 -0.16241524471E+02  0.31755393614E+02 -0.24727126917E+02  0.43400725182E+02  0.00000000000E+00 0.  1.
         11    1    4    4    0    0  0.47939140174E+01 -0.44106460275E+01  0.85172539119E+01  0.10722827260E+02  0.51100000000E-03 0. -1.
        -11    1    4    4    0    0  0.14954052399E+02 -0.24916587835E+02  0.13875763103E+02  0.32202435225E+02  0.51100000000E-03 0.  1.
        -12    1    4    4    0    0 -0.35064419455E+01 -0.24281597523E+01  0.23341099017E+01  0.48620123336E+01  0.00000000000E+00 0.  1.
</event>
<event>
 8    1  0.2994958E-010  0.9118800E+02  0.7816164E-02  0.1184000E+00
        -11   -1    0    0    0    0  0.00000000000E+00  0.00000000000E+00  0.45593999997E+02  0.45594000000E+02  0.51100000000E-03 0. -1.
         11   -1    0    0    0    0 -0.00000000000E+00 -0.00000000000E+00 -0.45593999997E+02  0.45594000000E+02  0.51100000000E-03 0.  1.
         23    2    1    2    0    0  0.00000000000E+00  0.00000000000E+00 -0.17763568394E-14  0.91188000000E+02  0.91188000000E+02 0.  0.
    9900012    2    3    3    0    0 -0.12789737790E+02  0.39240768380E+02  0.13424146119E+02  0.47787274260E+02  0.20000014660E+02 0.  0.
        -12    1    3    3    0    0  0.12789737790E+02 -0.39240768380E+02 -0.13424146119E+02  0.43400725740E+02  0.00000000000E+00 0.  1.
         11    1    4    4    0    0 -0.67356125614E+01  0.14560155920E+02  0.78213400442E+01  0.17847688291E+02  0.51100000000E-03 0. -1.
        -11    1    4    4    0    0  0.67518743308E+00  0.17170036670E+02  0.88721559798E+01  0.19338593260E+02  0.51100000000E-03 0.  1.
         12    1    4    4    0    0 -0.67293126614E+01  0.75105757903E+01 -0.32693499051E+01  0.10600992708E+02  0.00000000000E+00 0. -1.
</event>
<event>
 8    1  0.2994958E-010  0.9118800E+02  0.7816164E-02  0.1184000E+00
        -11   -1    0    0    0    0  0.00000000000E+00  0.00000000000E+00  0.45593999997E+02  0.45594000000E+02  0.51100000000E-03 0. -1.
         11   -1    0    0    0    0 -0.00000000000E+00 -0.00000000000E+00 -0.45593999997E+02  0.45594000000E+02  0.51100000000E-03 0.  1.
         23    2    1    2    0    0 -0.35527136788E-14  0.00000000000E+00  0.00000000000E+00  0.91188000000E+02  0.91188000000E+02 0.  0.
    9900012    2    3    3    0    0 -0.27958831042E+02  0.21737734512E+02 -0.25087798562E+02  0.47787274526E+02  0.20000015876E+02 0.  0.
         12    1    3    3    0    0  0.27958831042E+02 -0.21737734512E+02  0.25087798562E+02  0.43400725474E+02  0.00000000000E+00 0. -1.
         11    1    4    4    0    0 -0.38120300361E+01  0.93002586752E+00 -0.71334464461E+01  0.81414113992E+01  0.51100000000E-03 0. -1.
        -11    1    4    4    0    0 -0.20501211254E+02  0.80727575643E+01 -0.10018376491E+02  0.24204068777E+02  0.51100000000E-03 0.  1.
         12    1    4    4    0    0 -0.36455897521E+01  0.12734951080E+02 -0.79359756246E+01  0.15441794351E+02  0.00000000000E+00 0. -1.
</event>
<event>
 8    1  0.2994958E-010  0.9118800E+02  0.7816164E-02  0.1184000E+00
        -11   -1    0    0    0    0  0.00000000000E+00  0.00000000000E+00  0.45593999997E+02  0.45594000000E+02  0.51100000000E-03 0. -1.
         11   -1    0    0    0    0 -0.00000000000E+00 -0.00000000000E+00 -0.45593999997E+02  0.45594000000E+02  0.51100000000E-03 0.  1.
         23    2    1    2    0    0 -0.35527136788E-14  0.35527136788E-14  0.35527136788E-14  0.91188000000E+02  0.91188000000E+02 0.  0.
    9900012    2    3    3    0    0  0.27917626727E+02 -0.18506274072E+02 -0.27599787482E+02  0.47787258864E+02  0.19999944466E+02 0.  0.
         12    1    3    3    0    0 -0.27917626727E+02  0.18506274072E+02  0.27599787482E+02  0.43400741136E+02  0.00000000000E+00 0. -1.
         11    1    4    4    0    0  0.97664359200E+01 -0.23885002502E+01 -0.35068146121E+01  0.10648284041E+02  0.51100000000E-03 0.  1.
        -11    1    4    4    0    0  0.61190855765E+01 -0.11891841260E+02 -0.52094104206E+01  0.14352597467E+02  0.51100000000E-03 0. -1.
        -12    1    4    4    0    0  0.12032105230E+02 -0.42259325616E+01 -0.18883562449E+02  0.22786377357E+02  0.00000000000E+00 0.  1.
</event>
<event>
 8    1  0.2994958E-010  0.9118800E+02  0.7816164E-02  0.1184000E+00
        -11   -1    0    0    0    0  0.00000000000E+00  0.00000000000E+00  0.45593999997E+02  0.45594000000E+02  0.51100000000E-03 0. -1.
         11   -1    0    0    0    0 -0.00000000000E+00 -0.00000000000E+00 -0.45593999997E+02  0.45594000000E+02  0.51100000000E-03 0.  1.
         23    2    1    2    0    0  0.00000000000E+00 -0.88817841970E-15 -0.71054273576E-14  0.91188000000E+02  0.91188000000E+02 0.  0.
    9900012    2    3    3    0    0  0.25316438728E+02  0.42807025727E+01  0.34991101191E+02  0.47787266746E+02  0.19999980402E+02 0.  0.
        -12    1    3    3    0    0 -0.25316438728E+02 -0.42807025727E+01 -0.34991101191E+02  0.43400733254E+02  0.00000000000E+00 0.  1.
         11    1    4    4    0    0  0.62954644978E+01 -0.70998979737E+00  0.96587454409E+01  0.11551117803E+02  0.51100000000E-03 0. -1.
        -11    1    4    4    0    0  0.24847922204E+01 -0.37248451979E+01 -0.32773978109E+00  0.44895520658E+01  0.51100000000E-03 0.  1.
        -12    1    4    4    0    0  0.16536182010E+02  0.87155375680E+01  0.25660095532E+02  0.31746596877E+02  0.00000000000E+00 0.  1.
</event>
<event>
 8    1  0.2994958E-010  0.9118800E+02  0.7816164E-02  0.1184000E+00
        -11   -1    0    0    0    0  0.00000000000E+00  0.00000000000E+00  0.45593999997E+02  0.45594000000E+02  0.51100000000E-03 0. -1.
         11   -1    0    0    0    0 -0.00000000000E+00 -0.00000000000E+00 -0.45593999997E+02  0.45594000000E+02  0.51100000000E-03 0.  1.
         23    2    1    2    0    0 -0.35527136788E-14 -0.35527136788E-14  0.71054273576E-14  0.91188000000E+02  0.91188000000E+02 0.  0.
    9900012    2    3    3    0    0  0.15671831807E+02  0.19664108755E+02 -0.35374254264E+02  0.47787293208E+02  0.20000101053E+02 0.  0.
         12    1    3    3    0    0 -0.15671831807E+02 -0.19664108755E+02  0.35374254264E+02  0.43400706792E+02  0.00000000000E+00 0. -1.
         11    1    4    4    0    0  0.13712326902E+02  0.13313780054E+02 -0.27400571204E+02  0.33407722924E+02  0.51100000000E-03 0.  1.
        -11    1    4    4    0    0  0.40661532186E+01  0.77691268000E+01 -0.39411338654E+01  0.96138166010E+01  0.51100000000E-03 0. -1.
        -12    1    4    4    0    0 -0.21066483134E+01 -0.14187980994E+01 -0.40325491942E+01  0.47657536830E+01  0.00000000000E+00 0.  1.
</event>
<event>
 8    1  0.2994958E-010  0.9118800E+02  0.7816164E-02  0.1184000E+00
        -11   -1    0    0    0    0  0.00000000000E+00  0.00000000000E+00  0.45593999997E+02  0.45594000000E+02  0.51100000000E-03 0.  1.
         11   -1    0    0    0    0 -0.00000000000E+00 -0.00000000000E+00 -0.45593999997E+02  0.45594000000E+02  0.51100000000E-03 0. -1.
         23    2    1    2    0    0  0.00000000000E+00  0.00000000000E+00  0.00000000000E+00  0.91188000000E+02  0.91188000000E+02 0.  0.
    9900012    2    3    3    0    0 -0.14820568519E+02 -0.24305295343E+02  0.32760136885E+02  0.47787271876E+02  0.20000003793E+02 0.  0.
        -12    1    3    3    0    0  0.14820568519E+02  0.24305295343E+02 -0.32760136885E+02  0.43400728124E+02  0.00000000000E+00 0.  1.
         11    1    4    4    0    0 -0.10290435955E+02 -0.11132522927E+02  0.21999627436E+02  0.26717218165E+02  0.51100000000E-03 0. -1.
        -11    1    4    4    0    0 -0.15915457093E+01  0.19723597844E+01  0.25435885553E+01  0.35906912793E+01  0.51100000000E-03 0.  1.
         12    1    4    4    0    0 -0.29385868549E+01 -0.15145132200E+02  0.82169208928E+01  0.17479362432E+02  0.00000000000E+00 0. -1.
</event>
<event>
 8    1  0.2994958E-010  0.9118800E+02  0.7816164E-02  0.1184000E+00
        -11   -1    0    0    0    0  0.00000000000E+00  0.00000000000E+00  0.45593999997E+02  0.45594000000E+02  0.51100000000E-03 0. -1.
         11   -1    0    0    0    0 -0.00000000000E+00 -0.00000000000E+00 -0.45593999997E+02  0.45594000000E+02  0.51100000000E-03 0.  1.
         23    2    1    2    0    0  0.00000000000E+00  0.00000000000E+00 -0.71054273576E-14  0.91188000000E+02  0.91188000000E+02 0.  0.
    9900012    2    3    3    0    0 -0.12016725024E+02  0.16797379531E+02  0.38171582500E+02  0.47787270168E+02  0.19999996003E+02 0.  0.
        -12    1    3    3    0    0  0.12016725024E+02 -0.16797379531E+02 -0.38171582500E+02  0.43400729832E+02  0.00000000000E+00 0.  1.
         11    1    4    4    0    0  0.11105515784E+01 -0.78504873749E+00  0.17949140924E+01  0.22519642956E+01  0.51100000000E-03 0. -1.
        -11    1    4    4    0    0 -0.10118795400E+02  0.16743621909E+02  0.17028347894E+02  0.25936528820E+02  0.51100000000E-03 0.  1.
         12    1    4    4    0    0 -0.30084812023E+01  0.83880635955E+00  0.19348320513E+02  0.19598777052E+02  0.00000000000E+00 0. -1.
</event>
<event>
 8    1  0.2994958E-010  0.9118800E+02  0.7816164E-02  0.1184000E+00
        -11   -1    0    0    0    0  0.00000000000E+00  0.00000000000E+00  0.45593999997E+02  0.45594000000E+02  0.51100000000E-03 0. -1.
         11   -1    0    0    0    0 -0.00000000000E+00 -0.00000000000E+00 -0.45593999997E+02  0.45594000000E+02  0.51100000000E-03 0.  1.
         23    2    1    2    0    0  0.13877787808E-15  0.00000000000E+00 -0.35527136788E-14  0.91188000000E+02  0.91188000000E+02 0.  0.
    9900012    2    3    3    0    0 -0.50775132052E-01  0.36854114210E+02 -0.22921495576E+02  0.47787271069E+02  0.20000000110E+02 0.  0.
         12    1    3    3    0    0  0.50775132052E-01 -0.36854114210E+02  0.22921495576E+02  0.43400728931E+02  0.00000000000E+00 0. -1.
         11    1    4    4    0    0  0.10749620953E+01  0.65827660769E+01 -0.92043747295E+01  0.11367007836E+02  0.51100000000E-03 0. -1.
        -11    1    4    4    0    0  0.74194310130E+00  0.70916314454E+01 -0.10858573092E+02  0.12990393604E+02  0.51100000000E-03 0.  1.
         12    1    4    4    0    0 -0.18676803287E+01  0.23179716688E+02 -0.28585477546E+01  0.23429869629E+02  0.00000000000E+00 0. -1.
</event>
<event>
 8    1  0.2994958E-010  0.9118800E+02  0.7816164E-02  0.1184000E+00
        -11   -1    0    0    0    0  0.00000000000E+00  0.00000000000E+00  0.45593999997E+02  0.45594000000E+02  0.51100000000E-03 0. -1.
         11   -1    0    0    0    0 -0.00000000000E+00 -0.00000000000E+00 -0.45593999997E+02  0.45594000000E+02  0.51100000000E-03 0.  1.
         23    2    1    2    0    0  0.00000000000E+00  0.00000000000E+00  0.00000000000E+00  0.91188000000E+02  0.91188000000E+02 0.  0.
    9900012    2    3    3    0    0  0.63318452939E+01  0.25754416027E+02 -0.34354653123E+02  0.47787258060E+02  0.19999940800E+02 0.  0.
         12    1    3    3    0    0 -0.63318452939E+01 -0.25754416027E+02  0.34354653123E+02  0.43400741940E+02  0.00000000000E+00 0. -1.
         11    1    4    4    0    0 -0.16067053492E+01  0.12943521312E+01 -0.52191313048E+01  0.56121458780E+01  0.51100000000E-03 0. -1.
        -11    1    4    4    0    0  0.30223475128E+01  0.25209234965E+02 -0.22829831926E+02  0.34144418842E+02  0.51100000000E-03 0.  1.
        -12    1    4    4    0    0  0.49162031302E+01 -0.74917106951E+00 -0.63056898926E+01  0.80306933406E+01  0.00000000000E+00 0.  1.
</event>
<event>
 8    1  0.2994958E-010  0.9118800E+02  0.7816164E-02  0.1184000E+00
        -11   -1    0    0    0    0  0.00000000000E+00  0.00000000000E+00  0.45593999997E+02  0.45594000000E+02  0.51100000000E-03 0. -1.
         11   -1    0    0    0    0 -0.00000000000E+00 -0.00000000000E+00 -0.45593999997E+02  0.45594000000E+02  0.51100000000E-03 0.  1.
         23    2    1    2    0    0  0.00000000000E+00  0.17763568394E-14  0.00000000000E+00  0.91188000000E+02  0.91188000000E+02 0.  0.
    9900012    2    3    3    0    0  0.25275203953E+01 -0.12654195475E+02  0.41437979494E+02  0.47787272275E+02  0.20000005612E+02 0.  0.
        -12    1    3    3    0    0 -0.25275203953E+01  0.12654195475E+02 -0.41437979494E+02  0.43400727725E+02  0.00000000000E+00 0.  1.
         11    1    4    4    0    0 -0.25977442473E+01 -0.44633991356E+01  0.21711786619E+02  0.22317524179E+02  0.51100000000E-03 0. -1.
        -11    1    4    4    0    0  0.32101212614E+01  0.19846597165E+01  0.11918561508E+02  0.12501834321E+02  0.51100000000E-03 0.  1.
        -12    1    4    4    0    0  0.19151433812E+01 -0.10175456056E+02  0.78076313665E+01  0.12967913775E+02  0.00000000000E+00 0.  1.
</event>
<event>
 8    1  0.2994958E-010  0.9118800E+02  0.7816164E-02  0.1184000E+00
        -11   -1    0    0    0    0  0.00000000000E+00  0.00000000000E+00  0.45593999997E+02  0.45594000000E+02  0.51100000000E-03 0.  1.
         11   -1    0    0    0    0 -0.00000000000E+00 -0.00000000000E+00 -0.45593999997E+02  0.45594000000E+02  0.51100000000E-03 0. -1.
         23    2    1    2    0    0  0.88817841970E-15  0.00000000000E+00  0.00000000000E+00  0.91188000000E+02  0.91188000000E+02 0.  0.
    9900012    2    3    3    0    0  0.74531948292E+01 -0.42538316123E+02  0.43086175705E+01  0.47787278380E+02  0.20000033445E+02 0.  0.
        -12    1    3    3    0    0 -0.74531948292E+01  0.42538316123E+02 -0.43086175705E+01  0.43400721620E+02  0.00000000000E+00 0.  1.
         11    1    4    4    0    0  0.21393845838E+01  0.34852046231E+00  0.59722164746E+00  0.22483564814E+01  0.51100000000E-03 0. -1.
        -11    1    4    4    0    0 -0.22440364612E+01 -0.31282020124E+02  0.72035176472E+00  0.31370677226E+02  0.51100000000E-03 0.  1.
         12    1    4    4    0    0  0.75578467066E+01 -0.11604816462E+02  0.29910441583E+01  0.14168244673E+02  0.00000000000E+00 0. -1.
</event>
<event>
 8    1  0.2994958E-010  0.9118800E+02  0.7816164E-02  0.1184000E+00
        -11   -1    0    0    0    0  0.00000000000E+00  0.00000000000E+00  0.45593999997E+02  0.45594000000E+02  0.51100000000E-03 0.  1.
         11   -1    0    0    0    0 -0.00000000000E+00 -0.00000000000E+00 -0.45593999997E+02  0.45594000000E+02  0.51100000000E-03 0. -1.
         23    2    1    2    0    0  0.71054273576E-14  0.35527136788E-14  0.00000000000E+00  0.91188000000E+02  0.91188000000E+02 0.  0.
    9900012    2    3    3    0    0 -0.37291792879E+02 -0.20986490395E+02  0.72466412797E+01  0.47787258012E+02  0.19999940581E+02 0.  0.
        -12    1    3    3    0    0  0.37291792879E+02  0.20986490395E+02 -0.72466412797E+01  0.43400741988E+02  0.00000000000E+00 0.  1.
         11    1    4    4    0    0 -0.66679245012E+01 -0.56419405901E+00  0.10700015249E+01  0.67767570131E+01  0.51100000000E-03 0. -1.
        -11    1    4    4    0    0 -0.33730796675E+01  0.28153349481E+01  0.23791758062E+01  0.49964242305E+01  0.51100000000E-03 0.  1.
         12    1    4    4    0    0 -0.27250788710E+02 -0.23237631285E+02  0.37974639486E+01  0.36014076769E+02  0.00000000000E+00 0. -1.
</event>
<event>
 8    1  0.2994958E-010  0.9118800E+02  0.7816164E-02  0.1184000E+00
        -11   -1    0    0    0    0  0.00000000000E+00  0.00000000000E+00  0.45593999997E+02  0.45594000000E+02  0.51100000000E-03 0. -1.
         11   -1    0    0    0    0 -0.00000000000E+00 -0.00000000000E+00 -0.45593999997E+02  0.45594000000E+02  0.51100000000E-03 0.  1.
         23    2    1    2    0    0  0.00000000000E+00  0.88817841970E-15  0.00000000000E+00  0.91188000000E+02  0.91188000000E+02 0.  0.
    9900012    2    3    3    0    0  0.14038296870E+02  0.43213614220E+01 -0.40839630317E+02  0.47787270191E+02  0.19999996108E+02 0.  0.
         12    1    3    3    0    0 -0.14038296870E+02 -0.43213614220E+01  0.40839630317E+02  0.43400729809E+02  0.00000000000E+00 0. -1.
         11    1    4    4    0    0  0.81869576559E+00 -0.32601415686E+01 -0.21566165256E+01  0.39937176795E+01  0.51100000000E-03 0. -1.
        -11    1    4    4    0    0  0.11220225776E+02  0.12991054476E+00 -0.14051813245E+02  0.17982319065E+02  0.51100000000E-03 0.  1.
        -12    1    4    4    0    0  0.19993753286E+01  0.74515924458E+01 -0.24631200546E+02  0.25811233446E+02  0.00000000000E+00 0.  1.
</event>
<event>
 8    1  0.2994958E-010  0.9118800E+02  0.7816164E-02  0.1184000E+00
        -11   -1    0    0    0    0  0.00000000000E+00  0.00000000000E+00  0.45593999997E+02  0.45594000000E+02  0.51100000000E-03 0.  1.
         11   -1    0    0    0    0 -0.00000000000E+00 -0.00000000000E+00 -0.45593999997E+02  0.45594000000E+02  0.51100000000E-03 0. -1.
         23    2    1    2    0    0 -0.71054273576E-14  0.00000000000E+00  0.88817841970E-15  0.91188000000E+02  0.91188000000E+02 0.  0.
    9900012    2    3    3    0    0  0.37362394711E+02 -0.20725982797E+02 -0.76228334286E+01  0.47787280065E+02  0.20000041127E+02 0.  0.
         12    1    3    3    0    0 -0.37362394711E+02  0.20725982797E+02  0.76228334286E+01  0.43400719935E+02  0.00000000000E+00 0. -1.
         11    1    4    4    0    0  0.15217548915E+02 -0.11253100482E+02 -0.94352671480E+01  0.21147820971E+02  0.51100000000E-03 0. -1.
        -11    1    4    4    0    0  0.15790178886E+02 -0.51120358070E+01 -0.38964470155E+01  0.17048312496E+02  0.51100000000E-03 0.  1.
        -12    1    4    4    0    0  0.63546669098E+01 -0.43608465083E+01  0.57088807349E+01  0.95911465972E+01  0.00000000000E+00 0.  1.
</event>
<event>
 8    1  0.2994958E-010  0.9118800E+02  0.7816164E-02  0.1184000E+00
        -11   -1    0    0    0    0  0.00000000000E+00  0.00000000000E+00  0.45593999997E+02  0.45594000000E+02  0.51100000000E-03 0. -1.
         11   -1    0    0    0    0 -0.00000000000E+00 -0.00000000000E+00 -0.45593999997E+02  0.45594000000E+02  0.51100000000E-03 0.  1.
         23    2    1    2    0    0 -0.35527136788E-14  0.35527136788E-14  0.71054273576E-14  0.91188000000E+02  0.91188000000E+02 0.  0.
    9900012    2    3    3    0    0  0.25613198842E+02 -0.13771093360E+02 -0.32217146805E+02  0.47787268261E+02  0.19999987308E+02 0.  0.
         12    1    3    3    0    0 -0.25613198842E+02  0.13771093360E+02  0.32217146805E+02  0.43400731739E+02  0.00000000000E+00 0. -1.
         11    1    4    4    0    0  0.54434061747E+01 -0.86116944741E+01 -0.45492679403E+01  0.11157409715E+02  0.51100000000E-03 0. -1.
        -11    1    4    4    0    0  0.12355861240E+01 -0.75409044471E+00  0.11633119288E+01  0.18570461420E+01  0.51100000000E-03 0.  1.
        -12    1    4    4    0    0  0.18934206543E+02 -0.44053084410E+01 -0.28831190794E+02  0.34772812404E+02  0.00000000000E+00 0.  1.
</event>
<event>
 8    1  0.2994958E-010  0.9118800E+02  0.7816164E-02  0.1184000E+00
        -11   -1    0    0    0    0  0.00000000000E+00  0.00000000000E+00  0.45593999997E+02  0.45594000000E+02  0.51100000000E-03 0. -1.
         11   -1    0    0    0    0 -0.00000000000E+00 -0.00000000000E+00 -0.45593999997E+02  0.45594000000E+02  0.51100000000E-03 0.  1.
         23    2    1    2    0    0 -0.35527136788E-14  0.00000000000E+00  0.17763568394E-14  0.91188000000E+02  0.91188000000E+02 0.  0.
    9900012    2    3    3    0    0  0.31028628385E+02  0.26611694368E+02 -0.14583036886E+02  0.47787273953E+02  0.20000013262E+02 0.  0.
         12    1    3    3    0    0 -0.31028628385E+02 -0.26611694368E+02  0.14583036886E+02  0.43400726047E+02  0.00000000000E+00 0. -1.
         11    1    4    4    0    0  0.20093176009E+01  0.35660486264E+01 -0.65144364368E+01  0.76936299870E+01  0.51100000000E-03 0. -1.
        -11    1    4    4    0    0  0.68728792823E+01  0.64327223682E+01 -0.80845805007E+01  0.12408740018E+02  0.51100000000E-03 0.  1.
         12    1    4    4    0    0  0.22146431502E+02  0.16612923373E+02  0.15980051650E-01  0.27684903948E+02  0.00000000000E+00 0. -1.
</event>
<event>
 8    1  0.2994958E-010  0.9118800E+02  0.7816164E-02  0.1184000E+00
        -11   -1    0    0    0    0  0.00000000000E+00  0.00000000000E+00  0.45593999997E+02  0.45594000000E+02  0.51100000000E-03 0. -1.
         11   -1    0    0    0    0 -0.00000000000E+00 -0.00000000000E+00 -0.45593999997E+02  0.45594000000E+02  0.51100000000E-03 0.  1.
         23    2    1    2    0    0  0.00000000000E+00  0.17763568394E-14 -0.71054273576E-14  0.91188000000E+02  0.91188000000E+02 0.  0.
    9900012    2    3    3    0    0  0.15862842723E+02 -0.11445259616E+02 -0.38742736653E+02  0.47787269703E+02  0.19999993886E+02 0.  0.
         12    1    3    3    0    0 -0.15862842723E+02  0.11445259616E+02  0.38742736653E+02  0.43400730297E+02  0.00000000000E+00 0. -1.
         11    1    4    4    0    0  0.16313950078E+01 -0.52774869788E+01 -0.56801667792E+01  0.79232325085E+01  0.51100000000E-03 0. -1.
        -11    1    4    4    0    0  0.17117437754E+02 -0.66909403941E+01 -0.31671744447E+02  0.36617956732E+02  0.51100000000E-03 0.  1.
        -12    1    4    4    0    0 -0.28859900389E+01  0.52316775677E+00 -0.13908254262E+01  0.32460804630E+01  0.00000000000E+00 0.  1.
</event>
<event>
 8    1  0.2994958E-010  0.9118800E+02  0.7816164E-02  0.1184000E+00
        -11   -1    0    0    0    0  0.00000000000E+00  0.00000000000E+00  0.45593999997E+02  0.45594000000E+02  0.51100000000E-03 0. -1.
         11   -1    0    0    0    0 -0.00000000000E+00 -0.00000000000E+00 -0.45593999997E+02  0.45594000000E+02  0.51100000000E-03 0.  1.
         23    2    1    2    0    0 -0.88817841970E-15  0.00000000000E+00  0.00000000000E+00  0.91188000000E+02  0.91188000000E+02 0.  0.
    9900012    2    3    3    0    0 -0.54305056115E+01 -0.39489582028E+02  0.17167001178E+02  0.47787269483E+02  0.19999992881E+02 0.  0.
        -12    1    3    3    0    0  0.54305056115E+01  0.39489582028E+02 -0.17167001178E+02  0.43400730517E+02  0.00000000000E+00 0.  1.
         11    1    4    4    0    0 -0.11927165407E+01 -0.11634230983E+02 -0.23117834462E+00  0.11697493193E+02  0.51100000000E-03 0. -1.
        -11    1    4    4    0    0  0.22370003239E+01  0.67748249665E+00  0.93229778008E+00  0.25164126042E+01  0.51100000000E-03 0.  1.
         12    1    4    4    0    0 -0.64747893947E+01 -0.28532833542E+02  0.16465881742E+02  0.33573363686E+02  0.00000000000E+00 0. -1.
</event>
<event>
 8    1  0.2994958E-010  0.9118800E+02  0.7816164E-02  0.1184000E+00
        -11   -1    0    0    0    0  0.00000000000E+00  0.00000000000E+00  0.45593999997E+02  0.45594000000E+02  0.51100000000E-03 0. -1.
         11   -1    0    0    0    0 -0.00000000000E+00 -0.00000000000E+00 -0.45593999997E+02  0.45594000000E+02  0.51100000000E-03 0.  1.
         23    2    1    2    0    0  0.00000000000E+00  0.00000000000E+00  0.71054273576E-14  0.91188000000E+02  0.91188000000E+02 0.  0.
    9900012    2    3    3    0    0 -0.41756620056E+01  0.19044484583E+02  0.38774924625E+02  0.47787270445E+02  0.19999997268E+02 0.  0.
        -12    1    3    3    0    0  0.41756620056E+01 -0.19044484583E+02 -0.38774924625E+02  0.43400729555E+02  0.00000000000E+00 0.  1.
         11    1    4    4    0    0  0.22438125131E+01  0.73035709795E+01  0.91378490668E+01  0.11911218639E+02  0.51100000000E-03 0. -1.
        -11    1    4    4    0    0 -0.72086750570E+01  0.12430038958E+02  0.13535196865E+02  0.19740122061E+02  0.51100000000E-03 0.  1.
         12    1    4    4    0    0  0.78920053821E+00 -0.68912535490E+00  0.16101878694E+02  0.16135929744E+02  0.00000000000E+00 0. -1.
</event>
<event>
 8    1  0.3043391E-010  0.9118800E+02  0.7816164E-02  0.1184000E+00
        -11   -1    0    0    0    0  0.00000000000E+00  0.00000000000E+00  0.45593999997E+02  0.45594000000E+02  0.51100000000E-03 0. -1.
         11   -1    0    0    0    0 -0.00000000000E+00 -0.00000000000E+00 -0.45593999997E+02  0.45594000000E+02  0.51100000000E-03 0.  1.
         23    2    1    2    0    0  0.35527136788E-14  0.35527136788E-14 -0.35527136788E-14  0.91188000000E+02  0.91188000000E+02 0.  0.
    9900012    2    3    3    0    0 -0.29655451784E+02 -0.20485416545E+02  0.24176951009E+02  0.47787273375E+02  0.20000010624E+02 0.  0.
        -12    1    3    3    0    0  0.29655451784E+02  0.20485416545E+02 -0.24176951009E+02  0.43400726625E+02  0.00000000000E+00 0.  1.
         11    1    4    4    0    0 -0.67784573295E+01 -0.10377098830E+02  0.43240687125E+01  0.13127422991E+02  0.51100000000E-03 0. -1.
        -11    1    4    4    0    0  0.22870095075E+00 -0.41926528808E+01  0.51357756583E+01  0.66337647062E+01  0.51100000000E-03 0.  1.
         12    1    4    4    0    0 -0.23105695406E+02 -0.59156648337E+01  0.14717106638E+02  0.28026085677E+02  0.00000000000E+00 0. -1.
</event>
<event>
 8    1  0.2994958E-010  0.9118800E+02  0.7816164E-02  0.1184000E+00
        -11   -1    0    0    0    0  0.00000000000E+00  0.00000000000E+00  0.45593999997E+02  0.45594000000E+02  0.51100000000E-03 0. -1.
         11   -1    0    0    0    0 -0.00000000000E+00 -0.00000000000E+00 -0.45593999997E+02  0.45594000000E+02  0.51100000000E-03 0.  1.
         23    2    1    2    0    0  0.17763568394E-14  0.88817841970E-15  0.71054273576E-14  0.91188000000E+02  0.91188000000E+02 0.  0.
    9900012    2    3    3    0    0 -0.98612223944E+01 -0.52980870330E+01 -0.41932146034E+02  0.47787328296E+02  0.20000261033E+02 0.  0.
         12    1    3    3    0    0  0.98612223944E+01  0.52980870330E+01  0.41932146034E+02  0.43400671704E+02  0.00000000000E+00 0. -1.
         11    1    4    4    0    0 -0.59754600930E+01  0.23556052684E+01 -0.13712342684E+02  0.15142104928E+02  0.51100000000E-03 0. -1.
        -11    1    4    4    0    0 -0.27677238128E+01 -0.27614151166E+01 -0.27256154076E+02  0.27535134716E+02  0.51100000000E-03 0.  1.
         12    1    4    4    0    0 -0.11180384886E+01 -0.48922771848E+01 -0.96364927393E+00  0.51100886527E+01  0.00000000000E+00 0. -1.
</event>
<event>
 8    1  0.2994958E-010  0.9118800E+02  0.7816164E-02  0.1184000E+00
        -11   -1    0    0    0    0  0.00000000000E+00  0.00000000000E+00  0.45593999997E+02  0.45594000000E+02  0.51100000000E-03 0. -1.
         11   -1    0    0    0    0 -0.00000000000E+00 -0.00000000000E+00 -0.45593999997E+02  0.45594000000E+02  0.51100000000E-03 0.  1.
         23    2    1    2    0    0  0.00000000000E+00  0.00000000000E+00  0.00000000000E+00  0.91188000000E+02  0.91188000000E+02 0.  0.
    9900012    2    3    3    0    0 -0.40135104455E+02  0.16482647267E+02 -0.10578560246E+01  0.47787270399E+02  0.19999997056E+02 0.  0.
         12    1    3    3    0    0  0.40135104455E+02 -0.16482647267E+02  0.10578560246E+01  0.43400729601E+02  0.00000000000E+00 0. -1.
         11    1    4    4    0    0 -0.31574492136E+02  0.13069513632E+02  0.82840034789E-01  0.34172614810E+02  0.51100000000E-03 0. -1.
        -11    1    4    4    0    0 -0.52210221233E+01  0.69544751650E+01 -0.86736203198E+00  0.87393428808E+01  0.51100000000E-03 0.  1.
         12    1    4    4    0    0 -0.33395901957E+01 -0.35413415300E+01 -0.27333402737E+00  0.48753127077E+01  0.00000000000E+00 0. -1.
</event>
<event>
 8    1  0.2994958E-010  0.9118800E+02  0.7816164E-02  0.1184000E+00
        -11   -1    0    0    0    0  0.00000000000E+00  0.00000000000E+00  0.45593999997E+02  0.45594000000E+02  0.51100000000E-03 0. -1.
         11   -1    0    0    0    0 -0.00000000000E+00 -0.00000000000E+00 -0.45593999997E+02  0.45594000000E+02  0.51100000000E-03 0.  1.
         23    2    1    2    0    0  0.88817841970E-15  0.44408920985E-15  0.71054273576E-14  0.91188000000E+02  0.91188000000E+02 0.  0.
    9900012    2    3    3    0    0  0.62238559426E+01 -0.37253818400E+01  0.42790274343E+02  0.47787280755E+02  0.20000044272E+02 0.  0.
        -12    1    3    3    0    0 -0.62238559426E+01  0.37253818400E+01 -0.42790274343E+02  0.43400719245E+02  0.00000000000E+00 0.  1.
         11    1    4    4    0    0  0.73560498935E+00  0.55335514842E+01  0.17523355295E+02  0.18391011060E+02  0.51100000000E-03 0. -1.
        -11    1    4    4    0    0  0.50804904369E+01 -0.69788036215E+00  0.15869016182E+02  0.16677052945E+02  0.51100000000E-03 0.  1.
         12    1    4    4    0    0  0.40776051638E+00 -0.85610529620E+01  0.93979028660E+01  0.12719216750E+02  0.00000000000E+00 0. -1.
</event>
<event>
 8    1  0.2994958E-010  0.9118800E+02  0.7816164E-02  0.1184000E+00
        -11   -1    0    0    0    0  0.00000000000E+00  0.00000000000E+00  0.45593999997E+02  0.45594000000E+02  0.51100000000E-03 0. -1.
         11   -1    0    0    0    0 -0.00000000000E+00 -0.00000000000E+00 -0.45593999997E+02  0.45594000000E+02  0.51100000000E-03 0.  1.
         23    2    1    2    0    0  0.00000000000E+00 -0.94368957093E-15  0.71054273576E-14  0.91188000000E+02  0.91188000000E+02 0.  0.
    9900012    2    3    3    0    0 -0.23972839350E+02  0.28695464337E+00 -0.36177947644E+02  0.47787271144E+02  0.20000000455E+02 0.  0.
         12    1    3    3    0    0  0.23972839350E+02 -0.28695464337E+00  0.36177947644E+02  0.43400728856E+02  0.00000000000E+00 0. -1.
         11    1    4    4    0    0 -0.37607886856E+01  0.24871159234E+01 -0.10707874885E+02  0.11618427689E+02  0.51100000000E-03 0.  1.
        -11    1    4    4    0    0 -0.15660043409E+02  0.53330461145E+01 -0.19300316891E+02  0.25420082077E+02  0.51100000000E-03 0. -1.
         12    1    4    4    0    0 -0.45520072550E+01 -0.75332073945E+01 -0.61697558688E+01  0.10748761379E+02  0.00000000000E+00 0. -1.
</event>
<event>
 8    1  0.2994958E-010  0.9118800E+02  0.7816164E-02  0.1184000E+00
        -11   -1    0    0    0    0  0.00000000000E+00  0.00000000000E+00  0.45593999997E+02  0.45594000000E+02  0.51100000000E-03 0. -1.
         11   -1    0    0    0    0 -0.00000000000E+00 -0.00000000000E+00 -0.45593999997E+02  0.45594000000E+02  0.51100000000E-03 0.  1.
         23    2    1    2    0    0  0.00000000000E+00  0.00000000000E+00  0.00000000000E+00  0.91188000000E+02  0.91188000000E+02 0.  0.
    9900012    2    3    3    0    0 -0.22093348056E+02  0.27707491743E+02  0.25055982162E+02  0.47787269947E+02  0.19999994998E+02 0.  0.
        -12    1    3    3    0    0  0.22093348056E+02 -0.27707491743E+02 -0.25055982162E+02  0.43400730053E+02  0.00000000000E+00 0.  1.
         11    1    4    4    0    0 -0.20405433354E+00  0.22397759697E+01 -0.13105668401E+01  0.26030405815E+01  0.51100000000E-03 0. -1.
        -11    1    4    4    0    0 -0.12816516528E+00 -0.12705549115E+01  0.37294384492E+01  0.39420105911E+01  0.51100000000E-03 0.  1.
         12    1    4    4    0    0 -0.21761128557E+02  0.26738270685E+02  0.22637110553E+02  0.41242218775E+02  0.00000000000E+00 0. -1.
</event>
<event>
 8    1  0.2994958E-010  0.9118800E+02  0.7816164E-02  0.1184000E+00
        -11   -1    0    0    0    0  0.00000000000E+00  0.00000000000E+00  0.45593999997E+02  0.45594000000E+02  0.51100000000E-03 0. -1.
         11   -1    0    0    0    0 -0.00000000000E+00 -0.00000000000E+00 -0.45593999997E+02  0.45594000000E+02  0.51100000000E-03 0.  1.
         23    2    1    2    0    0  0.00000000000E+00  0.00000000000E+00  0.00000000000E+00  0.91188000000E+02  0.91188000000E+02 0.  0.
    9900012    2    3    3    0    0  0.12444103632E+02 -0.30076616083E+02  0.28708271934E+02  0.47787269273E+02  0.19999991923E+02 0.  0.
        -12    1    3    3    0    0 -0.12444103632E+02  0.30076616083E+02 -0.28708271934E+02  0.43400730727E+02  0.00000000000E+00 0.  1.
         11    1    4    4    0    0 -0.23006795792E+01 -0.58413993115E+01  0.10557719624E+02  0.12283343045E+02  0.51100000000E-03 0. -1.
        -11    1    4    4    0    0  0.21420663143E+01 -0.14625277252E+01 -0.14039462104E+01  0.29493220686E+01  0.51100000000E-03 0.  1.
         12    1    4    4    0    0  0.12602716897E+02 -0.22772689046E+02  0.19554498521E+02  0.32554604159E+02  0.00000000000E+00 0. -1.
</event>
<event>
 8    1  0.2994958E-010  0.9118800E+02  0.7816164E-02  0.1184000E+00
        -11   -1    0    0    0    0  0.00000000000E+00  0.00000000000E+00  0.45593999997E+02  0.45594000000E+02  0.51100000000E-03 0. -1.
         11   -1    0    0    0    0 -0.00000000000E+00 -0.00000000000E+00 -0.45593999997E+02  0.45594000000E+02  0.51100000000E-03 0.  1.
         23    2    1    2    0    0  0.00000000000E+00  0.00000000000E+00  0.00000000000E+00  0.91188000000E+02  0.91188000000E+02 0.  0.
    9900012    2    3    3    0    0  0.26283624125E+01 -0.74694737060E+01  0.42672261541E+02  0.47787271533E+02  0.20000002228E+02 0.  0.
        -12    1    3    3    0    0 -0.26283624125E+01  0.74694737060E+01 -0.42672261541E+02  0.43400728467E+02  0.00000000000E+00 0.  1.
         11    1    4    4    0    0  0.51166775305E+01 -0.85214557700E+01  0.24576233035E+02  0.26510126893E+02  0.51100000000E-03 0. -1.
        -11    1    4    4    0    0 -0.28980018810E+01 -0.10766734824E+01  0.18757644429E+02  0.19010703971E+02  0.51100000000E-03 0.  1.
         12    1    4    4    0    0  0.40968676310E+00  0.21286555463E+01 -0.66161592322E+00  0.22664406695E+01  0.00000000000E+00 0. -1.
</event>
<event>
 8    1  0.2994958E-010  0.9118800E+02  0.7816164E-02  0.1184000E+00
        -11   -1    0    0    0    0  0.00000000000E+00  0.00000000000E+00  0.45593999997E+02  0.45594000000E+02  0.51100000000E-03 0.  1.
         11   -1    0    0    0    0 -0.00000000000E+00 -0.00000000000E+00 -0.45593999997E+02  0.45594000000E+02  0.51100000000E-03 0. -1.
         23    2    1    2    0    0  0.88817841970E-15  0.71054273576E-14  0.00000000000E+00  0.91188000000E+02  0.91188000000E+02 0.  0.
    9900012    2    3    3    0    0  0.45952395300E+01  0.38625279977E+02 -0.19250816268E+02  0.47787281036E+02  0.20000045554E+02 0.  0.
         12    1    3    3    0    0 -0.45952395300E+01 -0.38625279977E+02  0.19250816268E+02  0.43400718964E+02  0.00000000000E+00 0. -1.
         11    1    4    4    0    0  0.52793506606E+01  0.14062417321E+02 -0.64863608372E+01  0.16361418077E+02  0.51100000000E-03 0. -1.
        -11    1    4    4    0    0  0.74062465680E+00  0.24453571024E+02 -0.69420006282E+01  0.25430631799E+02  0.51100000000E-03 0.  1.
         12    1    4    4    0    0 -0.14247357874E+01  0.10929163121E+00 -0.58224548028E+01  0.59952311595E+01  0.00000000000E+00 0. -1.
</event>
<event>
 8    1  0.2994958E-010  0.9118800E+02  0.7816164E-02  0.1184000E+00
        -11   -1    0    0    0    0  0.00000000000E+00  0.00000000000E+00  0.45593999997E+02  0.45594000000E+02  0.51100000000E-03 0. -1.
         11   -1    0    0    0    0 -0.00000000000E+00 -0.00000000000E+00 -0.45593999997E+02  0.45594000000E+02  0.51100000000E-03 0.  1.
         23    2    1    2    0    0  0.00000000000E+00 -0.88817841970E-15  0.00000000000E+00  0.91188000000E+02  0.91188000000E+02 0.  0.
    9900012    2    3    3    0    0  0.56015579516E+01 -0.57342724853E+01 -0.42654000129E+02  0.47787273515E+02  0.20000011263E+02 0.  0.
         12    1    3    3    0    0 -0.56015579516E+01  0.57342724853E+01  0.42654000129E+02  0.43400726485E+02  0.00000000000E+00 0. -1.
         11    1    4    4    0    0  0.22272447656E+01 -0.44687536411E+01 -0.33334300243E+01  0.60035101682E+01  0.51100000000E-03 0. -1.
        -11    1    4    4    0    0  0.87141790597E+00  0.60343127368E+01 -0.21851112918E+02  0.22685754019E+02  0.51100000000E-03 0.  1.
        -12    1    4    4    0    0  0.25028952801E+01 -0.72998315810E+01 -0.17469457186E+02  0.19098009328E+02  0.00000000000E+00 0.  1.
</event>
<event>
 8    1  0.2994958E-010  0.9118800E+02  0.7816164E-02  0.1184000E+00
        -11   -1    0    0    0    0  0.00000000000E+00  0.00000000000E+00  0.45593999997E+02  0.45594000000E+02  0.51100000000E-03 0. -1.
         11   -1    0    0    0    0 -0.00000000000E+00 -0.00000000000E+00 -0.45593999997E+02  0.45594000000E+02  0.51100000000E-03 0.  1.
         23    2    1    2    0    0  0.00000000000E+00  0.44408920985E-15 -0.71054273576E-14  0.91188000000E+02  0.91188000000E+02 0.  0.
    9900012    2    3    3    0    0 -0.63063601286E+01  0.27928868291E+01 -0.42849188104E+02  0.47787270558E+02  0.19999997782E+02 0.  0.
         12    1    3    3    0    0  0.63063601286E+01 -0.27928868291E+01  0.42849188104E+02  0.43400729442E+02  0.00000000000E+00 0. -1.
         11    1    4    4    0    0 -0.24640508122E+00 -0.43775962079E+01 -0.13182758260E+02  0.13892774367E+02  0.51100000000E-03 0. -1.
        -11    1    4    4    0    0 -0.77300797609E+01  0.12760554068E+01 -0.24983747251E+02  0.26183393162E+02  0.51100000000E-03 0.  1.
         12    1    4    4    0    0  0.16701247134E+01  0.58944276302E+01 -0.46826825932E+01  0.77111030284E+01  0.00000000000E+00 0. -1.
</event>
<event>
 8    1  0.2994958E-010  0.9118800E+02  0.7816164E-02  0.1184000E+00
        -11   -1    0    0    0    0  0.00000000000E+00  0.00000000000E+00  0.45593999997E+02  0.45594000000E+02  0.51100000000E-03 0. -1.
         11   -1    0    0    0    0 -0.00000000000E+00 -0.00000000000E+00 -0.45593999997E+02  0.45594000000E+02  0.51100000000E-03 0.  1.
         23    2    1    2    0    0  0.71054273576E-14  0.00000000000E+00 -0.22204460493E-15  0.91188000000E+02  0.91188000000E+02 0.  0.
    9900012    2    3    3    0    0 -0.40525440259E+02  0.15465534455E+02  0.14591247425E+01  0.47787272942E+02  0.20000008652E+02 0.  0.
        -12    1    3    3    0    0  0.40525440259E+02 -0.15465534455E+02 -0.14591247425E+01  0.43400727058E+02  0.00000000000E+00 0.  1.
         11    1    4    4    0    0 -0.14037527857E+02  0.12565636761E+02  0.40919880630E+01  0.19279309690E+02  0.51100000000E-03 0. -1.
        -11    1    4    4    0    0  0.13045128552E+00 -0.19845337220E+00  0.13895347398E+01  0.14096837706E+01  0.51100000000E-03 0.  1.
        -12    1    4    4    0    0 -0.26618363687E+02  0.30983510665E+01 -0.40223980602E+01  0.27098279481E+02  0.00000000000E+00 0.  1.
</event>
<event>
 8    1  0.2994958E-010  0.9118800E+02  0.7816164E-02  0.1184000E+00
        -11   -1    0    0    0    0  0.00000000000E+00  0.00000000000E+00  0.45593999997E+02  0.45594000000E+02  0.51100000000E-03 0. -1.
         11   -1    0    0    0    0 -0.00000000000E+00 -0.00000000000E+00 -0.45593999997E+02  0.45594000000E+02  0.51100000000E-03 0.  1.
         23    2    1    2    0    0  0.00000000000E+00 -0.22204460493E-15  0.35527136788E-14  0.91188000000E+02  0.91188000000E+02 0.  0.
    9900012    2    3    3    0    0  0.30729714735E+02 -0.29942810583E+00  0.30646677610E+02  0.47787264138E+02  0.19999968510E+02 0.  0.
        -12    1    3    3    0    0 -0.30729714735E+02  0.29942810583E+00 -0.30646677610E+02  0.43400735862E+02  0.00000000000E+00 0.  1.
         11    1    4    4    0    0  0.12623598031E+02  0.45363760422E+01  0.78462972519E+01  0.15540216075E+02  0.51100000000E-03 0. -1.
        -11    1    4    4    0    0  0.17066440910E+02 -0.13995846885E+01  0.12118703208E+02  0.20978207987E+02  0.51100000000E-03 0.  1.
        -12    1    4    4    0    0  0.10396757945E+01 -0.34362194595E+01  0.10681677150E+02  0.11268840076E+02  0.00000000000E+00 0.  1.
</event>
<event>
 8    1  0.2994958E-010  0.9118800E+02  0.7816164E-02  0.1184000E+00
        -11   -1    0    0    0    0  0.00000000000E+00  0.00000000000E+00  0.45593999997E+02  0.45594000000E+02  0.51100000000E-03 0. -1.
         11   -1    0    0    0    0 -0.00000000000E+00 -0.00000000000E+00 -0.45593999997E+02  0.45594000000E+02  0.51100000000E-03 0.  1.
         23    2    1    2    0    0 -0.88817841970E-15  0.00000000000E+00  0.71054273576E-14  0.91188000000E+02  0.91188000000E+02 0.  0.
    9900012    2    3    3    0    0 -0.33050417023E+01  0.80530183259E+01 -0.42518807797E+02  0.47787269346E+02  0.19999992256E+02 0.  0.
         12    1    3    3    0    0  0.33050417023E+01 -0.80530183259E+01  0.42518807797E+02  0.43400730654E+02  0.00000000000E+00 0. -1.
         11    1    4    4    0    0 -0.20509634459E+00  0.81629393231E+01 -0.75928900535E+01  0.11150229707E+02  0.51100000000E-03 0. -1.
        -11    1    4    4    0    0 -0.43790990186E+01  0.20514060433E+01 -0.65058816696E+01  0.81062489185E+01  0.51100000000E-03 0.  1.
        -12    1    4    4    0    0  0.12791536609E+01 -0.21613270405E+01 -0.28420036074E+02  0.28530790720E+02  0.00000000000E+00 0.  1.
</event>
<event>
 8    1  0.2994958E-010  0.9118800E+02  0.7816164E-02  0.1184000E+00
        -11   -1    0    0    0    0  0.00000000000E+00  0.00000000000E+00  0.45593999997E+02  0.45594000000E+02  0.51100000000E-03 0. -1.
         11   -1    0    0    0    0 -0.00000000000E+00 -0.00000000000E+00 -0.45593999997E+02  0.45594000000E+02  0.51100000000E-03 0.  1.
         23    2    1    2    0    0  0.00000000000E+00  0.00000000000E+00 -0.17763568394E-14  0.91188000000E+02  0.91188000000E+02 0.  0.
    9900012    2    3    3    0    0 -0.42288924713E+02  0.23988575255E+01  0.94612773449E+01  0.47787269132E+02  0.19999991282E+02 0.  0.
        -12    1    3    3    0    0  0.42288924713E+02 -0.23988575255E+01 -0.94612773449E+01  0.43400730868E+02  0.00000000000E+00 0.  1.
         11    1    4    4    0    0 -0.24136814812E+02  0.42730614509E+01  0.78529346495E+01  0.25739336944E+02  0.51100000000E-03 0. -1.
        -11    1    4    4    0    0 -0.17591309573E+02  0.10165953953E+01 -0.15999204841E+01  0.17693145127E+02  0.51100000000E-03 0.  1.
        -12    1    4    4    0    0 -0.56080032876E+00 -0.28907993206E+01  0.32082631794E+01  0.43547870613E+01  0.00000000000E+00 0.  1.
</event>
<event>
 8    1  0.2994958E-010  0.9118800E+02  0.7816164E-02  0.1184000E+00
        -11   -1    0    0    0    0  0.00000000000E+00  0.00000000000E+00  0.45593999997E+02  0.45594000000E+02  0.51100000000E-03 0. -1.
         11   -1    0    0    0    0 -0.00000000000E+00 -0.00000000000E+00 -0.45593999997E+02  0.45594000000E+02  0.51100000000E-03 0.  1.
         23    2    1    2    0    0  0.17763568394E-14 -0.35527136788E-14  0.00000000000E+00  0.91188000000E+02  0.91188000000E+02 0.  0.
    9900012    2    3    3    0    0  0.15421806791E+02  0.24922149119E+02  0.32010570458E+02  0.47787282696E+02  0.20000053125E+02 0.  0.
        -12    1    3    3    0    0 -0.15421806791E+02 -0.24922149119E+02 -0.32010570458E+02  0.43400717304E+02  0.00000000000E+00 0.  1.
         11    1    4    4    0    0  0.22682543504E+01  0.97289193684E+01  0.43035175739E+01  0.10877367036E+02  0.51100000000E-03 0.  1.
        -11    1    4    4    0    0  0.60881645831E+01  0.15441581469E+02  0.23197960319E+02  0.28524613047E+02  0.51100000000E-03 0. -1.
        -12    1    4    4    0    0  0.70653878571E+01 -0.24835171805E+00  0.45090925654E+01  0.83853026130E+01  0.00000000000E+00 0.  1.
</event>
<event>
 8    1  0.2994958E-010  0.9118800E+02  0.7816164E-02  0.1184000E+00
        -11   -1    0    0    0    0  0.00000000000E+00  0.00000000000E+00  0.45593999997E+02  0.45594000000E+02  0.51100000000E-03 0. -1.
         11   -1    0    0    0    0 -0.00000000000E+00 -0.00000000000E+00 -0.45593999997E+02  0.45594000000E+02  0.51100000000E-03 0.  1.
         23    2    1    2    0    0  0.00000000000E+00 -0.35527136788E-14  0.00000000000E+00  0.91188000000E+02  0.91188000000E+02 0.  0.
    9900012    2    3    3    0    0  0.22490601107E+02 -0.24174068231E+02 -0.28167543574E+02  0.47787271620E+02  0.20000002623E+02 0.  0.
         12    1    3    3    0    0 -0.22490601107E+02  0.24174068231E+02  0.28167543574E+02  0.43400728380E+02  0.00000000000E+00 0. -1.
         11    1    4    4    0    0 -0.19661361750E+00 -0.10070531043E+00  0.73116000976E+00  0.76380213087E+00  0.51100000000E-03 0. -1.
        -11    1    4    4    0    0  0.21100408970E+02 -0.22895828362E+02 -0.18036079336E+02  0.35982584303E+02  0.51100000000E-03 0.  1.
        -12    1    4    4    0    0  0.15868057547E+01 -0.11775345582E+01 -0.10862624247E+02  0.11040885185E+02  0.00000000000E+00 0.  1.
</event>
<event>
 8    1  0.2994958E-010  0.9118800E+02  0.7816164E-02  0.1184000E+00
        -11   -1    0    0    0    0  0.00000000000E+00  0.00000000000E+00  0.45593999997E+02  0.45594000000E+02  0.51100000000E-03 0. -1.
         11   -1    0    0    0    0 -0.00000000000E+00 -0.00000000000E+00 -0.45593999997E+02  0.45594000000E+02  0.51100000000E-03 0.  1.
         23    2    1    2    0    0  0.00000000000E+00  0.00000000000E+00  0.00000000000E+00  0.91188000000E+02  0.91188000000E+02 0.  0.
    9900012    2    3    3    0    0 -0.14951933508E+02  0.84442967226E+01 -0.39859216923E+02  0.47787266867E+02  0.19999980954E+02 0.  0.
         12    1    3    3    0    0  0.14951933508E+02 -0.84442967226E+01  0.39859216923E+02  0.43400733133E+02  0.00000000000E+00 0. -1.
         11    1    4    4    0    0  0.11680198638E+01 -0.10335256486E+01 -0.89416631959E+01  0.90766616461E+01  0.51100000000E-03 0. -1.
        -11    1    4    4    0    0 -0.11274432339E+02 -0.13063863196E+01 -0.17120175811E+02  0.20540688641E+02  0.51100000000E-03 0.  1.
        -12    1    4    4    0    0 -0.48455210325E+01  0.10784208691E+02 -0.13797377916E+02  0.18169916580E+02  0.00000000000E+00 0.  1.
</event>
<event>
 8    1  0.2994958E-010  0.9118800E+02  0.7816164E-02  0.1184000E+00
        -11   -1    0    0    0    0  0.00000000000E+00  0.00000000000E+00  0.45593999997E+02  0.45594000000E+02  0.51100000000E-03 0. -1.
         11   -1    0    0    0    0 -0.00000000000E+00 -0.00000000000E+00 -0.45593999997E+02  0.45594000000E+02  0.51100000000E-03 0.  1.
         23    2    1    2    0    0  0.00000000000E+00 -0.17763568394E-14  0.00000000000E+00  0.91188000000E+02  0.91188000000E+02 0.  0.
    9900012    2    3    3    0    0 -0.29380599493E+02 -0.12199641244E+02  0.29522405246E+02  0.47787270921E+02  0.19999999437E+02 0.  0.
        -12    1    3    3    0    0  0.29380599493E+02  0.12199641244E+02 -0.29522405246E+02  0.43400729079E+02  0.00000000000E+00 0.  1.
         11    1    4    4    0    0 -0.19895203811E+02  0.23921374407E+01  0.16577865137E+02  0.26007058061E+02  0.51100000000E-03 0. -1.
        -11    1    4    4    0    0 -0.35391658683E+01 -0.40849599019E+01  0.46818935337E+01  0.71507146332E+01  0.51100000000E-03 0.  1.
        -12    1    4    4    0    0 -0.59462298139E+01 -0.10506818783E+02  0.82626465757E+01  0.14629498227E+02  0.00000000000E+00 0.  1.
</event>
<event>
 8    1  0.2994958E-010  0.9118800E+02  0.7816164E-02  0.1184000E+00
        -11   -1    0    0    0    0  0.00000000000E+00  0.00000000000E+00  0.45593999997E+02  0.45594000000E+02  0.51100000000E-03 0. -1.
         11   -1    0    0    0    0 -0.00000000000E+00 -0.00000000000E+00 -0.45593999997E+02  0.45594000000E+02  0.51100000000E-03 0.  1.
         23    2    1    2    0    0 -0.17763568394E-14  0.35527136788E-14 -0.71054273576E-14  0.91188000000E+02  0.91188000000E+02 0.  0.
    9900012    2    3    3    0    0  0.13474632772E+02  0.17680232979E+02 -0.37275551707E+02  0.47787272799E+02  0.20000008001E+02 0.  0.
         12    1    3    3    0    0 -0.13474632772E+02 -0.17680232979E+02  0.37275551707E+02  0.43400727201E+02  0.00000000000E+00 0. -1.
         11    1    4    4    0    0 -0.38932881543E+00  0.64407747030E+00 -0.79332927563E+01  0.79689112765E+01  0.51100000000E-03 0. -1.
        -11    1    4    4    0    0  0.13935572069E+02  0.17469548032E+02 -0.30937185204E+02  0.38164049915E+02  0.51100000000E-03 0.  1.
         12    1    4    4    0    0 -0.71610482002E-01 -0.43339252331E+00  0.15949262535E+01  0.16543116074E+01  0.00000000000E+00 0. -1.
</event>
<event>
 8    1  0.2994958E-010  0.9118800E+02  0.7816164E-02  0.1184000E+00
        -11   -1    0    0    0    0  0.00000000000E+00  0.00000000000E+00  0.45593999997E+02  0.45594000000E+02  0.51100000000E-03 0. -1.
         11   -1    0    0    0    0 -0.00000000000E+00 -0.00000000000E+00 -0.45593999997E+02  0.45594000000E+02  0.51100000000E-03 0.  1.
         23    2    1    2    0    0  0.00000000000E+00  0.00000000000E+00  0.00000000000E+00  0.91188000000E+02  0.91188000000E+02 0.  0.
    9900012    2    3    3    0    0  0.28437982186E+02  0.32045917033E+02 -0.69255558047E+01  0.47787274746E+02  0.20000016879E+02 0.  0.
        -12    1    3    3    0    0 -0.28437982186E+02 -0.32045917033E+02  0.69255558047E+01  0.43400725254E+02  0.00000000000E+00 0.  1.
         11    1    4    4    0    0  0.13682768908E+02  0.16427560920E+02  0.13726360457E+00  0.21379938361E+02  0.51100000000E-03 0. -1.
        -11    1    4    4    0    0 -0.26258102205E+01  0.24462464381E+01 -0.44041313496E+00  0.36156555339E+01  0.51100000000E-03 0.  1.
         12    1    4    4    0    0  0.17381023499E+02  0.13172109675E+02 -0.66224062743E+01  0.22791680851E+02  0.00000000000E+00 0. -1.
</event>
<event>
 8    1  0.2994958E-010  0.9118800E+02  0.7816164E-02  0.1184000E+00
        -11   -1    0    0    0    0  0.00000000000E+00  0.00000000000E+00  0.45593999997E+02  0.45594000000E+02  0.51100000000E-03 0. -1.
         11   -1    0    0    0    0 -0.00000000000E+00 -0.00000000000E+00 -0.45593999997E+02  0.45594000000E+02  0.51100000000E-03 0.  1.
         23    2    1    2    0    0  0.35527136788E-14  0.17763568394E-14 -0.35527136788E-14  0.91188000000E+02  0.91188000000E+02 0.  0.
    9900012    2    3    3    0    0 -0.26595998794E+02 -0.13317099382E+02  0.31605868800E+02  0.47787271545E+02  0.20000002282E+02 0.  0.
        -12    1    3    3    0    0  0.26595998794E+02  0.13317099382E+02 -0.31605868800E+02  0.43400728455E+02  0.00000000000E+00 0.  1.
         11    1    4    4    0    0 -0.24155881072E+02 -0.14268778446E+02  0.26727358868E+02  0.38748630183E+02  0.51100000000E-03 0. -1.
        -11    1    4    4    0    0 -0.47399462587E+01 -0.66399014167E+00  0.33183066884E+01  0.58240134773E+01  0.51100000000E-03 0.  1.
        -12    1    4    4    0    0  0.22998285361E+01  0.16156692061E+01  0.15602032436E+01  0.32146278852E+01  0.00000000000E+00 0.  1.
</event>
<event>
 8    1  0.2994958E-010  0.9118800E+02  0.7816164E-02  0.1184000E+00
        -11   -1    0    0    0    0  0.00000000000E+00  0.00000000000E+00  0.45593999997E+02  0.45594000000E+02  0.51100000000E-03 0. -1.
         11   -1    0    0    0    0 -0.00000000000E+00 -0.00000000000E+00 -0.45593999997E+02  0.45594000000E+02  0.51100000000E-03 0.  1.
         23    2    1    2    0    0  0.00000000000E+00  0.00000000000E+00  0.00000000000E+00  0.91188000000E+02  0.91188000000E+02 0.  0.
    9900012    2    3    3    0    0 -0.40200156388E+01 -0.24982391574E+02 -0.35261064015E+02  0.47787273624E+02  0.20000011761E+02 0.  0.
         12    1    3    3    0    0  0.40200156388E+01  0.24982391574E+02  0.35261064015E+02  0.43400726376E+02  0.00000000000E+00 0. -1.
         11    1    4    4    0    0  0.89824714406E+00 -0.16860130182E+01 -0.10258536877E+02  0.10434896595E+02  0.51100000000E-03 0. -1.
        -11    1    4    4    0    0 -0.19571120747E+01 -0.24413110800E+01 -0.12437857344E+02  0.12825388222E+02  0.51100000000E-03 0.  1.
        -12    1    4    4    0    0 -0.29611507081E+01 -0.20855067476E+02 -0.12564669794E+02  0.24526988808E+02  0.00000000000E+00 0.  1.
</event>
<event>
 8    1  0.3447688E-010  0.9118800E+02  0.7816164E-02  0.1184000E+00
        -11   -1    0    0    0    0  0.00000000000E+00  0.00000000000E+00  0.45593999997E+02  0.45594000000E+02  0.51100000000E-03 0. -1.
         11   -1    0    0    0    0 -0.00000000000E+00 -0.00000000000E+00 -0.45593999997E+02  0.45594000000E+02  0.51100000000E-03 0.  1.
         23    2    1    2    0    0  0.00000000000E+00  0.00000000000E+00  0.00000000000E+00  0.91188000000E+02  0.91188000000E+02 0.  0.
    9900012    2    3    3    0    0 -0.35068418375E+02  0.12900698289E+02  0.22077150971E+02  0.47787279054E+02  0.20000036517E+02 0.  0.
        -12    1    3    3    0    0  0.35068418375E+02 -0.12900698289E+02 -0.22077150971E+02  0.43400720946E+02  0.00000000000E+00 0.  1.
         11    1    4    4    0    0 -0.30605147010E+01  0.24702200383E+01 -0.53619058380E+00  0.39694127874E+01  0.51100000000E-03 0. -1.
        -11    1    4    4    0    0  0.16779912977E+01 -0.62686944679E+00  0.48412809790E-01  0.17919163373E+01  0.51100000000E-03 0.  1.
         12    1    4    4    0    0 -0.33685894972E+02  0.11057347698E+02  0.22564928745E+02  0.42025949929E+02  0.00000000000E+00 0. -1.
</event>
<event>
 8    1  0.2994958E-010  0.9118800E+02  0.7816164E-02  0.1184000E+00
        -11   -1    0    0    0    0  0.00000000000E+00  0.00000000000E+00  0.45593999997E+02  0.45594000000E+02  0.51100000000E-03 0. -1.
         11   -1    0    0    0    0 -0.00000000000E+00 -0.00000000000E+00 -0.45593999997E+02  0.45594000000E+02  0.51100000000E-03 0.  1.
         23    2    1    2    0    0  0.00000000000E+00  0.00000000000E+00  0.00000000000E+00  0.91188000000E+02  0.91188000000E+02 0.  0.
    9900012    2    3    3    0    0  0.81402052030E+01  0.14842638993E+02 -0.39963182045E+02  0.47787276594E+02  0.20000025303E+02 0.  0.
         12    1    3    3    0    0 -0.81402052030E+01 -0.14842638993E+02  0.39963182045E+02  0.43400723406E+02  0.00000000000E+00 0. -1.
         11    1    4    4    0    0  0.12360285489E+02  0.11068689551E+02 -0.21383346094E+02  0.27065476832E+02  0.51100000000E-03 0. -1.
        -11    1    4    4    0    0  0.64392736972E+00  0.42090022180E+01 -0.95442752588E+01  0.10451006296E+02  0.51100000000E-03 0.  1.
         12    1    4    4    0    0 -0.48640076554E+01 -0.43505277559E+00 -0.90355606921E+01  0.10270793466E+02  0.00000000000E+00 0. -1.
</event>
<event>
 8    1  0.2994958E-010  0.9118800E+02  0.7816164E-02  0.1184000E+00
        -11   -1    0    0    0    0  0.00000000000E+00  0.00000000000E+00  0.45593999997E+02  0.45594000000E+02  0.51100000000E-03 0. -1.
         11   -1    0    0    0    0 -0.00000000000E+00 -0.00000000000E+00 -0.45593999997E+02  0.45594000000E+02  0.51100000000E-03 0.  1.
         23    2    1    2    0    0 -0.35527136788E-14 -0.88817841970E-15 -0.71054273576E-14  0.91188000000E+02  0.91188000000E+02 0.  0.
    9900012    2    3    3    0    0 -0.18333458676E+02 -0.33932039092E+01 -0.39191755919E+02  0.47787271068E+02  0.20000000108E+02 0.  0.
         12    1    3    3    0    0  0.18333458676E+02  0.33932039092E+01  0.39191755919E+02  0.43400728932E+02  0.00000000000E+00 0. -1.
         11    1    4    4    0    0 -0.45325295185E+01 -0.67495488623E+01 -0.18201295439E+02  0.19934577738E+02  0.51100000000E-03 0. -1.
        -11    1    4    4    0    0 -0.91337214052E+01 -0.60051473508E+00 -0.19520158401E+02  0.21559732580E+02  0.51100000000E-03 0.  1.
        -12    1    4    4    0    0 -0.46672077527E+01  0.39568596882E+01 -0.14703020791E+01  0.62929607502E+01  0.00000000000E+00 0.  1.
</event>
<event>
 8    1  0.3261706E-010  0.9118800E+02  0.7816164E-02  0.1184000E+00
        -11   -1    0    0    0    0  0.00000000000E+00  0.00000000000E+00  0.45593999997E+02  0.45594000000E+02  0.51100000000E-03 0. -1.
         11   -1    0    0    0    0 -0.00000000000E+00 -0.00000000000E+00 -0.45593999997E+02  0.45594000000E+02  0.51100000000E-03 0.  1.
         23    2    1    2    0    0  0.00000000000E+00  0.00000000000E+00  0.00000000000E+00  0.91188000000E+02  0.91188000000E+02 0.  0.
    9900012    2    3    3    0    0 -0.23179128881E+02 -0.10281295181E+02  0.35222807369E+02  0.47787271835E+02  0.20000003606E+02 0.  0.
        -12    1    3    3    0    0  0.23179128881E+02  0.10281295181E+02 -0.35222807369E+02  0.43400728165E+02  0.00000000000E+00 0.  1.
         11    1    4    4    0    0 -0.13844558525E+02  0.67307407776E+00  0.17801100993E+02  0.22561117576E+02  0.51100000000E-03 0. -1.
        -11    1    4    4    0    0 -0.87497387272E+00  0.10251977758E+01 -0.10010553715E+01  0.16789049632E+01  0.51100000000E-03 0.  1.
         12    1    4    4    0    0 -0.84595964836E+01 -0.11979567035E+02  0.18422761747E+02  0.23547249296E+02  0.00000000000E+00 0. -1.
</event>
<event>
 8    1  0.2994958E-010  0.9118800E+02  0.7816164E-02  0.1184000E+00
        -11   -1    0    0    0    0  0.00000000000E+00  0.00000000000E+00  0.45593999997E+02  0.45594000000E+02  0.51100000000E-03 0. -1.
         11   -1    0    0    0    0 -0.00000000000E+00 -0.00000000000E+00 -0.45593999997E+02  0.45594000000E+02  0.51100000000E-03 0.  1.
         23    2    1    2    0    0  0.00000000000E+00 -0.88817841970E-15  0.71054273576E-14  0.91188000000E+02  0.91188000000E+02 0.  0.
    9900012    2    3    3    0    0  0.14392429140E+02  0.72169916443E+01 -0.40303794750E+02  0.47787275856E+02  0.20000021940E+02 0.  0.
         12    1    3    3    0    0 -0.14392429140E+02 -0.72169916443E+01  0.40303794750E+02  0.43400724144E+02  0.00000000000E+00 0. -1.
         11    1    4    4    0    0 -0.18989118420E+01  0.90350996766E-01 -0.47732608269E+00  0.19600688602E+01  0.51100000000E-03 0. -1.
        -11    1    4    4    0    0  0.29307118551E+01 -0.35065621499E+01 -0.37421546631E+01  0.59066718101E+01  0.51100000000E-03 0.  1.
         12    1    4    4    0    0  0.13360629127E+02  0.10633202797E+02 -0.36084314004E+02  0.39920535186E+02  0.00000000000E+00 0. -1.
</event>
<event>
 8    1  0.2994958E-010  0.9118800E+02  0.7816164E-02  0.1184000E+00
        -11   -1    0    0    0    0  0.00000000000E+00  0.00000000000E+00  0.45593999997E+02  0.45594000000E+02  0.51100000000E-03 0.  1.
         11   -1    0    0    0    0 -0.00000000000E+00 -0.00000000000E+00 -0.45593999997E+02  0.45594000000E+02  0.51100000000E-03 0. -1.
         23    2    1    2    0    0 -0.71054273576E-14 -0.22204460493E-15  0.00000000000E+00  0.91188000000E+02  0.91188000000E+02 0.  0.
    9900012    2    3    3    0    0  0.43195229673E+02  0.15680331101E+01  0.39161746620E+01  0.47787273989E+02  0.20000013423E+02 0.  0.
        -12    1    3    3    0    0 -0.43195229673E+02 -0.15680331101E+01 -0.39161746620E+01  0.43400726011E+02  0.00000000000E+00 0.  1.
         11    1    4    4    0    0  0.29158788211E+02  0.21937969346E+01  0.78241380782E+01  0.30269866400E+02  0.51100000000E-03 0. -1.
        -11    1    4    4    0    0  0.10952543983E+02  0.29255940954E+01  0.10138251216E+00  0.11337001331E+02  0.51100000000E-03 0.  1.
        -12    1    4    4    0    0  0.30838974789E+01 -0.35513579199E+01 -0.40093459283E+01  0.61804062576E+01  0.00000000000E+00 0.  1.
</event>
<event>
 8    1  0.2994958E-010  0.9118800E+02  0.7816164E-02  0.1184000E+00
        -11   -1    0    0    0    0  0.00000000000E+00  0.00000000000E+00  0.45593999997E+02  0.45594000000E+02  0.51100000000E-03 0. -1.
         11   -1    0    0    0    0 -0.00000000000E+00 -0.00000000000E+00 -0.45593999997E+02  0.45594000000E+02  0.51100000000E-03 0.  1.
         23    2    1    2    0    0 -0.17763568394E-14  0.00000000000E+00  0.71054273576E-14  0.91188000000E+02  0.91188000000E+02 0.  0.
    9900012    2    3    3    0    0  0.11948693142E+02 -0.14636188170E+02 -0.39072157072E+02  0.47787277308E+02  0.20000028556E+02 0.  0.
         12    1    3    3    0    0 -0.11948693142E+02  0.14636188170E+02  0.39072157072E+02  0.43400722692E+02  0.00000000000E+00 0. -1.
         11    1    4    4    0    0 -0.30127539704E+00 -0.75836322003E+01 -0.30284857525E+01  0.81715341539E+01  0.51100000000E-03 0. -1.
        -11    1    4    4    0    0 -0.61743175024E+00  0.73936853560E+00 -0.66128660683E+00  0.11684126134E+01  0.51100000000E-03 0.  1.
        -12    1    4    4    0    0  0.12867400289E+02 -0.77919245050E+01 -0.35382384713E+02  0.38447330540E+02  0.00000000000E+00 0.  1.
</event>
<event>
 8    1  0.2994958E-010  0.9118800E+02  0.7816164E-02  0.1184000E+00
        -11   -1    0    0    0    0  0.00000000000E+00  0.00000000000E+00  0.45593999997E+02  0.45594000000E+02  0.51100000000E-03 0. -1.
         11   -1    0    0    0    0 -0.00000000000E+00 -0.00000000000E+00 -0.45593999997E+02  0.45594000000E+02  0.51100000000E-03 0.  1.
         23    2    1    2    0    0  0.00000000000E+00  0.00000000000E+00  0.35527136788E-14  0.91188000000E+02  0.91188000000E+02 0.  0.
    9900012    2    3    3    0    0  0.12425588373E+02  0.33575239472E+02  0.24534293575E+02  0.47787268287E+02  0.19999987427E+02 0.  0.
        -12    1    3    3    0    0 -0.12425588373E+02 -0.33575239472E+02 -0.24534293575E+02  0.43400731713E+02  0.00000000000E+00 0.  1.
         11    1    4    4    0    0  0.52474639607E+01  0.57830957959E+01  0.16892054179E+01  0.79895863602E+01  0.51100000000E-03 0.  1.
        -11    1    4    4    0    0  0.87654042571E+01  0.29186798365E+02  0.21392800341E+02  0.37233767164E+02  0.51100000000E-03 0. -1.
         12    1    4    4    0    0 -0.15872798450E+01 -0.13946546885E+01  0.14522878166E+01  0.25639147624E+01  0.00000000000E+00 0. -1.
</event>
<event>
 8    1  0.2994958E-010  0.9118800E+02  0.7816164E-02  0.1184000E+00
        -11   -1    0    0    0    0  0.00000000000E+00  0.00000000000E+00  0.45593999997E+02  0.45594000000E+02  0.51100000000E-03 0. -1.
         11   -1    0    0    0    0 -0.00000000000E+00 -0.00000000000E+00 -0.45593999997E+02  0.45594000000E+02  0.51100000000E-03 0.  1.
         23    2    1    2    0    0  0.00000000000E+00  0.17763568394E-14  0.35527136788E-14  0.91188000000E+02  0.91188000000E+02 0.  0.
    9900012    2    3    3    0    0  0.33774999133E+02  0.13169948178E+02 -0.23862635775E+02  0.47787268583E+02  0.19999988776E+02 0.  0.
         12    1    3    3    0    0 -0.33774999133E+02 -0.13169948178E+02  0.23862635775E+02  0.43400731417E+02  0.00000000000E+00 0. -1.
         11    1    4    4    0    0  0.20630436957E+02  0.10505085198E+02 -0.13630288275E+02  0.26865526289E+02  0.51100000000E-03 0. -1.
        -11    1    4    4    0    0  0.68399542601E+01  0.74005628612E+01 -0.75535528742E+01  0.12594025021E+02  0.51100000000E-03 0.  1.
         12    1    4    4    0    0  0.63046079157E+01 -0.47356998808E+01 -0.26787946256E+01  0.83277172729E+01  0.00000000000E+00 0. -1.
</event>
<event>
 8    1  0.2994958E-010  0.9118800E+02  0.7816164E-02  0.1184000E+00
        -11   -1    0    0    0    0  0.00000000000E+00  0.00000000000E+00  0.45593999997E+02  0.45594000000E+02  0.51100000000E-03 0. -1.
         11   -1    0    0    0    0 -0.00000000000E+00 -0.00000000000E+00 -0.45593999997E+02  0.45594000000E+02  0.51100000000E-03 0.  1.
         23    2    1    2    0    0  0.35527136788E-14  0.00000000000E+00  0.00000000000E+00  0.91188000000E+02  0.91188000000E+02 0.  0.
    9900012    2    3    3    0    0  0.23354225575E+02 -0.16968690230E+02 -0.32407767360E+02  0.47787312383E+02  0.20000188480E+02 0.  0.
         12    1    3    3    0    0 -0.23354225575E+02  0.16968690230E+02  0.32407767360E+02  0.43400687617E+02  0.00000000000E+00 0. -1.
         11    1    4    4    0    0  0.68376805961E+01 -0.38304161330E+01 -0.44829047592E+00  0.78502820522E+01  0.51100000000E-03 0. -1.
        -11    1    4    4    0    0  0.35206243100E+01 -0.10647863594E+01 -0.35565105144E+00  0.36952744763E+01  0.51100000000E-03 0.  1.
        -12    1    4    4    0    0  0.12995920668E+02 -0.12073487738E+02 -0.31603825833E+02  0.36241755855E+02  0.00000000000E+00 0.  1.
</event>
<event>
 8    1  0.2994958E-010  0.9118800E+02  0.7816164E-02  0.1184000E+00
        -11   -1    0    0    0    0  0.00000000000E+00  0.00000000000E+00  0.45593999997E+02  0.45594000000E+02  0.51100000000E-03 0. -1.
         11   -1    0    0    0    0 -0.00000000000E+00 -0.00000000000E+00 -0.45593999997E+02  0.45594000000E+02  0.51100000000E-03 0.  1.
         23    2    1    2    0    0  0.00000000000E+00  0.66613381478E-15 -0.71054273576E-14  0.91188000000E+02  0.91188000000E+02 0.  0.
    9900012    2    3    3    0    0 -0.17676376445E+02  0.19716403730E+01 -0.39588906292E+02  0.47787272456E+02  0.20000006434E+02 0.  0.
         12    1    3    3    0    0  0.17676376445E+02 -0.19716403730E+01  0.39588906292E+02  0.43400727544E+02  0.00000000000E+00 0. -1.
         11    1    4    4    0    0 -0.24705130194E+01  0.21392836111E+01 -0.20509541886E+02  0.20768275749E+02  0.51100000000E-03 0. -1.
        -11    1    4    4    0    0 -0.34306280394E+01  0.48336078018E+01 -0.35910046550E+01  0.69302444271E+01  0.51100000000E-03 0.  1.
         12    1    4    4    0    0 -0.11775235386E+02 -0.50012510400E+01 -0.15488359751E+02  0.20088752279E+02  0.00000000000E+00 0. -1.
</event>
<event>
 8    1  0.2994958E-010  0.9118800E+02  0.7816164E-02  0.1184000E+00
        -11   -1    0    0    0    0  0.00000000000E+00  0.00000000000E+00  0.45593999997E+02  0.45594000000E+02  0.51100000000E-03 0. -1.
         11   -1    0    0    0    0 -0.00000000000E+00 -0.00000000000E+00 -0.45593999997E+02  0.45594000000E+02  0.51100000000E-03 0.  1.
         23    2    1    2    0    0  0.00000000000E+00  0.00000000000E+00 -0.71054273576E-14  0.91188000000E+02  0.91188000000E+02 0.  0.
    9900012    2    3    3    0    0  0.53500451733E+01 -0.14185653785E+02 -0.40666537560E+02  0.47787273811E+02  0.20000012612E+02 0.  0.
         12    1    3    3    0    0 -0.53500451733E+01  0.14185653785E+02  0.40666537560E+02  0.43400726189E+02  0.00000000000E+00 0. -1.
         11    1    4    4    0    0  0.86315808545E+01 -0.34774875276E+01 -0.91839297165E+01  0.13074466446E+02  0.51100000000E-03 0.  1.
        -11    1    4    4    0    0  0.10054407397E+01  0.11377201668E+01 -0.71834956162E+01  0.73422018352E+01  0.51100000000E-03 0. -1.
        -12    1    4    4    0    0 -0.42869764209E+01 -0.11845886424E+02 -0.24299112227E+02  0.27370605529E+02  0.00000000000E+00 0.  1.
</event>
<event>
 8    1  0.2994958E-010  0.9118800E+02  0.7816164E-02  0.1184000E+00
        -11   -1    0    0    0    0  0.00000000000E+00  0.00000000000E+00  0.45593999997E+02  0.45594000000E+02  0.51100000000E-03 0. -1.
         11   -1    0    0    0    0 -0.00000000000E+00 -0.00000000000E+00 -0.45593999997E+02  0.45594000000E+02  0.51100000000E-03 0.  1.
         23    2    1    2    0    0  0.00000000000E+00  0.00000000000E+00  0.00000000000E+00  0.91188000000E+02  0.91188000000E+02 0.  0.
    9900012    2    3    3    0    0  0.41145967593E+02  0.10085558589E+02 -0.94294243432E+01  0.47787272072E+02  0.20000004685E+02 0.  0.
         12    1    3    3    0    0 -0.41145967593E+02 -0.10085558589E+02  0.94294243432E+01  0.43400727928E+02  0.00000000000E+00 0. -1.
         11    1    4    4    0    0  0.65840558668E+01  0.80147733343E+01  0.12565321314E+00  0.10373146690E+02  0.51100000000E-03 0. -1.
        -11    1    4    4    0    0  0.25377840214E+01 -0.24419691889E+01 -0.24836170684E+01  0.43095145043E+01  0.51100000000E-03 0.  1.
        -12    1    4    4    0    0  0.32024127705E+02  0.45127544441E+01 -0.70714604879E+01  0.33104610878E+02  0.00000000000E+00 0.  1.
</event>
<event>
 8    1  0.2994958E-010  0.9118800E+02  0.7816164E-02  0.1184000E+00
        -11   -1    0    0    0    0  0.00000000000E+00  0.00000000000E+00  0.45593999997E+02  0.45594000000E+02  0.51100000000E-03 0. -1.
         11   -1    0    0    0    0 -0.00000000000E+00 -0.00000000000E+00 -0.45593999997E+02  0.45594000000E+02  0.51100000000E-03 0.  1.
         23    2    1    2    0    0  0.00000000000E+00  0.88817841970E-15  0.00000000000E+00  0.91188000000E+02  0.91188000000E+02 0.  0.
    9900012    2    3    3    0    0  0.31152415045E+02  0.25168151897E+01 -0.30113384576E+02  0.47787271291E+02  0.20000001123E+02 0.  0.
         12    1    3    3    0    0 -0.31152415045E+02 -0.25168151897E+01  0.30113384576E+02  0.43400728709E+02  0.00000000000E+00 0. -1.
         11    1    4    4    0    0  0.10742682211E+02 -0.39366902251E+01 -0.11610898593E+02  0.16300788859E+02  0.51100000000E-03 0. -1.
        -11    1    4    4    0    0  0.13467824386E+02 -0.15337173003E+01 -0.15276894989E+02  0.20423469422E+02  0.51100000000E-03 0.  1.
         12    1    4    4    0    0  0.69419084484E+01  0.79872227151E+01 -0.32255909939E+01  0.11063013010E+02  0.00000000000E+00 0. -1.
</event>
<event>
 8    1  0.2994958E-010  0.9118800E+02  0.7816164E-02  0.1184000E+00
        -11   -1    0    0    0    0  0.00000000000E+00  0.00000000000E+00  0.45593999997E+02  0.45594000000E+02  0.51100000000E-03 0. -1.
         11   -1    0    0    0    0 -0.00000000000E+00 -0.00000000000E+00 -0.45593999997E+02  0.45594000000E+02  0.51100000000E-03 0.  1.
         23    2    1    2    0    0 -0.35527136788E-14 -0.26645352591E-14 -0.71054273576E-14  0.91188000000E+02  0.91188000000E+02 0.  0.
    9900012    2    3    3    0    0 -0.18529713322E+02 -0.74911410140E+01 -0.38524738841E+02  0.47787274519E+02  0.20000015844E+02 0.  0.
         12    1    3    3    0    0  0.18529713322E+02  0.74911410140E+01  0.38524738841E+02  0.43400725481E+02  0.00000000000E+00 0. -1.
         11    1    4    4    0    0 -0.45576940054E+01 -0.98692902053E+01 -0.12328164800E+02  0.16436517618E+02  0.51100000000E-03 0.  1.
        -11    1    4    4    0    0 -0.74768099652E+01  0.20506020893E+01 -0.22656358973E+02  0.23946153310E+02  0.51100000000E-03 0. -1.
         12    1    4    4    0    0 -0.64952093512E+01  0.32754710198E+00 -0.35402150681E+01  0.74046035915E+01  0.00000000000E+00 0. -1.
</event>
<event>
 8    1  0.2994958E-010  0.9118800E+02  0.7816164E-02  0.1184000E+00
        -11   -1    0    0    0    0  0.00000000000E+00  0.00000000000E+00  0.45593999997E+02  0.45594000000E+02  0.51100000000E-03 0. -1.
         11   -1    0    0    0    0 -0.00000000000E+00 -0.00000000000E+00 -0.45593999997E+02  0.45594000000E+02  0.51100000000E-03 0.  1.
         23    2    1    2    0    0  0.71054273576E-14  0.88817841970E-15  0.17763568394E-14  0.91188000000E+02  0.91188000000E+02 0.  0.
    9900012    2    3    3    0    0 -0.39900736012E+02 -0.77057887411E+01 -0.15237293769E+02  0.47787273787E+02  0.20000012503E+02 0.  0.
         12    1    3    3    0    0  0.39900736012E+02  0.77057887411E+01  0.15237293769E+02  0.43400726213E+02  0.00000000000E+00 0. -1.
         11    1    4    4    0    0 -0.15772805657E+01 -0.18800131666E+01 -0.24545961675E+01  0.34709229458E+01  0.51100000000E-03 0. -1.
        -11    1    4    4    0    0 -0.35079494100E+02 -0.96793980309E+00 -0.64134878741E+01  0.35674089207E+02  0.51100000000E-03 0.  1.
        -12    1    4    4    0    0 -0.32439613464E+01 -0.48578357714E+01 -0.63692097273E+01  0.86422616339E+01  0.00000000000E+00 0.  1.
</event>
<event>
 8    1  0.2994958E-010  0.9118800E+02  0.7816164E-02  0.1184000E+00
        -11   -1    0    0    0    0  0.00000000000E+00  0.00000000000E+00  0.45593999997E+02  0.45594000000E+02  0.51100000000E-03 0. -1.
         11   -1    0    0    0    0 -0.00000000000E+00 -0.00000000000E+00 -0.45593999997E+02  0.45594000000E+02  0.51100000000E-03 0.  1.
         23    2    1    2    0    0  0.00000000000E+00  0.88817841970E-15  0.00000000000E+00  0.91188000000E+02  0.91188000000E+02 0.  0.
    9900012    2    3    3    0    0 -0.51267378294E+01 -0.69266165617E+01  0.42536588719E+02  0.47787276070E+02  0.20000022913E+02 0.  0.
        -12    1    3    3    0    0  0.51267378294E+01  0.69266165617E+01 -0.42536588719E+02  0.43400723930E+02  0.00000000000E+00 0.  1.
         11    1    4    4    0    0  0.26789503589E+00 -0.75416117046E+01  0.96692595626E+01  0.12265490435E+02  0.51100000000E-03 0.  1.
        -11    1    4    4    0    0 -0.26480384099E-01 -0.52196922430E+01  0.94096160142E+01  0.10760425741E+02  0.51100000000E-03 0. -1.
        -12    1    4    4    0    0 -0.53681524812E+01  0.58346873860E+01  0.23457713143E+02  0.24761359895E+02  0.00000000000E+00 0.  1.
</event>
<event>
 8    1  0.2994958E-010  0.9118800E+02  0.7816164E-02  0.1184000E+00
        -11   -1    0    0    0    0  0.00000000000E+00  0.00000000000E+00  0.45593999997E+02  0.45594000000E+02  0.51100000000E-03 0. -1.
         11   -1    0    0    0    0 -0.00000000000E+00 -0.00000000000E+00 -0.45593999997E+02  0.45594000000E+02  0.51100000000E-03 0.  1.
         23    2    1    2    0    0  0.35527136788E-14  0.00000000000E+00  0.00000000000E+00  0.91188000000E+02  0.91188000000E+02 0.  0.
    9900012    2    3    3    0    0 -0.22598463822E+02 -0.26003417045E+02 -0.26396131846E+02  0.47787262200E+02  0.19999959677E+02 0.  0.
         12    1    3    3    0    0  0.22598463822E+02  0.26003417045E+02  0.26396131846E+02  0.43400737800E+02  0.00000000000E+00 0. -1.
         11    1    4    4    0    0 -0.33098485138E+01 -0.28073471289E+01 -0.79982452332E+01  0.90999023159E+01  0.51100000000E-03 0. -1.
        -11    1    4    4    0    0 -0.21109905244E+02 -0.21590896496E+02 -0.19578648177E+02  0.35987753134E+02  0.51100000000E-03 0.  1.
         12    1    4    4    0    0  0.18212899362E+01 -0.16051734196E+01  0.11807615637E+01  0.26996067508E+01  0.00000000000E+00 0. -1.
</event>
<event>
 8    1  0.2994958E-010  0.9118800E+02  0.7816164E-02  0.1184000E+00
        -11   -1    0    0    0    0  0.00000000000E+00  0.00000000000E+00  0.45593999997E+02  0.45594000000E+02  0.51100000000E-03 0. -1.
         11   -1    0    0    0    0 -0.00000000000E+00 -0.00000000000E+00 -0.45593999997E+02  0.45594000000E+02  0.51100000000E-03 0.  1.
         23    2    1    2    0    0  0.71054273576E-14  0.00000000000E+00  0.00000000000E+00  0.91188000000E+02  0.91188000000E+02 0.  0.
    9900012    2    3    3    0    0  0.35279024364E+02 -0.66115382842E+01 -0.24398811215E+02  0.47787262826E+02  0.19999962527E+02 0.  0.
         12    1    3    3    0    0 -0.35279024364E+02  0.66115382842E+01  0.24398811215E+02  0.43400737174E+02  0.00000000000E+00 0. -1.
         11    1    4    4    0    0  0.12181341380E+02  0.18644478922E+01 -0.15945332221E+01  0.12425931764E+02  0.51100000000E-03 0. -1.
        -11    1    4    4    0    0  0.20035844248E+02 -0.29398828542E+01 -0.19929593508E+02  0.28412438536E+02  0.51100000000E-03 0.  1.
         12    1    4    4    0    0  0.30618387369E+01 -0.55361033222E+01 -0.28746844855E+01  0.69488925259E+01  0.00000000000E+00 0. -1.
</event>
<event>
 8    1  0.2994958E-010  0.9118800E+02  0.7816164E-02  0.1184000E+00
        -11   -1    0    0    0    0  0.00000000000E+00  0.00000000000E+00  0.45593999997E+02  0.45594000000E+02  0.51100000000E-03 0. -1.
         11   -1    0    0    0    0 -0.00000000000E+00 -0.00000000000E+00 -0.45593999997E+02  0.45594000000E+02  0.51100000000E-03 0.  1.
         23    2    1    2    0    0  0.00000000000E+00  0.88817841970E-15 -0.71054273576E-14  0.91188000000E+02  0.91188000000E+02 0.  0.
    9900012    2    3    3    0    0  0.72224138813E+01 -0.10650623816E+01  0.42782304278E+02  0.47787272132E+02  0.20000004960E+02 0.  0.
        -12    1    3    3    0    0 -0.72224138813E+01  0.10650623816E+01 -0.42782304278E+02  0.43400727868E+02  0.00000000000E+00 0.  1.
         11    1    4    4    0    0 -0.20674629151E+01  0.10778394870E+01  0.48105681557E+01  0.53458121092E+01  0.51100000000E-03 0. -1.
        -11    1    4    4    0    0  0.10052248461E+02  0.20343407371E+01  0.36552866449E+02  0.37964434505E+02  0.51100000000E-03 0.  1.
        -12    1    4    4    0    0 -0.76237166458E+00 -0.41772426058E+01  0.14188696726E+01  0.44770255182E+01  0.00000000000E+00 0.  1.
</event>
<event>
 8    1  0.2994958E-010  0.9118800E+02  0.7816164E-02  0.1184000E+00
        -11   -1    0    0    0    0  0.00000000000E+00  0.00000000000E+00  0.45593999997E+02  0.45594000000E+02  0.51100000000E-03 0. -1.
         11   -1    0    0    0    0 -0.00000000000E+00 -0.00000000000E+00 -0.45593999997E+02  0.45594000000E+02  0.51100000000E-03 0.  1.
         23    2    1    2    0    0  0.00000000000E+00  0.44408920985E-15 -0.71054273576E-14  0.91188000000E+02  0.91188000000E+02 0.  0.
    9900012    2    3    3    0    0 -0.40102581292E+01 -0.11235987043E+01  0.43200447252E+02  0.47787270892E+02  0.19999999305E+02 0.  0.
        -12    1    3    3    0    0  0.40102581292E+01  0.11235987043E+01 -0.43200447252E+02  0.43400729108E+02  0.00000000000E+00 0.  1.
         11    1    4    4    0    0  0.41498613304E+01  0.31116423402E+01  0.29684796163E+02  0.30134544805E+02  0.51100000000E-03 0. -1.
        -11    1    4    4    0    0  0.10035605458E+01 -0.10652134400E+00  0.30692038364E+00  0.10548369300E+01  0.51100000000E-03 0.  1.
        -12    1    4    4    0    0 -0.91636800054E+01 -0.41287197005E+01  0.13208730706E+02  0.16597889157E+02  0.00000000000E+00 0.  1.
</event>
<event>
 8    1  0.2994958E-010  0.9118800E+02  0.7816164E-02  0.1184000E+00
        -11   -1    0    0    0    0  0.00000000000E+00  0.00000000000E+00  0.45593999997E+02  0.45594000000E+02  0.51100000000E-03 0.  1.
         11   -1    0    0    0    0 -0.00000000000E+00 -0.00000000000E+00 -0.45593999997E+02  0.45594000000E+02  0.51100000000E-03 0. -1.
         23    2    1    2    0    0 -0.35527136788E-14  0.88817841970E-15  0.71054273576E-14  0.91188000000E+02  0.91188000000E+02 0.  0.
    9900012    2    3    3    0    0  0.18604526573E+02  0.72334494149E+01 -0.38537931418E+02  0.47787270081E+02  0.19999995609E+02 0.  0.
         12    1    3    3    0    0 -0.18604526573E+02 -0.72334494149E+01  0.38537931418E+02  0.43400729919E+02  0.00000000000E+00 0. -1.
         11    1    4    4    0    0  0.84267796868E+01  0.26993524725E+01 -0.58196852301E+01  0.10590838310E+02  0.51100000000E-03 0. -1.
        -11    1    4    4    0    0  0.82680252554E+01  0.84956230816E+01 -0.16023135562E+02  0.19931801892E+02  0.51100000000E-03 0.  1.
         12    1    4    4    0    0  0.19097216309E+01 -0.39615261393E+01 -0.16695110626E+02  0.17264629880E+02  0.00000000000E+00 0. -1.
</event>
<event>
 8    1  0.2994958E-010  0.9118800E+02  0.7816164E-02  0.1184000E+00
        -11   -1    0    0    0    0  0.00000000000E+00  0.00000000000E+00  0.45593999997E+02  0.45594000000E+02  0.51100000000E-03 0. -1.
         11   -1    0    0    0    0 -0.00000000000E+00 -0.00000000000E+00 -0.45593999997E+02  0.45594000000E+02  0.51100000000E-03 0.  1.
         23    2    1    2    0    0  0.00000000000E+00  0.00000000000E+00  0.00000000000E+00  0.91188000000E+02  0.91188000000E+02 0.  0.
    9900012    2    3    3    0    0 -0.18129255384E+01 -0.11738776405E+02  0.41743716461E+02  0.47787269194E+02  0.19999991565E+02 0.  0.
        -12    1    3    3    0    0  0.18129255384E+01  0.11738776405E+02 -0.41743716461E+02  0.43400730806E+02  0.00000000000E+00 0.  1.
         11    1    4    4    0    0  0.24482420869E+00 -0.52488911857E+01  0.32430904163E+02  0.32853832998E+02  0.51100000000E-03 0. -1.
        -11    1    4    4    0    0  0.34647268953E+01 -0.27351021588E+01  0.60816926953E+01  0.75147922512E+01  0.51100000000E-03 0.  1.
        -12    1    4    4    0    0 -0.55224766424E+01 -0.37547830609E+01  0.32311196023E+01  0.74186439451E+01  0.00000000000E+00 0.  1.
</event>
<event>
 8    1  0.2994958E-010  0.9118800E+02  0.7816164E-02  0.1184000E+00
        -11   -1    0    0    0    0  0.00000000000E+00  0.00000000000E+00  0.45593999997E+02  0.45594000000E+02  0.51100000000E-03 0. -1.
         11   -1    0    0    0    0 -0.00000000000E+00 -0.00000000000E+00 -0.45593999997E+02  0.45594000000E+02  0.51100000000E-03 0.  1.
         23    2    1    2    0    0  0.00000000000E+00  0.00000000000E+00  0.00000000000E+00  0.91188000000E+02  0.91188000000E+02 0.  0.
    9900012    2    3    3    0    0  0.37027640233E+02 -0.21510584217E+02  0.70619912508E+01  0.47787273105E+02  0.20000009396E+02 0.  0.
         12    1    3    3    0    0 -0.37027640233E+02  0.21510584217E+02 -0.70619912508E+01  0.43400726895E+02  0.00000000000E+00 0. -1.
         11    1    4    4    0    0  0.77876865536E+01 -0.21676432119E+01  0.77928586778E+00  0.81212083877E+01  0.51100000000E-03 0.  1.
        -11    1    4    4    0    0  0.37324690583E+01 -0.11324040989E+02  0.49035907176E+01  0.12892262477E+02  0.51100000000E-03 0. -1.
         12    1    4    4    0    0  0.25507484621E+02 -0.80189000166E+01  0.13791146654E+01  0.26773802241E+02  0.00000000000E+00 0. -1.
</event>
<event>
 8    1  0.2994958E-010  0.9118800E+02  0.7816164E-02  0.1184000E+00
        -11   -1    0    0    0    0  0.00000000000E+00  0.00000000000E+00  0.45593999997E+02  0.45594000000E+02  0.51100000000E-03 0. -1.
         11   -1    0    0    0    0 -0.00000000000E+00 -0.00000000000E+00 -0.45593999997E+02  0.45594000000E+02  0.51100000000E-03 0.  1.
         23    2    1    2    0    0  0.00000000000E+00  0.88817841970E-15  0.00000000000E+00  0.91188000000E+02  0.91188000000E+02 0.  0.
    9900012    2    3    3    0    0  0.19097468236E+02  0.47728276631E+01  0.38679838102E+02  0.47787273595E+02  0.20000011629E+02 0.  0.
        -12    1    3    3    0    0 -0.19097468236E+02 -0.47728276631E+01 -0.38679838102E+02  0.43400726405E+02  0.00000000000E+00 0.  1.
         11    1    4    4    0    0  0.12318249201E+02  0.10050591834E+01  0.99100639984E+01  0.15841678448E+02  0.51100000000E-03 0. -1.
        -11    1    4    4    0    0  0.16393727934E+01  0.15517454871E+01 -0.35746400982E+00  0.22854404372E+01  0.51100000000E-03 0.  1.
         12    1    4    4    0    0  0.51398462413E+01  0.22160229926E+01  0.29127238113E+02  0.29660154709E+02  0.00000000000E+00 0. -1.
</event>
<event>
 8    1  0.2994958E-010  0.9118800E+02  0.7816164E-02  0.1184000E+00
        -11   -1    0    0    0    0  0.00000000000E+00  0.00000000000E+00  0.45593999997E+02  0.45594000000E+02  0.51100000000E-03 0.  1.
         11   -1    0    0    0    0 -0.00000000000E+00 -0.00000000000E+00 -0.45593999997E+02  0.45594000000E+02  0.51100000000E-03 0. -1.
         23    2    1    2    0    0  0.00000000000E+00  0.17763568394E-14  0.66613381478E-15  0.91188000000E+02  0.91188000000E+02 0.  0.
    9900012    2    3    3    0    0  0.41195113690E+02  0.13555678500E+02  0.16819998539E+01  0.47787274948E+02  0.20000017799E+02 0.  0.
         12    1    3    3    0    0 -0.41195113690E+02 -0.13555678500E+02 -0.16819998539E+01  0.43400725052E+02  0.00000000000E+00 0. -1.
         11    1    4    4    0    0  0.53311983132E+01 -0.14454649548E+01 -0.19540891772E+01  0.58591389439E+01  0.51100000000E-03 0. -1.
        -11    1    4    4    0    0  0.13038792681E+02  0.12062511632E+02  0.61049719540E+01  0.18782571290E+02  0.51100000000E-03 0.  1.
         12    1    4    4    0    0  0.22825122695E+02  0.29386318232E+01 -0.24688829229E+01  0.23145564714E+02  0.00000000000E+00 0. -1.
</event>
<event>
 8    1  0.2994958E-010  0.9118800E+02  0.7816164E-02  0.1184000E+00
        -11   -1    0    0    0    0  0.00000000000E+00  0.00000000000E+00  0.45593999997E+02  0.45594000000E+02  0.51100000000E-03 0. -1.
         11   -1    0    0    0    0 -0.00000000000E+00 -0.00000000000E+00 -0.45593999997E+02  0.45594000000E+02  0.51100000000E-03 0.  1.
         23    2    1    2    0    0 -0.71054273576E-14  0.00000000000E+00  0.00000000000E+00  0.91188000000E+02  0.91188000000E+02 0.  0.
    9900012    2    3    3    0    0 -0.36280362824E+02 -0.17981903510E+02  0.15620818847E+02  0.47787267726E+02  0.19999984868E+02 0.  0.
        -12    1    3    3    0    0  0.36280362824E+02  0.17981903510E+02 -0.15620818847E+02  0.43400732274E+02  0.00000000000E+00 0.  1.
         11    1    4    4    0    0 -0.18213571671E+02 -0.65924905075E+01  0.27000681521E+01  0.19557236318E+02  0.51100000000E-03 0. -1.
        -11    1    4    4    0    0 -0.18799064648E+02 -0.84104298142E+01  0.14083224310E+02  0.24949496358E+02  0.51100000000E-03 0.  1.
        -12    1    4    4    0    0  0.73227349489E+00 -0.29789831884E+01 -0.11624736147E+01  0.32805350498E+01  0.00000000000E+00 0.  1.
</event>
<event>
 8    1  0.2994958E-010  0.9118800E+02  0.7816164E-02  0.1184000E+00
        -11   -1    0    0    0    0  0.00000000000E+00  0.00000000000E+00  0.45593999997E+02  0.45594000000E+02  0.51100000000E-03 0.  1.
         11   -1    0    0    0    0 -0.00000000000E+00 -0.00000000000E+00 -0.45593999997E+02  0.45594000000E+02  0.51100000000E-03 0. -1.
         23    2    1    2    0    0  0.00000000000E+00 -0.17763568394E-14  0.00000000000E+00  0.91188000000E+02  0.91188000000E+02 0.  0.
    9900012    2    3    3    0    0 -0.42129212922E+02 -0.59974515519E+01  0.85312946745E+01  0.47787274253E+02  0.20000014630E+02 0.  0.
        -12    1    3    3    0    0  0.42129212922E+02  0.59974515519E+01 -0.85312946745E+01  0.43400725747E+02  0.00000000000E+00 0.  1.
         11    1    4    4    0    0  0.11892971646E+01  0.27772258307E+00  0.11988014438E+01  0.17113394583E+01  0.51100000000E-03 0. -1.
        -11    1    4    4    0    0 -0.37120904290E+01 -0.14409334039E+01  0.45971706801E+01  0.60819308571E+01  0.51100000000E-03 0.  1.
         12    1    4    4    0    0 -0.39606419657E+02 -0.48342407311E+01  0.27353225507E+01  0.39994003938E+02  0.00000000000E+00 0. -1.
</event>
<event>
 8    1  0.2994958E-010  0.9118800E+02  0.7816164E-02  0.1184000E+00
        -11   -1    0    0    0    0  0.00000000000E+00  0.00000000000E+00  0.45593999997E+02  0.45594000000E+02  0.51100000000E-03 0.  1.
         11   -1    0    0    0    0 -0.00000000000E+00 -0.00000000000E+00 -0.45593999997E+02  0.45594000000E+02  0.51100000000E-03 0. -1.
         23    2    1    2    0    0  0.00000000000E+00  0.00000000000E+00  0.00000000000E+00  0.91188000000E+02  0.91188000000E+02 0.  0.
    9900012    2    3    3    0    0  0.22482546371E+02  0.34893199207E+02 -0.12673713139E+02  0.47787271355E+02  0.20000001416E+02 0.  0.
         12    1    3    3    0    0 -0.22482546371E+02 -0.34893199207E+02  0.12673713139E+02  0.43400728645E+02  0.00000000000E+00 0. -1.
         11    1    4    4    0    0  0.93627865209E+01  0.24414130949E+02 -0.12034866923E+02  0.28784537230E+02  0.51100000000E-03 0. -1.
        -11    1    4    4    0    0  0.80063553868E+01  0.10644232114E+02 -0.25129640703E+01  0.13554202026E+02  0.51100000000E-03 0.  1.
        -12    1    4    4    0    0  0.51134044630E+01 -0.16516385611E+00  0.18741178546E+01  0.54485320991E+01  0.00000000000E+00 0.  1.
</event>
<event>
 8    1  0.2994958E-010  0.9118800E+02  0.7816164E-02  0.1184000E+00
        -11   -1    0    0    0    0  0.00000000000E+00  0.00000000000E+00  0.45593999997E+02  0.45594000000E+02  0.51100000000E-03 0. -1.
         11   -1    0    0    0    0 -0.00000000000E+00 -0.00000000000E+00 -0.45593999997E+02  0.45594000000E+02  0.51100000000E-03 0.  1.
         23    2    1    2    0    0  0.44408920985E-15 -0.17763568394E-14  0.00000000000E+00  0.91188000000E+02  0.91188000000E+02 0.  0.
    9900012    2    3    3    0    0  0.35992849130E+01  0.15596638913E+02  0.40341217724E+02  0.47787264468E+02  0.19999970016E+02 0.  0.
        -12    1    3    3    0    0 -0.35992849130E+01 -0.15596638913E+02 -0.40341217724E+02  0.43400735532E+02  0.00000000000E+00 0.  1.
         11    1    4    4    0    0 -0.43636549531E+01  0.13620737566E+00  0.77733638415E+01  0.89154485401E+01  0.51100000000E-03 0. -1.
        -11    1    4    4    0    0 -0.16803076888E+01 -0.11283840279E+01  0.34603891575E+01  0.40088624104E+01  0.51100000000E-03 0.  1.
         12    1    4    4    0    0  0.96432475548E+01  0.16588815565E+02  0.29107464725E+02  0.34862953518E+02  0.00000000000E+00 0. -1.
</event>
<event>
 8    1  0.2994958E-010  0.9118800E+02  0.7816164E-02  0.1184000E+00
        -11   -1    0    0    0    0  0.00000000000E+00  0.00000000000E+00  0.45593999997E+02  0.45594000000E+02  0.51100000000E-03 0.  1.
         11   -1    0    0    0    0 -0.00000000000E+00 -0.00000000000E+00 -0.45593999997E+02  0.45594000000E+02  0.51100000000E-03 0. -1.
         23    2    1    2    0    0 -0.17763568394E-14  0.00000000000E+00  0.35527136788E-14  0.91188000000E+02  0.91188000000E+02 0.  0.
    9900012    2    3    3    0    0 -0.15226746000E+02 -0.26374935428E+02  0.30921391128E+02  0.47787269109E+02  0.19999991176E+02 0.  0.
        -12    1    3    3    0    0  0.15226746000E+02  0.26374935428E+02 -0.30921391128E+02  0.43400730891E+02  0.00000000000E+00 0.  1.
         11    1    4    4    0    0 -0.87949947198E+01 -0.85501561020E+01  0.13873186423E+02  0.18518164144E+02  0.51100000000E-03 0. -1.
        -11    1    4    4    0    0 -0.13506503054E+01 -0.11429524049E+01  0.10490029185E+02  0.10638200460E+02  0.51100000000E-03 0.  1.
        -12    1    4    4    0    0 -0.50811009752E+01 -0.16681826921E+02  0.65581755199E+01  0.18630904505E+02  0.00000000000E+00 0.  1.
</event>
<event>
 8    1  0.2994958E-010  0.9118800E+02  0.7816164E-02  0.1184000E+00
        -11   -1    0    0    0    0  0.00000000000E+00  0.00000000000E+00  0.45593999997E+02  0.45594000000E+02  0.51100000000E-03 0. -1.
         11   -1    0    0    0    0 -0.00000000000E+00 -0.00000000000E+00 -0.45593999997E+02  0.45594000000E+02  0.51100000000E-03 0.  1.
         23    2    1    2    0    0  0.00000000000E+00 -0.16653345369E-15  0.00000000000E+00  0.91188000000E+02  0.91188000000E+02 0.  0.
    9900012    2    3    3    0    0  0.42708123264E+02 -0.43415059446E+00 -0.77104611267E+01  0.47787268552E+02  0.19999988634E+02 0.  0.
         12    1    3    3    0    0 -0.42708123264E+02  0.43415059446E+00  0.77104611267E+01  0.43400731448E+02  0.00000000000E+00 0. -1.
         11    1    4    4    0    0  0.50819624336E+01 -0.34212009139E+01 -0.45220983817E+01  0.76144817226E+01  0.51100000000E-03 0. -1.
        -11    1    4    4    0    0  0.35884417643E+01 -0.37223041483E+01  0.87181788595E+00  0.52433318754E+01  0.51100000000E-03 0.  1.
        -12    1    4    4    0    0  0.34037719066E+02  0.67093544677E+01 -0.40601806309E+01  0.34929454954E+02  0.00000000000E+00 0.  1.
</event>
<event>
 8    1  0.2994958E-010  0.9118800E+02  0.7816164E-02  0.1184000E+00
        -11   -1    0    0    0    0  0.00000000000E+00  0.00000000000E+00  0.45593999997E+02  0.45594000000E+02  0.51100000000E-03 0. -1.
         11   -1    0    0    0    0 -0.00000000000E+00 -0.00000000000E+00 -0.45593999997E+02  0.45594000000E+02  0.51100000000E-03 0.  1.
         23    2    1    2    0    0  0.00000000000E+00  0.17763568394E-14  0.00000000000E+00  0.91188000000E+02  0.91188000000E+02 0.  0.
    9900012    2    3    3    0    0  0.55625004364E+01 -0.14753370624E+02 -0.40435377603E+02  0.47787272843E+02  0.20000008200E+02 0.  0.
         12    1    3    3    0    0 -0.55625004364E+01  0.14753370624E+02  0.40435377603E+02  0.43400727157E+02  0.00000000000E+00 0. -1.
         11    1    4    4    0    0 -0.16305694712E+01  0.73639654048E+00 -0.55768965087E+01  0.58568602165E+01  0.51100000000E-03 0. -1.
        -11    1    4    4    0    0  0.57429442706E+01 -0.71281033064E+01 -0.41132600654E+01  0.10035445893E+02  0.51100000000E-03 0.  1.
        -12    1    4    4    0    0  0.14501256370E+01 -0.83616638583E+01 -0.30745221029E+02  0.31894966734E+02  0.00000000000E+00 0.  1.
</event>
<event>
 8    1  0.2994958E-010  0.9118800E+02  0.7816164E-02  0.1184000E+00
        -11   -1    0    0    0    0  0.00000000000E+00  0.00000000000E+00  0.45593999997E+02  0.45594000000E+02  0.51100000000E-03 0.  1.
         11   -1    0    0    0    0 -0.00000000000E+00 -0.00000000000E+00 -0.45593999997E+02  0.45594000000E+02  0.51100000000E-03 0. -1.
         23    2    1    2    0    0 -0.71054273576E-14  0.71054273576E-14 -0.26645352591E-14  0.91188000000E+02  0.91188000000E+02 0.  0.
    9900012    2    3    3    0    0 -0.31901960636E+02  0.28486354672E+02 -0.73767096823E+01  0.47787270275E+02  0.19999996493E+02 0.  0.
         12    1    3    3    0    0  0.31901960636E+02 -0.28486354672E+02  0.73767096823E+01  0.43400729725E+02  0.00000000000E+00 0. -1.
         11    1    4    4    0    0 -0.42856636029E+01  0.19761575071E+01 -0.46648710432E+01  0.66357466136E+01  0.51100000000E-03 0. -1.
        -11    1    4    4    0    0 -0.23455556456E+02  0.26226442888E+02 -0.61846471552E+01  0.35724491542E+02  0.51100000000E-03 0.  1.
        -12    1    4    4    0    0 -0.41607405776E+01  0.28375427634E+00  0.34728085160E+01  0.54270321201E+01  0.00000000000E+00 0.  1.
</event>
<event>
 8    1  0.2994958E-010  0.9118800E+02  0.7816164E-02  0.1184000E+00
        -11   -1    0    0    0    0  0.00000000000E+00  0.00000000000E+00  0.45593999997E+02  0.45594000000E+02  0.51100000000E-03 0. -1.
         11   -1    0    0    0    0 -0.00000000000E+00 -0.00000000000E+00 -0.45593999997E+02  0.45594000000E+02  0.51100000000E-03 0.  1.
         23    2    1    2    0    0  0.00000000000E+00  0.00000000000E+00  0.00000000000E+00  0.91188000000E+02  0.91188000000E+02 0.  0.
    9900012    2    3    3    0    0 -0.24537649576E+01 -0.85079955276E+01 -0.42487837075E+02  0.47787271323E+02  0.20000001270E+02 0.  0.
         12    1    3    3    0    0  0.24537649576E+01  0.85079955276E+01  0.42487837075E+02  0.43400728677E+02  0.00000000000E+00 0. -1.
         11    1    4    4    0    0  0.30272824586E+01 -0.42229683088E+01 -0.12369592414E+02  0.13416583662E+02  0.51100000000E-03 0. -1.
        -11    1    4    4    0    0  0.11529812304E+01 -0.22933768905E+01 -0.26370710487E+02  0.26495345160E+02  0.51100000000E-03 0.  1.
         12    1    4    4    0    0 -0.66340286467E+01 -0.19916503283E+01 -0.37475341739E+01  0.78753425005E+01  0.00000000000E+00 0. -1.
</event>
<event>
 8    1  0.2994958E-010  0.9118800E+02  0.7816164E-02  0.1184000E+00
        -11   -1    0    0    0    0  0.00000000000E+00  0.00000000000E+00  0.45593999997E+02  0.45594000000E+02  0.51100000000E-03 0. -1.
         11   -1    0    0    0    0 -0.00000000000E+00 -0.00000000000E+00 -0.45593999997E+02  0.45594000000E+02  0.51100000000E-03 0.  1.
         23    2    1    2    0    0  0.17763568394E-14 -0.88817841970E-15 -0.71054273576E-14  0.91188000000E+02  0.91188000000E+02 0.  0.
    9900012    2    3    3    0    0  0.14105661598E+02 -0.38712848797E+01 -0.40861557760E+02  0.47787269150E+02  0.19999991362E+02 0.  0.
         12    1    3    3    0    0 -0.14105661598E+02  0.38712848797E+01  0.40861557760E+02  0.43400730850E+02  0.00000000000E+00 0. -1.
         11    1    4    4    0    0 -0.37191709355E+01  0.13855368203E+00 -0.13595176682E+02  0.14095398499E+02  0.51100000000E-03 0. -1.
        -11    1    4    4    0    0  0.24460860207E+01  0.10502846511E+01 -0.10137394034E+01  0.28485263748E+01  0.51100000000E-03 0.  1.
        -12    1    4    4    0    0  0.15378746513E+02 -0.50601232129E+01 -0.26252641674E+02  0.30843344276E+02  0.00000000000E+00 0.  1.
</event>
<event>
 8    1  0.2994958E-010  0.9118800E+02  0.7816164E-02  0.1184000E+00
        -11   -1    0    0    0    0  0.00000000000E+00  0.00000000000E+00  0.45593999997E+02  0.45594000000E+02  0.51100000000E-03 0.  1.
         11   -1    0    0    0    0 -0.00000000000E+00 -0.00000000000E+00 -0.45593999997E+02  0.45594000000E+02  0.51100000000E-03 0. -1.
         23    2    1    2    0    0 -0.71054273576E-14  0.00000000000E+00 -0.35527136788E-14  0.91188000000E+02  0.91188000000E+02 0.  0.
    9900012    2    3    3    0    0  0.38757659459E+02  0.86168876978E+01  0.17527585978E+02  0.47787272004E+02  0.20000004377E+02 0.  0.
        -12    1    3    3    0    0 -0.38757659459E+02 -0.86168876978E+01 -0.17527585978E+02  0.43400727996E+02  0.00000000000E+00 0.  1.
         11    1    4    4    0    0  0.64444347233E+01 -0.36731230112E+01  0.59419088178E+01  0.95041492107E+01  0.51100000000E-03 0. -1.
        -11    1    4    4    0    0  0.24448028339E+00  0.51652890410E+00 -0.15739238698E+01  0.16744579203E+01  0.51100000000E-03 0.  1.
         12    1    4    4    0    0  0.32068744452E+02  0.11773481805E+02  0.13159601030E+02  0.36608664873E+02  0.00000000000E+00 0. -1.
</event>
<event>
 8    1  0.2994958E-010  0.9118800E+02  0.7816164E-02  0.1184000E+00
        -11   -1    0    0    0    0  0.00000000000E+00  0.00000000000E+00  0.45593999997E+02  0.45594000000E+02  0.51100000000E-03 0. -1.
         11   -1    0    0    0    0 -0.00000000000E+00 -0.00000000000E+00 -0.45593999997E+02  0.45594000000E+02  0.51100000000E-03 0.  1.
         23    2    1    2    0    0 -0.35527136788E-14  0.00000000000E+00  0.00000000000E+00  0.91188000000E+02  0.91188000000E+02 0.  0.
    9900012    2    3    3    0    0  0.20993465961E+02  0.10155007982E+02 -0.36602915021E+02  0.47787272032E+02  0.20000004501E+02 0.  0.
         12    1    3    3    0    0 -0.20993465961E+02 -0.10155007982E+02  0.36602915021E+02  0.43400727968E+02  0.00000000000E+00 0. -1.
         11    1    4    4    0    0  0.11514404040E+02  0.29275683598E+01 -0.14876004996E+02  0.19038058772E+02  0.51100000000E-03 0. -1.
        -11    1    4    4    0    0  0.11366053398E+02  0.55452796462E+01 -0.83941094722E+01  0.15178879086E+02  0.51100000000E-03 0.  1.
        -12    1    4    4    0    0 -0.18869914775E+01  0.16821599762E+01 -0.13332800552E+02  0.13570334174E+02  0.00000000000E+00 0.  1.
</event>
<event>
 8    1  0.2994958E-010  0.9118800E+02  0.7816164E-02  0.1184000E+00
        -11   -1    0    0    0    0  0.00000000000E+00  0.00000000000E+00  0.45593999997E+02  0.45594000000E+02  0.51100000000E-03 0. -1.
         11   -1    0    0    0    0 -0.00000000000E+00 -0.00000000000E+00 -0.45593999997E+02  0.45594000000E+02  0.51100000000E-03 0.  1.
         23    2    1    2    0    0  0.00000000000E+00  0.71054273576E-14  0.00000000000E+00  0.91188000000E+02  0.91188000000E+02 0.  0.
    9900012    2    3    3    0    0  0.19153554470E+02 -0.32854654698E+02 -0.20912587665E+02  0.47787270663E+02  0.19999998262E+02 0.  0.
         12    1    3    3    0    0 -0.19153554470E+02  0.32854654698E+02  0.20912587665E+02  0.43400729337E+02  0.00000000000E+00 0. -1.
         11    1    4    4    0    0  0.33519585895E+01 -0.12462813335E+02 -0.64612453472E+01  0.14432776390E+02  0.51100000000E-03 0. -1.
        -11    1    4    4    0    0  0.93874697335E+01 -0.19982636675E+02 -0.15314833128E+02  0.26869582625E+02  0.51100000000E-03 0.  1.
         12    1    4    4    0    0  0.64141261470E+01 -0.40920468767E+00  0.86349081007E+00  0.64849116482E+01  0.00000000000E+00 0. -1.
</event>
<event>
 8    1  0.2994958E-010  0.9118800E+02  0.7816164E-02  0.1184000E+00
        -11   -1    0    0    0    0  0.00000000000E+00  0.00000000000E+00  0.45593999997E+02  0.45594000000E+02  0.51100000000E-03 0. -1.
         11   -1    0    0    0    0 -0.00000000000E+00 -0.00000000000E+00 -0.45593999997E+02  0.45594000000E+02  0.51100000000E-03 0.  1.
         23    2    1    2    0    0  0.17763568394E-14 -0.35527136788E-14  0.00000000000E+00  0.91188000000E+02  0.91188000000E+02 0.  0.
    9900012    2    3    3    0    0 -0.13880887765E+02 -0.25775182666E+02  0.32040345882E+02  0.47787275918E+02  0.20000022223E+02 0.  0.
        -12    1    3    3    0    0  0.13880887765E+02  0.25775182666E+02 -0.32040345882E+02  0.43400724082E+02  0.00000000000E+00 0.  1.
         11    1    4    4    0    0 -0.26590322339E+01 -0.95060752958E+01  0.18544217857E+02  0.21007711349E+02  0.51100000000E-03 0. -1.
        -11    1    4    4    0    0 -0.42425120784E+01 -0.15538549056E+02  0.96622955333E+01  0.18783113978E+02  0.51100000000E-03 0.  1.
        -12    1    4    4    0    0 -0.69793434525E+01 -0.73055831418E+00  0.38338324913E+01  0.79964505907E+01  0.00000000000E+00 0.  1.
</event>
<event>
 8    1  0.2994958E-010  0.9118800E+02  0.7816164E-02  0.1184000E+00
        -11   -1    0    0    0    0  0.00000000000E+00  0.00000000000E+00  0.45593999997E+02  0.45594000000E+02  0.51100000000E-03 0. -1.
         11   -1    0    0    0    0 -0.00000000000E+00 -0.00000000000E+00 -0.45593999997E+02  0.45594000000E+02  0.51100000000E-03 0.  1.
         23    2    1    2    0    0  0.00000000000E+00 -0.35527136788E-14  0.00000000000E+00  0.91188000000E+02  0.91188000000E+02 0.  0.
    9900012    2    3    3    0    0  0.34336108628E+02 -0.21530225780E+02 -0.15527540344E+02  0.47787268590E+02  0.19999988809E+02 0.  0.
         12    1    3    3    0    0 -0.34336108628E+02  0.21530225780E+02  0.15527540344E+02  0.43400731410E+02  0.00000000000E+00 0. -1.
         11    1    4    4    0    0  0.17638782265E+02 -0.60544052040E+00 -0.36605008965E+01  0.18024773649E+02  0.51100000000E-03 0. -1.
        -11    1    4    4    0    0  0.12230467496E+01 -0.13310222712E+01 -0.25234485933E+01  0.31040709886E+01  0.51100000000E-03 0.  1.
        -12    1    4    4    0    0  0.15474279613E+02 -0.19593762988E+02 -0.93435908538E+01  0.26658423952E+02  0.00000000000E+00 0.  1.
</event>
<event>
 8    1  0.2994958E-010  0.9118800E+02  0.7816164E-02  0.1184000E+00
        -11   -1    0    0    0    0  0.00000000000E+00  0.00000000000E+00  0.45593999997E+02  0.45594000000E+02  0.51100000000E-03 0. -1.
         11   -1    0    0    0    0 -0.00000000000E+00 -0.00000000000E+00 -0.45593999997E+02  0.45594000000E+02  0.51100000000E-03 0.  1.
         23    2    1    2    0    0  0.00000000000E+00  0.00000000000E+00  0.88817841970E-15  0.91188000000E+02  0.91188000000E+02 0.  0.
    9900012    2    3    3    0    0  0.37807033547E+02 -0.19989634374E+02  0.73936340095E+01  0.47787273141E+02  0.20000009559E+02 0.  0.
        -12    1    3    3    0    0 -0.37807033547E+02  0.19989634374E+02 -0.73936340095E+01  0.43400726859E+02  0.00000000000E+00 0.  1.
         11    1    4    4    0    0  0.39497978168E+01 -0.17427024850E+01  0.57052106784E+01  0.71545331008E+01  0.51100000000E-03 0. -1.
        -11    1    4    4    0    0  0.71246639517E+00  0.17487215529E+01  0.10253082527E+00  0.18910706664E+01  0.51100000000E-03 0.  1.
        -12    1    4    4    0    0  0.33144769335E+02 -0.19995653442E+02  0.15858925058E+01  0.38741669374E+02  0.00000000000E+00 0.  1.
</event>
<event>
 8    1  0.2994958E-010  0.9118800E+02  0.7816164E-02  0.1184000E+00
        -11   -1    0    0    0    0  0.00000000000E+00  0.00000000000E+00  0.45593999997E+02  0.45594000000E+02  0.51100000000E-03 0. -1.
         11   -1    0    0    0    0 -0.00000000000E+00 -0.00000000000E+00 -0.45593999997E+02  0.45594000000E+02  0.51100000000E-03 0.  1.
         23    2    1    2    0    0  0.00000000000E+00  0.00000000000E+00  0.00000000000E+00  0.91188000000E+02  0.91188000000E+02 0.  0.
    9900012    2    3    3    0    0 -0.27434595799E+02 -0.18647775163E+02  0.27986185043E+02  0.47787272835E+02  0.20000008166E+02 0.  0.
        -12    1    3    3    0    0  0.27434595799E+02  0.18647775163E+02 -0.27986185043E+02  0.43400727165E+02  0.00000000000E+00 0.  1.
         11    1    4    4    0    0 -0.81588708514E+01 -0.97449027759E+01  0.85593827866E+01  0.15322967651E+02  0.51100000000E-03 0. -1.
        -11    1    4    4    0    0 -0.53391459936E+01  0.30117749255E+01  0.55978729506E+00  0.61555365501E+01  0.51100000000E-03 0.  1.
        -12    1    4    4    0    0 -0.13936578954E+02 -0.11914647313E+02  0.18867014961E+02  0.26308768634E+02  0.00000000000E+00 0.  1.
</event>
<event>
 8    1  0.2994958E-010  0.9118800E+02  0.7816164E-02  0.1184000E+00
        -11   -1    0    0    0    0  0.00000000000E+00  0.00000000000E+00  0.45593999997E+02  0.45594000000E+02  0.51100000000E-03 0.  1.
         11   -1    0    0    0    0 -0.00000000000E+00 -0.00000000000E+00 -0.45593999997E+02  0.45594000000E+02  0.51100000000E-03 0. -1.
         23    2    1    2    0    0 -0.35527136788E-14  0.00000000000E+00  0.17763568394E-14  0.91188000000E+02  0.91188000000E+02 0.  0.
    9900012    2    3    3    0    0  0.15322480862E+02 -0.40003137823E+02 -0.69709170909E+01  0.47787272581E+02  0.20000007005E+02 0.  0.
         12    1    3    3    0    0 -0.15322480862E+02  0.40003137823E+02  0.69709170909E+01  0.43400727419E+02  0.00000000000E+00 0. -1.
         11    1    4    4    0    0 -0.62189631129E+00 -0.31819308549E+00  0.77291569937E+00  0.10418257057E+01  0.51100000000E-03 0. -1.
        -11    1    4    4    0    0  0.16751426565E+02 -0.25759948425E+02 -0.10605919228E+02  0.32506472551E+02  0.51100000000E-03 0.  1.
        -12    1    4    4    0    0 -0.80704939129E+00 -0.13924996312E+02  0.28620864376E+01  0.14238974324E+02  0.00000000000E+00 0.  1.
</event>
<event>
 8    1  0.2994958E-010  0.9118800E+02  0.7816164E-02  0.1184000E+00
        -11   -1    0    0    0    0  0.00000000000E+00  0.00000000000E+00  0.45593999997E+02  0.45594000000E+02  0.51100000000E-03 0. -1.
         11   -1    0    0    0    0 -0.00000000000E+00 -0.00000000000E+00 -0.45593999997E+02  0.45594000000E+02  0.51100000000E-03 0.  1.
         23    2    1    2    0    0  0.00000000000E+00 -0.17763568394E-14  0.00000000000E+00  0.91188000000E+02  0.91188000000E+02 0.  0.
    9900012    2    3    3    0    0  0.13600867343E+02  0.10267265443E+02 -0.39915218789E+02  0.47787250892E+02  0.19999908118E+02 0.  0.
         12    1    3    3    0    0 -0.13600867343E+02 -0.10267265443E+02  0.39915218789E+02  0.43400749108E+02  0.00000000000E+00 0. -1.
         11    1    4    4    0    0 -0.12709372837E+01  0.29516678934E+00 -0.69738109144E+00  0.14794409959E+01  0.51100000000E-03 0. -1.
        -11    1    4    4    0    0  0.14251302122E+02  0.93723684468E+01 -0.40956712195E+02  0.44366577247E+02  0.51100000000E-03 0.  1.
        -12    1    4    4    0    0  0.62050250474E+00  0.59973020712E+00  0.17388744981E+01  0.19412326496E+01  0.00000000000E+00 0.  1.
</event>
<event>
 8    1  0.2994958E-010  0.9118800E+02  0.7816164E-02  0.1184000E+00
        -11   -1    0    0    0    0  0.00000000000E+00  0.00000000000E+00  0.45593999997E+02  0.45594000000E+02  0.51100000000E-03 0. -1.
         11   -1    0    0    0    0 -0.00000000000E+00 -0.00000000000E+00 -0.45593999997E+02  0.45594000000E+02  0.51100000000E-03 0.  1.
         23    2    1    2    0    0  0.00000000000E+00 -0.16098233857E-14  0.00000000000E+00  0.91188000000E+02  0.91188000000E+02 0.  0.
    9900012    2    3    3    0    0 -0.74647577647E+01  0.40486750203E+00  0.42752035672E+02  0.47787273275E+02  0.20000010171E+02 0.  0.
        -12    1    3    3    0    0  0.74647577647E+01 -0.40486750203E+00 -0.42752035672E+02  0.43400726725E+02  0.00000000000E+00 0.  1.
         11    1    4    4    0    0  0.34371775033E+01  0.17637894536E+00  0.12370333665E+02  0.12840189016E+02  0.51100000000E-03 0.  1.
        -11    1    4    4    0    0 -0.80252731118E+00  0.49886587539E+01  0.45249616044E+01  0.67827755403E+01  0.51100000000E-03 0. -1.
        -12    1    4    4    0    0 -0.10099407957E+02 -0.47601701972E+01  0.25856740402E+02  0.28164308719E+02  0.00000000000E+00 0.  1.
</event>
<event>
 8    1  0.2994958E-010  0.9118800E+02  0.7816164E-02  0.1184000E+00
        -11   -1    0    0    0    0  0.00000000000E+00  0.00000000000E+00  0.45593999997E+02  0.45594000000E+02  0.51100000000E-03 0. -1.
         11   -1    0    0    0    0 -0.00000000000E+00 -0.00000000000E+00 -0.45593999997E+02  0.45594000000E+02  0.51100000000E-03 0.  1.
         23    2    1    2    0    0  0.00000000000E+00  0.00000000000E+00  0.71054273576E-14  0.91188000000E+02  0.91188000000E+02 0.  0.
    9900012    2    3    3    0    0 -0.13236400948E+02 -0.24734344265E+02 -0.33115522075E+02  0.47787217766E+02  0.19999757079E+02 0.  0.
         12    1    3    3    0    0  0.13236400948E+02  0.24734344265E+02  0.33115522075E+02  0.43400782234E+02  0.00000000000E+00 0. -1.
         11    1    4    4    0    0 -0.48121641225E+01 -0.64307809487E+01 -0.41912264322E+01  0.90597045437E+01  0.51100000000E-03 0. -1.
        -11    1    4    4    0    0  0.17779412083E+01 -0.14788772783E+02 -0.18137792444E+02  0.23470159573E+02  0.51100000000E-03 0.  1.
        -12    1    4    4    0    0 -0.10202178034E+02 -0.35147905336E+01 -0.10786503198E+02  0.15257353649E+02  0.00000000000E+00 0.  1.
</event>
<event>
 8    1  0.2994958E-010  0.9118800E+02  0.7816164E-02  0.1184000E+00
        -11   -1    0    0    0    0  0.00000000000E+00  0.00000000000E+00  0.45593999997E+02  0.45594000000E+02  0.51100000000E-03 0. -1.
         11   -1    0    0    0    0 -0.00000000000E+00 -0.00000000000E+00 -0.45593999997E+02  0.45594000000E+02  0.51100000000E-03 0.  1.
         23    2    1    2    0    0  0.00000000000E+00  0.00000000000E+00  0.71054273576E-14  0.91188000000E+02  0.91188000000E+02 0.  0.
    9900012    2    3    3    0    0  0.23434304369E+02 -0.12760213063E+02 -0.34229129646E+02  0.47787274487E+02  0.20000015698E+02 0.  0.
         12    1    3    3    0    0 -0.23434304369E+02  0.12760213063E+02  0.34229129646E+02  0.43400725513E+02  0.00000000000E+00 0. -1.
         11    1    4    4    0    0  0.90792924406E+01 -0.79195177765E-01 -0.48227006441E+01  0.10280966144E+02  0.51100000000E-03 0.  1.
        -11    1    4    4    0    0  0.40262530704E+01 -0.11643655081E+02 -0.20042073596E+02  0.23525945926E+02  0.51100000000E-03 0. -1.
         12    1    4    4    0    0  0.10328758858E+02 -0.10373628044E+01 -0.93643554062E+01  0.13980362417E+02  0.00000000000E+00 0. -1.
</event>
<event>
 8    1  0.2994958E-010  0.9118800E+02  0.7816164E-02  0.1184000E+00
        -11   -1    0    0    0    0  0.00000000000E+00  0.00000000000E+00  0.45593999997E+02  0.45594000000E+02  0.51100000000E-03 0. -1.
         11   -1    0    0    0    0 -0.00000000000E+00 -0.00000000000E+00 -0.45593999997E+02  0.45594000000E+02  0.51100000000E-03 0.  1.
         23    2    1    2    0    0  0.00000000000E+00 -0.71054273576E-14  0.77715611724E-15  0.91188000000E+02  0.91188000000E+02 0.  0.
    9900012    2    3    3    0    0 -0.69288319846E+01 -0.42838564485E+02 -0.68712837307E+00  0.47787268840E+02  0.19999989951E+02 0.  0.
        -12    1    3    3    0    0  0.69288319846E+01  0.42838564485E+02  0.68712837307E+00  0.43400731160E+02  0.00000000000E+00 0.  1.
         11    1    4    4    0    0 -0.79110226449E+01 -0.27168188349E+02  0.26563072560E+01  0.28420955401E+02  0.51100000000E-03 0. -1.
        -11    1    4    4    0    0  0.28458048024E+01 -0.13248513120E+01  0.22440094136E+01  0.38586804068E+01  0.51100000000E-03 0.  1.
        -12    1    4    4    0    0 -0.18636141422E+01 -0.14345524824E+02 -0.55874450427E+01  0.15507633032E+02  0.00000000000E+00 0.  1.
</event>
<event>
 8    1  0.2994958E-010  0.9118800E+02  0.7816164E-02  0.1184000E+00
        -11   -1    0    0    0    0  0.00000000000E+00  0.00000000000E+00  0.45593999997E+02  0.45594000000E+02  0.51100000000E-03 0. -1.
         11   -1    0    0    0    0 -0.00000000000E+00 -0.00000000000E+00 -0.45593999997E+02  0.45594000000E+02  0.51100000000E-03 0.  1.
         23    2    1    2    0    0  0.71054273576E-14  0.00000000000E+00  0.17763568394E-14  0.91188000000E+02  0.91188000000E+02 0.  0.
    9900012    2    3    3    0    0  0.39498283102E+02  0.12324349594E+02  0.13100348375E+02  0.47787273181E+02  0.20000009740E+02 0.  0.
        -12    1    3    3    0    0 -0.39498283102E+02 -0.12324349594E+02 -0.13100348375E+02  0.43400726819E+02  0.00000000000E+00 0.  1.
         11    1    4    4    0    0  0.49730819086E+01 -0.29659577184E+01  0.25425448146E+01  0.63240005734E+01  0.51100000000E-03 0. -1.
        -11    1    4    4    0    0  0.15976289971E+02  0.13098653844E+02  0.95448856038E+01  0.22757886879E+02  0.51100000000E-03 0.  1.
         12    1    4    4    0    0  0.18548911222E+02  0.21916534683E+01  0.10129179569E+01  0.18705385728E+02  0.00000000000E+00 0. -1.
</event>
<event>
 8    1  0.2994958E-010  0.9118800E+02  0.7816164E-02  0.1184000E+00
        -11   -1    0    0    0    0  0.00000000000E+00  0.00000000000E+00  0.45593999997E+02  0.45594000000E+02  0.51100000000E-03 0. -1.
         11   -1    0    0    0    0 -0.00000000000E+00 -0.00000000000E+00 -0.45593999997E+02  0.45594000000E+02  0.51100000000E-03 0.  1.
         23    2    1    2    0    0  0.00000000000E+00  0.44408920985E-15 -0.71054273576E-14  0.91188000000E+02  0.91188000000E+02 0.  0.
    9900012    2    3    3    0    0 -0.27064192258E+02  0.24139371028E+01 -0.33842662900E+02  0.47787269280E+02  0.19999991955E+02 0.  0.
         12    1    3    3    0    0  0.27064192258E+02 -0.24139371028E+01  0.33842662900E+02  0.43400730720E+02  0.00000000000E+00 0. -1.
         11    1    4    4    0    0 -0.67994035065E+01  0.66241227202E+01 -0.15077419213E+02  0.17816830813E+02  0.51100000000E-03 0. -1.
        -11    1    4    4    0    0  0.10437658790E+01 -0.47495489751E+00 -0.29718119707E+01  0.31853878908E+01  0.51100000000E-03 0.  1.
         12    1    4    4    0    0 -0.21308554630E+02 -0.37352307199E+01 -0.15793431716E+02  0.26785050576E+02  0.00000000000E+00 0. -1.
</event>
<event>
 8    1  0.2994958E-010  0.9118800E+02  0.7816164E-02  0.1184000E+00
        -11   -1    0    0    0    0  0.00000000000E+00  0.00000000000E+00  0.45593999997E+02  0.45594000000E+02  0.51100000000E-03 0. -1.
         11   -1    0    0    0    0 -0.00000000000E+00 -0.00000000000E+00 -0.45593999997E+02  0.45594000000E+02  0.51100000000E-03 0.  1.
         23    2    1    2    0    0  0.00000000000E+00  0.17763568394E-14  0.00000000000E+00  0.91188000000E+02  0.91188000000E+02 0.  0.
    9900012    2    3    3    0    0  0.35817842379E+01 -0.88957185475E+01  0.42328008279E+02  0.47787271070E+02  0.20000000115E+02 0.  0.
        -12    1    3    3    0    0 -0.35817842379E+01  0.88957185475E+01 -0.42328008279E+02  0.43400728930E+02  0.00000000000E+00 0.  1.
         11    1    4    4    0    0 -0.41093409618E+01 -0.36722613789E+01  0.20909307140E+02  0.21623397331E+02  0.51100000000E-03 0. -1.
        -11    1    4    4    0    0  0.23268903471E+01 -0.83552797582E+01  0.10680809802E+02  0.13758808699E+02  0.51100000000E-03 0.  1.
        -12    1    4    4    0    0  0.53642348526E+01  0.31318225897E+01  0.10737891337E+02  0.12405065040E+02  0.00000000000E+00 0.  1.
</event>
<event>
 8    1  0.2994958E-010  0.9118800E+02  0.7816164E-02  0.1184000E+00
        -11   -1    0    0    0    0  0.00000000000E+00  0.00000000000E+00  0.45593999997E+02  0.45594000000E+02  0.51100000000E-03 0. -1.
         11   -1    0    0    0    0 -0.00000000000E+00 -0.00000000000E+00 -0.45593999997E+02  0.45594000000E+02  0.51100000000E-03 0.  1.
         23    2    1    2    0    0  0.00000000000E+00  0.17763568394E-14 -0.35527136788E-14  0.91188000000E+02  0.91188000000E+02 0.  0.
    9900012    2    3    3    0    0  0.29993302981E+02 -0.54333242989E+01  0.30895038073E+02  0.47787278644E+02  0.20000034650E+02 0.  0.
        -12    1    3    3    0    0 -0.29993302981E+02  0.54333242989E+01 -0.30895038073E+02  0.43400721356E+02  0.00000000000E+00 0.  1.
         11    1    4    4    0    0  0.27774361509E+00 -0.42183281689E+00  0.47043062112E+01  0.47313403630E+01  0.51100000000E-03 0. -1.
        -11    1    4    4    0    0  0.86896270428E+01 -0.92849586120E+01  0.99221613847E+01  0.16129766315E+02  0.51100000000E-03 0.  1.
         12    1    4    4    0    0  0.21025932323E+02  0.42734671300E+01  0.16268570477E+02  0.26926171966E+02  0.00000000000E+00 0. -1.
</event>
<event>
 8    1  0.2994958E-010  0.9118800E+02  0.7816164E-02  0.1184000E+00
        -11   -1    0    0    0    0  0.00000000000E+00  0.00000000000E+00  0.45593999997E+02  0.45594000000E+02  0.51100000000E-03 0.  1.
         11   -1    0    0    0    0 -0.00000000000E+00 -0.00000000000E+00 -0.45593999997E+02  0.45594000000E+02  0.51100000000E-03 0. -1.
         23    2    1    2    0    0 -0.71054273576E-14 -0.71054273576E-14 -0.17763568394E-14  0.91188000000E+02  0.91188000000E+02 0.  0.
    9900012    2    3    3    0    0 -0.23306804006E+02 -0.35427127676E+02 -0.92376870484E+01  0.47787270163E+02  0.19999995983E+02 0.  0.
         12    1    3    3    0    0  0.23306804006E+02  0.35427127676E+02  0.92376870484E+01  0.43400729837E+02  0.00000000000E+00 0. -1.
         11    1    4    4    0    0 -0.26300162496E+01 -0.99905285707E+01  0.11524018349E+01  0.10394983254E+02  0.51100000000E-03 0. -1.
        -11    1    4    4    0    0 -0.95688622252E+01 -0.21087980103E+02 -0.10584969949E+02  0.25461885598E+02  0.51100000000E-03 0.  1.
         12    1    4    4    0    0 -0.11107925531E+02 -0.43486190027E+01  0.19488106622E+00  0.11930401312E+02  0.00000000000E+00 0. -1.
</event>
<event>
 8    1  0.2994958E-010  0.9118800E+02  0.7816164E-02  0.1184000E+00
        -11   -1    0    0    0    0  0.00000000000E+00  0.00000000000E+00  0.45593999997E+02  0.45594000000E+02  0.51100000000E-03 0. -1.
         11   -1    0    0    0    0 -0.00000000000E+00 -0.00000000000E+00 -0.45593999997E+02  0.45594000000E+02  0.51100000000E-03 0.  1.
         23    2    1    2    0    0  0.88817841970E-15  0.00000000000E+00  0.35527136788E-14  0.91188000000E+02  0.91188000000E+02 0.  0.
    9900012    2    3    3    0    0 -0.54113902447E+01 -0.32968542033E+02  0.27702258638E+02  0.47787273718E+02  0.20000012190E+02 0.  0.
        -12    1    3    3    0    0  0.54113902447E+01  0.32968542033E+02 -0.27702258638E+02  0.43400726282E+02  0.00000000000E+00 0.  1.
         11    1    4    4    0    0 -0.52720031786E+01 -0.13084014621E+02  0.73783148540E+01  0.15919327450E+02  0.51100000000E-03 0. -1.
        -11    1    4    4    0    0 -0.60674772854E+01 -0.53586723082E+01  0.10861759773E+02  0.13546493094E+02  0.51100000000E-03 0.  1.
         12    1    4    4    0    0  0.59280902192E+01 -0.14525855103E+02  0.94621840106E+01  0.18321453173E+02  0.00000000000E+00 0. -1.
</event>
<event>
 8    1  0.2994958E-010  0.9118800E+02  0.7816164E-02  0.1184000E+00
        -11   -1    0    0    0    0  0.00000000000E+00  0.00000000000E+00  0.45593999997E+02  0.45594000000E+02  0.51100000000E-03 0. -1.
         11   -1    0    0    0    0 -0.00000000000E+00 -0.00000000000E+00 -0.45593999997E+02  0.45594000000E+02  0.51100000000E-03 0.  1.
         23    2    1    2    0    0  0.00000000000E+00  0.00000000000E+00  0.00000000000E+00  0.91188000000E+02  0.91188000000E+02 0.  0.
    9900012    2    3    3    0    0  0.24159713794E+02 -0.11954635988E+02 -0.34014966892E+02  0.47787273452E+02  0.20000010979E+02 0.  0.
         12    1    3    3    0    0 -0.24159713794E+02  0.11954635988E+02  0.34014966892E+02  0.43400726548E+02  0.00000000000E+00 0. -1.
         11    1    4    4    0    0 -0.20999239228E+01  0.23781227355E+01 -0.13429807449E+01  0.34451046093E+01  0.51100000000E-03 0. -1.
        -11    1    4    4    0    0  0.45918729112E+01 -0.16988992321E+01 -0.54961118670E+01  0.73606250651E+01  0.51100000000E-03 0.  1.
        -12    1    4    4    0    0  0.21667764806E+02 -0.12633859491E+02 -0.27175874280E+02  0.36981543778E+02  0.00000000000E+00 0.  1.
</event>
<event>
 8    1  0.2994958E-010  0.9118800E+02  0.7816164E-02  0.1184000E+00
        -11   -1    0    0    0    0  0.00000000000E+00  0.00000000000E+00  0.45593999997E+02  0.45594000000E+02  0.51100000000E-03 0.  1.
         11   -1    0    0    0    0 -0.00000000000E+00 -0.00000000000E+00 -0.45593999997E+02  0.45594000000E+02  0.51100000000E-03 0. -1.
         23    2    1    2    0    0  0.35527136788E-14  0.00000000000E+00  0.00000000000E+00  0.91188000000E+02  0.91188000000E+02 0.  0.
    9900012    2    3    3    0    0 -0.20658354248E+02  0.10682665237E+02  0.36643365203E+02  0.47787272469E+02  0.20000006497E+02 0.  0.
        -12    1    3    3    0    0  0.20658354248E+02 -0.10682665237E+02 -0.36643365203E+02  0.43400727531E+02  0.00000000000E+00 0.  1.
         11    1    4    4    0    0 -0.24712125353E+01  0.20698057640E+01  0.19303050510E+02  0.19570353767E+02  0.51100000000E-03 0. -1.
        -11    1    4    4    0    0 -0.23774321579E+01  0.55758823233E+01  0.59685973176E+01  0.85068679047E+01  0.51100000000E-03 0.  1.
         12    1    4    4    0    0 -0.15809709554E+02  0.30369771499E+01  0.11371717375E+02  0.19710050798E+02  0.00000000000E+00 0. -1.
</event>
<event>
 8    1  0.2994958E-010  0.9118800E+02  0.7816164E-02  0.1184000E+00
        -11   -1    0    0    0    0  0.00000000000E+00  0.00000000000E+00  0.45593999997E+02  0.45594000000E+02  0.51100000000E-03 0. -1.
         11   -1    0    0    0    0 -0.00000000000E+00 -0.00000000000E+00 -0.45593999997E+02  0.45594000000E+02  0.51100000000E-03 0.  1.
         23    2    1    2    0    0  0.00000000000E+00  0.35527136788E-14  0.00000000000E+00  0.91188000000E+02  0.91188000000E+02 0.  0.
    9900012    2    3    3    0    0  0.10411106735E+02 -0.17528394009E+02  0.38314325358E+02  0.47787271116E+02  0.20000000328E+02 0.  0.
        -12    1    3    3    0    0 -0.10411106735E+02  0.17528394009E+02 -0.38314325358E+02  0.43400728884E+02  0.00000000000E+00 0.  1.
         11    1    4    4    0    0  0.39959245893E+01 -0.71874612262E+01  0.12170619672E+02  0.14688464714E+02  0.51100000000E-03 0. -1.
        -11    1    4    4    0    0 -0.46648586008E+01 -0.74849212213E+01  0.12375419401E+02  0.15196577149E+02  0.51100000000E-03 0.  1.
        -12    1    4    4    0    0  0.11080040746E+02 -0.28560115620E+01  0.13768286286E+02  0.17902229253E+02  0.00000000000E+00 0.  1.
</event>
<event>
 8    1  0.2994958E-010  0.9118800E+02  0.7816164E-02  0.1184000E+00
        -11   -1    0    0    0    0  0.00000000000E+00  0.00000000000E+00  0.45593999997E+02  0.45594000000E+02  0.51100000000E-03 0. -1.
         11   -1    0    0    0    0 -0.00000000000E+00 -0.00000000000E+00 -0.45593999997E+02  0.45594000000E+02  0.51100000000E-03 0.  1.
         23    2    1    2    0    0  0.00000000000E+00  0.00000000000E+00  0.00000000000E+00  0.91188000000E+02  0.91188000000E+02 0.  0.
    9900012    2    3    3    0    0  0.17506296934E+02 -0.24477144254E+02 -0.31273357420E+02  0.47787263744E+02  0.19999966716E+02 0.  0.
         12    1    3    3    0    0 -0.17506296934E+02  0.24477144254E+02  0.31273357420E+02  0.43400736256E+02  0.00000000000E+00 0. -1.
         11    1    4    4    0    0  0.11605681228E+02 -0.64538636699E+01 -0.57752080855E+01  0.14480926135E+02  0.51100000000E-03 0. -1.
        -11    1    4    4    0    0  0.84669918000E+01 -0.13371289257E+02 -0.16547523730E+02  0.22897638926E+02  0.51100000000E-03 0.  1.
         12    1    4    4    0    0 -0.25663760936E+01 -0.46519913272E+01 -0.89506256049E+01  0.10408698683E+02  0.00000000000E+00 0. -1.
</event>
<event>
 8    1  0.2994958E-010  0.9118800E+02  0.7816164E-02  0.1184000E+00
        -11   -1    0    0    0    0  0.00000000000E+00  0.00000000000E+00  0.45593999997E+02  0.45594000000E+02  0.51100000000E-03 0. -1.
         11   -1    0    0    0    0 -0.00000000000E+00 -0.00000000000E+00 -0.45593999997E+02  0.45594000000E+02  0.51100000000E-03 0.  1.
         23    2    1    2    0    0  0.00000000000E+00  0.00000000000E+00  0.00000000000E+00  0.91188000000E+02  0.91188000000E+02 0.  0.
    9900012    2    3    3    0    0 -0.16205193520E+02 -0.28471644650E+02  0.28467190159E+02  0.47787265425E+02  0.19999974378E+02 0.  0.
        -12    1    3    3    0    0  0.16205193520E+02  0.28471644650E+02 -0.28467190159E+02  0.43400734575E+02  0.00000000000E+00 0.  1.
         11    1    4    4    0    0 -0.49860360110E+01  0.56074812367E+00  0.15502346812E+01  0.52514970617E+01  0.51100000000E-03 0. -1.
        -11    1    4    4    0    0 -0.36196256944E+01 -0.11530311845E+02  0.40322689692E+01  0.12740053952E+02  0.51100000000E-03 0.  1.
         12    1    4    4    0    0 -0.75995318149E+01 -0.17502080929E+02  0.22884686509E+02  0.29795714411E+02  0.00000000000E+00 0. -1.
</event>
<event>
 8    1  0.2994958E-010  0.9118800E+02  0.7816164E-02  0.1184000E+00
        -11   -1    0    0    0    0  0.00000000000E+00  0.00000000000E+00  0.45593999997E+02  0.45594000000E+02  0.51100000000E-03 0.  1.
         11   -1    0    0    0    0 -0.00000000000E+00 -0.00000000000E+00 -0.45593999997E+02  0.45594000000E+02  0.51100000000E-03 0. -1.
         23    2    1    2    0    0  0.35527136788E-14  0.71054273576E-14  0.00000000000E+00  0.91188000000E+02  0.91188000000E+02 0.  0.
    9900012    2    3    3    0    0  0.24492537523E+02  0.35677654832E+02  0.32931823737E+01  0.47787256933E+02  0.19999935660E+02 0.  0.
        -12    1    3    3    0    0 -0.24492537523E+02 -0.35677654832E+02 -0.32931823737E+01  0.43400743067E+02  0.00000000000E+00 0.  1.
         11    1    4    4    0    0  0.11318727357E+02  0.53294767085E+01 -0.12418401803E+01  0.12572154878E+02  0.51100000000E-03 0. -1.
        -11    1    4    4    0    0  0.23811383374E+01  0.40914604713E+01  0.49153076410E+01  0.68242302157E+01  0.51100000000E-03 0.  1.
         12    1    4    4    0    0  0.10792671829E+02  0.26256717652E+02 -0.38028508706E+00  0.28390871840E+02  0.00000000000E+00 0. -1.
</event>
<event>
 8    1  0.2994958E-010  0.9118800E+02  0.7816164E-02  0.1184000E+00
        -11   -1    0    0    0    0  0.00000000000E+00  0.00000000000E+00  0.45593999997E+02  0.45594000000E+02  0.51100000000E-03 0. -1.
         11   -1    0    0    0    0 -0.00000000000E+00 -0.00000000000E+00 -0.45593999997E+02  0.45594000000E+02  0.51100000000E-03 0.  1.
         23    2    1    2    0    0  0.00000000000E+00  0.00000000000E+00  0.00000000000E+00  0.91188000000E+02  0.91188000000E+02 0.  0.
    9900012    2    3    3    0    0  0.27916012519E+02 -0.16005977320E+02 -0.29122669945E+02  0.47787251508E+02  0.19999910926E+02 0.  0.
         12    1    3    3    0    0 -0.27916012519E+02  0.16005977320E+02  0.29122669945E+02  0.43400748492E+02  0.00000000000E+00 0. -1.
         11    1    4    4    0    0  0.19232060170E+01  0.35511822036E+01 -0.10534901118E+01  0.41736624329E+01  0.51100000000E-03 0. -1.
        -11    1    4    4    0    0  0.35508724780E+01 -0.87156175652E+00 -0.98972545286E+00  0.37878584957E+01  0.51100000000E-03 0.  1.
        -12    1    4    4    0    0  0.22441934024E+02 -0.18685597767E+02 -0.27079454381E+02  0.39825730579E+02  0.00000000000E+00 0.  1.
</event>
<event>
 8    1  0.2994958E-010  0.9118800E+02  0.7816164E-02  0.1184000E+00
        -11   -1    0    0    0    0  0.00000000000E+00  0.00000000000E+00  0.45593999997E+02  0.45594000000E+02  0.51100000000E-03 0. -1.
         11   -1    0    0    0    0 -0.00000000000E+00 -0.00000000000E+00 -0.45593999997E+02  0.45594000000E+02  0.51100000000E-03 0.  1.
         23    2    1    2    0    0  0.00000000000E+00 -0.88817841970E-15  0.00000000000E+00  0.91188000000E+02  0.91188000000E+02 0.  0.
    9900012    2    3    3    0    0 -0.12271882214E+02 -0.34409666238E+01  0.41487155084E+02  0.47787269807E+02  0.19999994356E+02 0.  0.
        -12    1    3    3    0    0  0.12271882214E+02  0.34409666238E+01 -0.41487155084E+02  0.43400730193E+02  0.00000000000E+00 0.  1.
         11    1    4    4    0    0 -0.10723003493E+02  0.14654479228E+01  0.15073912593E+02  0.18556755714E+02  0.51100000000E-03 0.  1.
        -11    1    4    4    0    0 -0.28262968775E+01  0.31582546166E+01  0.10996698969E+02  0.11785156543E+02  0.51100000000E-03 0. -1.
         12    1    4    4    0    0  0.12774181565E+01 -0.80646691631E+01  0.15416543522E+02  0.17445357549E+02  0.00000000000E+00 0. -1.
</event>
<event>
 8    1  0.2994958E-010  0.9118800E+02  0.7816164E-02  0.1184000E+00
        -11   -1    0    0    0    0  0.00000000000E+00  0.00000000000E+00  0.45593999997E+02  0.45594000000E+02  0.51100000000E-03 0. -1.
         11   -1    0    0    0    0 -0.00000000000E+00 -0.00000000000E+00 -0.45593999997E+02  0.45594000000E+02  0.51100000000E-03 0.  1.
         23    2    1    2    0    0 -0.35527136788E-14  0.00000000000E+00 -0.71054273576E-14  0.91188000000E+02  0.91188000000E+02 0.  0.
    9900012    2    3    3    0    0 -0.23664968409E+02 -0.71825015059E+01 -0.35665163817E+02  0.47787274571E+02  0.20000016078E+02 0.  0.
         12    1    3    3    0    0  0.23664968409E+02  0.71825015059E+01  0.35665163817E+02  0.43400725429E+02  0.00000000000E+00 0. -1.
         11    1    4    4    0    0 -0.99658868045E-01  0.75089375785E+00 -0.65041701577E+01  0.65481297351E+01  0.51100000000E-03 0. -1.
        -11    1    4    4    0    0 -0.16180247939E+02  0.19040582241E+01 -0.12528625425E+02  0.20552185197E+02  0.51100000000E-03 0.  1.
        -12    1    4    4    0    0 -0.73850616024E+01 -0.98374534879E+01 -0.16632368235E+02  0.20686959639E+02  0.00000000000E+00 0.  1.
</event>
<event>
 8    1  0.2994958E-010  0.9118800E+02  0.7816164E-02  0.1184000E+00
        -11   -1    0    0    0    0  0.00000000000E+00  0.00000000000E+00  0.45593999997E+02  0.45594000000E+02  0.51100000000E-03 0. -1.
         11   -1    0    0    0    0 -0.00000000000E+00 -0.00000000000E+00 -0.45593999997E+02  0.45594000000E+02  0.51100000000E-03 0.  1.
         23    2    1    2    0    0  0.00000000000E+00  0.00000000000E+00  0.00000000000E+00  0.91188000000E+02  0.91188000000E+02 0.  0.
    9900012    2    3    3    0    0 -0.66569600951E+01 -0.38490708951E+02 -0.18914904920E+02  0.47787269345E+02  0.19999992251E+02 0.  0.
         12    1    3    3    0    0  0.66569600951E+01  0.38490708951E+02  0.18914904920E+02  0.43400730655E+02  0.00000000000E+00 0. -1.
         11    1    4    4    0    0  0.22505945830E+01 -0.10243624610E+02 -0.61036281458E+01  0.12134714580E+02  0.51100000000E-03 0. -1.
        -11    1    4    4    0    0 -0.69274796989E+01 -0.26377590025E+02 -0.15872992845E+02  0.31555017550E+02  0.51100000000E-03 0.  1.
        -12    1    4    4    0    0 -0.19800749792E+01 -0.18694943164E+01  0.30617160713E+01  0.40975372144E+01  0.00000000000E+00 0.  1.
</event>
<event>
 8    1  0.2994958E-010  0.9118800E+02  0.7816164E-02  0.1184000E+00
        -11   -1    0    0    0    0  0.00000000000E+00  0.00000000000E+00  0.45593999997E+02  0.45594000000E+02  0.51100000000E-03 0. -1.
         11   -1    0    0    0    0 -0.00000000000E+00 -0.00000000000E+00 -0.45593999997E+02  0.45594000000E+02  0.51100000000E-03 0.  1.
         23    2    1    2    0    0  0.00000000000E+00  0.00000000000E+00  0.00000000000E+00  0.91188000000E+02  0.91188000000E+02 0.  0.
    9900012    2    3    3    0    0  0.28283988816E+02 -0.11587868252E+01 -0.32898261508E+02  0.47787280876E+02  0.20000044828E+02 0.  0.
         12    1    3    3    0    0 -0.28283988816E+02  0.11587868252E+01  0.32898261508E+02  0.43400719124E+02  0.00000000000E+00 0. -1.
         11    1    4    4    0    0  0.41135772382E+01 -0.15313890720E+01  0.89656980931E+00  0.44800120388E+01  0.51100000000E-03 0. -1.
        -11    1    4    4    0    0  0.45100248524E+01  0.10209233687E+01 -0.52059795054E+00  0.46533462349E+01  0.51100000000E-03 0.  1.
        -12    1    4    4    0    0  0.19660386725E+02 -0.64832112190E+00 -0.33274233366E+02  0.38653922603E+02  0.00000000000E+00 0.  1.
</event>
<event>
 8    1  0.2994958E-010  0.9118800E+02  0.7816164E-02  0.1184000E+00
        -11   -1    0    0    0    0  0.00000000000E+00  0.00000000000E+00  0.45593999997E+02  0.45594000000E+02  0.51100000000E-03 0. -1.
         11   -1    0    0    0    0 -0.00000000000E+00 -0.00000000000E+00 -0.45593999997E+02  0.45594000000E+02  0.51100000000E-03 0.  1.
         23    2    1    2    0    0  0.88817841970E-15  0.00000000000E+00  0.00000000000E+00  0.91188000000E+02  0.91188000000E+02 0.  0.
    9900012    2    3    3    0    0  0.28036793961E+01  0.24928089417E+02 -0.35416844167E+02  0.47787272922E+02  0.20000008562E+02 0.  0.
         12    1    3    3    0    0 -0.28036793961E+01 -0.24928089417E+02  0.35416844167E+02  0.43400727078E+02  0.00000000000E+00 0. -1.
         11    1    4    4    0    0  0.42652518006E+01  0.11239558636E+02 -0.74964412022E+01  0.14167451507E+02  0.51100000000E-03 0. -1.
        -11    1    4    4    0    0  0.47991816550E+01  0.29926829947E+01 -0.13304493443E+02  0.14456757662E+02  0.51100000000E-03 0.  1.
         12    1    4    4    0    0 -0.62607540594E+01  0.10695847787E+02 -0.14615909521E+02  0.19163063753E+02  0.00000000000E+00 0. -1.
</event>
<event>
 8    1  0.2994958E-010  0.9118800E+02  0.7816164E-02  0.1184000E+00
        -11   -1    0    0    0    0  0.00000000000E+00  0.00000000000E+00  0.45593999997E+02  0.45594000000E+02  0.51100000000E-03 0. -1.
         11   -1    0    0    0    0 -0.00000000000E+00 -0.00000000000E+00 -0.45593999997E+02  0.45594000000E+02  0.51100000000E-03 0.  1.
         23    2    1    2    0    0  0.00000000000E+00 -0.35527136788E-14 -0.88817841970E-15  0.91188000000E+02  0.91188000000E+02 0.  0.
    9900012    2    3    3    0    0  0.30003548415E+02 -0.30427883395E+02 -0.75864521236E+01  0.47787271191E+02  0.20000000667E+02 0.  0.
         12    1    3    3    0    0 -0.30003548415E+02  0.30427883395E+02  0.75864521236E+01  0.43400728809E+02  0.00000000000E+00 0. -1.
         11    1    4    4    0    0  0.64869136977E+01 -0.13330341401E+02  0.40802655803E+01  0.15376170481E+02  0.51100000000E-03 0. -1.
        -11    1    4    4    0    0  0.49546303641E+01 -0.56860358335E+01  0.30811897502E+00  0.75481324253E+01  0.51100000000E-03 0.  1.
         12    1    4    4    0    0  0.18562004353E+02 -0.11411506160E+02 -0.11974836679E+02  0.24862968285E+02  0.00000000000E+00 0. -1.
</event>
<event>
 8    1  0.2994958E-010  0.9118800E+02  0.7816164E-02  0.1184000E+00
        -11   -1    0    0    0    0  0.00000000000E+00  0.00000000000E+00  0.45593999997E+02  0.45594000000E+02  0.51100000000E-03 0. -1.
         11   -1    0    0    0    0 -0.00000000000E+00 -0.00000000000E+00 -0.45593999997E+02  0.45594000000E+02  0.51100000000E-03 0.  1.
         23    2    1    2    0    0  0.35527136788E-14 -0.35527136788E-14  0.00000000000E+00  0.91188000000E+02  0.91188000000E+02 0.  0.
    9900012    2    3    3    0    0 -0.28992776367E+02  0.22614729975E+02  0.23056802292E+02  0.47787271605E+02  0.20000002556E+02 0.  0.
        -12    1    3    3    0    0  0.28992776367E+02 -0.22614729975E+02 -0.23056802292E+02  0.43400728395E+02  0.00000000000E+00 0.  1.
         11    1    4    4    0    0 -0.66255165707E+01  0.16969575413E+00 -0.10641956208E+01  0.67125836350E+01  0.51100000000E-03 0. -1.
        -11    1    4    4    0    0  0.10224927415E+01  0.51504002038E+00  0.12222887193E+01  0.16747380701E+01  0.51100000000E-03 0.  1.
         12    1    4    4    0    0 -0.23389752537E+02  0.21929994201E+02  0.22898709193E+02  0.39399949900E+02  0.00000000000E+00 0. -1.
</event>
<event>
 8    1  0.2994958E-010  0.9118800E+02  0.7816164E-02  0.1184000E+00
        -11   -1    0    0    0    0  0.00000000000E+00  0.00000000000E+00  0.45593999997E+02  0.45594000000E+02  0.51100000000E-03 0. -1.
         11   -1    0    0    0    0 -0.00000000000E+00 -0.00000000000E+00 -0.45593999997E+02  0.45594000000E+02  0.51100000000E-03 0.  1.
         23    2    1    2    0    0  0.00000000000E+00  0.00000000000E+00  0.71054273576E-14  0.91188000000E+02  0.91188000000E+02 0.  0.
    9900012    2    3    3    0    0  0.40222301363E+01 -0.26817844732E+02  0.33885808395E+02  0.47787272565E+02  0.20000006931E+02 0.  0.
        -12    1    3    3    0    0 -0.40222301363E+01  0.26817844732E+02 -0.33885808395E+02  0.43400727435E+02  0.00000000000E+00 0.  1.
         11    1    4    4    0    0  0.25333262017E+01 -0.10306995029E+02  0.81611537022E+01  0.13388663794E+02  0.51100000000E-03 0. -1.
        -11    1    4    4    0    0  0.61639520755E+01 -0.73171520598E+01  0.20953578783E+02  0.23034484660E+02  0.51100000000E-03 0.  1.
        -12    1    4    4    0    0 -0.46750481409E+01 -0.91936976432E+01  0.47710759092E+01  0.11364124111E+02  0.00000000000E+00 0.  1.
</event>
<event>
 8    1  0.2994958E-010  0.9118800E+02  0.7816164E-02  0.1184000E+00
        -11   -1    0    0    0    0  0.00000000000E+00  0.00000000000E+00  0.45593999997E+02  0.45594000000E+02  0.51100000000E-03 0. -1.
         11   -1    0    0    0    0 -0.00000000000E+00 -0.00000000000E+00 -0.45593999997E+02  0.45594000000E+02  0.51100000000E-03 0.  1.
         23    2    1    2    0    0  0.00000000000E+00  0.00000000000E+00  0.35527136788E-14  0.91188000000E+02  0.91188000000E+02 0.  0.
    9900012    2    3    3    0    0  0.17782889941E+02  0.29950011236E+02  0.25891869568E+02  0.47787271234E+02  0.20000000864E+02 0.  0.
        -12    1    3    3    0    0 -0.17782889941E+02 -0.29950011236E+02 -0.25891869568E+02  0.43400728766E+02  0.00000000000E+00 0.  1.
         11    1    4    4    0    0  0.80780897332E+01  0.98346778959E+01  0.70573191246E+01  0.14552737768E+02  0.51100000000E-03 0. -1.
        -11    1    4    4    0    0  0.45980425466E+01  0.16231274912E+02  0.43940242671E+01  0.17432834825E+02  0.51100000000E-03 0.  1.
        -12    1    4    4    0    0  0.51067576609E+01  0.38840584283E+01  0.14440526177E+02  0.15801698641E+02  0.00000000000E+00 0.  1.
</event>
<event>
 8    1  0.2994958E-010  0.9118800E+02  0.7816164E-02  0.1184000E+00
        -11   -1    0    0    0    0  0.00000000000E+00  0.00000000000E+00  0.45593999997E+02  0.45594000000E+02  0.51100000000E-03 0. -1.
         11   -1    0    0    0    0 -0.00000000000E+00 -0.00000000000E+00 -0.45593999997E+02  0.45594000000E+02  0.51100000000E-03 0.  1.
         23    2    1    2    0    0  0.88817841970E-15  0.00000000000E+00  0.00000000000E+00  0.91188000000E+02  0.91188000000E+02 0.  0.
    9900012    2    3    3    0    0  0.52782704079E+01 -0.17179205705E+02  0.39504911400E+02  0.47787271068E+02  0.20000000106E+02 0.  0.
        -12    1    3    3    0    0 -0.52782704079E+01  0.17179205705E+02 -0.39504911400E+02  0.43400728932E+02  0.00000000000E+00 0.  1.
         11    1    4    4    0    0  0.70883224026E+01 -0.32095258908E+01  0.89691869745E+01  0.11873992007E+02  0.51100000000E-03 0. -1.
        -11    1    4    4    0    0  0.32001981740E+01 -0.51573063472E+00  0.12213632567E+02  0.12636457858E+02  0.51100000000E-03 0.  1.
         12    1    4    4    0    0 -0.50102501688E+01 -0.13453949180E+02  0.18322091858E+02  0.23276821203E+02  0.00000000000E+00 0. -1.
</event>
<event>
 8    1  0.2994958E-010  0.9118800E+02  0.7816164E-02  0.1184000E+00
        -11   -1    0    0    0    0  0.00000000000E+00  0.00000000000E+00  0.45593999997E+02  0.45594000000E+02  0.51100000000E-03 0. -1.
         11   -1    0    0    0    0 -0.00000000000E+00 -0.00000000000E+00 -0.45593999997E+02  0.45594000000E+02  0.51100000000E-03 0.  1.
         23    2    1    2    0    0 -0.88817841970E-15  0.00000000000E+00  0.71054273576E-14  0.91188000000E+02  0.91188000000E+02 0.  0.
    9900012    2    3    3    0    0  0.69424603185E+01 -0.58287670928E+01 -0.42443500983E+02  0.47787273546E+02  0.20000011405E+02 0.  0.
         12    1    3    3    0    0 -0.69424603185E+01  0.58287670928E+01  0.42443500983E+02  0.43400726454E+02  0.00000000000E+00 0. -1.
         11    1    4    4    0    0  0.60998881856E+01 -0.62755823151E+01 -0.18066314463E+02  0.20074443648E+02  0.51100000000E-03 0. -1.
        -11    1    4    4    0    0  0.37015299927E+01 -0.16344267174E+01 -0.23785721901E+02  0.24127437527E+02  0.51100000000E-03 0.  1.
        -12    1    4    4    0    0 -0.28589578597E+01  0.20812419397E+01 -0.59146461863E+00  0.35853923705E+01  0.00000000000E+00 0.  1.
</event>
<event>
 8    1  0.2994958E-010  0.9118800E+02  0.7816164E-02  0.1184000E+00
        -11   -1    0    0    0    0  0.00000000000E+00  0.00000000000E+00  0.45593999997E+02  0.45594000000E+02  0.51100000000E-03 0. -1.
         11   -1    0    0    0    0 -0.00000000000E+00 -0.00000000000E+00 -0.45593999997E+02  0.45594000000E+02  0.51100000000E-03 0.  1.
         23    2    1    2    0    0  0.71054273576E-14 -0.88817841970E-15  0.35527136788E-14  0.91188000000E+02  0.91188000000E+02 0.  0.
    9900012    2    3    3    0    0  0.30824596891E+02  0.49705416408E+01  0.30145666519E+02  0.47787271117E+02  0.20000000330E+02 0.  0.
        -12    1    3    3    0    0 -0.30824596891E+02 -0.49705416408E+01 -0.30145666519E+02  0.43400728883E+02  0.00000000000E+00 0.  1.
         11    1    4    4    0    0  0.11289799313E+02  0.35689303092E+01  0.20151218084E+02  0.23372385899E+02  0.51100000000E-03 0. -1.
        -11    1    4    4    0    0  0.28892916517E+01  0.44099921476E+01  0.33203985003E+01  0.62306567433E+01  0.51100000000E-03 0.  1.
         12    1    4    4    0    0  0.16645505926E+02 -0.30083808160E+01  0.66740499344E+01  0.18184228474E+02  0.00000000000E+00 0. -1.
</event>
<event>
 8    1  0.2994958E-010  0.9118800E+02  0.7816164E-02  0.1184000E+00
        -11   -1    0    0    0    0  0.00000000000E+00  0.00000000000E+00  0.45593999997E+02  0.45594000000E+02  0.51100000000E-03 0. -1.
         11   -1    0    0    0    0 -0.00000000000E+00 -0.00000000000E+00 -0.45593999997E+02  0.45594000000E+02  0.51100000000E-03 0.  1.
         23    2    1    2    0    0 -0.17763568394E-14  0.22204460493E-15  0.71054273576E-14  0.91188000000E+02  0.91188000000E+02 0.  0.
    9900012    2    3    3    0    0  0.97378968382E+01  0.13571592937E+01  0.42272384918E+02  0.47787273706E+02  0.20000012135E+02 0.  0.
        -12    1    3    3    0    0 -0.97378968382E+01 -0.13571592937E+01 -0.42272384918E+02  0.43400726294E+02  0.00000000000E+00 0.  1.
         11    1    4    4    0    0  0.63431147972E+01  0.23045259253E+01  0.76581573563E+01  0.10207512891E+02  0.51100000000E-03 0. -1.
        -11    1    4    4    0    0  0.41103533009E+01 -0.37096975687E+01  0.39945112007E+01  0.68273699404E+01  0.51100000000E-03 0.  1.
        -12    1    4    4    0    0 -0.71557125992E+00  0.27623309370E+01  0.30619716361E+02  0.30752390874E+02  0.00000000000E+00 0.  1.
</event>
<event>
 8    1  0.2994958E-010  0.9118800E+02  0.7816164E-02  0.1184000E+00
        -11   -1    0    0    0    0  0.00000000000E+00  0.00000000000E+00  0.45593999997E+02  0.45594000000E+02  0.51100000000E-03 0.  1.
         11   -1    0    0    0    0 -0.00000000000E+00 -0.00000000000E+00 -0.45593999997E+02  0.45594000000E+02  0.51100000000E-03 0. -1.
         23    2    1    2    0    0  0.71054273576E-14  0.00000000000E+00  0.00000000000E+00  0.91188000000E+02  0.91188000000E+02 0.  0.
    9900012    2    3    3    0    0 -0.32909496515E+02  0.27861163632E+02  0.49339341307E+01  0.47787272981E+02  0.20000008828E+02 0.  0.
        -12    1    3    3    0    0  0.32909496515E+02 -0.27861163632E+02 -0.49339341307E+01  0.43400727019E+02  0.00000000000E+00 0.  1.
         11    1    4    4    0    0 -0.12137359292E+02  0.15542837586E+02  0.27315123043E+01  0.19908702884E+02  0.51100000000E-03 0. -1.
        -11    1    4    4    0    0 -0.17997292470E+02  0.11379672248E+02  0.68647321931E+01  0.22372394263E+02  0.51100000000E-03 0.  1.
        -12    1    4    4    0    0 -0.27748447533E+01  0.93865379844E+00 -0.46623103667E+01  0.55061758339E+01  0.00000000000E+00 0.  1.
</event>
<event>
 8    1  0.2994958E-010  0.9118800E+02  0.7816164E-02  0.1184000E+00
        -11   -1    0    0    0    0  0.00000000000E+00  0.00000000000E+00  0.45593999997E+02  0.45594000000E+02  0.51100000000E-03 0. -1.
         11   -1    0    0    0    0 -0.00000000000E+00 -0.00000000000E+00 -0.45593999997E+02  0.45594000000E+02  0.51100000000E-03 0.  1.
         23    2    1    2    0    0 -0.35527136788E-14 -0.35527136788E-14 -0.35527136788E-14  0.91188000000E+02  0.91188000000E+02 0.  0.
    9900012    2    3    3    0    0 -0.17393391120E+02 -0.27797235874E+02 -0.28432488397E+02  0.47787276811E+02  0.20000026293E+02 0.  0.
         12    1    3    3    0    0  0.17393391120E+02  0.27797235874E+02  0.28432488397E+02  0.43400723189E+02  0.00000000000E+00 0. -1.
         11    1    4    4    0    0  0.10377251596E+01 -0.10436995050E+02 -0.74185774302E+01  0.12846907431E+02  0.51100000000E-03 0. -1.
        -11    1    4    4    0    0 -0.58408228878E+01 -0.70732999494E+01 -0.15044820531E+02  0.17620823172E+02  0.51100000000E-03 0.  1.
         12    1    4    4    0    0 -0.12590293391E+02 -0.10286940874E+02 -0.59690904355E+01  0.17319546208E+02  0.00000000000E+00 0. -1.
</event>
<event>
 8    1  0.2994958E-010  0.9118800E+02  0.7816164E-02  0.1184000E+00
        -11   -1    0    0    0    0  0.00000000000E+00  0.00000000000E+00  0.45593999997E+02  0.45594000000E+02  0.51100000000E-03 0. -1.
         11   -1    0    0    0    0 -0.00000000000E+00 -0.00000000000E+00 -0.45593999997E+02  0.45594000000E+02  0.51100000000E-03 0.  1.
         23    2    1    2    0    0  0.17763568394E-14  0.00000000000E+00  0.00000000000E+00  0.91188000000E+02  0.91188000000E+02 0.  0.
    9900012    2    3    3    0    0 -0.95501768938E+01 -0.28331669732E+02 -0.31460021936E+02  0.47787281472E+02  0.20000047544E+02 0.  0.
         12    1    3    3    0    0  0.95501768938E+01  0.28331669732E+02  0.31460021936E+02  0.43400718528E+02  0.00000000000E+00 0. -1.
         11    1    4    4    0    0 -0.56362348927E+01 -0.12107016396E+02 -0.11751446679E+02  0.17788858566E+02  0.51100000000E-03 0. -1.
        -11    1    4    4    0    0 -0.88649225476E+01 -0.12949337431E+02 -0.17872995122E+02  0.23784788133E+02  0.51100000000E-03 0.  1.
         12    1    4    4    0    0  0.49509805466E+01 -0.32753159053E+01 -0.18355801352E+01  0.62136347724E+01  0.00000000000E+00 0. -1.
</event>
<event>
 8    1  0.2994958E-010  0.9118800E+02  0.7816164E-02  0.1184000E+00
        -11   -1    0    0    0    0  0.00000000000E+00  0.00000000000E+00  0.45593999997E+02  0.45594000000E+02  0.51100000000E-03 0. -1.
         11   -1    0    0    0    0 -0.00000000000E+00 -0.00000000000E+00 -0.45593999997E+02  0.45594000000E+02  0.51100000000E-03 0.  1.
         23    2    1    2    0    0  0.88817841970E-15  0.00000000000E+00  0.00000000000E+00  0.91188000000E+02  0.91188000000E+02 0.  0.
    9900012    2    3    3    0    0 -0.76656971767E+01 -0.26639578505E+02 -0.33394514728E+02  0.47787266480E+02  0.19999979188E+02 0.  0.
         12    1    3    3    0    0  0.76656971767E+01  0.26639578505E+02  0.33394514728E+02  0.43400733520E+02  0.00000000000E+00 0. -1.
         11    1    4    4    0    0 -0.24654069966E+01 -0.10633152992E+02 -0.10364347757E+02  0.15051972592E+02  0.51100000000E-03 0. -1.
        -11    1    4    4    0    0  0.55086872440E+01 -0.49430938221E+01 -0.45779063527E+01  0.87027029434E+01  0.51100000000E-03 0.  1.
        -12    1    4    4    0    0 -0.10708977424E+02 -0.11063331691E+02 -0.18452260619E+02  0.24032590945E+02  0.00000000000E+00 0.  1.
</event>
<event>
 8    1  0.2994958E-010  0.9118800E+02  0.7816164E-02  0.1184000E+00
        -11   -1    0    0    0    0  0.00000000000E+00  0.00000000000E+00  0.45593999997E+02  0.45594000000E+02  0.51100000000E-03 0. -1.
         11   -1    0    0    0    0 -0.00000000000E+00 -0.00000000000E+00 -0.45593999997E+02  0.45594000000E+02  0.51100000000E-03 0.  1.
         23    2    1    2    0    0  0.00000000000E+00 -0.17763568394E-14  0.00000000000E+00  0.91188000000E+02  0.91188000000E+02 0.  0.
    9900012    2    3    3    0    0 -0.23211239702E+02 -0.15081979244E+02  0.33427474403E+02  0.47787265082E+02  0.19999972814E+02 0.  0.
        -12    1    3    3    0    0  0.23211239702E+02  0.15081979244E+02 -0.33427474403E+02  0.43400734918E+02  0.00000000000E+00 0.  1.
         11    1    4    4    0    0 -0.27612638622E+01  0.22956849601E+01  0.70162571426E+01  0.78817899049E+01  0.51100000000E-03 0. -1.
        -11    1    4    4    0    0  0.13507267862E+01 -0.24448155647E+01  0.39116824201E+00  0.28203898402E+01  0.51100000000E-03 0.  1.
        -12    1    4    4    0    0 -0.21800702626E+02 -0.14932848640E+02  0.26020049019E+02  0.37085085337E+02  0.00000000000E+00 0.  1.
</event>
<event>
 8    1  0.2994958E-010  0.9118800E+02  0.7816164E-02  0.1184000E+00
        -11   -1    0    0    0    0  0.00000000000E+00  0.00000000000E+00  0.45593999997E+02  0.45594000000E+02  0.51100000000E-03 0. -1.
         11   -1    0    0    0    0 -0.00000000000E+00 -0.00000000000E+00 -0.45593999997E+02  0.45594000000E+02  0.51100000000E-03 0.  1.
         23    2    1    2    0    0  0.44408920985E-15  0.00000000000E+00  0.35527136788E-14  0.91188000000E+02  0.91188000000E+02 0.  0.
    9900012    2    3    3    0    0 -0.25056435933E+01 -0.32149450148E+02 -0.29047513557E+02  0.47787269148E+02  0.19999991354E+02 0.  0.
         12    1    3    3    0    0  0.25056435933E+01  0.32149450148E+02  0.29047513557E+02  0.43400730852E+02  0.00000000000E+00 0. -1.
         11    1    4    4    0    0 -0.53756624479E+01 -0.13110251882E+02 -0.16380898958E+02  0.21658954317E+02  0.51100000000E-03 0.  1.
        -11    1    4    4    0    0  0.79512728249E+00 -0.10210945240E+02 -0.13584954835E+02  0.17013131053E+02  0.51100000000E-03 0. -1.
         12    1    4    4    0    0  0.20748915721E+01 -0.88282530255E+01  0.91834023633E+00  0.91151837781E+01  0.00000000000E+00 0. -1.
</event>
<event>
 8    1  0.2994958E-010  0.9118800E+02  0.7816164E-02  0.1184000E+00
        -11   -1    0    0    0    0  0.00000000000E+00  0.00000000000E+00  0.45593999997E+02  0.45594000000E+02  0.51100000000E-03 0. -1.
         11   -1    0    0    0    0 -0.00000000000E+00 -0.00000000000E+00 -0.45593999997E+02  0.45594000000E+02  0.51100000000E-03 0.  1.
         23    2    1    2    0    0  0.00000000000E+00  0.00000000000E+00  0.00000000000E+00  0.91188000000E+02  0.91188000000E+02 0.  0.
    9900012    2    3    3    0    0  0.46648783054E+01 -0.41661836126E+02 -0.11231821021E+02  0.47787268642E+02  0.19999989044E+02 0.  0.
        -12    1    3    3    0    0 -0.46648783054E+01  0.41661836126E+02  0.11231821021E+02  0.43400731358E+02  0.00000000000E+00 0.  1.
         11    1    4    4    0    0  0.53265402431E-01 -0.10808400660E+02  0.34510024092E+01  0.11346090953E+02  0.51100000000E-03 0. -1.
        -11    1    4    4    0    0 -0.30991184585E+01 -0.12590153525E+02 -0.25976207408E+01  0.13223620335E+02  0.51100000000E-03 0.  1.
        -12    1    4    4    0    0  0.77107313615E+01 -0.18263281941E+02 -0.12085202690E+02  0.23217557353E+02  0.00000000000E+00 0.  1.
</event>
<event>
 8    1  0.2994958E-010  0.9118800E+02  0.7816164E-02  0.1184000E+00
        -11   -1    0    0    0    0  0.00000000000E+00  0.00000000000E+00  0.45593999997E+02  0.45594000000E+02  0.51100000000E-03 0. -1.
         11   -1    0    0    0    0 -0.00000000000E+00 -0.00000000000E+00 -0.45593999997E+02  0.45594000000E+02  0.51100000000E-03 0.  1.
         23    2    1    2    0    0  0.88817841970E-15  0.00000000000E+00  0.00000000000E+00  0.91188000000E+02  0.91188000000E+02 0.  0.
    9900012    2    3    3    0    0 -0.66678835353E+01  0.37183394788E+02  0.21367209582E+02  0.47787272309E+02  0.20000005765E+02 0.  0.
        -12    1    3    3    0    0  0.66678835353E+01 -0.37183394788E+02 -0.21367209582E+02  0.43400727691E+02  0.00000000000E+00 0.  1.
         11    1    4    4    0    0  0.31275970610E+01  0.18677613277E+02  0.70668149973E+01  0.20213237632E+02  0.51100000000E-03 0.  1.
        -11    1    4    4    0    0 -0.18933221919E+01  0.11740646605E+02  0.12051583226E+02  0.16931276093E+02  0.51100000000E-03 0. -1.
         12    1    4    4    0    0 -0.79021584045E+01  0.67651349069E+01  0.22488113581E+01  0.10642758584E+02  0.00000000000E+00 0. -1.
</event>
<event>
 8    1  0.2994958E-010  0.9118800E+02  0.7816164E-02  0.1184000E+00
        -11   -1    0    0    0    0  0.00000000000E+00  0.00000000000E+00  0.45593999997E+02  0.45594000000E+02  0.51100000000E-03 0. -1.
         11   -1    0    0    0    0 -0.00000000000E+00 -0.00000000000E+00 -0.45593999997E+02  0.45594000000E+02  0.51100000000E-03 0.  1.
         23    2    1    2    0    0  0.22204460493E-15  0.00000000000E+00  0.00000000000E+00  0.91188000000E+02  0.91188000000E+02 0.  0.
    9900012    2    3    3    0    0  0.59720370523E+00 -0.30979038465E+02  0.30390224994E+02  0.47787271300E+02  0.20000001165E+02 0.  0.
        -12    1    3    3    0    0 -0.59720370523E+00  0.30979038465E+02 -0.30390224994E+02  0.43400728700E+02  0.00000000000E+00 0.  1.
         11    1    4    4    0    0  0.19556782965E+01 -0.22773840364E+02  0.19028305030E+02  0.29741366396E+02  0.51100000000E-03 0. -1.
        -11    1    4    4    0    0 -0.47850144436E+00 -0.73038329433E+01  0.74813057556E+00  0.73576245430E+01  0.51100000000E-03 0.  1.
         12    1    4    4    0    0 -0.87997314696E+00 -0.90136515757E+00  0.10613789389E+02  0.10688280361E+02  0.00000000000E+00 0. -1.
</event>
<event>
 8    1  0.2994958E-010  0.9118800E+02  0.7816164E-02  0.1184000E+00
        -11   -1    0    0    0    0  0.00000000000E+00  0.00000000000E+00  0.45593999997E+02  0.45594000000E+02  0.51100000000E-03 0. -1.
         11   -1    0    0    0    0 -0.00000000000E+00 -0.00000000000E+00 -0.45593999997E+02  0.45594000000E+02  0.51100000000E-03 0.  1.
         23    2    1    2    0    0  0.00000000000E+00  0.35527136788E-14 -0.71054273576E-14  0.91188000000E+02  0.91188000000E+02 0.  0.
    9900012    2    3    3    0    0 -0.26422586554E+02  0.15047619523E+02 -0.30968369586E+02  0.47787264426E+02  0.19999969824E+02 0.  0.
         12    1    3    3    0    0  0.26422586554E+02 -0.15047619523E+02  0.30968369586E+02  0.43400735574E+02  0.00000000000E+00 0. -1.
         11    1    4    4    0    0 -0.14986384510E+02  0.75256617901E+01 -0.19708131561E+02  0.25877359910E+02  0.51100000000E-03 0. -1.
        -11    1    4    4    0    0 -0.81959693792E+01  0.64903972160E+01 -0.14049022577E+02  0.17512115969E+02  0.51100000000E-03 0.  1.
         12    1    4    4    0    0 -0.32402326655E+01  0.10315605167E+01  0.27887845516E+01  0.43977885467E+01  0.00000000000E+00 0. -1.
</event>
<event>
 8    1  0.2994958E-010  0.9118800E+02  0.7816164E-02  0.1184000E+00
        -11   -1    0    0    0    0  0.00000000000E+00  0.00000000000E+00  0.45593999997E+02  0.45594000000E+02  0.51100000000E-03 0.  1.
         11   -1    0    0    0    0 -0.00000000000E+00 -0.00000000000E+00 -0.45593999997E+02  0.45594000000E+02  0.51100000000E-03 0. -1.
         23    2    1    2    0    0  0.00000000000E+00  0.00000000000E+00  0.00000000000E+00  0.91188000000E+02  0.91188000000E+02 0.  0.
    9900012    2    3    3    0    0 -0.40902197007E+02 -0.14464774499E+02 -0.11849055067E+01  0.47787269334E+02  0.19999992202E+02 0.  0.
        -12    1    3    3    0    0  0.40902197007E+02  0.14464774499E+02  0.11849055067E+01  0.43400730666E+02  0.00000000000E+00 0.  1.
         11    1    4    4    0    0 -0.34788745054E+01 -0.98567139505E+00  0.77819421895E-01  0.36166520495E+01  0.51100000000E-03 0.  1.
        -11    1    4    4    0    0 -0.29000253198E+02 -0.16609166430E+02  0.41563404530E+01  0.33677206851E+02  0.51100000000E-03 0. -1.
        -12    1    4    4    0    0 -0.84230693035E+01  0.31300633267E+01 -0.54190653816E+01  0.10493410434E+02  0.00000000000E+00 0.  1.
</event>
<event>
 8    1  0.2994958E-010  0.9118800E+02  0.7816164E-02  0.1184000E+00
        -11   -1    0    0    0    0  0.00000000000E+00  0.00000000000E+00  0.45593999997E+02  0.45594000000E+02  0.51100000000E-03 0. -1.
         11   -1    0    0    0    0 -0.00000000000E+00 -0.00000000000E+00 -0.45593999997E+02  0.45594000000E+02  0.51100000000E-03 0.  1.
         23    2    1    2    0    0 -0.44408920985E-15 -0.22204460493E-15  0.00000000000E+00  0.91188000000E+02  0.91188000000E+02 0.  0.
    9900012    2    3    3    0    0 -0.22197734305E+01  0.13756328171E+01 -0.43322087913E+02  0.47787273498E+02  0.20000011187E+02 0.  0.
         12    1    3    3    0    0  0.22197734305E+01 -0.13756328171E+01  0.43322087913E+02  0.43400726502E+02  0.00000000000E+00 0. -1.
         11    1    4    4    0    0  0.47238198482E+01 -0.18296925993E+01 -0.18468556272E+02  0.19150713303E+02  0.51100000000E-03 0. -1.
        -11    1    4    4    0    0 -0.36807562372E+01 -0.10361587769E+01 -0.22444717797E+02  0.22768112542E+02  0.51100000000E-03 0.  1.
         12    1    4    4    0    0 -0.32628370414E+01  0.42414841933E+01 -0.24088138443E+01  0.58684476531E+01  0.00000000000E+00 0. -1.
</event>
<event>
 8    1  0.2994958E-010  0.9118800E+02  0.7816164E-02  0.1184000E+00
        -11   -1    0    0    0    0  0.00000000000E+00  0.00000000000E+00  0.45593999997E+02  0.45594000000E+02  0.51100000000E-03 0. -1.
         11   -1    0    0    0    0 -0.00000000000E+00 -0.00000000000E+00 -0.45593999997E+02  0.45594000000E+02  0.51100000000E-03 0.  1.
         23    2    1    2    0    0  0.88817841970E-15 -0.17763568394E-14  0.00000000000E+00  0.91188000000E+02  0.91188000000E+02 0.  0.
    9900012    2    3    3    0    0 -0.45707514245E+01 -0.12526458285E+02  0.41301569082E+02  0.47787268043E+02  0.19999986315E+02 0.  0.
        -12    1    3    3    0    0  0.45707514245E+01  0.12526458285E+02 -0.41301569082E+02  0.43400731957E+02  0.00000000000E+00 0.  1.
         11    1    4    4    0    0  0.66630463230E+00 -0.90822268167E+00  0.14774973854E+02  0.14817850146E+02  0.51100000000E-03 0. -1.
        -11    1    4    4    0    0 -0.81374930422E+01 -0.13545051936E+01  0.15904501300E+02  0.17916658148E+02  0.51100000000E-03 0.  1.
        -12    1    4    4    0    0  0.29004369853E+01 -0.10263730410E+02  0.10622093928E+02  0.15052759749E+02  0.00000000000E+00 0.  1.
</event>
<event>
 8    1  0.2994958E-010  0.9118800E+02  0.7816164E-02  0.1184000E+00
        -11   -1    0    0    0    0  0.00000000000E+00  0.00000000000E+00  0.45593999997E+02  0.45594000000E+02  0.51100000000E-03 0. -1.
         11   -1    0    0    0    0 -0.00000000000E+00 -0.00000000000E+00 -0.45593999997E+02  0.45594000000E+02  0.51100000000E-03 0.  1.
         23    2    1    2    0    0  0.17763568394E-14  0.00000000000E+00 -0.35527136788E-14  0.91188000000E+02  0.91188000000E+02 0.  0.
    9900012    2    3    3    0    0 -0.15897791950E+02  0.31955451434E+02  0.24692763746E+02  0.47787271358E+02  0.20000001428E+02 0.  0.
        -12    1    3    3    0    0  0.15897791950E+02 -0.31955451434E+02 -0.24692763746E+02  0.43400728642E+02  0.00000000000E+00 0.  1.
         11    1    4    4    0    0 -0.50535979518E+01  0.11625492243E+02  0.64463219604E+01  0.14221321641E+02  0.51100000000E-03 0. -1.
        -11    1    4    4    0    0 -0.32018446152E+01  0.12206048852E+02  0.18518216167E+02  0.22409010862E+02  0.51100000000E-03 0.  1.
        -12    1    4    4    0    0 -0.76423493828E+01  0.81239103396E+01 -0.27177438167E+00  0.11156938855E+02  0.00000000000E+00 0.  1.
</event>
<event>
 8    1  0.2994958E-010  0.9118800E+02  0.7816164E-02  0.1184000E+00
        -11   -1    0    0    0    0  0.00000000000E+00  0.00000000000E+00  0.45593999997E+02  0.45594000000E+02  0.51100000000E-03 0.  1.
         11   -1    0    0    0    0 -0.00000000000E+00 -0.00000000000E+00 -0.45593999997E+02  0.45594000000E+02  0.51100000000E-03 0. -1.
         23    2    1    2    0    0  0.00000000000E+00  0.35527136788E-14 -0.66613381478E-15  0.91188000000E+02  0.91188000000E+02 0.  0.
    9900012    2    3    3    0    0  0.33642829500E+02 -0.27350415052E+02 -0.19320619752E+01  0.47787331298E+02  0.20000274719E+02 0.  0.
         12    1    3    3    0    0 -0.33642829500E+02  0.27350415052E+02  0.19320619752E+01  0.43400668702E+02  0.00000000000E+00 0. -1.
         11    1    4    4    0    0  0.28524037433E+02 -0.22247243074E+02  0.24009029371E+01  0.36253618730E+02  0.51100000000E-03 0.  1.
        -11    1    4    4    0    0  0.17444181815E+01  0.10490074377E+01  0.14017969793E+01  0.24715271451E+01  0.51100000000E-03 0. -1.
         12    1    4    4    0    0  0.33743738860E+01 -0.61521794158E+01 -0.57347618917E+01  0.90621854230E+01  0.00000000000E+00 0. -1.
</event>
<event>
 8    1  0.2994958E-010  0.9118800E+02  0.7816164E-02  0.1184000E+00
        -11   -1    0    0    0    0  0.00000000000E+00  0.00000000000E+00  0.45593999997E+02  0.45594000000E+02  0.51100000000E-03 0. -1.
         11   -1    0    0    0    0 -0.00000000000E+00 -0.00000000000E+00 -0.45593999997E+02  0.45594000000E+02  0.51100000000E-03 0.  1.
         23    2    1    2    0    0  0.00000000000E+00  0.00000000000E+00  0.00000000000E+00  0.91188000000E+02  0.91188000000E+02 0.  0.
    9900012    2    3    3    0    0  0.22977610711E+02 -0.11810422684E+02  0.34873579369E+02  0.47787271711E+02  0.20000003040E+02 0.  0.
        -12    1    3    3    0    0 -0.22977610711E+02  0.11810422684E+02 -0.34873579369E+02  0.43400728289E+02  0.00000000000E+00 0.  1.
         11    1    4    4    0    0  0.60209982129E+01 -0.72168625411E+01  0.82642854241E+01  0.12515348107E+02  0.51100000000E-03 0. -1.
        -11    1    4    4    0    0  0.19622808167E+02 -0.49974996816E+01  0.24835497609E+02  0.32044212350E+02  0.51100000000E-03 0.  1.
         12    1    4    4    0    0 -0.26661956686E+01  0.40393953830E+00  0.17737963363E+01  0.32277112536E+01  0.00000000000E+00 0. -1.
</event>
<event>
 8    1  0.2994958E-010  0.9118800E+02  0.7816164E-02  0.1184000E+00
        -11   -1    0    0    0    0  0.00000000000E+00  0.00000000000E+00  0.45593999997E+02  0.45594000000E+02  0.51100000000E-03 0. -1.
         11   -1    0    0    0    0 -0.00000000000E+00 -0.00000000000E+00 -0.45593999997E+02  0.45594000000E+02  0.51100000000E-03 0.  1.
         23    2    1    2    0    0  0.17763568394E-14 -0.88817841970E-15  0.00000000000E+00  0.91188000000E+02  0.91188000000E+02 0.  0.
    9900012    2    3    3    0    0  0.88505246183E+01  0.57932049853E+01 -0.42091915510E+02  0.47787281557E+02  0.20000047933E+02 0.  0.
         12    1    3    3    0    0 -0.88505246183E+01 -0.57932049853E+01  0.42091915510E+02  0.43400718443E+02  0.00000000000E+00 0. -1.
         11    1    4    4    0    0  0.60149645169E+01  0.88332885939E+01 -0.14236116856E+02  0.17800949664E+02  0.51100000000E-03 0. -1.
        -11    1    4    4    0    0  0.14192957767E+01 -0.21271512226E+01 -0.53364543608E+00  0.26122692316E+01  0.51100000000E-03 0.  1.
        -12    1    4    4    0    0  0.14162643247E+01 -0.91293238595E+00 -0.27322153218E+02  0.27374062662E+02  0.00000000000E+00 0.  1.
</event>
<event>
 8    1  0.2994958E-010  0.9118800E+02  0.7816164E-02  0.1184000E+00
        -11   -1    0    0    0    0  0.00000000000E+00  0.00000000000E+00  0.45593999997E+02  0.45594000000E+02  0.51100000000E-03 0. -1.
         11   -1    0    0    0    0 -0.00000000000E+00 -0.00000000000E+00 -0.45593999997E+02  0.45594000000E+02  0.51100000000E-03 0.  1.
         23    2    1    2    0    0  0.00000000000E+00 -0.71054273576E-14  0.00000000000E+00  0.91188000000E+02  0.91188000000E+02 0.  0.
    9900012    2    3    3    0    0  0.25554481326E+02  0.34833138761E+02  0.41526070344E+01  0.47787271700E+02  0.20000002990E+02 0.  0.
        -12    1    3    3    0    0 -0.25554481326E+02 -0.34833138761E+02 -0.41526070344E+01  0.43400728300E+02  0.00000000000E+00 0.  1.
         11    1    4    4    0    0  0.18997287037E+02  0.31879978110E+02 -0.34313212575E+01  0.37269342426E+02  0.51100000000E-03 0. -1.
        -11    1    4    4    0    0  0.18044283486E+01  0.13935428951E+01  0.21836331586E+01  0.31569253235E+01  0.51100000000E-03 0.  1.
         12    1    4    4    0    0  0.47527659408E+01  0.15596177556E+01  0.54002951333E+01  0.73610039504E+01  0.00000000000E+00 0. -1.
</event>
<event>
 8    1  0.2994958E-010  0.9118800E+02  0.7816164E-02  0.1184000E+00
        -11   -1    0    0    0    0  0.00000000000E+00  0.00000000000E+00  0.45593999997E+02  0.45594000000E+02  0.51100000000E-03 0. -1.
         11   -1    0    0    0    0 -0.00000000000E+00 -0.00000000000E+00 -0.45593999997E+02  0.45594000000E+02  0.51100000000E-03 0.  1.
         23    2    1    2    0    0 -0.35527136788E-14  0.00000000000E+00  0.00000000000E+00  0.91188000000E+02  0.91188000000E+02 0.  0.
    9900012    2    3    3    0    0  0.27420737838E+02  0.11802590881E+02 -0.31502782179E+02  0.47787270742E+02  0.19999998623E+02 0.  0.
         12    1    3    3    0    0 -0.27420737838E+02 -0.11802590881E+02  0.31502782179E+02  0.43400729258E+02  0.00000000000E+00 0. -1.
         11    1    4    4    0    0 -0.12405441085E+01  0.14403168172E+01 -0.51119442752E+01  0.54539377291E+01  0.51100000000E-03 0. -1.
        -11    1    4    4    0    0  0.17154773829E+02  0.47153895535E+01 -0.22994579080E+02  0.29073558969E+02  0.51100000000E-03 0.  1.
        -12    1    4    4    0    0  0.11506508117E+02  0.56468845099E+01 -0.33962588236E+01  0.13259774045E+02  0.00000000000E+00 0.  1.
</event>
<event>
 8    1  0.2994958E-010  0.9118800E+02  0.7816164E-02  0.1184000E+00
        -11   -1    0    0    0    0  0.00000000000E+00  0.00000000000E+00  0.45593999997E+02  0.45594000000E+02  0.51100000000E-03 0. -1.
         11   -1    0    0    0    0 -0.00000000000E+00 -0.00000000000E+00 -0.45593999997E+02  0.45594000000E+02  0.51100000000E-03 0.  1.
         23    2    1    2    0    0  0.44408920985E-15  0.00000000000E+00 -0.35527136788E-14  0.91188000000E+02  0.91188000000E+02 0.  0.
    9900012    2    3    3    0    0 -0.20225434342E+01  0.34603448469E+02 -0.26117681947E+02  0.47787278368E+02  0.20000033390E+02 0.  0.
         12    1    3    3    0    0  0.20225434342E+01 -0.34603448469E+02  0.26117681947E+02  0.43400721632E+02  0.00000000000E+00 0. -1.
         11    1    4    4    0    0 -0.50646758013E+01  0.91857659961E+01 -0.42558757766E+01  0.11319969823E+02  0.51100000000E-03 0. -1.
        -11    1    4    4    0    0 -0.69382196712E+00  0.22768921002E+02 -0.22286025615E+02  0.31868041836E+02  0.51100000000E-03 0.  1.
        -12    1    4    4    0    0  0.37359543343E+01  0.26487614715E+01  0.42421944446E+00  0.45992667087E+01  0.00000000000E+00 0.  1.
</event>
<event>
 8    1  0.2994958E-010  0.9118800E+02  0.7816164E-02  0.1184000E+00
        -11   -1    0    0    0    0  0.00000000000E+00  0.00000000000E+00  0.45593999997E+02  0.45594000000E+02  0.51100000000E-03 0. -1.
         11   -1    0    0    0    0 -0.00000000000E+00 -0.00000000000E+00 -0.45593999997E+02  0.45594000000E+02  0.51100000000E-03 0.  1.
         23    2    1    2    0    0 -0.71054273576E-14  0.00000000000E+00 -0.17763568394E-14  0.91188000000E+02  0.91188000000E+02 0.  0.
    9900012    2    3    3    0    0 -0.35911822871E+02  0.19787168416E+02 -0.14227893120E+02  0.47787262697E+02  0.19999961941E+02 0.  0.
         12    1    3    3    0    0  0.35911822871E+02 -0.19787168416E+02  0.14227893120E+02  0.43400737303E+02  0.00000000000E+00 0. -1.
         11    1    4    4    0    0 -0.66957479202E+01  0.10595082648E+02 -0.99477475738E+01  0.16001453015E+02  0.51100000000E-03 0. -1.
        -11    1    4    4    0    0 -0.70113649139E+00  0.66241820873E+00 -0.16438328274E+01  0.19059320262E+01  0.51100000000E-03 0.  1.
        -12    1    4    4    0    0 -0.28514938459E+02  0.85296675592E+01 -0.26363127189E+01  0.29879877656E+02  0.00000000000E+00 0.  1.
</event>
<event>
 8    1  0.2994958E-010  0.9118800E+02  0.7816164E-02  0.1184000E+00
        -11   -1    0    0    0    0  0.00000000000E+00  0.00000000000E+00  0.45593999997E+02  0.45594000000E+02  0.51100000000E-03 0. -1.
         11   -1    0    0    0    0 -0.00000000000E+00 -0.00000000000E+00 -0.45593999997E+02  0.45594000000E+02  0.51100000000E-03 0.  1.
         23    2    1    2    0    0  0.00000000000E+00 -0.17763568394E-14  0.00000000000E+00  0.91188000000E+02  0.91188000000E+02 0.  0.
    9900012    2    3    3    0    0 -0.12518876230E+02 -0.10047994688E+02  0.40322929874E+02  0.47787272669E+02  0.20000007405E+02 0.  0.
        -12    1    3    3    0    0  0.12518876230E+02  0.10047994688E+02 -0.40322929874E+02  0.43400727331E+02  0.00000000000E+00 0.  1.
         11    1    4    4    0    0 -0.77886368815E+01 -0.14903577103E+02  0.23861712812E+02  0.29191793599E+02  0.51100000000E-03 0. -1.
        -11    1    4    4    0    0 -0.10735745614E+01  0.13373891007E+01  0.11030453117E+02  0.11162977568E+02  0.51100000000E-03 0.  1.
        -12    1    4    4    0    0 -0.36566647867E+01  0.35181933142E+01  0.54307639437E+01  0.74325015015E+01  0.00000000000E+00 0.  1.
</event>
<event>
 8    1  0.2994958E-010  0.9118800E+02  0.7816164E-02  0.1184000E+00
        -11   -1    0    0    0    0  0.00000000000E+00  0.00000000000E+00  0.45593999997E+02  0.45594000000E+02  0.51100000000E-03 0.  1.
         11   -1    0    0    0    0 -0.00000000000E+00 -0.00000000000E+00 -0.45593999997E+02  0.45594000000E+02  0.51100000000E-03 0. -1.
         23    2    1    2    0    0  0.00000000000E+00  0.00000000000E+00 -0.71054273576E-14  0.91188000000E+02  0.91188000000E+02 0.  0.
    9900012    2    3    3    0    0 -0.15426964869E+02  0.12302569257E+02  0.38655899253E+02  0.47787274172E+02  0.20000014258E+02 0.  0.
        -12    1    3    3    0    0  0.15426964869E+02 -0.12302569257E+02 -0.38655899253E+02  0.43400725828E+02  0.00000000000E+00 0.  1.
         11    1    4    4    0    0 -0.10563892416E+02  0.54640901281E+01  0.23074888435E+02  0.25959633673E+02  0.51100000000E-03 0. -1.
        -11    1    4    4    0    0  0.88708459727E+00 -0.51247928274E+00  0.11659533246E+02  0.11704455129E+02  0.51100000000E-03 0.  1.
        -12    1    4    4    0    0 -0.57501570501E+01  0.73509584121E+01  0.39214775723E+01  0.10123185370E+02  0.00000000000E+00 0.  1.
</event>
<event>
 8    1  0.3535255E-010  0.9118800E+02  0.7816164E-02  0.1184000E+00
        -11   -1    0    0    0    0  0.00000000000E+00  0.00000000000E+00  0.45593999997E+02  0.45594000000E+02  0.51100000000E-03 0.  1.
         11   -1    0    0    0    0 -0.00000000000E+00 -0.00000000000E+00 -0.45593999997E+02  0.45594000000E+02  0.51100000000E-03 0. -1.
         23    2    1    2    0    0  0.00000000000E+00  0.00000000000E+00  0.00000000000E+00  0.91188000000E+02  0.91188000000E+02 0.  0.
    9900012    2    3    3    0    0  0.15047417848E+02 -0.37306176083E+02  0.16292611024E+02  0.47787254248E+02  0.19999923420E+02 0.  0.
        -12    1    3    3    0    0 -0.15047417848E+02  0.37306176083E+02 -0.16292611024E+02  0.43400745752E+02  0.00000000000E+00 0.  1.
         11    1    4    4    0    0  0.39254176502E+01 -0.41754157106E+01 -0.19344076619E+01  0.60485480364E+01  0.51100000000E-03 0. -1.
        -11    1    4    4    0    0  0.43893803075E+01 -0.73068841221E+00  0.19097751051E+01  0.48422934910E+01  0.51100000000E-03 0.  1.
         12    1    4    4    0    0  0.67326198898E+01 -0.32400071960E+02  0.16317243581E+02  0.36896412721E+02  0.00000000000E+00 0. -1.
</event>
<event>
 8    1  0.2994958E-010  0.9118800E+02  0.7816164E-02  0.1184000E+00
        -11   -1    0    0    0    0  0.00000000000E+00  0.00000000000E+00  0.45593999997E+02  0.45594000000E+02  0.51100000000E-03 0. -1.
         11   -1    0    0    0    0 -0.00000000000E+00 -0.00000000000E+00 -0.45593999997E+02  0.45594000000E+02  0.51100000000E-03 0.  1.
         23    2    1    2    0    0 -0.44408920985E-15  0.00000000000E+00  0.00000000000E+00  0.91188000000E+02  0.91188000000E+02 0.  0.
    9900012    2    3    3    0    0 -0.13387216610E+01  0.12362243342E+02  0.41581317138E+02  0.47787272229E+02  0.20000005401E+02 0.  0.
        -12    1    3    3    0    0  0.13387216610E+01 -0.12362243342E+02 -0.41581317138E+02  0.43400727771E+02  0.00000000000E+00 0.  1.
         11    1    4    4    0    0  0.29498020859E+01  0.88903193855E+01  0.15545278628E+02  0.18149236871E+02  0.51100000000E-03 0. -1.
        -11    1    4    4    0    0  0.33289937755E+01 -0.19758581955E+01  0.13152456789E+02  0.13710336794E+02  0.51100000000E-03 0.  1.
        -12    1    4    4    0    0 -0.76175175224E+01  0.54477821522E+01  0.12883581722E+02  0.15927698564E+02  0.00000000000E+00 0.  1.
</event>
<event>
 8    1  0.2994958E-010  0.9118800E+02  0.7816164E-02  0.1184000E+00
        -11   -1    0    0    0    0  0.00000000000E+00  0.00000000000E+00  0.45593999997E+02  0.45594000000E+02  0.51100000000E-03 0. -1.
         11   -1    0    0    0    0 -0.00000000000E+00 -0.00000000000E+00 -0.45593999997E+02  0.45594000000E+02  0.51100000000E-03 0.  1.
         23    2    1    2    0    0  0.00000000000E+00  0.00000000000E+00  0.00000000000E+00  0.91188000000E+02  0.91188000000E+02 0.  0.
    9900012    2    3    3    0    0  0.43426148273E+01  0.32394731038E+02 -0.28554270424E+02  0.47787271181E+02  0.20000000624E+02 0.  0.
         12    1    3    3    0    0 -0.43426148273E+01 -0.32394731038E+02  0.28554270424E+02  0.43400728819E+02  0.00000000000E+00 0. -1.
         11    1    4    4    0    0 -0.72668593635E+00  0.23683992824E+02 -0.10404097314E+02  0.25878655872E+02  0.51100000000E-03 0. -1.
        -11    1    4    4    0    0  0.21747729675E+01  0.36905066256E+01 -0.19564511700E+01  0.47092651290E+01  0.51100000000E-03 0.  1.
         12    1    4    4    0    0  0.28945277961E+01  0.50202315880E+01 -0.16193721940E+02  0.17199350180E+02  0.00000000000E+00 0. -1.
</event>
<event>
 8    1  0.2994958E-010  0.9118800E+02  0.7816164E-02  0.1184000E+00
        -11   -1    0    0    0    0  0.00000000000E+00  0.00000000000E+00  0.45593999997E+02  0.45594000000E+02  0.51100000000E-03 0.  1.
         11   -1    0    0    0    0 -0.00000000000E+00 -0.00000000000E+00 -0.45593999997E+02  0.45594000000E+02  0.51100000000E-03 0. -1.
         23    2    1    2    0    0  0.00000000000E+00  0.00000000000E+00  0.00000000000E+00  0.91188000000E+02  0.91188000000E+02 0.  0.
    9900012    2    3    3    0    0 -0.24701964353E+02 -0.35395052775E+02  0.45416376652E+01  0.47787271013E+02  0.19999999858E+02 0.  0.
        -12    1    3    3    0    0  0.24701964353E+02  0.35395052775E+02 -0.45416376652E+01  0.43400728987E+02  0.00000000000E+00 0.  1.
         11    1    4    4    0    0 -0.95101780863E+01 -0.16534475913E+02  0.28791314437E+01  0.19290458239E+02  0.51100000000E-03 0. -1.
        -11    1    4    4    0    0  0.19223121911E+01 -0.41085914202E+01  0.36399101400E+01  0.58159052353E+01  0.51100000000E-03 0.  1.
         12    1    4    4    0    0 -0.17114098458E+02 -0.14751985443E+02 -0.19774039184E+01  0.22680907539E+02  0.00000000000E+00 0. -1.
</event>
<event>
 8    1  0.2994958E-010  0.9118800E+02  0.7816164E-02  0.1184000E+00
        -11   -1    0    0    0    0  0.00000000000E+00  0.00000000000E+00  0.45593999997E+02  0.45594000000E+02  0.51100000000E-03 0. -1.
         11   -1    0    0    0    0 -0.00000000000E+00 -0.00000000000E+00 -0.45593999997E+02  0.45594000000E+02  0.51100000000E-03 0.  1.
         23    2    1    2    0    0  0.00000000000E+00  0.00000000000E+00  0.00000000000E+00  0.91188000000E+02  0.91188000000E+02 0.  0.
    9900012    2    3    3    0    0 -0.19778840384E+02  0.23366923297E+02  0.30763738005E+02  0.47787271811E+02  0.20000003494E+02 0.  0.
        -12    1    3    3    0    0  0.19778840384E+02 -0.23366923297E+02 -0.30763738005E+02  0.43400728189E+02  0.00000000000E+00 0.  1.
         11    1    4    4    0    0 -0.23351329814E+01  0.11102228210E+02  0.91193907145E+01  0.14555947394E+02  0.51100000000E-03 0. -1.
        -11    1    4    4    0    0 -0.12038657160E+02  0.12478931537E+02  0.91261010049E+01  0.19594354246E+02  0.51100000000E-03 0.  1.
        -12    1    4    4    0    0 -0.54050502424E+01 -0.21423644896E+00  0.12518246286E+02  0.13636970171E+02  0.00000000000E+00 0.  1.
</event>
<event>
 8    1  0.2994958E-010  0.9118800E+02  0.7816164E-02  0.1184000E+00
        -11   -1    0    0    0    0  0.00000000000E+00  0.00000000000E+00  0.45593999997E+02  0.45594000000E+02  0.51100000000E-03 0. -1.
         11   -1    0    0    0    0 -0.00000000000E+00 -0.00000000000E+00 -0.45593999997E+02  0.45594000000E+02  0.51100000000E-03 0.  1.
         23    2    1    2    0    0  0.44408920985E-15  0.00000000000E+00  0.00000000000E+00  0.91188000000E+02  0.91188000000E+02 0.  0.
    9900012    2    3    3    0    0  0.21631766483E+01 -0.30914917123E+02  0.30384402989E+02  0.47787269834E+02  0.19999994482E+02 0.  0.
        -12    1    3    3    0    0 -0.21631766483E+01  0.30914917123E+02 -0.30384402989E+02  0.43400730166E+02  0.00000000000E+00 0.  1.
         11    1    4    4    0    0 -0.12408886929E+01 -0.23552554341E+01  0.10434615596E+02  0.10768854898E+02  0.51100000000E-03 0. -1.
        -11    1    4    4    0    0 -0.17514177718E+01 -0.78134222119E+01  0.11541160765E+02  0.14046900831E+02  0.51100000000E-03 0.  1.
         12    1    4    4    0    0  0.51554831130E+01 -0.20746239477E+02  0.84086266281E+01  0.22971514106E+02  0.00000000000E+00 0. -1.
</event>
<event>
 8    1  0.2994958E-010  0.9118800E+02  0.7816164E-02  0.1184000E+00
        -11   -1    0    0    0    0  0.00000000000E+00  0.00000000000E+00  0.45593999997E+02  0.45594000000E+02  0.51100000000E-03 0. -1.
         11   -1    0    0    0    0 -0.00000000000E+00 -0.00000000000E+00 -0.45593999997E+02  0.45594000000E+02  0.51100000000E-03 0.  1.
         23    2    1    2    0    0  0.35527136788E-14  0.00000000000E+00  0.00000000000E+00  0.91188000000E+02  0.91188000000E+02 0.  0.
    9900012    2    3    3    0    0  0.24512684724E+02 -0.15529632677E+02 -0.32273551571E+02  0.47787270346E+02  0.19999996818E+02 0.  0.
         12    1    3    3    0    0 -0.24512684724E+02  0.15529632677E+02  0.32273551571E+02  0.43400729654E+02  0.00000000000E+00 0. -1.
         11    1    4    4    0    0  0.82576781633E+01 -0.51073324418E+01 -0.15845949432E+02  0.18584084777E+02  0.51100000000E-03 0. -1.
        -11    1    4    4    0    0  0.13860137649E+02 -0.11159849107E+02 -0.18704963675E+02  0.25817074081E+02  0.51100000000E-03 0.  1.
        -12    1    4    4    0    0  0.23948689120E+01  0.73754887227E+00  0.22773615368E+01  0.33861114887E+01  0.00000000000E+00 0.  1.
</event>
<event>
 8    1  0.2994958E-010  0.9118800E+02  0.7816164E-02  0.1184000E+00
        -11   -1    0    0    0    0  0.00000000000E+00  0.00000000000E+00  0.45593999997E+02  0.45594000000E+02  0.51100000000E-03 0. -1.
         11   -1    0    0    0    0 -0.00000000000E+00 -0.00000000000E+00 -0.45593999997E+02  0.45594000000E+02  0.51100000000E-03 0.  1.
         23    2    1    2    0    0  0.17763568394E-14  0.71054273576E-14 -0.17763568394E-14  0.91188000000E+02  0.91188000000E+02 0.  0.
    9900012    2    3    3    0    0  0.90700421235E+01  0.40704641293E+02 -0.12020376159E+02  0.47787275007E+02  0.20000018068E+02 0.  0.
         12    1    3    3    0    0 -0.90700421235E+01 -0.40704641293E+02  0.12020376159E+02  0.43400724993E+02  0.00000000000E+00 0. -1.
         11    1    4    4    0    0 -0.16709891145E+01  0.61633004280E+01  0.39412251309E+01  0.75041143768E+01  0.51100000000E-03 0. -1.
        -11    1    4    4    0    0 -0.93427373699E+00  0.29174199986E+01 -0.19945540691E+00  0.30698517203E+01  0.51100000000E-03 0.  1.
        -12    1    4    4    0    0  0.11675304975E+02  0.31623920866E+02 -0.15762145883E+02  0.37213308910E+02  0.00000000000E+00 0.  1.
</event>
<event>
 8    1  0.2994958E-010  0.9118800E+02  0.7816164E-02  0.1184000E+00
        -11   -1    0    0    0    0  0.00000000000E+00  0.00000000000E+00  0.45593999997E+02  0.45594000000E+02  0.51100000000E-03 0. -1.
         11   -1    0    0    0    0 -0.00000000000E+00 -0.00000000000E+00 -0.45593999997E+02  0.45594000000E+02  0.51100000000E-03 0.  1.
         23    2    1    2    0    0  0.71054273576E-14 -0.44408920985E-15 -0.35527136788E-14  0.91188000000E+02  0.91188000000E+02 0.  0.
    9900012    2    3    3    0    0 -0.39947877895E+02  0.31558746055E+01  0.16668255341E+02  0.47787271562E+02  0.20000002359E+02 0.  0.
        -12    1    3    3    0    0  0.39947877895E+02 -0.31558746055E+01 -0.16668255341E+02  0.43400728438E+02  0.00000000000E+00 0.  1.
         11    1    4    4    0    0 -0.24262454225E+01  0.19526117169E+01  0.93127168503E+00  0.32506347964E+01  0.51100000000E-03 0. -1.
        -11    1    4    4    0    0 -0.21785481913E+02  0.25418103566E+01 -0.42796758811E+00  0.21937437831E+02  0.51100000000E-03 0.  1.
         12    1    4    4    0    0 -0.15736150560E+02 -0.13385474680E+01  0.16164951244E+02  0.22599198935E+02  0.00000000000E+00 0. -1.
</event>
<event>
 8    1  0.2994958E-010  0.9118800E+02  0.7816164E-02  0.1184000E+00
        -11   -1    0    0    0    0  0.00000000000E+00  0.00000000000E+00  0.45593999997E+02  0.45594000000E+02  0.51100000000E-03 0. -1.
         11   -1    0    0    0    0 -0.00000000000E+00 -0.00000000000E+00 -0.45593999997E+02  0.45594000000E+02  0.51100000000E-03 0.  1.
         23    2    1    2    0    0  0.00000000000E+00  0.44408920985E-15  0.00000000000E+00  0.91188000000E+02  0.91188000000E+02 0.  0.
    9900012    2    3    3    0    0  0.18244839065E+02 -0.39294150650E+01 -0.39183015044E+02  0.47787272780E+02  0.20000007915E+02 0.  0.
         12    1    3    3    0    0 -0.18244839065E+02  0.39294150650E+01  0.39183015044E+02  0.43400727220E+02  0.00000000000E+00 0. -1.
         11    1    4    4    0    0  0.60294643908E+01 -0.30376778949E+01 -0.96854408696E+01  0.11806341217E+02  0.51100000000E-03 0.  1.
        -11    1    4    4    0    0  0.43775500310E+00 -0.70167680675E+01 -0.74362513701E+01  0.10233498828E+02  0.51100000000E-03 0. -1.
         12    1    4    4    0    0  0.11777619671E+02  0.61250308975E+01 -0.22061322804E+02  0.25747432736E+02  0.00000000000E+00 0. -1.
</event>
<event>
 8    1  0.2994958E-010  0.9118800E+02  0.7816164E-02  0.1184000E+00
        -11   -1    0    0    0    0  0.00000000000E+00  0.00000000000E+00  0.45593999997E+02  0.45594000000E+02  0.51100000000E-03 0. -1.
         11   -1    0    0    0    0 -0.00000000000E+00 -0.00000000000E+00 -0.45593999997E+02  0.45594000000E+02  0.51100000000E-03 0.  1.
         23    2    1    2    0    0  0.00000000000E+00  0.00000000000E+00  0.00000000000E+00  0.91188000000E+02  0.91188000000E+02 0.  0.
    9900012    2    3    3    0    0 -0.40288853232E+01  0.21972444009E+01 -0.43157430066E+02  0.47787267635E+02  0.19999984456E+02 0.  0.
         12    1    3    3    0    0  0.40288853232E+01 -0.21972444009E+01  0.43157430066E+02  0.43400732365E+02  0.00000000000E+00 0. -1.
         11    1    4    4    0    0  0.16786323842E+01  0.56945433065E+01 -0.97512326783E+01  0.11416311539E+02  0.51100000000E-03 0.  1.
        -11    1    4    4    0    0 -0.36107300938E+01 -0.66182077319E+01 -0.92936759059E+01  0.11967057178E+02  0.51100000000E-03 0. -1.
         12    1    4    4    0    0 -0.20967876136E+01  0.31209088263E+01 -0.24112521482E+02  0.24403898918E+02  0.00000000000E+00 0. -1.
</event>
<event>
 8    1  0.2994958E-010  0.9118800E+02  0.7816164E-02  0.1184000E+00
        -11   -1    0    0    0    0  0.00000000000E+00  0.00000000000E+00  0.45593999997E+02  0.45594000000E+02  0.51100000000E-03 0.  1.
         11   -1    0    0    0    0 -0.00000000000E+00 -0.00000000000E+00 -0.45593999997E+02  0.45594000000E+02  0.51100000000E-03 0. -1.
         23    2    1    2    0    0  0.35527136788E-14  0.00000000000E+00  0.00000000000E+00  0.91188000000E+02  0.91188000000E+02 0.  0.
    9900012    2    3    3    0    0 -0.30312989440E+02 -0.20443100374E+02  0.23384259889E+02  0.47787293873E+02  0.20000104086E+02 0.  0.
        -12    1    3    3    0    0  0.30312989440E+02  0.20443100374E+02 -0.23384259889E+02  0.43400706127E+02  0.00000000000E+00 0.  1.
         11    1    4    4    0    0 -0.18139314533E+02 -0.96331180894E+01  0.62180175992E+01  0.21459157462E+02  0.51100000000E-03 0. -1.
        -11    1    4    4    0    0 -0.74939000547E-01 -0.40024886958E+01 -0.30290288799E+00  0.40146334869E+01  0.51100000000E-03 0.  1.
        -12    1    4    4    0    0 -0.12098735907E+02 -0.68074935888E+01  0.17469145178E+02  0.22313502925E+02  0.00000000000E+00 0.  1.
</event>
<event>
 8    1  0.2994958E-010  0.9118800E+02  0.7816164E-02  0.1184000E+00
        -11   -1    0    0    0    0  0.00000000000E+00  0.00000000000E+00  0.45593999997E+02  0.45594000000E+02  0.51100000000E-03 0. -1.
         11   -1    0    0    0    0 -0.00000000000E+00 -0.00000000000E+00 -0.45593999997E+02  0.45594000000E+02  0.51100000000E-03 0.  1.
         23    2    1    2    0    0  0.00000000000E+00  0.35527136788E-14  0.00000000000E+00  0.91188000000E+02  0.91188000000E+02 0.  0.
    9900012    2    3    3    0    0 -0.52434532185E+01 -0.26398338829E+02  0.34047865639E+02  0.47787271329E+02  0.20000001297E+02 0.  0.
        -12    1    3    3    0    0  0.52434532185E+01  0.26398338829E+02 -0.34047865639E+02  0.43400728671E+02  0.00000000000E+00 0.  1.
         11    1    4    4    0    0  0.23182178505E+01 -0.70487789377E+01  0.57613749839E+01  0.93942993609E+01  0.51100000000E-03 0. -1.
        -11    1    4    4    0    0 -0.67157872149E+00 -0.15857591844E+02  0.10579852149E+02  0.19074787255E+02  0.51100000000E-03 0.  1.
         12    1    4    4    0    0 -0.68900923475E+01 -0.34919680471E+01  0.17706638506E+02  0.19318184713E+02  0.00000000000E+00 0. -1.
</event>
<event>
 8    1  0.2994958E-010  0.9118800E+02  0.7816164E-02  0.1184000E+00
        -11   -1    0    0    0    0  0.00000000000E+00  0.00000000000E+00  0.45593999997E+02  0.45594000000E+02  0.51100000000E-03 0. -1.
         11   -1    0    0    0    0 -0.00000000000E+00 -0.00000000000E+00 -0.45593999997E+02  0.45594000000E+02  0.51100000000E-03 0.  1.
         23    2    1    2    0    0  0.00000000000E+00  0.17763568394E-14  0.71054273576E-14  0.91188000000E+02  0.91188000000E+02 0.  0.
    9900012    2    3    3    0    0  0.27985178796E+02 -0.10605093904E+02 -0.31432231037E+02  0.47787269627E+02  0.19999993535E+02 0.  0.
         12    1    3    3    0    0 -0.27985178796E+02  0.10605093904E+02  0.31432231037E+02  0.43400730373E+02  0.00000000000E+00 0. -1.
         11    1    4    4    0    0  0.21451006443E+02 -0.34593937674E+01 -0.16902525921E+02  0.27528321151E+02  0.51100000000E-03 0. -1.
        -11    1    4    4    0    0  0.60202495946E+01  0.52917219680E+00 -0.87647520607E+01  0.10646328350E+02  0.51100000000E-03 0.  1.
         12    1    4    4    0    0  0.51392275889E+00 -0.76748723330E+01 -0.57649530562E+01  0.96126201251E+01  0.00000000000E+00 0. -1.
</event>
<event>
 8    1  0.2994958E-010  0.9118800E+02  0.7816164E-02  0.1184000E+00
        -11   -1    0    0    0    0  0.00000000000E+00  0.00000000000E+00  0.45593999997E+02  0.45594000000E+02  0.51100000000E-03 0. -1.
         11   -1    0    0    0    0 -0.00000000000E+00 -0.00000000000E+00 -0.45593999997E+02  0.45594000000E+02  0.51100000000E-03 0.  1.
         23    2    1    2    0    0  0.00000000000E+00  0.00000000000E+00  0.35527136788E-14  0.91188000000E+02  0.91188000000E+02 0.  0.
    9900012    2    3    3    0    0 -0.16774591378E+02 -0.26196110182E+02 -0.30265497344E+02  0.47787269199E+02  0.19999991585E+02 0.  0.
         12    1    3    3    0    0  0.16774591378E+02  0.26196110182E+02  0.30265497344E+02  0.43400730801E+02  0.00000000000E+00 0. -1.
         11    1    4    4    0    0  0.14584450198E+00 -0.63829399811E+01 -0.19956880066E+01  0.66892424311E+01  0.51100000000E-03 0. -1.
        -11    1    4    4    0    0 -0.65076881986E+01 -0.16706353857E+02 -0.12151576908E+02  0.21659018595E+02  0.51100000000E-03 0.  1.
         12    1    4    4    0    0 -0.10412747682E+02 -0.31068163434E+01 -0.16118232429E+02  0.19439008172E+02  0.00000000000E+00 0. -1.
</event>
<event>
 8    1  0.2994958E-010  0.9118800E+02  0.7816164E-02  0.1184000E+00
        -11   -1    0    0    0    0  0.00000000000E+00  0.00000000000E+00  0.45593999997E+02  0.45594000000E+02  0.51100000000E-03 0. -1.
         11   -1    0    0    0    0 -0.00000000000E+00 -0.00000000000E+00 -0.45593999997E+02  0.45594000000E+02  0.51100000000E-03 0.  1.
         23    2    1    2    0    0  0.00000000000E+00 -0.66613381478E-15  0.00000000000E+00  0.91188000000E+02  0.91188000000E+02 0.  0.
    9900012    2    3    3    0    0 -0.92642871469E+01 -0.18164261261E+01 -0.42361499796E+02  0.47787273218E+02  0.20000009912E+02 0.  0.
         12    1    3    3    0    0  0.92642871469E+01  0.18164261261E+01  0.42361499796E+02  0.43400726782E+02  0.00000000000E+00 0. -1.
         11    1    4    4    0    0 -0.48035535191E+01 -0.10954640961E+01 -0.84774576142E+01  0.98051749530E+01  0.51100000000E-03 0. -1.
        -11    1    4    4    0    0 -0.14397368678E+01 -0.84820883800E+01 -0.20305450364E+02  0.22052890520E+02  0.51100000000E-03 0.  1.
         12    1    4    4    0    0 -0.30209967599E+01  0.77611263500E+01 -0.13578591818E+02  0.15929207746E+02  0.00000000000E+00 0. -1.
</event>
<event>
 8    1  0.2994958E-010  0.9118800E+02  0.7816164E-02  0.1184000E+00
        -11   -1    0    0    0    0  0.00000000000E+00  0.00000000000E+00  0.45593999997E+02  0.45594000000E+02  0.51100000000E-03 0. -1.
         11   -1    0    0    0    0 -0.00000000000E+00 -0.00000000000E+00 -0.45593999997E+02  0.45594000000E+02  0.51100000000E-03 0.  1.
         23    2    1    2    0    0  0.00000000000E+00  0.35527136788E-14  0.00000000000E+00  0.91188000000E+02  0.91188000000E+02 0.  0.
    9900012    2    3    3    0    0 -0.15538352566E+02  0.28958800093E+02 -0.28347326544E+02  0.47787269298E+02  0.19999992036E+02 0.  0.
         12    1    3    3    0    0  0.15538352566E+02 -0.28958800093E+02  0.28347326544E+02  0.43400730702E+02  0.00000000000E+00 0. -1.
         11    1    4    4    0    0 -0.23863342599E+01  0.28635936085E+01  0.25434990948E+01  0.45126652281E+01  0.51100000000E-03 0. -1.
        -11    1    4    4    0    0 -0.16360445929E-01  0.73781477236E+01 -0.63853613317E+01  0.97575699379E+01  0.51100000000E-03 0.  1.
        -12    1    4    4    0    0 -0.13135657860E+02  0.18717058761E+02 -0.24505464307E+02  0.33517034132E+02  0.00000000000E+00 0.  1.
</event>
<event>
 8    1  0.2994958E-010  0.9118800E+02  0.7816164E-02  0.1184000E+00
        -11   -1    0    0    0    0  0.00000000000E+00  0.00000000000E+00  0.45593999997E+02  0.45594000000E+02  0.51100000000E-03 0. -1.
         11   -1    0    0    0    0 -0.00000000000E+00 -0.00000000000E+00 -0.45593999997E+02  0.45594000000E+02  0.51100000000E-03 0.  1.
         23    2    1    2    0    0  0.00000000000E+00  0.00000000000E+00  0.00000000000E+00  0.91188000000E+02  0.91188000000E+02 0.  0.
    9900012    2    3    3    0    0  0.30913645920E+02 -0.51611750583E+01  0.30022190304E+02  0.47787272555E+02  0.20000006889E+02 0.  0.
        -12    1    3    3    0    0 -0.30913645920E+02  0.51611750583E+01 -0.30022190304E+02  0.43400727445E+02  0.00000000000E+00 0.  1.
         11    1    4    4    0    0  0.15754529498E+02 -0.22122113162E+01  0.74400302002E+01  0.17562833719E+02  0.51100000000E-03 0. -1.
        -11    1    4    4    0    0  0.72500331356E+01 -0.22832319819E+01  0.15677075023E+01  0.77610460523E+01  0.51100000000E-03 0.  1.
        -12    1    4    4    0    0  0.79090832865E+01 -0.66573176016E+00  0.21014452602E+02  0.22463392784E+02  0.00000000000E+00 0.  1.
</event>
<event>
 8    1  0.2994958E-010  0.9118800E+02  0.7816164E-02  0.1184000E+00
        -11   -1    0    0    0    0  0.00000000000E+00  0.00000000000E+00  0.45593999997E+02  0.45594000000E+02  0.51100000000E-03 0. -1.
         11   -1    0    0    0    0 -0.00000000000E+00 -0.00000000000E+00 -0.45593999997E+02  0.45594000000E+02  0.51100000000E-03 0.  1.
         23    2    1    2    0    0  0.88817841970E-15  0.71054273576E-14  0.35527136788E-14  0.91188000000E+02  0.91188000000E+02 0.  0.
    9900012    2    3    3    0    0 -0.58376904435E+01 -0.37613073179E+02 -0.20851888932E+02  0.47787272175E+02  0.20000005155E+02 0.  0.
         12    1    3    3    0    0  0.58376904435E+01  0.37613073179E+02  0.20851888932E+02  0.43400727825E+02  0.00000000000E+00 0. -1.
         11    1    4    4    0    0 -0.22749323476E+01 -0.12283277757E+01 -0.36144435901E+01  0.44439069565E+01  0.51100000000E-03 0. -1.
        -11    1    4    4    0    0 -0.90052727608E+01 -0.27773796843E+02 -0.10058910830E+02  0.30881392714E+02  0.51100000000E-03 0.  1.
        -12    1    4    4    0    0  0.54425146649E+01 -0.86109485604E+01 -0.71785345112E+01  0.12461972505E+02  0.00000000000E+00 0.  1.
</event>
<event>
 8    1  0.2994958E-010  0.9118800E+02  0.7816164E-02  0.1184000E+00
        -11   -1    0    0    0    0  0.00000000000E+00  0.00000000000E+00  0.45593999997E+02  0.45594000000E+02  0.51100000000E-03 0. -1.
         11   -1    0    0    0    0 -0.00000000000E+00 -0.00000000000E+00 -0.45593999997E+02  0.45594000000E+02  0.51100000000E-03 0.  1.
         23    2    1    2    0    0  0.17763568394E-14  0.00000000000E+00  0.00000000000E+00  0.91188000000E+02  0.91188000000E+02 0.  0.
    9900012    2    3    3    0    0  0.13680753996E+02 -0.12264640047E+02 -0.39319701525E+02  0.47787270128E+02  0.19999995820E+02 0.  0.
         12    1    3    3    0    0 -0.13680753996E+02  0.12264640047E+02  0.39319701525E+02  0.43400729872E+02  0.00000000000E+00 0. -1.
         11    1    4    4    0    0  0.97431960391E+01 -0.58977527909E+01 -0.83014354827E+01  0.14093515827E+02  0.51100000000E-03 0. -1.
        -11    1    4    4    0    0  0.49057063755E+01 -0.52921803669E+01 -0.85895557510E+01  0.11218448928E+02  0.51100000000E-03 0.  1.
        -12    1    4    4    0    0 -0.96814841825E+00 -0.10747068893E+01 -0.22428710292E+02  0.22475305373E+02  0.00000000000E+00 0.  1.
</event>
<event>
 8    1  0.2994958E-010  0.9118800E+02  0.7816164E-02  0.1184000E+00
        -11   -1    0    0    0    0  0.00000000000E+00  0.00000000000E+00  0.45593999997E+02  0.45594000000E+02  0.51100000000E-03 0.  1.
         11   -1    0    0    0    0 -0.00000000000E+00 -0.00000000000E+00 -0.45593999997E+02  0.45594000000E+02  0.51100000000E-03 0. -1.
         23    2    1    2    0    0  0.00000000000E+00  0.00000000000E+00 -0.35527136788E-14  0.91188000000E+02  0.91188000000E+02 0.  0.
    9900012    2    3    3    0    0  0.33207393834E+02 -0.16325233883E+02  0.22679925697E+02  0.47787270787E+02  0.19999998827E+02 0.  0.
        -12    1    3    3    0    0 -0.33207393834E+02  0.16325233883E+02 -0.22679925697E+02  0.43400729213E+02  0.00000000000E+00 0.  1.
         11    1    4    4    0    0  0.15209515346E+02 -0.47104505496E+01  0.16324421508E+02  0.22803605839E+02  0.51100000000E-03 0. -1.
        -11    1    4    4    0    0  0.37512019691E+00  0.18681360082E+01  0.10984028888E-01  0.19054574824E+01  0.51100000000E-03 0.  1.
         12    1    4    4    0    0  0.17622758291E+02 -0.13482919342E+02  0.63445201599E+01  0.23078207465E+02  0.00000000000E+00 0. -1.
</event>
<event>
 8    1  0.2994958E-010  0.9118800E+02  0.7816164E-02  0.1184000E+00
        -11   -1    0    0    0    0  0.00000000000E+00  0.00000000000E+00  0.45593999997E+02  0.45594000000E+02  0.51100000000E-03 0.  1.
         11   -1    0    0    0    0 -0.00000000000E+00 -0.00000000000E+00 -0.45593999997E+02  0.45594000000E+02  0.51100000000E-03 0. -1.
         23    2    1    2    0    0  0.00000000000E+00 -0.17763568394E-14  0.00000000000E+00  0.91188000000E+02  0.91188000000E+02 0.  0.
    9900012    2    3    3    0    0  0.34549209386E+02 -0.10852595841E+02  0.23920630032E+02  0.47787271356E+02  0.20000001421E+02 0.  0.
        -12    1    3    3    0    0 -0.34549209386E+02  0.10852595841E+02 -0.23920630032E+02  0.43400728644E+02  0.00000000000E+00 0.  1.
         11    1    4    4    0    0  0.13958218184E+02 -0.10609390995E+02  0.14144644592E+02  0.22526917300E+02  0.51100000000E-03 0. -1.
        -11    1    4    4    0    0 -0.13075875438E+01 -0.44852512063E+00  0.75976275022E+00  0.15774028231E+01  0.51100000000E-03 0.  1.
         12    1    4    4    0    0  0.21898578747E+02  0.20532027439E+00  0.90162226899E+01  0.23682951233E+02  0.00000000000E+00 0. -1.
</event>
<event>
 8    1  0.2994958E-010  0.9118800E+02  0.7816164E-02  0.1184000E+00
        -11   -1    0    0    0    0  0.00000000000E+00  0.00000000000E+00  0.45593999997E+02  0.45594000000E+02  0.51100000000E-03 0. -1.
         11   -1    0    0    0    0 -0.00000000000E+00 -0.00000000000E+00 -0.45593999997E+02  0.45594000000E+02  0.51100000000E-03 0.  1.
         23    2    1    2    0    0  0.00000000000E+00  0.00000000000E+00  0.71054273576E-14  0.91188000000E+02  0.91188000000E+02 0.  0.
    9900012    2    3    3    0    0  0.31116069859E+02 -0.55587737358E+01  0.29740772308E+02  0.47787270670E+02  0.19999998292E+02 0.  0.
        -12    1    3    3    0    0 -0.31116069859E+02  0.55587737358E+01 -0.29740772308E+02  0.43400729330E+02  0.00000000000E+00 0.  1.
         11    1    4    4    0    0 -0.33446465590E+00 -0.22721390089E+01  0.62563550780E+01  0.66645676082E+01  0.51100000000E-03 0. -1.
        -11    1    4    4    0    0  0.20923875449E+02  0.35210848297E+01  0.15031499330E+02  0.26002933960E+02  0.51100000000E-03 0.  1.
         12    1    4    4    0    0  0.10526659066E+02 -0.68077195566E+01  0.84529178995E+01  0.15119769101E+02  0.00000000000E+00 0. -1.
</event>
<event>
 8    1  0.2994958E-010  0.9118800E+02  0.7816164E-02  0.1184000E+00
        -11   -1    0    0    0    0  0.00000000000E+00  0.00000000000E+00  0.45593999997E+02  0.45594000000E+02  0.51100000000E-03 0. -1.
         11   -1    0    0    0    0 -0.00000000000E+00 -0.00000000000E+00 -0.45593999997E+02  0.45594000000E+02  0.51100000000E-03 0.  1.
         23    2    1    2    0    0  0.00000000000E+00  0.35527136788E-14  0.71054273576E-14  0.91188000000E+02  0.91188000000E+02 0.  0.
    9900012    2    3    3    0    0 -0.58535992275E+00 -0.24839269866E+02 -0.35584987401E+02  0.47787270720E+02  0.19999998522E+02 0.  0.
         12    1    3    3    0    0  0.58535992275E+00  0.24839269866E+02  0.35584987401E+02  0.43400729280E+02  0.00000000000E+00 0. -1.
         11    1    4    4    0    0  0.18202780978E+01 -0.90791974714E+00  0.20738237907E+01  0.29049055056E+01  0.51100000000E-03 0. -1.
        -11    1    4    4    0    0 -0.18991814698E+01 -0.38289804082E+01 -0.57197479490E+01  0.71402729698E+01  0.51100000000E-03 0.  1.
        -12    1    4    4    0    0 -0.50645655074E+00 -0.20102369711E+02 -0.31939063242E+02  0.37742092245E+02  0.00000000000E+00 0.  1.
</event>
<event>
 8    1  0.2994958E-010  0.9118800E+02  0.7816164E-02  0.1184000E+00
        -11   -1    0    0    0    0  0.00000000000E+00  0.00000000000E+00  0.45593999997E+02  0.45594000000E+02  0.51100000000E-03 0. -1.
         11   -1    0    0    0    0 -0.00000000000E+00 -0.00000000000E+00 -0.45593999997E+02  0.45594000000E+02  0.51100000000E-03 0.  1.
         23    2    1    2    0    0  0.00000000000E+00  0.00000000000E+00  0.00000000000E+00  0.91188000000E+02  0.91188000000E+02 0.  0.
    9900012    2    3    3    0    0 -0.96876120847E+01 -0.17278808173E+02 -0.38616241798E+02  0.47787295278E+02  0.20000110490E+02 0.  0.
         12    1    3    3    0    0  0.96876120847E+01  0.17278808173E+02  0.38616241798E+02  0.43400704722E+02  0.00000000000E+00 0. -1.
         11    1    4    4    0    0 -0.36802993932E+01 -0.26083347625E+01  0.59096959906E-01  0.45112644090E+01  0.51100000000E-03 0. -1.
        -11    1    4    4    0    0 -0.51586781370E+01 -0.46877774441E+00 -0.97066897630E+01  0.11002342437E+02  0.51100000000E-03 0.  1.
        -12    1    4    4    0    0 -0.84863455453E+00 -0.14201695666E+02 -0.28968648995E+02  0.32273688432E+02  0.00000000000E+00 0.  1.
</event>
<event>
 8    1  0.2994958E-010  0.9118800E+02  0.7816164E-02  0.1184000E+00
        -11   -1    0    0    0    0  0.00000000000E+00  0.00000000000E+00  0.45593999997E+02  0.45594000000E+02  0.51100000000E-03 0. -1.
         11   -1    0    0    0    0 -0.00000000000E+00 -0.00000000000E+00 -0.45593999997E+02  0.45594000000E+02  0.51100000000E-03 0.  1.
         23    2    1    2    0    0  0.00000000000E+00  0.00000000000E+00  0.00000000000E+00  0.91188000000E+02  0.91188000000E+02 0.  0.
    9900012    2    3    3    0    0 -0.14680756013E+02  0.22525158954E+02 -0.34069277460E+02  0.47787273627E+02  0.20000011776E+02 0.  0.
         12    1    3    3    0    0  0.14680756013E+02 -0.22525158954E+02  0.34069277460E+02  0.43400726373E+02  0.00000000000E+00 0. -1.
         11    1    4    4    0    0 -0.21878994782E+01 -0.24083861351E+01 -0.55964484935E+01  0.64735974469E+01  0.51100000000E-03 0. -1.
        -11    1    4    4    0    0 -0.50567294505E+01  0.92642472634E+01 -0.18520739899E+02  0.21317002528E+02  0.51100000000E-03 0.  1.
        -12    1    4    4    0    0 -0.74361270838E+01  0.15669297826E+02 -0.99520890675E+01  0.19996673653E+02  0.00000000000E+00 0.  1.
</event>
<event>
 8    1  0.2994958E-010  0.9118800E+02  0.7816164E-02  0.1184000E+00
        -11   -1    0    0    0    0  0.00000000000E+00  0.00000000000E+00  0.45593999997E+02  0.45594000000E+02  0.51100000000E-03 0. -1.
         11   -1    0    0    0    0 -0.00000000000E+00 -0.00000000000E+00 -0.45593999997E+02  0.45594000000E+02  0.51100000000E-03 0.  1.
         23    2    1    2    0    0  0.00000000000E+00  0.00000000000E+00  0.22204460493E-15  0.91188000000E+02  0.91188000000E+02 0.  0.
    9900012    2    3    3    0    0 -0.83136852060E+01  0.42590583697E+02  0.74047848810E+00  0.47787268558E+02  0.19999988663E+02 0.  0.
         12    1    3    3    0    0  0.83136852060E+01 -0.42590583697E+02 -0.74047848810E+00  0.43400731442E+02  0.00000000000E+00 0. -1.
         11    1    4    4    0    0  0.96983140104E-01  0.35114726442E+01 -0.11306958127E+01  0.36903006845E+01  0.51100000000E-03 0. -1.
        -11    1    4    4    0    0 -0.32429406248E+01 -0.76196786738E+00  0.20693168813E+01  0.39216490846E+01  0.51100000000E-03 0.  1.
        -12    1    4    4    0    0 -0.51677277214E+01  0.39841078920E+02 -0.19814258043E+00  0.40175318789E+02  0.00000000000E+00 0.  1.
</event>
<event>
 8    1  0.2994958E-010  0.9118800E+02  0.7816164E-02  0.1184000E+00
        -11   -1    0    0    0    0  0.00000000000E+00  0.00000000000E+00  0.45593999997E+02  0.45594000000E+02  0.51100000000E-03 0. -1.
         11   -1    0    0    0    0 -0.00000000000E+00 -0.00000000000E+00 -0.45593999997E+02  0.45594000000E+02  0.51100000000E-03 0.  1.
         23    2    1    2    0    0  0.00000000000E+00  0.17763568394E-14 -0.35527136788E-14  0.91188000000E+02  0.91188000000E+02 0.  0.
    9900012    2    3    3    0    0 -0.30361027506E+02  0.14266568677E+02 -0.27537179171E+02  0.47787271784E+02  0.20000003370E+02 0.  0.
         12    1    3    3    0    0  0.30361027506E+02 -0.14266568677E+02  0.27537179171E+02  0.43400728216E+02  0.00000000000E+00 0. -1.
         11    1    4    4    0    0 -0.11744256112E+02  0.65320674826E+01 -0.41186812883E+01  0.14055568044E+02  0.51100000000E-03 0. -1.
        -11    1    4    4    0    0 -0.21113873264E+01  0.72723172850E+01 -0.54581334649E+01  0.93346545902E+01  0.51100000000E-03 0.  1.
         12    1    4    4    0    0 -0.16505384068E+02  0.46218390911E+00 -0.17960364418E+02  0.24397049150E+02  0.00000000000E+00 0. -1.
</event>
<event>
 8    1  0.2994958E-010  0.9118800E+02  0.7816164E-02  0.1184000E+00
        -11   -1    0    0    0    0  0.00000000000E+00  0.00000000000E+00  0.45593999997E+02  0.45594000000E+02  0.51100000000E-03 0. -1.
         11   -1    0    0    0    0 -0.00000000000E+00 -0.00000000000E+00 -0.45593999997E+02  0.45594000000E+02  0.51100000000E-03 0.  1.
         23    2    1    2    0    0 -0.26367796835E-15  0.00000000000E+00 -0.35527136788E-14  0.91188000000E+02  0.91188000000E+02 0.  0.
    9900012    2    3    3    0    0  0.99122375057E-01 -0.30179724776E+02 -0.31189708581E+02  0.47787268046E+02  0.19999986327E+02 0.  0.
         12    1    3    3    0    0 -0.99122375057E-01  0.30179724776E+02  0.31189708581E+02  0.43400731954E+02  0.00000000000E+00 0. -1.
         11    1    4    4    0    0 -0.56183020859E+01 -0.11661940709E+02 -0.11993237631E+02  0.17646640716E+02  0.51100000000E-03 0.  1.
        -11    1    4    4    0    0 -0.41572030597E+01 -0.53814518473E+01 -0.58346476055E+01  0.89602161919E+01  0.51100000000E-03 0. -1.
         12    1    4    4    0    0  0.98746275206E+01 -0.13136332219E+02 -0.13361823345E+02  0.21180411137E+02  0.00000000000E+00 0. -1.
</event>
<event>
 8    1  0.2994958E-010  0.9118800E+02  0.7816164E-02  0.1184000E+00
        -11   -1    0    0    0    0  0.00000000000E+00  0.00000000000E+00  0.45593999997E+02  0.45594000000E+02  0.51100000000E-03 0. -1.
         11   -1    0    0    0    0 -0.00000000000E+00 -0.00000000000E+00 -0.45593999997E+02  0.45594000000E+02  0.51100000000E-03 0.  1.
         23    2    1    2    0    0 -0.35527136788E-14  0.00000000000E+00  0.35527136788E-14  0.91188000000E+02  0.91188000000E+02 0.  0.
    9900012    2    3    3    0    0  0.26846361059E+02  0.22555235317E+02 -0.25576505492E+02  0.47787269874E+02  0.19999994662E+02 0.  0.
         12    1    3    3    0    0 -0.26846361059E+02 -0.22555235317E+02  0.25576505492E+02  0.43400730126E+02  0.00000000000E+00 0. -1.
         11    1    4    4    0    0 -0.64740013275E+00  0.55136767478E+01 -0.22315275222E+01  0.59832661277E+01  0.51100000000E-03 0. -1.
        -11    1    4    4    0    0  0.66601469293E+01  0.10611756730E+02 -0.57421459839E+01  0.13781842358E+02  0.51100000000E-03 0.  1.
        -12    1    4    4    0    0  0.20833614263E+02  0.64298018391E+01 -0.17602831986E+02  0.28022161388E+02  0.00000000000E+00 0.  1.
</event>
<event>
 8    1  0.2994958E-010  0.9118800E+02  0.7816164E-02  0.1184000E+00
        -11   -1    0    0    0    0  0.00000000000E+00  0.00000000000E+00  0.45593999997E+02  0.45594000000E+02  0.51100000000E-03 0. -1.
         11   -1    0    0    0    0 -0.00000000000E+00 -0.00000000000E+00 -0.45593999997E+02  0.45594000000E+02  0.51100000000E-03 0.  1.
         23    2    1    2    0    0 -0.17763568394E-14  0.00000000000E+00  0.71054273576E-14  0.91188000000E+02  0.91188000000E+02 0.  0.
    9900012    2    3    3    0    0 -0.93410751209E+01 -0.16745763208E+02  0.38935160237E+02  0.47787274516E+02  0.20000015829E+02 0.  0.
        -12    1    3    3    0    0  0.93410751209E+01  0.16745763208E+02 -0.38935160237E+02  0.43400725484E+02  0.00000000000E+00 0.  1.
         11    1    4    4    0    0  0.38115218784E+01 -0.67469338164E+01  0.12913830728E+02  0.15060406345E+02  0.51100000000E-03 0. -1.
        -11    1    4    4    0    0 -0.20779451505E+01  0.21111304881E+01  0.17882382126E+01  0.34601335454E+01  0.51100000000E-03 0.  1.
         12    1    4    4    0    0 -0.11074651849E+02 -0.12109959880E+02  0.24233091297E+02  0.29266734626E+02  0.00000000000E+00 0. -1.
</event>
<event>
 8    1  0.2994958E-010  0.9118800E+02  0.7816164E-02  0.1184000E+00
        -11   -1    0    0    0    0  0.00000000000E+00  0.00000000000E+00  0.45593999997E+02  0.45594000000E+02  0.51100000000E-03 0. -1.
         11   -1    0    0    0    0 -0.00000000000E+00 -0.00000000000E+00 -0.45593999997E+02  0.45594000000E+02  0.51100000000E-03 0.  1.
         23    2    1    2    0    0  0.00000000000E+00  0.44408920985E-15 -0.71054273576E-14  0.91188000000E+02  0.91188000000E+02 0.  0.
    9900012    2    3    3    0    0  0.16771737768E+02  0.30812444297E+01 -0.39910374580E+02  0.47787271273E+02  0.20000001041E+02 0.  0.
         12    1    3    3    0    0 -0.16771737768E+02 -0.30812444297E+01  0.39910374580E+02  0.43400728727E+02  0.00000000000E+00 0. -1.
         11    1    4    4    0    0  0.31808285303E+01  0.11715323300E+01 -0.44403268081E+01  0.55862922018E+01  0.51100000000E-03 0. -1.
        -11    1    4    4    0    0  0.72639090837E+00 -0.45365206357E+01 -0.22054612333E+02  0.22528062248E+02  0.51100000000E-03 0.  1.
        -12    1    4    4    0    0  0.12864518329E+02  0.64462327354E+01 -0.13415435438E+02  0.19672916823E+02  0.00000000000E+00 0.  1.
</event>
<event>
 8    1  0.2994958E-010  0.9118800E+02  0.7816164E-02  0.1184000E+00
        -11   -1    0    0    0    0  0.00000000000E+00  0.00000000000E+00  0.45593999997E+02  0.45594000000E+02  0.51100000000E-03 0. -1.
         11   -1    0    0    0    0 -0.00000000000E+00 -0.00000000000E+00 -0.45593999997E+02  0.45594000000E+02  0.51100000000E-03 0.  1.
         23    2    1    2    0    0  0.00000000000E+00 -0.35527136788E-14 -0.35527136788E-14  0.91188000000E+02  0.91188000000E+02 0.  0.
    9900012    2    3    3    0    0 -0.23591547767E+02  0.25825059818E+02  0.25692957770E+02  0.47787275126E+02  0.20000018609E+02 0.  0.
        -12    1    3    3    0    0  0.23591547767E+02 -0.25825059818E+02 -0.25692957770E+02  0.43400724874E+02  0.00000000000E+00 0.  1.
         11    1    4    4    0    0 -0.13209539272E+02  0.75757160009E+01  0.12716564169E+02  0.19839213826E+02  0.51100000000E-03 0. -1.
        -11    1    4    4    0    0 -0.72339205770E+01  0.26772978175E+01  0.46772970460E+00  0.77276323577E+01  0.51100000000E-03 0.  1.
        -12    1    4    4    0    0 -0.31480879186E+01  0.15572045999E+02  0.12508663896E+02  0.20220428942E+02  0.00000000000E+00 0.  1.
</event>
<event>
 8    1  0.2994958E-010  0.9118800E+02  0.7816164E-02  0.1184000E+00
        -11   -1    0    0    0    0  0.00000000000E+00  0.00000000000E+00  0.45593999997E+02  0.45594000000E+02  0.51100000000E-03 0. -1.
         11   -1    0    0    0    0 -0.00000000000E+00 -0.00000000000E+00 -0.45593999997E+02  0.45594000000E+02  0.51100000000E-03 0.  1.
         23    2    1    2    0    0 -0.88817841970E-15  0.00000000000E+00  0.00000000000E+00  0.91188000000E+02  0.91188000000E+02 0.  0.
    9900012    2    3    3    0    0  0.79618885675E+01  0.57746353848E+01 -0.42271562683E+02  0.47787273105E+02  0.20000009395E+02 0.  0.
         12    1    3    3    0    0 -0.79618885675E+01 -0.57746353848E+01  0.42271562683E+02  0.43400726895E+02  0.00000000000E+00 0. -1.
         11    1    4    4    0    0  0.78753482571E+01 -0.45348500210E+00 -0.97984585803E+01  0.12579211010E+02  0.51100000000E-03 0. -1.
        -11    1    4    4    0    0  0.12830134489E+01 -0.29561745072E+01 -0.33531620927E+01  0.46506760270E+01  0.51100000000E-03 0.  1.
        -12    1    4    4    0    0 -0.11964731385E+01  0.91842948941E+01 -0.29119942010E+02  0.30557386068E+02  0.00000000000E+00 0.  1.
</event>
<event>
 8    1  0.2994958E-010  0.9118800E+02  0.7816164E-02  0.1184000E+00
        -11   -1    0    0    0    0  0.00000000000E+00  0.00000000000E+00  0.45593999997E+02  0.45594000000E+02  0.51100000000E-03 0. -1.
         11   -1    0    0    0    0 -0.00000000000E+00 -0.00000000000E+00 -0.45593999997E+02  0.45594000000E+02  0.51100000000E-03 0.  1.
         23    2    1    2    0    0 -0.35527136788E-14 -0.35527136788E-14  0.35527136788E-14  0.91188000000E+02  0.91188000000E+02 0.  0.
    9900012    2    3    3    0    0  0.22608291212E+02  0.20630369639E+02 -0.30771431768E+02  0.47787216643E+02  0.19999751960E+02 0.  0.
         12    1    3    3    0    0 -0.22608291212E+02 -0.20630369639E+02  0.30771431768E+02  0.43400783357E+02  0.00000000000E+00 0. -1.
         11    1    4    4    0    0 -0.11624753977E+00 -0.13156952757E+01  0.12263774590E+01  0.18023788398E+01  0.51100000000E-03 0. -1.
        -11    1    4    4    0    0  0.76066616706E+01  0.29075289142E+01 -0.45867336161E+01  0.93462907982E+01  0.51100000000E-03 0.  1.
        -12    1    4    4    0    0  0.15117877081E+02  0.19038536000E+02 -0.27411075611E+02  0.36638547005E+02  0.00000000000E+00 0.  1.
</event>
<event>
 8    1  0.2994958E-010  0.9118800E+02  0.7816164E-02  0.1184000E+00
        -11   -1    0    0    0    0  0.00000000000E+00  0.00000000000E+00  0.45593999997E+02  0.45594000000E+02  0.51100000000E-03 0.  1.
         11   -1    0    0    0    0 -0.00000000000E+00 -0.00000000000E+00 -0.45593999997E+02  0.45594000000E+02  0.51100000000E-03 0. -1.
         23    2    1    2    0    0  0.00000000000E+00  0.00000000000E+00 -0.35527136788E-14  0.91188000000E+02  0.91188000000E+02 0.  0.
    9900012    2    3    3    0    0 -0.11123643920E+02  0.35736163086E+02  0.21973037813E+02  0.47787271931E+02  0.20000004043E+02 0.  0.
        -12    1    3    3    0    0  0.11123643920E+02 -0.35736163086E+02 -0.21973037813E+02  0.43400728069E+02  0.00000000000E+00 0.  1.
         11    1    4    4    0    0 -0.16737225157E+01  0.20615614769E+02  0.14537151863E+02  0.25281093804E+02  0.51100000000E-03 0. -1.
        -11    1    4    4    0    0 -0.35791792915E+01  0.14135527799E+02  0.25454290016E+01  0.14802124159E+02  0.51100000000E-03 0.  1.
        -12    1    4    4    0    0 -0.58707421132E+01  0.98502051774E+00  0.48904569485E+01  0.77040539682E+01  0.00000000000E+00 0.  1.
</event>
<event>
 8    1  0.2994958E-010  0.9118800E+02  0.7816164E-02  0.1184000E+00
        -11   -1    0    0    0    0  0.00000000000E+00  0.00000000000E+00  0.45593999997E+02  0.45594000000E+02  0.51100000000E-03 0. -1.
         11   -1    0    0    0    0 -0.00000000000E+00 -0.00000000000E+00 -0.45593999997E+02  0.45594000000E+02  0.51100000000E-03 0.  1.
         23    2    1    2    0    0  0.00000000000E+00  0.00000000000E+00  0.00000000000E+00  0.91188000000E+02  0.91188000000E+02 0.  0.
    9900012    2    3    3    0    0 -0.10893741149E+02  0.17998031607E+02 -0.37960764306E+02  0.47787281519E+02  0.20000047759E+02 0.  0.
         12    1    3    3    0    0  0.10893741149E+02 -0.17998031607E+02  0.37960764306E+02  0.43400718481E+02  0.00000000000E+00 0. -1.
         11    1    4    4    0    0  0.34831547606E+01  0.53219091966E+01 -0.21402428586E+02  0.22327539816E+02  0.51100000000E-03 0.  1.
        -11    1    4    4    0    0 -0.31006042900E+01  0.16179370222E+01 -0.23320914573E+01  0.42035839468E+01  0.51100000000E-03 0. -1.
        -12    1    4    4    0    0 -0.11276291619E+02  0.11058185388E+02 -0.14226244262E+02  0.21256157757E+02  0.00000000000E+00 0.  1.
</event>
<event>
 8    1  0.2994958E-010  0.9118800E+02  0.7816164E-02  0.1184000E+00
        -11   -1    0    0    0    0  0.00000000000E+00  0.00000000000E+00  0.45593999997E+02  0.45594000000E+02  0.51100000000E-03 0. -1.
         11   -1    0    0    0    0 -0.00000000000E+00 -0.00000000000E+00 -0.45593999997E+02  0.45594000000E+02  0.51100000000E-03 0.  1.
         23    2    1    2    0    0  0.17763568394E-14 -0.71054273576E-14  0.00000000000E+00  0.91188000000E+02  0.91188000000E+02 0.  0.
    9900012    2    3    3    0    0 -0.13113950581E+02  0.22264672246E+02 -0.34870218434E+02  0.47787268857E+02  0.19999990027E+02 0.  0.
         12    1    3    3    0    0  0.13113950581E+02 -0.22264672246E+02  0.34870218434E+02  0.43400731143E+02  0.00000000000E+00 0. -1.
         11    1    4    4    0    0 -0.54802659026E+01  0.94557435257E+00 -0.24351468161E+01  0.60710267251E+01  0.51100000000E-03 0. -1.
        -11    1    4    4    0    0 -0.83465305721E+01  0.17396819075E+02 -0.16810595462E+02  0.25591209556E+02  0.51100000000E-03 0.  1.
        -12    1    4    4    0    0  0.71284589337E+00  0.39222788185E+01 -0.15624476156E+02  0.16125032575E+02  0.00000000000E+00 0.  1.
</event>
<event>
 8    1  0.2994958E-010  0.9118800E+02  0.7816164E-02  0.1184000E+00
        -11   -1    0    0    0    0  0.00000000000E+00  0.00000000000E+00  0.45593999997E+02  0.45594000000E+02  0.51100000000E-03 0.  1.
         11   -1    0    0    0    0 -0.00000000000E+00 -0.00000000000E+00 -0.45593999997E+02  0.45594000000E+02  0.51100000000E-03 0. -1.
         23    2    1    2    0    0  0.71054273576E-14 -0.17763568394E-14 -0.35527136788E-14  0.91188000000E+02  0.91188000000E+02 0.  0.
    9900012    2    3    3    0    0  0.39852589991E+02 -0.11692654882E+02 -0.12596682839E+02  0.47787268143E+02  0.19999986769E+02 0.  0.
         12    1    3    3    0    0 -0.39852589991E+02  0.11692654882E+02  0.12596682839E+02  0.43400731857E+02  0.00000000000E+00 0. -1.
         11    1    4    4    0    0  0.13031560126E+02 -0.59672445324E+01 -0.40940521552E+01  0.14906066883E+02  0.51100000000E-03 0. -1.
        -11    1    4    4    0    0  0.27244940880E+02 -0.38569937265E+01 -0.11085208826E+02  0.29665553411E+02  0.51100000000E-03 0.  1.
         12    1    4    4    0    0 -0.42391101481E+00 -0.18684166231E+01  0.25825781421E+01  0.32156478486E+01  0.00000000000E+00 0. -1.
</event>
<event>
 8    1  0.2994958E-010  0.9118800E+02  0.7816164E-02  0.1184000E+00
        -11   -1    0    0    0    0  0.00000000000E+00  0.00000000000E+00  0.45593999997E+02  0.45594000000E+02  0.51100000000E-03 0. -1.
         11   -1    0    0    0    0 -0.00000000000E+00 -0.00000000000E+00 -0.45593999997E+02  0.45594000000E+02  0.51100000000E-03 0.  1.
         23    2    1    2    0    0  0.88817841970E-15 -0.71054273576E-14 -0.35527136788E-14  0.91188000000E+02  0.91188000000E+02 0.  0.
    9900012    2    3    3    0    0  0.60857274233E+01 -0.34813443156E+02 -0.25191495010E+02  0.47787270473E+02  0.19999997394E+02 0.  0.
         12    1    3    3    0    0 -0.60857274233E+01  0.34813443156E+02  0.25191495010E+02  0.43400729527E+02  0.00000000000E+00 0. -1.
         11    1    4    4    0    0  0.16613353120E+01 -0.17329142617E+02 -0.86229584842E+01  0.19427162225E+02  0.51100000000E-03 0. -1.
        -11    1    4    4    0    0  0.43749010279E+01 -0.18502134478E+02 -0.18275808489E+02  0.26371839440E+02  0.51100000000E-03 0.  1.
         12    1    4    4    0    0  0.49491083458E-01  0.10178339384E+01  0.17072719638E+01  0.19882688077E+01  0.00000000000E+00 0. -1.
</event>
<event>
 8    1  0.2994958E-010  0.9118800E+02  0.7816164E-02  0.1184000E+00
        -11   -1    0    0    0    0  0.00000000000E+00  0.00000000000E+00  0.45593999997E+02  0.45594000000E+02  0.51100000000E-03 0.  1.
         11   -1    0    0    0    0 -0.00000000000E+00 -0.00000000000E+00 -0.45593999997E+02  0.45594000000E+02  0.51100000000E-03 0. -1.
         23    2    1    2    0    0  0.00000000000E+00  0.00000000000E+00  0.17763568394E-14  0.91188000000E+02  0.91188000000E+02 0.  0.
    9900012    2    3    3    0    0  0.41570499108E+02 -0.65177595234E+01  0.10631805825E+02  0.47787275577E+02  0.20000020668E+02 0.  0.
         12    1    3    3    0    0 -0.41570499108E+02  0.65177595234E+01 -0.10631805825E+02  0.43400724423E+02  0.00000000000E+00 0. -1.
         11    1    4    4    0    0  0.18932577655E+02  0.11378861393E+01  0.50027026765E+00  0.18973337928E+02  0.51100000000E-03 0.  1.
        -11    1    4    4    0    0  0.35571967394E+00 -0.44445922741E+01  0.18293366371E+01  0.48194823127E+01  0.51100000000E-03 0. -1.
         12    1    4    4    0    0  0.22282201779E+02 -0.32110533887E+01  0.83021989202E+01  0.23994455337E+02  0.00000000000E+00 0. -1.
</event>
<event>
 8    1  0.2994958E-010  0.9118800E+02  0.7816164E-02  0.1184000E+00
        -11   -1    0    0    0    0  0.00000000000E+00  0.00000000000E+00  0.45593999997E+02  0.45594000000E+02  0.51100000000E-03 0.  1.
         11   -1    0    0    0    0 -0.00000000000E+00 -0.00000000000E+00 -0.45593999997E+02  0.45594000000E+02  0.51100000000E-03 0. -1.
         23    2    1    2    0    0  0.88817841970E-15  0.00000000000E+00  0.00000000000E+00  0.91188000000E+02  0.91188000000E+02 0.  0.
    9900012    2    3    3    0    0 -0.53659752614E+01 -0.10505304059E+02 -0.41766831712E+02  0.47787270338E+02  0.19999996781E+02 0.  0.
         12    1    3    3    0    0  0.53659752614E+01  0.10505304059E+02  0.41766831712E+02  0.43400729662E+02  0.00000000000E+00 0. -1.
         11    1    4    4    0    0  0.23263579720E+01  0.10747640018E+01 -0.12583597275E+02  0.12841883807E+02  0.51100000000E-03 0. -1.
        -11    1    4    4    0    0 -0.57502921764E+01  0.15429884197E+01 -0.87477799029E+01  0.10581603228E+02  0.51100000000E-03 0.  1.
        -12    1    4    4    0    0 -0.19420410570E+01 -0.13123056480E+02 -0.20435454535E+02  0.24363783304E+02  0.00000000000E+00 0.  1.
</event>
<event>
 8    1  0.2994958E-010  0.9118800E+02  0.7816164E-02  0.1184000E+00
        -11   -1    0    0    0    0  0.00000000000E+00  0.00000000000E+00  0.45593999997E+02  0.45594000000E+02  0.51100000000E-03 0.  1.
         11   -1    0    0    0    0 -0.00000000000E+00 -0.00000000000E+00 -0.45593999997E+02  0.45594000000E+02  0.51100000000E-03 0. -1.
         23    2    1    2    0    0  0.17763568394E-14  0.00000000000E+00  0.00000000000E+00  0.91188000000E+02  0.91188000000E+02 0.  0.
    9900012    2    3    3    0    0  0.14630917263E+02 -0.39662377720E+02  0.98211723771E+01  0.47787269900E+02  0.19999994780E+02 0.  0.
        -12    1    3    3    0    0 -0.14630917263E+02  0.39662377720E+02 -0.98211723771E+01  0.43400730100E+02  0.00000000000E+00 0.  1.
         11    1    4    4    0    0  0.61575998284E+01 -0.12415958163E+02 -0.53562107143E+01  0.14858029689E+02  0.51100000000E-03 0. -1.
        -11    1    4    4    0    0  0.75874112135E+00 -0.59142182046E+00  0.19810300566E+01  0.22022597951E+01  0.51100000000E-03 0.  1.
         12    1    4    4    0    0  0.77145763136E+01 -0.26654997737E+02  0.13196353035E+02  0.30726980415E+02  0.00000000000E+00 0. -1.
</event>
<event>
 8    1  0.2994958E-010  0.9118800E+02  0.7816164E-02  0.1184000E+00
        -11   -1    0    0    0    0  0.00000000000E+00  0.00000000000E+00  0.45593999997E+02  0.45594000000E+02  0.51100000000E-03 0. -1.
         11   -1    0    0    0    0 -0.00000000000E+00 -0.00000000000E+00 -0.45593999997E+02  0.45594000000E+02  0.51100000000E-03 0.  1.
         23    2    1    2    0    0 -0.35527136788E-14  0.00000000000E+00  0.71054273576E-14  0.91188000000E+02  0.91188000000E+02 0.  0.
    9900012    2    3    3    0    0 -0.18478205610E+02 -0.12629411952E+02  0.37184362134E+02  0.47787275165E+02  0.20000018790E+02 0.  0.
        -12    1    3    3    0    0  0.18478205610E+02  0.12629411952E+02 -0.37184362134E+02  0.43400724835E+02  0.00000000000E+00 0.  1.
         11    1    4    4    0    0 -0.91700755448E+01 -0.23091605842E+01  0.73314844204E+01  0.11965499244E+02  0.51100000000E-03 0. -1.
        -11    1    4    4    0    0 -0.10056925136E+02 -0.12118915219E+01  0.19765878942E+02  0.22210366833E+02  0.51100000000E-03 0.  1.
        -12    1    4    4    0    0  0.74879507020E+00 -0.91083598460E+01  0.10086998772E+02  0.13611409088E+02  0.00000000000E+00 0.  1.
</event>
<event>
 8    1  0.2994958E-010  0.9118800E+02  0.7816164E-02  0.1184000E+00
        -11   -1    0    0    0    0  0.00000000000E+00  0.00000000000E+00  0.45593999997E+02  0.45594000000E+02  0.51100000000E-03 0.  1.
         11   -1    0    0    0    0 -0.00000000000E+00 -0.00000000000E+00 -0.45593999997E+02  0.45594000000E+02  0.51100000000E-03 0. -1.
         23    2    1    2    0    0  0.00000000000E+00  0.00000000000E+00  0.00000000000E+00  0.91188000000E+02  0.91188000000E+02 0.  0.
    9900012    2    3    3    0    0 -0.32701509145E+02  0.17217303361E+02 -0.22755285889E+02  0.47787224993E+02  0.19999790030E+02 0.  0.
         12    1    3    3    0    0  0.32701509145E+02 -0.17217303361E+02  0.22755285889E+02  0.43400775007E+02  0.00000000000E+00 0. -1.
         11    1    4    4    0    0 -0.24344082879E+01  0.19034260033E+00  0.28611935001E+00  0.24585439921E+01  0.51100000000E-03 0. -1.
        -11    1    4    4    0    0 -0.68549987922E+01  0.12963475738E+02 -0.12756203663E+02  0.19436137575E+02  0.51100000000E-03 0.  1.
        -12    1    4    4    0    0 -0.23412102065E+02  0.40634850219E+01 -0.10285201576E+02  0.25892543426E+02  0.00000000000E+00 0.  1.
</event>
<event>
 8    1  0.2994958E-010  0.9118800E+02  0.7816164E-02  0.1184000E+00
        -11   -1    0    0    0    0  0.00000000000E+00  0.00000000000E+00  0.45593999997E+02  0.45594000000E+02  0.51100000000E-03 0. -1.
         11   -1    0    0    0    0 -0.00000000000E+00 -0.00000000000E+00 -0.45593999997E+02  0.45594000000E+02  0.51100000000E-03 0.  1.
         23    2    1    2    0    0  0.35527136788E-14 -0.35527136788E-14  0.35527136788E-14  0.91188000000E+02  0.91188000000E+02 0.  0.
    9900012    2    3    3    0    0  0.31136049462E+02 -0.19069695301E+02  0.23463084380E+02  0.47787272085E+02  0.20000004743E+02 0.  0.
        -12    1    3    3    0    0 -0.31136049462E+02  0.19069695301E+02 -0.23463084380E+02  0.43400727915E+02  0.00000000000E+00 0.  1.
         11    1    4    4    0    0  0.40346426414E+01 -0.75580366831E+01  0.11994559895E+01  0.86510666787E+01  0.51100000000E-03 0.  1.
        -11    1    4    4    0    0  0.20250531532E+02 -0.86742784953E+01  0.87153736892E+01  0.23691451487E+02  0.51100000000E-03 0. -1.
         12    1    4    4    0    0  0.68508752880E+01 -0.28373801225E+01  0.13548254701E+02  0.15444753919E+02  0.00000000000E+00 0. -1.
</event>
<event>
 8    1  0.2994958E-010  0.9118800E+02  0.7816164E-02  0.1184000E+00
        -11   -1    0    0    0    0  0.00000000000E+00  0.00000000000E+00  0.45593999997E+02  0.45594000000E+02  0.51100000000E-03 0. -1.
         11   -1    0    0    0    0 -0.00000000000E+00 -0.00000000000E+00 -0.45593999997E+02  0.45594000000E+02  0.51100000000E-03 0.  1.
         23    2    1    2    0    0  0.00000000000E+00  0.00000000000E+00  0.71054273576E-14  0.91188000000E+02  0.91188000000E+02 0.  0.
    9900012    2    3    3    0    0  0.59500112326E+01 -0.10752128696E+00  0.42990802326E+02  0.47787270984E+02  0.19999999725E+02 0.  0.
        -12    1    3    3    0    0 -0.59500112326E+01  0.10752128696E+00 -0.42990802326E+02  0.43400729016E+02  0.00000000000E+00 0.  1.
         11    1    4    4    0    0 -0.69328390219E+00 -0.10865822109E+00  0.10799058821E+02  0.10821835374E+02  0.51100000000E-03 0. -1.
        -11    1    4    4    0    0  0.13494529022E+01  0.11715535952E+01  0.31441320903E+02  0.31492066006E+02  0.51100000000E-03 0.  1.
         12    1    4    4    0    0  0.52938422326E+01 -0.11704166610E+01  0.75042260240E+00  0.54733696044E+01  0.00000000000E+00 0. -1.
</event>
<event>
 8    1  0.2994958E-010  0.9118800E+02  0.7816164E-02  0.1184000E+00
        -11   -1    0    0    0    0  0.00000000000E+00  0.00000000000E+00  0.45593999997E+02  0.45594000000E+02  0.51100000000E-03 0. -1.
         11   -1    0    0    0    0 -0.00000000000E+00 -0.00000000000E+00 -0.45593999997E+02  0.45594000000E+02  0.51100000000E-03 0.  1.
         23    2    1    2    0    0  0.00000000000E+00  0.00000000000E+00  0.00000000000E+00  0.91188000000E+02  0.91188000000E+02 0.  0.
    9900012    2    3    3    0    0  0.27413808267E+02 -0.24042682120E+02 -0.23538386512E+02  0.47787273200E+02  0.20000009827E+02 0.  0.
         12    1    3    3    0    0 -0.27413808267E+02  0.24042682120E+02  0.23538386512E+02  0.43400726800E+02  0.00000000000E+00 0. -1.
         11    1    4    4    0    0  0.15319320977E+01  0.92663634337E+00  0.99211758775E+00  0.20468923845E+01  0.51100000000E-03 0. -1.
        -11    1    4    4    0    0  0.70930852893E+01 -0.29850574745E+01 -0.11926490445E+02  0.14193787431E+02  0.51100000000E-03 0.  1.
        -12    1    4    4    0    0  0.18788790880E+02 -0.21984260989E+02 -0.12604013655E+02  0.31546593384E+02  0.00000000000E+00 0.  1.
</event>
<event>
 8    1  0.2994958E-010  0.9118800E+02  0.7816164E-02  0.1184000E+00
        -11   -1    0    0    0    0  0.00000000000E+00  0.00000000000E+00  0.45593999997E+02  0.45594000000E+02  0.51100000000E-03 0.  1.
         11   -1    0    0    0    0 -0.00000000000E+00 -0.00000000000E+00 -0.45593999997E+02  0.45594000000E+02  0.51100000000E-03 0. -1.
         23    2    1    2    0    0 -0.35527136788E-14  0.71054273576E-14  0.11102230246E-15  0.91188000000E+02  0.91188000000E+02 0.  0.
    9900012    2    3    3    0    0  0.16700749609E+02 -0.40052224012E+02  0.72572855867E+00  0.47787281483E+02  0.20000047594E+02 0.  0.
        -12    1    3    3    0    0 -0.16700749609E+02  0.40052224012E+02 -0.72572855867E+00  0.43400718517E+02  0.00000000000E+00 0.  1.
         11    1    4    4    0    0  0.46520126246E+00 -0.12663438735E+02  0.84343774506E+00  0.12700018909E+02  0.51100000000E-03 0. -1.
        -11    1    4    4    0    0  0.49542336715E+01 -0.21886124255E+02 -0.13160082277E+01  0.22478406174E+02  0.51100000000E-03 0.  1.
         12    1    4    4    0    0  0.11281314675E+02 -0.55026610224E+01  0.11982990413E+01  0.12608856400E+02  0.00000000000E+00 0. -1.
</event>
<event>
 8    1  0.2994958E-010  0.9118800E+02  0.7816164E-02  0.1184000E+00
        -11   -1    0    0    0    0  0.00000000000E+00  0.00000000000E+00  0.45593999997E+02  0.45594000000E+02  0.51100000000E-03 0. -1.
         11   -1    0    0    0    0 -0.00000000000E+00 -0.00000000000E+00 -0.45593999997E+02  0.45594000000E+02  0.51100000000E-03 0.  1.
         23    2    1    2    0    0 -0.35527136788E-14 -0.44408920985E-15  0.00000000000E+00  0.91188000000E+02  0.91188000000E+02 0.  0.
    9900012    2    3    3    0    0  0.17339719195E+02  0.39229489684E+01 -0.39592527010E+02  0.47787267455E+02  0.19999983636E+02 0.  0.
         12    1    3    3    0    0 -0.17339719195E+02 -0.39229489684E+01  0.39592527010E+02  0.43400732545E+02  0.00000000000E+00 0. -1.
         11    1    4    4    0    0 -0.69432496351E+00  0.20892473228E+01 -0.44598460343E+01  0.49736574511E+01  0.51100000000E-03 0. -1.
        -11    1    4    4    0    0  0.15943874090E+02  0.11106001660E+01 -0.13086171732E+02  0.20656438332E+02  0.51100000000E-03 0.  1.
        -12    1    4    4    0    0  0.20901700688E+01  0.72310147963E+00 -0.22046509244E+02  0.22157171672E+02  0.00000000000E+00 0.  1.
</event>
<event>
 8    1  0.2994958E-010  0.9118800E+02  0.7816164E-02  0.1184000E+00
        -11   -1    0    0    0    0  0.00000000000E+00  0.00000000000E+00  0.45593999997E+02  0.45594000000E+02  0.51100000000E-03 0.  1.
         11   -1    0    0    0    0 -0.00000000000E+00 -0.00000000000E+00 -0.45593999997E+02  0.45594000000E+02  0.51100000000E-03 0. -1.
         23    2    1    2    0    0  0.35527136788E-14  0.35527136788E-14  0.00000000000E+00  0.91188000000E+02  0.91188000000E+02 0.  0.
    9900012    2    3    3    0    0 -0.26420872025E+02 -0.18266312479E+02 -0.29187372890E+02  0.47787269749E+02  0.19999994093E+02 0.  0.
         12    1    3    3    0    0  0.26420872025E+02  0.18266312479E+02  0.29187372890E+02  0.43400730251E+02  0.00000000000E+00 0. -1.
         11    1    4    4    0    0 -0.10021689251E+02 -0.16899547498E+01 -0.28845449457E+01  0.10564601379E+02  0.51100000000E-03 0. -1.
        -11    1    4    4    0    0 -0.16691243284E+02 -0.12652311314E+02 -0.16511864557E+02  0.26670587833E+02  0.51100000000E-03 0.  1.
         12    1    4    4    0    0  0.29206050969E+00 -0.39240464148E+01 -0.97909633870E+01  0.10552080537E+02  0.00000000000E+00 0. -1.
</event>
<event>
 8    1  0.2994958E-010  0.9118800E+02  0.7816164E-02  0.1184000E+00
        -11   -1    0    0    0    0  0.00000000000E+00  0.00000000000E+00  0.45593999997E+02  0.45594000000E+02  0.51100000000E-03 0.  1.
         11   -1    0    0    0    0 -0.00000000000E+00 -0.00000000000E+00 -0.45593999997E+02  0.45594000000E+02  0.51100000000E-03 0. -1.
         23    2    1    2    0    0  0.00000000000E+00  0.00000000000E+00 -0.35527136788E-14  0.91188000000E+02  0.91188000000E+02 0.  0.
    9900012    2    3    3    0    0 -0.14305547553E+02  0.36491369297E+02  0.18637449208E+02  0.47787271470E+02  0.20000001939E+02 0.  0.
        -12    1    3    3    0    0  0.14305547553E+02 -0.36491369297E+02 -0.18637449208E+02  0.43400728530E+02  0.00000000000E+00 0.  1.
         11    1    4    4    0    0  0.10981726712E+01  0.12441406717E+02  0.59523500993E+01  0.13835644412E+02  0.51100000000E-03 0. -1.
        -11    1    4    4    0    0 -0.10968269552E+01  0.81846784086E+01  0.91021246955E+01  0.12289860221E+02  0.51100000000E-03 0.  1.
         12    1    4    4    0    0 -0.14306893269E+02  0.15865284171E+02  0.35829744132E+01  0.21661766837E+02  0.00000000000E+00 0. -1.
</event>
<event>
 8    1  0.2994958E-010  0.9118800E+02  0.7816164E-02  0.1184000E+00
        -11   -1    0    0    0    0  0.00000000000E+00  0.00000000000E+00  0.45593999997E+02  0.45594000000E+02  0.51100000000E-03 0. -1.
         11   -1    0    0    0    0 -0.00000000000E+00 -0.00000000000E+00 -0.45593999997E+02  0.45594000000E+02  0.51100000000E-03 0.  1.
         23    2    1    2    0    0  0.00000000000E+00  0.00000000000E+00 -0.71054273576E-14  0.91188000000E+02  0.91188000000E+02 0.  0.
    9900012    2    3    3    0    0 -0.29306310910E+02 -0.15990532242E+02  0.27732046544E+02  0.47787269752E+02  0.19999994107E+02 0.  0.
        -12    1    3    3    0    0  0.29306310910E+02  0.15990532242E+02 -0.27732046544E+02  0.43400730248E+02  0.00000000000E+00 0.  1.
         11    1    4    4    0    0 -0.17551777262E+02 -0.11161739241E+02  0.24444573905E+02  0.32096518527E+02  0.51100000000E-03 0. -1.
        -11    1    4    4    0    0 -0.18885465604E+01 -0.39595432738E+01  0.37564863354E+01  0.57754463807E+01  0.51100000000E-03 0.  1.
        -12    1    4    4    0    0 -0.98659870875E+01 -0.86924972775E+00 -0.46901369587E+00  0.99153048438E+01  0.00000000000E+00 0.  1.
</event>
<event>
 8    1  0.2994958E-010  0.9118800E+02  0.7816164E-02  0.1184000E+00
        -11   -1    0    0    0    0  0.00000000000E+00  0.00000000000E+00  0.45593999997E+02  0.45594000000E+02  0.51100000000E-03 0. -1.
         11   -1    0    0    0    0 -0.00000000000E+00 -0.00000000000E+00 -0.45593999997E+02  0.45594000000E+02  0.51100000000E-03 0.  1.
         23    2    1    2    0    0  0.17763568394E-14  0.00000000000E+00  0.00000000000E+00  0.91188000000E+02  0.91188000000E+02 0.  0.
    9900012    2    3    3    0    0 -0.92492960681E+01  0.51267014553E+01  0.42092647737E+02  0.47787267989E+02  0.19999986069E+02 0.  0.
        -12    1    3    3    0    0  0.92492960681E+01 -0.51267014553E+01 -0.42092647737E+02  0.43400732011E+02  0.00000000000E+00 0.  1.
         11    1    4    4    0    0 -0.13226263726E+02  0.17373753085E+01  0.31899953622E+02  0.34576864613E+02  0.51100000000E-03 0. -1.
        -11    1    4    4    0    0 -0.35039202236E+00  0.33745540112E+01  0.71690929942E+01  0.79313481807E+01  0.51100000000E-03 0.  1.
         12    1    4    4    0    0  0.43273596802E+01  0.14772135624E-01  0.30236011209E+01  0.52790551954E+01  0.00000000000E+00 0. -1.
</event>
<event>
 8    1  0.2994958E-010  0.9118800E+02  0.7816164E-02  0.1184000E+00
        -11   -1    0    0    0    0  0.00000000000E+00  0.00000000000E+00  0.45593999997E+02  0.45594000000E+02  0.51100000000E-03 0. -1.
         11   -1    0    0    0    0 -0.00000000000E+00 -0.00000000000E+00 -0.45593999997E+02  0.45594000000E+02  0.51100000000E-03 0.  1.
         23    2    1    2    0    0 -0.17763568394E-14  0.00000000000E+00  0.00000000000E+00  0.91188000000E+02  0.91188000000E+02 0.  0.
    9900012    2    3    3    0    0 -0.12036983287E+02 -0.51497324621E+01  0.41378915062E+02  0.47787270481E+02  0.19999997429E+02 0.  0.
        -12    1    3    3    0    0  0.12036983287E+02  0.51497324621E+01 -0.41378915062E+02  0.43400729519E+02  0.00000000000E+00 0.  1.
         11    1    4    4    0    0 -0.47090382557E+01 -0.19898792657E+01  0.10281352167E+02  0.11482197675E+02  0.51100000000E-03 0. -1.
        -11    1    4    4    0    0 -0.12213685626E+02 -0.40382614519E+01  0.16728544619E+02  0.21102745733E+02  0.51100000000E-03 0.  1.
         12    1    4    4    0    0  0.48857405952E+01  0.87840825547E+00  0.14369018276E+02  0.15202327073E+02  0.00000000000E+00 0. -1.
</event>
<event>
 8    1  0.2994958E-010  0.9118800E+02  0.7816164E-02  0.1184000E+00
        -11   -1    0    0    0    0  0.00000000000E+00  0.00000000000E+00  0.45593999997E+02  0.45594000000E+02  0.51100000000E-03 0.  1.
         11   -1    0    0    0    0 -0.00000000000E+00 -0.00000000000E+00 -0.45593999997E+02  0.45594000000E+02  0.51100000000E-03 0. -1.
         23    2    1    2    0    0  0.17763568394E-14  0.71054273576E-14 -0.17763568394E-14  0.91188000000E+02  0.91188000000E+02 0.  0.
    9900012    2    3    3    0    0  0.10026018366E+02  0.41278580221E+02 -0.88983713294E+01  0.47787271415E+02  0.20000001690E+02 0.  0.
        -12    1    3    3    0    0 -0.10026018366E+02 -0.41278580221E+02  0.88983713294E+01  0.43400728585E+02  0.00000000000E+00 0.  1.
         11    1    4    4    0    0  0.44052132048E+01  0.72793825878E+01 -0.39729483835E+01  0.93904011287E+01  0.51100000000E-03 0. -1.
        -11    1    4    4    0    0 -0.44729608789E+01  0.21096116463E+02 -0.43816528768E+01  0.22005735413E+02  0.51100000000E-03 0.  1.
         12    1    4    4    0    0  0.10093766040E+02  0.12903081170E+02 -0.54377006909E+00  0.16391134874E+02  0.00000000000E+00 0. -1.
</event>
<event>
 8    1  0.2994958E-010  0.9118800E+02  0.7816164E-02  0.1184000E+00
        -11   -1    0    0    0    0  0.00000000000E+00  0.00000000000E+00  0.45593999997E+02  0.45594000000E+02  0.51100000000E-03 0. -1.
         11   -1    0    0    0    0 -0.00000000000E+00 -0.00000000000E+00 -0.45593999997E+02  0.45594000000E+02  0.51100000000E-03 0.  1.
         23    2    1    2    0    0  0.00000000000E+00  0.00000000000E+00  0.00000000000E+00  0.91188000000E+02  0.91188000000E+02 0.  0.
    9900012    2    3    3    0    0  0.18015452609E+02 -0.30319657943E+02  0.25293978427E+02  0.47787268034E+02  0.19999986276E+02 0.  0.
        -12    1    3    3    0    0 -0.18015452609E+02  0.30319657943E+02 -0.25293978427E+02  0.43400731966E+02  0.00000000000E+00 0.  1.
         11    1    4    4    0    0  0.10525298776E+01 -0.65275375935E+00  0.48950126313E+01  0.50492628705E+01  0.51100000000E-03 0. -1.
        -11    1    4    4    0    0  0.24090317174E+01 -0.13451146924E+02  0.14997288022E+02  0.20289293621E+02  0.51100000000E-03 0.  1.
         12    1    4    4    0    0  0.14553891014E+02 -0.16215757259E+02  0.54016777741E+01  0.22448711543E+02  0.00000000000E+00 0. -1.
</event>
<event>
 8    1  0.2994958E-010  0.9118800E+02  0.7816164E-02  0.1184000E+00
        -11   -1    0    0    0    0  0.00000000000E+00  0.00000000000E+00  0.45593999997E+02  0.45594000000E+02  0.51100000000E-03 0. -1.
         11   -1    0    0    0    0 -0.00000000000E+00 -0.00000000000E+00 -0.45593999997E+02  0.45594000000E+02  0.51100000000E-03 0.  1.
         23    2    1    2    0    0  0.00000000000E+00  0.00000000000E+00  0.00000000000E+00  0.91188000000E+02  0.91188000000E+02 0.  0.
    9900012    2    3    3    0    0 -0.23280762410E+02 -0.31167816748E+02  0.19240494226E+02  0.47787270544E+02  0.19999997720E+02 0.  0.
        -12    1    3    3    0    0  0.23280762410E+02  0.31167816748E+02 -0.19240494226E+02  0.43400729456E+02  0.00000000000E+00 0.  1.
         11    1    4    4    0    0 -0.80051365774E+01 -0.10037979313E+02  0.49757903526E+01  0.13769594410E+02  0.51100000000E-03 0. -1.
        -11    1    4    4    0    0 -0.63942681692E+00 -0.10503739259E+02 -0.69467907630E+00  0.10546088581E+02  0.51100000000E-03 0.  1.
         12    1    4    4    0    0 -0.14636199016E+02 -0.10626098176E+02  0.14959382950E+02  0.23471587554E+02  0.00000000000E+00 0. -1.
</event>
<event>
 8    1  0.2994958E-010  0.9118800E+02  0.7816164E-02  0.1184000E+00
        -11   -1    0    0    0    0  0.00000000000E+00  0.00000000000E+00  0.45593999997E+02  0.45594000000E+02  0.51100000000E-03 0. -1.
         11   -1    0    0    0    0 -0.00000000000E+00 -0.00000000000E+00 -0.45593999997E+02  0.45594000000E+02  0.51100000000E-03 0.  1.
         23    2    1    2    0    0  0.00000000000E+00 -0.88817841970E-15  0.00000000000E+00  0.91188000000E+02  0.91188000000E+02 0.  0.
    9900012    2    3    3    0    0  0.28653255931E+02 -0.60126601117E+01 -0.32038452492E+02  0.47787267343E+02  0.19999983123E+02 0.  0.
         12    1    3    3    0    0 -0.28653255931E+02  0.60126601117E+01  0.32038452492E+02  0.43400732657E+02  0.00000000000E+00 0. -1.
         11    1    4    4    0    0  0.20023219458E+01  0.12540072064E+01 -0.16246657351E+01  0.28672924964E+01  0.51100000000E-03 0. -1.
        -11    1    4    4    0    0  0.20989943468E+02 -0.13225038667E+02 -0.22005035833E+02  0.33161739653E+02  0.51100000000E-03 0.  1.
        -12    1    4    4    0    0  0.56609905179E+01  0.59583713485E+01 -0.84087509237E+01  0.11758235194E+02  0.00000000000E+00 0.  1.
</event>
<event>
 8    1  0.2994958E-010  0.9118800E+02  0.7816164E-02  0.1184000E+00
        -11   -1    0    0    0    0  0.00000000000E+00  0.00000000000E+00  0.45593999997E+02  0.45594000000E+02  0.51100000000E-03 0. -1.
         11   -1    0    0    0    0 -0.00000000000E+00 -0.00000000000E+00 -0.45593999997E+02  0.45594000000E+02  0.51100000000E-03 0.  1.
         23    2    1    2    0    0  0.00000000000E+00  0.00000000000E+00  0.00000000000E+00  0.91188000000E+02  0.91188000000E+02 0.  0.
    9900012    2    3    3    0    0 -0.15295711676E+02 -0.24387975050E+02 -0.32479091386E+02  0.47787268440E+02  0.19999988125E+02 0.  0.
         12    1    3    3    0    0  0.15295711676E+02  0.24387975050E+02  0.32479091386E+02  0.43400731560E+02  0.00000000000E+00 0. -1.
         11    1    4    4    0    0 -0.34672193812E+01 -0.10390464370E+01 -0.28925215642E+01  0.46333474936E+01  0.51100000000E-03 0. -1.
        -11    1    4    4    0    0  0.24464155831E+01 -0.10805473683E+02 -0.17237824068E+02  0.20491114894E+02  0.51100000000E-03 0.  1.
        -12    1    4    4    0    0 -0.14274907877E+02 -0.12543454930E+02 -0.12348745753E+02  0.22662806052E+02  0.00000000000E+00 0.  1.
</event>
<event>
 8    1  0.2994958E-010  0.9118800E+02  0.7816164E-02  0.1184000E+00
        -11   -1    0    0    0    0  0.00000000000E+00  0.00000000000E+00  0.45593999997E+02  0.45594000000E+02  0.51100000000E-03 0. -1.
         11   -1    0    0    0    0 -0.00000000000E+00 -0.00000000000E+00 -0.45593999997E+02  0.45594000000E+02  0.51100000000E-03 0.  1.
         23    2    1    2    0    0  0.11102230246E-15  0.00000000000E+00  0.00000000000E+00  0.91188000000E+02  0.91188000000E+02 0.  0.
    9900012    2    3    3    0    0 -0.22265230798E+00  0.14134415456E+02  0.41034035273E+02  0.47787270454E+02  0.19999997309E+02 0.  0.
        -12    1    3    3    0    0  0.22265230798E+00 -0.14134415456E+02 -0.41034035273E+02  0.43400729546E+02  0.00000000000E+00 0.  1.
         11    1    4    4    0    0 -0.49919654723E+01  0.26797677407E+01  0.77825292440E+01  0.96264550130E+01  0.51100000000E-03 0. -1.
        -11    1    4    4    0    0 -0.40238437657E+01  0.44380158031E+00  0.11979309656E+02  0.12644846325E+02  0.51100000000E-03 0.  1.
        -12    1    4    4    0    0  0.87931569300E+01  0.11010846135E+02  0.21272196373E+02  0.25515969116E+02  0.00000000000E+00 0.  1.
</event>
<event>
 8    1  0.1281314E-009  0.9118800E+02  0.7816164E-02  0.1184000E+00
        -11   -1    0    0    0    0  0.00000000000E+00  0.00000000000E+00  0.45593999997E+02  0.45594000000E+02  0.51100000000E-03 0. -1.
         11   -1    0    0    0    0 -0.00000000000E+00 -0.00000000000E+00 -0.45593999997E+02  0.45594000000E+02  0.51100000000E-03 0.  1.
         23    2    1    2    0    0  0.00000000000E+00  0.35527136788E-14  0.00000000000E+00  0.91188000000E+02  0.91188000000E+02 0.  0.
    9900012    2    3    3    0    0 -0.72133498909E+01  0.25843739671E+02  0.34112947071E+02  0.47787257441E+02  0.19999937975E+02 0.  0.
        -12    1    3    3    0    0  0.72133498909E+01 -0.25843739671E+02 -0.34112947071E+02  0.43400742559E+02  0.00000000000E+00 0.  1.
         11    1    4    4    0    0  0.11102735648E+01  0.59546158093E+01  0.35883325042E+01  0.70403328932E+01  0.51100000000E-03 0. -1.
        -11    1    4    4    0    0 -0.32355510881E+00  0.36356633689E+01  0.18838995694E+02  0.19189332846E+02  0.51100000000E-03 0.  1.
        -12    1    4    4    0    0 -0.80000683468E+01  0.16253460493E+02  0.11685618873E+02  0.21557591702E+02  0.00000000000E+00 0.  1.
</event>
<event>
 8    1  0.2994958E-010  0.9118800E+02  0.7816164E-02  0.1184000E+00
        -11   -1    0    0    0    0  0.00000000000E+00  0.00000000000E+00  0.45593999997E+02  0.45594000000E+02  0.51100000000E-03 0. -1.
         11   -1    0    0    0    0 -0.00000000000E+00 -0.00000000000E+00 -0.45593999997E+02  0.45594000000E+02  0.51100000000E-03 0.  1.
         23    2    1    2    0    0  0.00000000000E+00  0.17763568394E-14  0.00000000000E+00  0.91188000000E+02  0.91188000000E+02 0.  0.
    9900012    2    3    3    0    0 -0.25254233365E+02  0.14774411832E+02 -0.32055663661E+02  0.47787249770E+02  0.19999903000E+02 0.  0.
         12    1    3    3    0    0  0.25254233365E+02 -0.14774411832E+02  0.32055663661E+02  0.43400750230E+02  0.00000000000E+00 0. -1.
         11    1    4    4    0    0 -0.14413472719E+01  0.15914439717E+00  0.17716980836E+01  0.22894810019E+01  0.51100000000E-03 0. -1.
        -11    1    4    4    0    0 -0.16984793398E+02  0.51061115332E+01 -0.14532419895E+02  0.22929169415E+02  0.51100000000E-03 0.  1.
        -12    1    4    4    0    0 -0.68280926945E+01  0.95091559014E+01 -0.19294941849E+02  0.22568599353E+02  0.00000000000E+00 0.  1.
</event>
<event>
 8    1  0.2994958E-010  0.9118800E+02  0.7816164E-02  0.1184000E+00
        -11   -1    0    0    0    0  0.00000000000E+00  0.00000000000E+00  0.45593999997E+02  0.45594000000E+02  0.51100000000E-03 0. -1.
         11   -1    0    0    0    0 -0.00000000000E+00 -0.00000000000E+00 -0.45593999997E+02  0.45594000000E+02  0.51100000000E-03 0.  1.
         23    2    1    2    0    0 -0.44408920985E-15 -0.35527136788E-14  0.00000000000E+00  0.91188000000E+02  0.91188000000E+02 0.  0.
    9900012    2    3    3    0    0 -0.46695607613E+00  0.18568972024E+02 -0.39224971637E+02  0.47787272242E+02  0.20000005459E+02 0.  0.
         12    1    3    3    0    0  0.46695607613E+00 -0.18568972024E+02  0.39224971637E+02  0.43400727758E+02  0.00000000000E+00 0. -1.
         11    1    4    4    0    0 -0.11293224590E+01 -0.19141266871E+01 -0.59195886206E+01  0.63230356545E+01  0.51100000000E-03 0. -1.
        -11    1    4    4    0    0  0.58657540022E+01  0.33457726843E+01 -0.81411040374E+01  0.10577279427E+02  0.51100000000E-03 0.  1.
        -12    1    4    4    0    0 -0.52033876193E+01  0.17137326027E+02 -0.25164278979E+02  0.30886957160E+02  0.00000000000E+00 0.  1.
</event>
<event>
 8    1  0.2994958E-010  0.9118800E+02  0.7816164E-02  0.1184000E+00
        -11   -1    0    0    0    0  0.00000000000E+00  0.00000000000E+00  0.45593999997E+02  0.45594000000E+02  0.51100000000E-03 0. -1.
         11   -1    0    0    0    0 -0.00000000000E+00 -0.00000000000E+00 -0.45593999997E+02  0.45594000000E+02  0.51100000000E-03 0.  1.
         23    2    1    2    0    0  0.00000000000E+00  0.00000000000E+00  0.00000000000E+00  0.91188000000E+02  0.91188000000E+02 0.  0.
    9900012    2    3    3    0    0 -0.26626275435E+02  0.32509354616E+02  0.10853872007E+02  0.47787271681E+02  0.20000002900E+02 0.  0.
        -12    1    3    3    0    0  0.26626275435E+02 -0.32509354616E+02 -0.10853872007E+02  0.43400728319E+02  0.00000000000E+00 0.  1.
         11    1    4    4    0    0 -0.65191526264E+01  0.17179976943E+02  0.35334455188E+01  0.18711926577E+02  0.51100000000E-03 0. -1.
        -11    1    4    4    0    0  0.80674484331E+00  0.19925427946E+01 -0.16381333840E+01  0.27026922273E+01  0.51100000000E-03 0.  1.
         12    1    4    4    0    0 -0.20913867652E+02  0.13336834879E+02  0.89585598720E+01  0.26372652876E+02  0.00000000000E+00 0. -1.
</event>
<event>
 8    1  0.4317409E-010  0.9118800E+02  0.7816164E-02  0.1184000E+00
        -11   -1    0    0    0    0  0.00000000000E+00  0.00000000000E+00  0.45593999997E+02  0.45594000000E+02  0.51100000000E-03 0. -1.
         11   -1    0    0    0    0 -0.00000000000E+00 -0.00000000000E+00 -0.45593999997E+02  0.45594000000E+02  0.51100000000E-03 0.  1.
         23    2    1    2    0    0  0.00000000000E+00 -0.17763568394E-14  0.00000000000E+00  0.91188000000E+02  0.91188000000E+02 0.  0.
    9900012    2    3    3    0    0 -0.20372085900E+02  0.67485978947E+01  0.37723438109E+02  0.47787271432E+02  0.20000001768E+02 0.  0.
        -12    1    3    3    0    0  0.20372085900E+02 -0.67485978947E+01 -0.37723438109E+02  0.43400728568E+02  0.00000000000E+00 0.  1.
         11    1    4    4    0    0 -0.86552565472E+01  0.60275980377E+01  0.55929873190E+01  0.11938463528E+02  0.51100000000E-03 0. -1.
        -11    1    4    4    0    0 -0.61599058488E+00  0.40245060693E+01  0.11358441800E+02  0.12066080303E+02  0.51100000000E-03 0.  1.
         12    1    4    4    0    0 -0.11100838768E+02 -0.33035062122E+01  0.20772008990E+02  0.23782727601E+02  0.00000000000E+00 0. -1.
</event>
<event>
 8    1  0.2994958E-010  0.9118800E+02  0.7816164E-02  0.1184000E+00
        -11   -1    0    0    0    0  0.00000000000E+00  0.00000000000E+00  0.45593999997E+02  0.45594000000E+02  0.51100000000E-03 0. -1.
         11   -1    0    0    0    0 -0.00000000000E+00 -0.00000000000E+00 -0.45593999997E+02  0.45594000000E+02  0.51100000000E-03 0.  1.
         23    2    1    2    0    0  0.00000000000E+00 -0.22204460493E-15  0.00000000000E+00  0.91188000000E+02  0.91188000000E+02 0.  0.
    9900012    2    3    3    0    0 -0.32895477373E+02 -0.96984390823E+00  0.28294361909E+02  0.47787263317E+02  0.19999964769E+02 0.  0.
        -12    1    3    3    0    0  0.32895477373E+02  0.96984390823E+00 -0.28294361909E+02  0.43400736683E+02  0.00000000000E+00 0.  1.
         11    1    4    4    0    0  0.16402397484E+01  0.31266006038E+01  0.25895071773E+01  0.43785346236E+01  0.51100000000E-03 0.  1.
        -11    1    4    4    0    0 -0.80097743894E+01 -0.20957361937E+01  0.75295023938E+01  0.11191157336E+02  0.51100000000E-03 0. -1.
        -12    1    4    4    0    0 -0.26525942732E+02 -0.20007083184E+01  0.18175352337E+02  0.32217571357E+02  0.00000000000E+00 0.  1.
</event>
<event>
 8    1  0.2994958E-010  0.9118800E+02  0.7816164E-02  0.1184000E+00
        -11   -1    0    0    0    0  0.00000000000E+00  0.00000000000E+00  0.45593999997E+02  0.45594000000E+02  0.51100000000E-03 0. -1.
         11   -1    0    0    0    0 -0.00000000000E+00 -0.00000000000E+00 -0.45593999997E+02  0.45594000000E+02  0.51100000000E-03 0.  1.
         23    2    1    2    0    0  0.00000000000E+00  0.00000000000E+00  0.00000000000E+00  0.91188000000E+02  0.91188000000E+02 0.  0.
    9900012    2    3    3    0    0 -0.13894510435E+02 -0.50820798120E+01  0.40801206778E+02  0.47787269246E+02  0.19999991800E+02 0.  0.
        -12    1    3    3    0    0  0.13894510435E+02  0.50820798120E+01 -0.40801206778E+02  0.43400730754E+02  0.00000000000E+00 0.  1.
         11    1    4    4    0    0 -0.99395784251E+01 -0.23423102516E+01  0.89644393003E+01  0.13588333555E+02  0.51100000000E-03 0. -1.
        -11    1    4    4    0    0  0.32243253538E+01  0.68665339667E+00  0.17456005004E+02  0.17764568045E+02  0.51100000000E-03 0.  1.
         12    1    4    4    0    0 -0.71792573637E+01 -0.34264229570E+01  0.14380762474E+02  0.16434367646E+02  0.00000000000E+00 0. -1.
</event>
<event>
 8    1  0.2994958E-010  0.9118800E+02  0.7816164E-02  0.1184000E+00
        -11   -1    0    0    0    0  0.00000000000E+00  0.00000000000E+00  0.45593999997E+02  0.45594000000E+02  0.51100000000E-03 0. -1.
         11   -1    0    0    0    0 -0.00000000000E+00 -0.00000000000E+00 -0.45593999997E+02  0.45594000000E+02  0.51100000000E-03 0.  1.
         23    2    1    2    0    0  0.00000000000E+00  0.00000000000E+00  0.00000000000E+00  0.91188000000E+02  0.91188000000E+02 0.  0.
    9900012    2    3    3    0    0 -0.15793910080E+02 -0.11834499108E+02 -0.38653849065E+02  0.47787274058E+02  0.20000013738E+02 0.  0.
         12    1    3    3    0    0  0.15793910080E+02  0.11834499108E+02  0.38653849065E+02  0.43400725942E+02  0.00000000000E+00 0. -1.
         11    1    4    4    0    0 -0.75036863687E+01 -0.63043086553E+00 -0.59071320320E+01  0.95706301412E+01  0.51100000000E-03 0. -1.
        -11    1    4    4    0    0 -0.72299711635E+01 -0.52609783079E+01 -0.59308613276E+01  0.10729654800E+02  0.51100000000E-03 0.  1.
        -12    1    4    4    0    0 -0.10602525482E+01 -0.59430899345E+01 -0.26815855706E+02  0.27486989116E+02  0.00000000000E+00 0.  1.
</event>
<event>
 8    1  0.2994958E-010  0.9118800E+02  0.7816164E-02  0.1184000E+00
        -11   -1    0    0    0    0  0.00000000000E+00  0.00000000000E+00  0.45593999997E+02  0.45594000000E+02  0.51100000000E-03 0. -1.
         11   -1    0    0    0    0 -0.00000000000E+00 -0.00000000000E+00 -0.45593999997E+02  0.45594000000E+02  0.51100000000E-03 0.  1.
         23    2    1    2    0    0  0.00000000000E+00 -0.35527136788E-14  0.00000000000E+00  0.91188000000E+02  0.91188000000E+02 0.  0.
    9900012    2    3    3    0    0 -0.25871195803E+02  0.23790989931E+02  0.25461609596E+02  0.47787268008E+02  0.19999986156E+02 0.  0.
        -12    1    3    3    0    0  0.25871195803E+02 -0.23790989931E+02 -0.25461609596E+02  0.43400731992E+02  0.00000000000E+00 0.  1.
         11    1    4    4    0    0 -0.59278668478E+01  0.56096130406E+01  0.15988629000E+02  0.17951145406E+02  0.51100000000E-03 0. -1.
        -11    1    4    4    0    0 -0.25144583252E+00  0.21258096900E+01 -0.98990448732E+00  0.23584323183E+01  0.51100000000E-03 0.  1.
         12    1    4    4    0    0 -0.19691883123E+02  0.16055567201E+02  0.10462885084E+02  0.27477690284E+02  0.00000000000E+00 0. -1.
</event>
<event>
 8    1  0.2994958E-010  0.9118800E+02  0.7816164E-02  0.1184000E+00
        -11   -1    0    0    0    0  0.00000000000E+00  0.00000000000E+00  0.45593999997E+02  0.45594000000E+02  0.51100000000E-03 0. -1.
         11   -1    0    0    0    0 -0.00000000000E+00 -0.00000000000E+00 -0.45593999997E+02  0.45594000000E+02  0.51100000000E-03 0.  1.
         23    2    1    2    0    0  0.00000000000E+00  0.35527136788E-14  0.00000000000E+00  0.91188000000E+02  0.91188000000E+02 0.  0.
    9900012    2    3    3    0    0 -0.36904242476E+02  0.17703592916E+02 -0.14432005456E+02  0.47787273090E+02  0.20000009326E+02 0.  0.
         12    1    3    3    0    0  0.36904242476E+02 -0.17703592916E+02  0.14432005456E+02  0.43400726910E+02  0.00000000000E+00 0. -1.
         11    1    4    4    0    0 -0.27249318452E+01  0.24236262498E+01  0.35307821823E+00  0.36638616580E+01  0.51100000000E-03 0. -1.
        -11    1    4    4    0    0 -0.19858588227E+02  0.38095565247E+01 -0.15926755895E+02  0.25739809651E+02  0.51100000000E-03 0.  1.
        -12    1    4    4    0    0 -0.14320722403E+02  0.11470410141E+02  0.11416722204E+01  0.18383601780E+02  0.00000000000E+00 0.  1.
</event>
<event>
 8    1  0.2994958E-010  0.9118800E+02  0.7816164E-02  0.1184000E+00
        -11   -1    0    0    0    0  0.00000000000E+00  0.00000000000E+00  0.45593999997E+02  0.45594000000E+02  0.51100000000E-03 0. -1.
         11   -1    0    0    0    0 -0.00000000000E+00 -0.00000000000E+00 -0.45593999997E+02  0.45594000000E+02  0.51100000000E-03 0.  1.
         23    2    1    2    0    0  0.17763568394E-14 -0.35527136788E-14  0.00000000000E+00  0.91188000000E+02  0.91188000000E+02 0.  0.
    9900012    2    3    3    0    0  0.12546360029E+02  0.15930678034E+02  0.38372198465E+02  0.47787271116E+02  0.20000000327E+02 0.  0.
        -12    1    3    3    0    0 -0.12546360029E+02 -0.15930678034E+02 -0.38372198465E+02  0.43400728884E+02  0.00000000000E+00 0.  1.
         11    1    4    4    0    0  0.38359406546E+01  0.10069197191E+02  0.18081134175E+02  0.21048291762E+02  0.51100000000E-03 0. -1.
        -11    1    4    4    0    0  0.89518165243E+00  0.86654420853E+01  0.75320097305E+01  0.11516180251E+02  0.51100000000E-03 0.  1.
        -12    1    4    4    0    0  0.78152377216E+01 -0.28039612425E+01  0.12759054560E+02  0.15222799104E+02  0.00000000000E+00 0.  1.
</event>
<event>
 8    1  0.2994958E-010  0.9118800E+02  0.7816164E-02  0.1184000E+00
        -11   -1    0    0    0    0  0.00000000000E+00  0.00000000000E+00  0.45593999997E+02  0.45594000000E+02  0.51100000000E-03 0. -1.
         11   -1    0    0    0    0 -0.00000000000E+00 -0.00000000000E+00 -0.45593999997E+02  0.45594000000E+02  0.51100000000E-03 0.  1.
         23    2    1    2    0    0  0.71054273576E-14  0.17763568394E-14  0.00000000000E+00  0.91188000000E+02  0.91188000000E+02 0.  0.
    9900012    2    3    3    0    0  0.20345299075E+02  0.11711473807E+02 -0.36503885563E+02  0.47787268735E+02  0.19999989469E+02 0.  0.
         12    1    3    3    0    0 -0.20345299075E+02 -0.11711473807E+02  0.36503885563E+02  0.43400731265E+02  0.00000000000E+00 0. -1.
         11    1    4    4    0    0  0.69244517587E+00  0.34002965782E+01 -0.13578687761E+02  0.14015072555E+02  0.51100000000E-03 0. -1.
        -11    1    4    4    0    0  0.15378660524E+02  0.45917125688E+01 -0.23070932736E+02  0.28104358405E+02  0.51100000000E-03 0.  1.
         12    1    4    4    0    0  0.42741933759E+01  0.37194646597E+01  0.14573493435E+00  0.56678377747E+01  0.00000000000E+00 0. -1.
</event>
<event>
 8    1  0.2994958E-010  0.9118800E+02  0.7816164E-02  0.1184000E+00
        -11   -1    0    0    0    0  0.00000000000E+00  0.00000000000E+00  0.45593999997E+02  0.45594000000E+02  0.51100000000E-03 0. -1.
         11   -1    0    0    0    0 -0.00000000000E+00 -0.00000000000E+00 -0.45593999997E+02  0.45594000000E+02  0.51100000000E-03 0.  1.
         23    2    1    2    0    0  0.00000000000E+00  0.00000000000E+00  0.00000000000E+00  0.91188000000E+02  0.91188000000E+02 0.  0.
    9900012    2    3    3    0    0 -0.12335443519E+02  0.22282776522E+02 -0.35141684028E+02  0.47787271289E+02  0.20000001115E+02 0.  0.
         12    1    3    3    0    0  0.12335443519E+02 -0.22282776522E+02  0.35141684028E+02  0.43400728711E+02  0.00000000000E+00 0. -1.
         11    1    4    4    0    0 -0.19682707274E+01  0.13923096932E+02 -0.90572366502E+01  0.16726035209E+02  0.51100000000E-03 0. -1.
        -11    1    4    4    0    0 -0.73833840715E+01  0.80680961849E+01 -0.10397167713E+02  0.15090050799E+02  0.51100000000E-03 0.  1.
        -12    1    4    4    0    0 -0.29837887197E+01  0.29158340544E+00 -0.15687279665E+02  0.15971185281E+02  0.00000000000E+00 0.  1.
</event>
<event>
 8    1  0.2994958E-010  0.9118800E+02  0.7816164E-02  0.1184000E+00
        -11   -1    0    0    0    0  0.00000000000E+00  0.00000000000E+00  0.45593999997E+02  0.45594000000E+02  0.51100000000E-03 0. -1.
         11   -1    0    0    0    0 -0.00000000000E+00 -0.00000000000E+00 -0.45593999997E+02  0.45594000000E+02  0.51100000000E-03 0.  1.
         23    2    1    2    0    0  0.00000000000E+00  0.00000000000E+00  0.00000000000E+00  0.91188000000E+02  0.91188000000E+02 0.  0.
    9900012    2    3    3    0    0  0.56448237992E+01  0.33005652365E+02 -0.27611342491E+02  0.47787270076E+02  0.19999995584E+02 0.  0.
         12    1    3    3    0    0 -0.56448237992E+01 -0.33005652365E+02  0.27611342491E+02  0.43400729924E+02  0.00000000000E+00 0. -1.
         11    1    4    4    0    0  0.22669614787E+01  0.17263854105E+02 -0.10987271961E+02  0.20588829941E+02  0.51100000000E-03 0.  1.
        -11    1    4    4    0    0 -0.32180835934E+01  0.13297623116E+02 -0.14298749613E+02  0.19789822720E+02  0.51100000000E-03 0. -1.
        -12    1    4    4    0    0  0.65959459138E+01  0.24441751441E+01 -0.23253209172E+01  0.74086174150E+01  0.00000000000E+00 0.  1.
</event>
<event>
 8    1  0.3795128E-010  0.9118800E+02  0.7816164E-02  0.1184000E+00
        -11   -1    0    0    0    0  0.00000000000E+00  0.00000000000E+00  0.45593999997E+02  0.45594000000E+02  0.51100000000E-03 0. -1.
         11   -1    0    0    0    0 -0.00000000000E+00 -0.00000000000E+00 -0.45593999997E+02  0.45594000000E+02  0.51100000000E-03 0.  1.
         23    2    1    2    0    0  0.00000000000E+00 -0.88817841970E-15  0.71054273576E-14  0.91188000000E+02  0.91188000000E+02 0.  0.
    9900012    2    3    3    0    0  0.13003326077E+02 -0.38172901493E+01  0.41230641019E+02  0.47787263232E+02  0.19999964380E+02 0.  0.
        -12    1    3    3    0    0 -0.13003326077E+02  0.38172901493E+01 -0.41230641019E+02  0.43400736768E+02  0.00000000000E+00 0.  1.
         11    1    4    4    0    0 -0.17469881412E+01 -0.27616345572E+00  0.11645235177E+02  0.11778783316E+02  0.51100000000E-03 0. -1.
        -11    1    4    4    0    0 -0.16955495691E+01 -0.36338571927E+01  0.46799662952E+01  0.61629450122E+01  0.51100000000E-03 0.  1.
         12    1    4    4    0    0  0.16445863788E+02  0.92730499084E-01  0.24905439547E+02  0.29845534904E+02  0.00000000000E+00 0. -1.
</event>
<event>
 8    1  0.2994958E-010  0.9118800E+02  0.7816164E-02  0.1184000E+00
        -11   -1    0    0    0    0  0.00000000000E+00  0.00000000000E+00  0.45593999997E+02  0.45594000000E+02  0.51100000000E-03 0. -1.
         11   -1    0    0    0    0 -0.00000000000E+00 -0.00000000000E+00 -0.45593999997E+02  0.45594000000E+02  0.51100000000E-03 0.  1.
         23    2    1    2    0    0  0.00000000000E+00  0.00000000000E+00  0.35527136788E-14  0.91188000000E+02  0.91188000000E+02 0.  0.
    9900012    2    3    3    0    0 -0.33814093838E+02  0.47328180089E+01  0.26792393054E+02  0.47787253071E+02  0.19999918053E+02 0.  0.
        -12    1    3    3    0    0  0.33814093838E+02 -0.47328180089E+01 -0.26792393054E+02  0.43400746929E+02  0.00000000000E+00 0.  1.
         11    1    4    4    0    0 -0.27279388098E+02  0.24251139868E+01  0.23545390106E+02  0.36116915543E+02  0.51100000000E-03 0. -1.
        -11    1    4    4    0    0 -0.57352553023E+01  0.31957388019E+01  0.58579620515E+01  0.87989555932E+01  0.51100000000E-03 0.  1.
        -12    1    4    4    0    0 -0.79945043823E+00 -0.88803477984E+00 -0.26109591039E+01  0.28713819349E+01  0.00000000000E+00 0.  1.
</event>
<event>
 8    1  0.2994958E-010  0.9118800E+02  0.7816164E-02  0.1184000E+00
        -11   -1    0    0    0    0  0.00000000000E+00  0.00000000000E+00  0.45593999997E+02  0.45594000000E+02  0.51100000000E-03 0. -1.
         11   -1    0    0    0    0 -0.00000000000E+00 -0.00000000000E+00 -0.45593999997E+02  0.45594000000E+02  0.51100000000E-03 0.  1.
         23    2    1    2    0    0  0.35527136788E-14  0.00000000000E+00  0.00000000000E+00  0.91188000000E+02  0.91188000000E+02 0.  0.
    9900012    2    3    3    0    0  0.30837375352E+02  0.19872339224E+02  0.23189861440E+02  0.47787271222E+02  0.20000000809E+02 0.  0.
        -12    1    3    3    0    0 -0.30837375352E+02 -0.19872339224E+02 -0.23189861440E+02  0.43400728778E+02  0.00000000000E+00 0.  1.
         11    1    4    4    0    0  0.17930450603E+02  0.10648364640E+02  0.10683737278E+02  0.23431409920E+02  0.51100000000E-03 0. -1.
        -11    1    4    4    0    0  0.68624626053E+01  0.29021492379E+01 -0.17285446883E+01  0.76487731179E+01  0.51100000000E-03 0.  1.
         12    1    4    4    0    0  0.60444621435E+01  0.63218253463E+01  0.14234668850E+02  0.16707088184E+02  0.00000000000E+00 0. -1.
</event>
<event>
 8    1  0.2994958E-010  0.9118800E+02  0.7816164E-02  0.1184000E+00
        -11   -1    0    0    0    0  0.00000000000E+00  0.00000000000E+00  0.45593999997E+02  0.45594000000E+02  0.51100000000E-03 0.  1.
         11   -1    0    0    0    0 -0.00000000000E+00 -0.00000000000E+00 -0.45593999997E+02  0.45594000000E+02  0.51100000000E-03 0. -1.
         23    2    1    2    0    0  0.00000000000E+00  0.00000000000E+00 -0.44408920985E-15  0.91188000000E+02  0.91188000000E+02 0.  0.
    9900012    2    3    3    0    0 -0.17419501288E+02  0.39620053942E+02  0.32303532991E+01  0.47787275560E+02  0.20000020588E+02 0.  0.
        -12    1    3    3    0    0  0.17419501288E+02 -0.39620053942E+02 -0.32303532991E+01  0.43400724440E+02  0.00000000000E+00 0.  1.
         11    1    4    4    0    0 -0.95359187080E+01  0.12418777207E+02 -0.51493028861E+00  0.15666043738E+02  0.51100000000E-03 0. -1.
        -11    1    4    4    0    0 -0.95437652906E+01  0.18426065384E+02 -0.29496445744E+01  0.20959574061E+02  0.51100000000E-03 0.  1.
        -12    1    4    4    0    0  0.16601827102E+01  0.87752113506E+01  0.66949281621E+01  0.11161657761E+02  0.00000000000E+00 0.  1.
</event>
<event>
 8    1  0.2994958E-010  0.9118800E+02  0.7816164E-02  0.1184000E+00
        -11   -1    0    0    0    0  0.00000000000E+00  0.00000000000E+00  0.45593999997E+02  0.45594000000E+02  0.51100000000E-03 0. -1.
         11   -1    0    0    0    0 -0.00000000000E+00 -0.00000000000E+00 -0.45593999997E+02  0.45594000000E+02  0.51100000000E-03 0.  1.
         23    2    1    2    0    0  0.00000000000E+00  0.00000000000E+00 -0.35527136788E-14  0.91188000000E+02  0.91188000000E+02 0.  0.
    9900012    2    3    3    0    0 -0.39612331204E+02 -0.26726846753E+01  0.17531209722E+02  0.47787270270E+02  0.19999996470E+02 0.  0.
         12    1    3    3    0    0  0.39612331204E+02  0.26726846753E+01 -0.17531209722E+02  0.43400729730E+02  0.00000000000E+00 0. -1.
         11    1    4    4    0    0 -0.62323438491E+01 -0.79596177514E+00  0.99263473460E+01  0.11747682193E+02  0.51100000000E-03 0. -1.
        -11    1    4    4    0    0 -0.16771433243E+02 -0.86206363601E-01  0.94207397068E+01  0.19236391071E+02  0.51100000000E-03 0.  1.
         12    1    4    4    0    0 -0.16608554112E+02 -0.17905165366E+01 -0.18158773313E+01  0.16803197007E+02  0.00000000000E+00 0. -1.
</event>
<event>
 8    1  0.2994958E-010  0.9118800E+02  0.7816164E-02  0.1184000E+00
        -11   -1    0    0    0    0  0.00000000000E+00  0.00000000000E+00  0.45593999997E+02  0.45594000000E+02  0.51100000000E-03 0. -1.
         11   -1    0    0    0    0 -0.00000000000E+00 -0.00000000000E+00 -0.45593999997E+02  0.45594000000E+02  0.51100000000E-03 0.  1.
         23    2    1    2    0    0  0.00000000000E+00  0.00000000000E+00 -0.71054273576E-14  0.91188000000E+02  0.91188000000E+02 0.  0.
    9900012    2    3    3    0    0  0.40656702452E+01  0.81480172851E+01  0.42434695487E+02  0.47787271419E+02  0.20000001710E+02 0.  0.
        -12    1    3    3    0    0 -0.40656702452E+01 -0.81480172851E+01 -0.42434695487E+02  0.43400728581E+02  0.00000000000E+00 0.  1.
         11    1    4    4    0    0  0.12566466802E+01 -0.13188160133E+01  0.21163758001E+01  0.27923974188E+01  0.51100000000E-03 0. -1.
        -11    1    4    4    0    0 -0.47717208649E+01 -0.20554563928E+01  0.18213420131E+02  0.18939981365E+02  0.51100000000E-03 0.  1.
         12    1    4    4    0    0  0.75807444299E+01  0.11522289691E+02  0.22104899556E+02  0.26054892635E+02  0.00000000000E+00 0. -1.
</event>
<event>
 8    1  0.2994958E-010  0.9118800E+02  0.7816164E-02  0.1184000E+00
        -11   -1    0    0    0    0  0.00000000000E+00  0.00000000000E+00  0.45593999997E+02  0.45594000000E+02  0.51100000000E-03 0. -1.
         11   -1    0    0    0    0 -0.00000000000E+00 -0.00000000000E+00 -0.45593999997E+02  0.45594000000E+02  0.51100000000E-03 0.  1.
         23    2    1    2    0    0  0.00000000000E+00  0.00000000000E+00 -0.71054273576E-14  0.91188000000E+02  0.91188000000E+02 0.  0.
    9900012    2    3    3    0    0  0.25724756461E+01 -0.14437145303E+02 -0.40848187263E+02  0.47787271917E+02  0.20000003979E+02 0.  0.
         12    1    3    3    0    0 -0.25724756461E+01  0.14437145303E+02  0.40848187263E+02  0.43400728083E+02  0.00000000000E+00 0. -1.
         11    1    4    4    0    0 -0.19103475867E+01 -0.11513260893E+02 -0.17684718791E+02  0.21188531881E+02  0.51100000000E-03 0. -1.
        -11    1    4    4    0    0 -0.56887358455E+00 -0.53406669530E+01 -0.18644880968E+02  0.19403039124E+02  0.51100000000E-03 0.  1.
        -12    1    4    4    0    0  0.50516968174E+01  0.24167825425E+01 -0.45185875035E+01  0.71957009123E+01  0.00000000000E+00 0.  1.
</event>
<event>
 8    1  0.2994958E-010  0.9118800E+02  0.7816164E-02  0.1184000E+00
        -11   -1    0    0    0    0  0.00000000000E+00  0.00000000000E+00  0.45593999997E+02  0.45594000000E+02  0.51100000000E-03 0.  1.
         11   -1    0    0    0    0 -0.00000000000E+00 -0.00000000000E+00 -0.45593999997E+02  0.45594000000E+02  0.51100000000E-03 0. -1.
         23    2    1    2    0    0  0.35527136788E-14  0.00000000000E+00  0.44408920985E-15  0.91188000000E+02  0.91188000000E+02 0.  0.
    9900012    2    3    3    0    0 -0.21613216048E+02  0.37466566698E+02  0.35705700033E+01  0.47787266156E+02  0.19999977710E+02 0.  0.
         12    1    3    3    0    0  0.21613216048E+02 -0.37466566698E+02 -0.35705700033E+01  0.43400733844E+02  0.00000000000E+00 0. -1.
         11    1    4    4    0    0 -0.67007527528E+01  0.12298914105E+02 -0.36268761243E+01  0.14467812768E+02  0.51100000000E-03 0. -1.
        -11    1    4    4    0    0 -0.16972042959E+02  0.19925671682E+02  0.31051678714E+01  0.26357630810E+02  0.51100000000E-03 0.  1.
        -12    1    4    4    0    0  0.20595796638E+01  0.52419809115E+01  0.40922782562E+01  0.69618225770E+01  0.00000000000E+00 0.  1.
</event>
<event>
 8    1  0.2994958E-010  0.9118800E+02  0.7816164E-02  0.1184000E+00
        -11   -1    0    0    0    0  0.00000000000E+00  0.00000000000E+00  0.45593999997E+02  0.45594000000E+02  0.51100000000E-03 0. -1.
         11   -1    0    0    0    0 -0.00000000000E+00 -0.00000000000E+00 -0.45593999997E+02  0.45594000000E+02  0.51100000000E-03 0.  1.
         23    2    1    2    0    0  0.00000000000E+00  0.00000000000E+00 -0.71054273576E-14  0.91188000000E+02  0.91188000000E+02 0.  0.
    9900012    2    3    3    0    0  0.64578400162E+00 -0.24364002457E+02 -0.35911033172E+02  0.47787263184E+02  0.19999964159E+02 0.  0.
         12    1    3    3    0    0 -0.64578400162E+00  0.24364002457E+02  0.35911033172E+02  0.43400736816E+02  0.00000000000E+00 0. -1.
         11    1    4    4    0    0  0.15557491844E+01 -0.99247516440E+01 -0.17112613943E+02  0.19843452496E+02  0.51100000000E-03 0. -1.
        -11    1    4    4    0    0 -0.18970004903E+01  0.23814027757E+00 -0.11246865835E+02  0.11408212525E+02  0.51100000000E-03 0.  1.
         12    1    4    4    0    0  0.98703530760E+00 -0.14677391091E+02 -0.75515533940E+01  0.16535598163E+02  0.00000000000E+00 0. -1.
</event>
<event>
 8    1  0.2994958E-010  0.9118800E+02  0.7816164E-02  0.1184000E+00
        -11   -1    0    0    0    0  0.00000000000E+00  0.00000000000E+00  0.45593999997E+02  0.45594000000E+02  0.51100000000E-03 0. -1.
         11   -1    0    0    0    0 -0.00000000000E+00 -0.00000000000E+00 -0.45593999997E+02  0.45594000000E+02  0.51100000000E-03 0.  1.
         23    2    1    2    0    0 -0.71054273576E-14  0.13322676296E-14  0.00000000000E+00  0.91188000000E+02  0.91188000000E+02 0.  0.
    9900012    2    3    3    0    0 -0.40794481909E+02 -0.27238829622E+01  0.14560706689E+02  0.47787268763E+02  0.19999989599E+02 0.  0.
        -12    1    3    3    0    0  0.40794481909E+02  0.27238829622E+01 -0.14560706689E+02  0.43400731237E+02  0.00000000000E+00 0.  1.
         11    1    4    4    0    0 -0.31277279864E+02 -0.72895290710E+01  0.11751053397E+02  0.34197846803E+02  0.51100000000E-03 0. -1.
        -11    1    4    4    0    0 -0.10218813177E+02  0.24126957887E+01  0.74682436222E+00  0.10526299948E+02  0.51100000000E-03 0.  1.
        -12    1    4    4    0    0  0.70161113229E+00  0.21529503202E+01  0.20628289305E+01  0.30631220117E+01  0.00000000000E+00 0.  1.
</event>
<event>
 8    1  0.2994958E-010  0.9118800E+02  0.7816164E-02  0.1184000E+00
        -11   -1    0    0    0    0  0.00000000000E+00  0.00000000000E+00  0.45593999997E+02  0.45594000000E+02  0.51100000000E-03 0.  1.
         11   -1    0    0    0    0 -0.00000000000E+00 -0.00000000000E+00 -0.45593999997E+02  0.45594000000E+02  0.51100000000E-03 0. -1.
         23    2    1    2    0    0  0.00000000000E+00 -0.88817841970E-15  0.66613381478E-15  0.91188000000E+02  0.91188000000E+02 0.  0.
    9900012    2    3    3    0    0 -0.42821679976E+02  0.69153617451E+01 -0.14507085968E+01  0.47787273515E+02  0.20000011264E+02 0.  0.
         12    1    3    3    0    0  0.42821679976E+02 -0.69153617451E+01  0.14507085968E+01  0.43400726485E+02  0.00000000000E+00 0. -1.
         11    1    4    4    0    0 -0.37010588042E+02  0.79088007854E+01 -0.51146049209E+01  0.38190207395E+02  0.51100000000E-03 0. -1.
        -11    1    4    4    0    0 -0.72145458467E+01 -0.96430729210E+00  0.22839757480E+01  0.76286372181E+01  0.51100000000E-03 0.  1.
         12    1    4    4    0    0  0.14034539133E+01 -0.29131748238E-01  0.13799205761E+01  0.19684289019E+01  0.00000000000E+00 0. -1.
</event>
<event>
 8    1  0.2994958E-010  0.9118800E+02  0.7816164E-02  0.1184000E+00
        -11   -1    0    0    0    0  0.00000000000E+00  0.00000000000E+00  0.45593999997E+02  0.45594000000E+02  0.51100000000E-03 0. -1.
         11   -1    0    0    0    0 -0.00000000000E+00 -0.00000000000E+00 -0.45593999997E+02  0.45594000000E+02  0.51100000000E-03 0.  1.
         23    2    1    2    0    0  0.00000000000E+00  0.35527136788E-14  0.00000000000E+00  0.91188000000E+02  0.91188000000E+02 0.  0.
    9900012    2    3    3    0    0  0.65712709653E+01  0.18274568607E+02 -0.38813424881E+02  0.47787269466E+02  0.19999992803E+02 0.  0.
         12    1    3    3    0    0 -0.65712709653E+01 -0.18274568607E+02  0.38813424881E+02  0.43400730534E+02  0.00000000000E+00 0. -1.
         11    1    4    4    0    0  0.40089348320E+01  0.10339030775E+02 -0.21862923340E+02  0.24514374009E+02  0.51100000000E-03 0.  1.
        -11    1    4    4    0    0  0.41087802211E+01 -0.64751491020E+00  0.56767676958E-01  0.41598765960E+01  0.51100000000E-03 0. -1.
         12    1    4    4    0    0 -0.15464440878E+01  0.85830527424E+01 -0.17007269218E+02  0.19113018861E+02  0.00000000000E+00 0. -1.
</event>
<event>
 8    1  0.2994958E-010  0.9118800E+02  0.7816164E-02  0.1184000E+00
        -11   -1    0    0    0    0  0.00000000000E+00  0.00000000000E+00  0.45593999997E+02  0.45594000000E+02  0.51100000000E-03 0. -1.
         11   -1    0    0    0    0 -0.00000000000E+00 -0.00000000000E+00 -0.45593999997E+02  0.45594000000E+02  0.51100000000E-03 0.  1.
         23    2    1    2    0    0 -0.11102230246E-15  0.00000000000E+00  0.71054273576E-14  0.91188000000E+02  0.91188000000E+02 0.  0.
    9900012    2    3    3    0    0 -0.85100938369E+00  0.20866038715E+02  0.38046132814E+02  0.47787262555E+02  0.19999961294E+02 0.  0.
        -12    1    3    3    0    0  0.85100938369E+00 -0.20866038715E+02 -0.38046132814E+02  0.43400737445E+02  0.00000000000E+00 0.  1.
         11    1    4    4    0    0  0.38781188838E+00  0.14102387418E+02  0.18498159518E+02  0.23263912714E+02  0.51100000000E-03 0. -1.
        -11    1    4    4    0    0  0.76506584747E+00  0.10119177932E+02  0.10186267509E+02  0.14378565081E+02  0.51100000000E-03 0.  1.
        -12    1    4    4    0    0 -0.20038871195E+01 -0.33555266343E+01  0.93617057870E+01  0.10144784760E+02  0.00000000000E+00 0.  1.
</event>
<event>
 8    1  0.2994958E-010  0.9118800E+02  0.7816164E-02  0.1184000E+00
        -11   -1    0    0    0    0  0.00000000000E+00  0.00000000000E+00  0.45593999997E+02  0.45594000000E+02  0.51100000000E-03 0. -1.
         11   -1    0    0    0    0 -0.00000000000E+00 -0.00000000000E+00 -0.45593999997E+02  0.45594000000E+02  0.51100000000E-03 0.  1.
         23    2    1    2    0    0  0.00000000000E+00  0.17763568394E-14 -0.71054273576E-14  0.91188000000E+02  0.91188000000E+02 0.  0.
    9900012    2    3    3    0    0 -0.18839435544E+02 -0.15451564152E+02  0.35915864230E+02  0.47787257268E+02  0.19999937186E+02 0.  0.
        -12    1    3    3    0    0  0.18839435544E+02  0.15451564152E+02 -0.35915864230E+02  0.43400742732E+02  0.00000000000E+00 0.  1.
         11    1    4    4    0    0 -0.87580040058E+01 -0.75478488136E+01  0.12798791306E+02  0.17247658248E+02  0.51100000000E-03 0. -1.
        -11    1    4    4    0    0 -0.30725145916E+01 -0.39382415238E+01  0.21818088073E+02  0.22382561508E+02  0.51100000000E-03 0.  1.
        -12    1    4    4    0    0 -0.70089169463E+01 -0.39654738146E+01  0.12989848508E+01  0.81570375123E+01  0.00000000000E+00 0.  1.
</event>
<event>
 8    1  0.2994958E-010  0.9118800E+02  0.7816164E-02  0.1184000E+00
        -11   -1    0    0    0    0  0.00000000000E+00  0.00000000000E+00  0.45593999997E+02  0.45594000000E+02  0.51100000000E-03 0.  1.
         11   -1    0    0    0    0 -0.00000000000E+00 -0.00000000000E+00 -0.45593999997E+02  0.45594000000E+02  0.51100000000E-03 0. -1.
         23    2    1    2    0    0  0.00000000000E+00  0.35527136788E-14 -0.17763568394E-14  0.91188000000E+02  0.91188000000E+02 0.  0.
    9900012    2    3    3    0    0 -0.33468917634E+02  0.25622311138E+02 -0.10341751942E+02  0.47787272945E+02  0.20000008666E+02 0.  0.
         12    1    3    3    0    0  0.33468917634E+02 -0.25622311138E+02  0.10341751942E+02  0.43400727055E+02  0.00000000000E+00 0. -1.
         11    1    4    4    0    0 -0.14096342264E+01  0.57947531449E+01 -0.63806520207E+01  0.87337822925E+01  0.51100000000E-03 0. -1.
        -11    1    4    4    0    0 -0.14692027695E+02  0.94600558526E+01 -0.65512836300E+01  0.18661930553E+02  0.51100000000E-03 0.  1.
        -12    1    4    4    0    0 -0.17367255713E+02  0.10367502141E+02  0.25901837088E+01  0.20391560099E+02  0.00000000000E+00 0.  1.
</event>
<event>
 8    1  0.2994958E-010  0.9118800E+02  0.7816164E-02  0.1184000E+00
        -11   -1    0    0    0    0  0.00000000000E+00  0.00000000000E+00  0.45593999997E+02  0.45594000000E+02  0.51100000000E-03 0. -1.
         11   -1    0    0    0    0 -0.00000000000E+00 -0.00000000000E+00 -0.45593999997E+02  0.45594000000E+02  0.51100000000E-03 0.  1.
         23    2    1    2    0    0  0.00000000000E+00  0.44408920985E-15  0.00000000000E+00  0.91188000000E+02  0.91188000000E+02 0.  0.
    9900012    2    3    3    0    0  0.34111235905E+02 -0.28002757741E+01  0.26687177229E+02  0.47787269731E+02  0.19999994014E+02 0.  0.
        -12    1    3    3    0    0 -0.34111235905E+02  0.28002757741E+01 -0.26687177229E+02  0.43400730269E+02  0.00000000000E+00 0.  1.
         11    1    4    4    0    0  0.27970789445E+01 -0.57003898483E+01  0.75674647460E+01  0.98784926982E+01  0.51100000000E-03 0.  1.
        -11    1    4    4    0    0  0.69489272554E+01 -0.19679993931E+01  0.77202404545E+01  0.10571789089E+02  0.51100000000E-03 0. -1.
        -12    1    4    4    0    0  0.24365229705E+02  0.48681134673E+01  0.11399472028E+02  0.27336987944E+02  0.00000000000E+00 0.  1.
</event>
<event>
 8    1  0.2994958E-010  0.9118800E+02  0.7816164E-02  0.1184000E+00
        -11   -1    0    0    0    0  0.00000000000E+00  0.00000000000E+00  0.45593999997E+02  0.45594000000E+02  0.51100000000E-03 0. -1.
         11   -1    0    0    0    0 -0.00000000000E+00 -0.00000000000E+00 -0.45593999997E+02  0.45594000000E+02  0.51100000000E-03 0.  1.
         23    2    1    2    0    0  0.00000000000E+00  0.00000000000E+00  0.00000000000E+00  0.91188000000E+02  0.91188000000E+02 0.  0.
    9900012    2    3    3    0    0 -0.25804177415E+02 -0.21572438696E+02 -0.27429894433E+02  0.47787253555E+02  0.19999920260E+02 0.  0.
         12    1    3    3    0    0  0.25804177415E+02  0.21572438696E+02  0.27429894433E+02  0.43400746445E+02  0.00000000000E+00 0. -1.
         11    1    4    4    0    0 -0.15452286988E+01 -0.94089743693E+00  0.15278761262E+01  0.23680003034E+01  0.51100000000E-03 0. -1.
        -11    1    4    4    0    0 -0.83796442100E+01 -0.10916107867E+02 -0.40915876447E+01  0.14356912543E+02  0.51100000000E-03 0.  1.
         12    1    4    4    0    0 -0.15879304506E+02 -0.97154333914E+01 -0.24866182914E+02  0.31062340709E+02  0.00000000000E+00 0. -1.
</event>
<event>
 8    1  0.2994958E-010  0.9118800E+02  0.7816164E-02  0.1184000E+00
        -11   -1    0    0    0    0  0.00000000000E+00  0.00000000000E+00  0.45593999997E+02  0.45594000000E+02  0.51100000000E-03 0. -1.
         11   -1    0    0    0    0 -0.00000000000E+00 -0.00000000000E+00 -0.45593999997E+02  0.45594000000E+02  0.51100000000E-03 0.  1.
         23    2    1    2    0    0 -0.35527136788E-14 -0.17763568394E-14  0.00000000000E+00  0.91188000000E+02  0.91188000000E+02 0.  0.
    9900012    2    3    3    0    0 -0.24643436288E+02  0.98925064302E+01  0.34328741851E+02  0.47787272442E+02  0.20000006370E+02 0.  0.
        -12    1    3    3    0    0  0.24643436288E+02 -0.98925064302E+01 -0.34328741851E+02  0.43400727558E+02  0.00000000000E+00 0.  1.
         11    1    4    4    0    0 -0.91855028277E+01  0.11439147840E+02  0.18441672602E+02  0.23565289180E+02  0.51100000000E-03 0. -1.
        -11    1    4    4    0    0  0.44512202706E+00 -0.13831910540E+01  0.43163376596E+01  0.45543520026E+01  0.51100000000E-03 0.  1.
        -12    1    4    4    0    0 -0.15903055487E+02 -0.16345035534E+00  0.11570731589E+02  0.19667631259E+02  0.00000000000E+00 0.  1.
</event>
<event>
 8    1  0.2994958E-010  0.9118800E+02  0.7816164E-02  0.1184000E+00
        -11   -1    0    0    0    0  0.00000000000E+00  0.00000000000E+00  0.45593999997E+02  0.45594000000E+02  0.51100000000E-03 0. -1.
         11   -1    0    0    0    0 -0.00000000000E+00 -0.00000000000E+00 -0.45593999997E+02  0.45594000000E+02  0.51100000000E-03 0.  1.
         23    2    1    2    0    0 -0.44408920985E-15  0.00000000000E+00  0.00000000000E+00  0.91188000000E+02  0.91188000000E+02 0.  0.
    9900012    2    3    3    0    0  0.76856821977E+00 -0.41785899777E+02 -0.11703464488E+02  0.47787271915E+02  0.20000003968E+02 0.  0.
         12    1    3    3    0    0 -0.76856821977E+00  0.41785899777E+02  0.11703464488E+02  0.43400728085E+02  0.00000000000E+00 0. -1.
         11    1    4    4    0    0 -0.14797551128E+00 -0.11110810819E+02 -0.10632814075E+02  0.15379491188E+02  0.51100000000E-03 0. -1.
        -11    1    4    4    0    0  0.43186204185E+01 -0.64370664001E+01 -0.16504592405E+01  0.79252963429E+01  0.51100000000E-03 0.  1.
         12    1    4    4    0    0 -0.34020766874E+01 -0.24238022558E+02  0.57980882665E+00  0.24482484383E+02  0.00000000000E+00 0. -1.
</event>
<event>
 8    1  0.2994958E-010  0.9118800E+02  0.7816164E-02  0.1184000E+00
        -11   -1    0    0    0    0  0.00000000000E+00  0.00000000000E+00  0.45593999997E+02  0.45594000000E+02  0.51100000000E-03 0. -1.
         11   -1    0    0    0    0 -0.00000000000E+00 -0.00000000000E+00 -0.45593999997E+02  0.45594000000E+02  0.51100000000E-03 0.  1.
         23    2    1    2    0    0 -0.17763568394E-14  0.00000000000E+00 -0.71054273576E-14  0.91188000000E+02  0.91188000000E+02 0.  0.
    9900012    2    3    3    0    0 -0.10521247357E+02  0.90762436272E+01  0.41116278517E+02  0.47787271857E+02  0.20000003703E+02 0.  0.
        -12    1    3    3    0    0  0.10521247357E+02 -0.90762436272E+01 -0.41116278517E+02  0.43400728143E+02  0.00000000000E+00 0.  1.
         11    1    4    4    0    0 -0.29676830181E+01  0.32840099049E+01  0.66138911379E+01  0.79583553450E+01  0.51100000000E-03 0. -1.
        -11    1    4    4    0    0 -0.12526351690E+02  0.23347424551E+01  0.16579228797E+02  0.20910077397E+02  0.51100000000E-03 0.  1.
         12    1    4    4    0    0  0.49727873506E+01  0.34574912672E+01  0.17923158582E+02  0.18918839114E+02  0.00000000000E+00 0. -1.
</event>
<event>
 8    1  0.2994958E-010  0.9118800E+02  0.7816164E-02  0.1184000E+00
        -11   -1    0    0    0    0  0.00000000000E+00  0.00000000000E+00  0.45593999997E+02  0.45594000000E+02  0.51100000000E-03 0. -1.
         11   -1    0    0    0    0 -0.00000000000E+00 -0.00000000000E+00 -0.45593999997E+02  0.45594000000E+02  0.51100000000E-03 0.  1.
         23    2    1    2    0    0  0.00000000000E+00  0.00000000000E+00 -0.35527136788E-14  0.91188000000E+02  0.91188000000E+02 0.  0.
    9900012    2    3    3    0    0 -0.71156276017E+01  0.36822929333E+02 -0.21841775449E+02  0.47787269181E+02  0.19999991506E+02 0.  0.
         12    1    3    3    0    0  0.71156276017E+01 -0.36822929333E+02  0.21841775449E+02  0.43400730819E+02  0.00000000000E+00 0. -1.
         11    1    4    4    0    0 -0.65677066757E+01  0.15109247748E+02 -0.41171767215E+01  0.16981616028E+02  0.51100000000E-03 0. -1.
        -11    1    4    4    0    0 -0.51287113654E+01  0.18870808314E+02 -0.15582206362E+02  0.25004324467E+02  0.51100000000E-03 0.  1.
        -12    1    4    4    0    0  0.45807904393E+01  0.28428732711E+01 -0.21423923654E+01  0.58013286868E+01  0.00000000000E+00 0.  1.
</event>
<event>
 8    1  0.2994958E-010  0.9118800E+02  0.7816164E-02  0.1184000E+00
        -11   -1    0    0    0    0  0.00000000000E+00  0.00000000000E+00  0.45593999997E+02  0.45594000000E+02  0.51100000000E-03 0. -1.
         11   -1    0    0    0    0 -0.00000000000E+00 -0.00000000000E+00 -0.45593999997E+02  0.45594000000E+02  0.51100000000E-03 0.  1.
         23    2    1    2    0    0  0.00000000000E+00  0.00000000000E+00 -0.35527136788E-14  0.91188000000E+02  0.91188000000E+02 0.  0.
    9900012    2    3    3    0    0  0.23089005462E+02 -0.20817006361E+02  0.30284889677E+02  0.47787257267E+02  0.19999937183E+02 0.  0.
        -12    1    3    3    0    0 -0.23089005462E+02  0.20817006361E+02 -0.30284889677E+02  0.43400742733E+02  0.00000000000E+00 0.  1.
         11    1    4    4    0    0  0.49953950879E+01  0.72158744984E+00  0.27068471995E+01  0.57272753168E+01  0.51100000000E-03 0. -1.
        -11    1    4    4    0    0  0.39867476291E+01 -0.37295376295E+01  0.15279518558E+02  0.16225513712E+02  0.51100000000E-03 0.  1.
        -12    1    4    4    0    0  0.14106862745E+02 -0.17809056181E+02  0.12298523919E+02  0.25834468239E+02  0.00000000000E+00 0.  1.
</event>
<event>
 8    1  0.2994958E-010  0.9118800E+02  0.7816164E-02  0.1184000E+00
        -11   -1    0    0    0    0  0.00000000000E+00  0.00000000000E+00  0.45593999997E+02  0.45594000000E+02  0.51100000000E-03 0. -1.
         11   -1    0    0    0    0 -0.00000000000E+00 -0.00000000000E+00 -0.45593999997E+02  0.45594000000E+02  0.51100000000E-03 0.  1.
         23    2    1    2    0    0  0.00000000000E+00  0.00000000000E+00  0.35527136788E-14  0.91188000000E+02  0.91188000000E+02 0.  0.
    9900012    2    3    3    0    0  0.30865625189E+02 -0.24112981017E+01 -0.30415817003E+02  0.47787273039E+02  0.20000009093E+02 0.  0.
         12    1    3    3    0    0 -0.30865625189E+02  0.24112981017E+01  0.30415817003E+02  0.43400726961E+02  0.00000000000E+00 0. -1.
         11    1    4    4    0    0 -0.36962147331E+00 -0.23993248280E+01 -0.76859431984E+00  0.25463929691E+01  0.51100000000E-03 0. -1.
        -11    1    4    4    0    0  0.73785970778E+01  0.60374250333E+01 -0.74776503246E+01  0.12116494976E+02  0.51100000000E-03 0.  1.
        -12    1    4    4    0    0  0.23856649584E+02 -0.60493983070E+01 -0.22169572358E+02  0.33124385093E+02  0.00000000000E+00 0.  1.
</event>
<event>
 8    1  0.2994958E-010  0.9118800E+02  0.7816164E-02  0.1184000E+00
        -11   -1    0    0    0    0  0.00000000000E+00  0.00000000000E+00  0.45593999997E+02  0.45594000000E+02  0.51100000000E-03 0. -1.
         11   -1    0    0    0    0 -0.00000000000E+00 -0.00000000000E+00 -0.45593999997E+02  0.45594000000E+02  0.51100000000E-03 0.  1.
         23    2    1    2    0    0  0.35527136788E-14  0.35527136788E-14  0.00000000000E+00  0.91188000000E+02  0.91188000000E+02 0.  0.
    9900012    2    3    3    0    0  0.19896440995E+02  0.22770074431E+02  0.31133236435E+02  0.47787273454E+02  0.20000010985E+02 0.  0.
        -12    1    3    3    0    0 -0.19896440995E+02 -0.22770074431E+02 -0.31133236435E+02  0.43400726546E+02  0.00000000000E+00 0.  1.
         11    1    4    4    0    0 -0.90134989426E+00 -0.79171608301E+00  0.10141700265E+01  0.15709191869E+01  0.51100000000E-03 0. -1.
        -11    1    4    4    0    0  0.10864727278E+02  0.20701692709E+02  0.26318407879E+02  0.35203138687E+02  0.51100000000E-03 0.  1.
        -12    1    4    4    0    0  0.99330636110E+01  0.28600978053E+01  0.38006585287E+01  0.11013215580E+02  0.00000000000E+00 0.  1.
</event>
<event>
 8    1  0.2994958E-010  0.9118800E+02  0.7816164E-02  0.1184000E+00
        -11   -1    0    0    0    0  0.00000000000E+00  0.00000000000E+00  0.45593999997E+02  0.45594000000E+02  0.51100000000E-03 0. -1.
         11   -1    0    0    0    0 -0.00000000000E+00 -0.00000000000E+00 -0.45593999997E+02  0.45594000000E+02  0.51100000000E-03 0.  1.
         23    2    1    2    0    0  0.00000000000E+00 -0.35527136788E-14  0.00000000000E+00  0.91188000000E+02  0.91188000000E+02 0.  0.
    9900012    2    3    3    0    0  0.25750150408E+02  0.22251690631E+02  0.26933534706E+02  0.47787271046E+02  0.20000000007E+02 0.  0.
        -12    1    3    3    0    0 -0.25750150408E+02 -0.22251690631E+02 -0.26933534706E+02  0.43400728954E+02  0.00000000000E+00 0.  1.
         11    1    4    4    0    0  0.11657496693E+02  0.66961862461E+01  0.13814619057E+02  0.19276406287E+02  0.51100000000E-03 0. -1.
        -11    1    4    4    0    0  0.13013025149E+02  0.11421207956E+02  0.15822089324E+02  0.23454665325E+02  0.51100000000E-03 0.  1.
        -12    1    4    4    0    0  0.10796285659E+01  0.41342964294E+01 -0.27031736740E+01  0.50561994342E+01  0.00000000000E+00 0.  1.
</event>
<event>
 8    1  0.2994958E-010  0.9118800E+02  0.7816164E-02  0.1184000E+00
        -11   -1    0    0    0    0  0.00000000000E+00  0.00000000000E+00  0.45593999997E+02  0.45594000000E+02  0.51100000000E-03 0. -1.
         11   -1    0    0    0    0 -0.00000000000E+00 -0.00000000000E+00 -0.45593999997E+02  0.45594000000E+02  0.51100000000E-03 0.  1.
         23    2    1    2    0    0  0.00000000000E+00  0.00000000000E+00  0.35527136788E-14  0.91188000000E+02  0.91188000000E+02 0.  0.
    9900012    2    3    3    0    0  0.31056624520E+02  0.17045962628E+02  0.25070827609E+02  0.47787249252E+02  0.19999900638E+02 0.  0.
        -12    1    3    3    0    0 -0.31056624520E+02 -0.17045962628E+02 -0.25070827609E+02  0.43400750748E+02  0.00000000000E+00 0.  1.
         11    1    4    4    0    0  0.87943032464E+01  0.28519368788E+01  0.48770311961E+01  0.10452690902E+02  0.51100000000E-03 0. -1.
        -11    1    4    4    0    0  0.94557604128E+01  0.68676671595E+01 -0.75574882922E+00  0.11710995421E+02  0.51100000000E-03 0.  1.
         12    1    4    4    0    0  0.12806560861E+02  0.73263585893E+01  0.20949545242E+02  0.25623562928E+02  0.00000000000E+00 0. -1.
</event>
<event>
 8    1  0.2994958E-010  0.9118800E+02  0.7816164E-02  0.1184000E+00
        -11   -1    0    0    0    0  0.00000000000E+00  0.00000000000E+00  0.45593999997E+02  0.45594000000E+02  0.51100000000E-03 0. -1.
         11   -1    0    0    0    0 -0.00000000000E+00 -0.00000000000E+00 -0.45593999997E+02  0.45594000000E+02  0.51100000000E-03 0.  1.
         23    2    1    2    0    0  0.00000000000E+00 -0.17763568394E-14  0.00000000000E+00  0.91188000000E+02  0.91188000000E+02 0.  0.
    9900012    2    3    3    0    0  0.31423830414E+02 -0.91829801481E+01 -0.28492782465E+02  0.47787275411E+02  0.20000019908E+02 0.  0.
         12    1    3    3    0    0 -0.31423830414E+02  0.91829801481E+01  0.28492782465E+02  0.43400724589E+02  0.00000000000E+00 0. -1.
         11    1    4    4    0    0  0.18037093655E+01 -0.26972180062E+01 -0.11843299152E+02  0.12279742975E+02  0.51100000000E-03 0. -1.
        -11    1    4    4    0    0  0.38781303527E+01 -0.10341847607E+01 -0.57824757149E+01  0.70389245490E+01  0.51100000000E-03 0.  1.
        -12    1    4    4    0    0  0.25741990696E+02 -0.54515773812E+01 -0.10867007598E+02  0.28468607887E+02  0.00000000000E+00 0.  1.
</event>
<event>
 8    1  0.2994958E-010  0.9118800E+02  0.7816164E-02  0.1184000E+00
        -11   -1    0    0    0    0  0.00000000000E+00  0.00000000000E+00  0.45593999997E+02  0.45594000000E+02  0.51100000000E-03 0. -1.
         11   -1    0    0    0    0 -0.00000000000E+00 -0.00000000000E+00 -0.45593999997E+02  0.45594000000E+02  0.51100000000E-03 0.  1.
         23    2    1    2    0    0 -0.71054273576E-14  0.00000000000E+00  0.00000000000E+00  0.91188000000E+02  0.91188000000E+02 0.  0.
    9900012    2    3    3    0    0 -0.41436548045E+02  0.11250019834E+02 -0.63302925371E+01  0.47787273466E+02  0.20000011039E+02 0.  0.
         12    1    3    3    0    0  0.41436548045E+02 -0.11250019834E+02  0.63302925371E+01  0.43400726534E+02  0.00000000000E+00 0. -1.
         11    1    4    4    0    0 -0.81908658496E+01  0.25295003867E+01 -0.28581085802E+01  0.90364506578E+01  0.51100000000E-03 0. -1.
        -11    1    4    4    0    0 -0.26543923812E+02 -0.73159350819E-02 -0.65191233364E+01  0.27332744359E+02  0.51100000000E-03 0.  1.
         12    1    4    4    0    0 -0.67017583830E+01  0.87278353822E+01  0.30469393794E+01  0.11418078449E+02  0.00000000000E+00 0. -1.
</event>
<event>
 8    1  0.2994958E-010  0.9118800E+02  0.7816164E-02  0.1184000E+00
        -11   -1    0    0    0    0  0.00000000000E+00  0.00000000000E+00  0.45593999997E+02  0.45594000000E+02  0.51100000000E-03 0. -1.
         11   -1    0    0    0    0 -0.00000000000E+00 -0.00000000000E+00 -0.45593999997E+02  0.45594000000E+02  0.51100000000E-03 0.  1.
         23    2    1    2    0    0 -0.35527136788E-14  0.00000000000E+00  0.00000000000E+00  0.91188000000E+02  0.91188000000E+02 0.  0.
    9900012    2    3    3    0    0  0.30478598851E+02  0.15249289286E+01  0.30860221999E+02  0.47787266159E+02  0.19999977724E+02 0.  0.
        -12    1    3    3    0    0 -0.30478598851E+02 -0.15249289286E+01 -0.30860221999E+02  0.43400733841E+02  0.00000000000E+00 0.  1.
         11    1    4    4    0    0  0.12388167073E+02  0.26207542753E+01  0.18234975739E+02  0.22200211190E+02  0.51100000000E-03 0.  1.
        -11    1    4    4    0    0  0.17473111761E+02  0.22740556678E+01  0.13323524795E+02  0.22090660402E+02  0.51100000000E-03 0. -1.
        -12    1    4    4    0    0  0.61732001682E+00 -0.33698810144E+01 -0.69827853514E+00  0.34963945669E+01  0.00000000000E+00 0.  1.
</event>
<event>
 8    1  0.2994958E-010  0.9118800E+02  0.7816164E-02  0.1184000E+00
        -11   -1    0    0    0    0  0.00000000000E+00  0.00000000000E+00  0.45593999997E+02  0.45594000000E+02  0.51100000000E-03 0. -1.
         11   -1    0    0    0    0 -0.00000000000E+00 -0.00000000000E+00 -0.45593999997E+02  0.45594000000E+02  0.51100000000E-03 0.  1.
         23    2    1    2    0    0  0.00000000000E+00  0.00000000000E+00  0.00000000000E+00  0.91188000000E+02  0.91188000000E+02 0.  0.
    9900012    2    3    3    0    0 -0.33310677356E+01 -0.14027641577E+02  0.40935954805E+02  0.47787272630E+02  0.20000007230E+02 0.  0.
        -12    1    3    3    0    0  0.33310677356E+01  0.14027641577E+02 -0.40935954805E+02  0.43400727370E+02  0.00000000000E+00 0.  1.
         11    1    4    4    0    0  0.19438031926E+00 -0.32156627882E+01  0.11154154107E+02  0.11610057062E+02  0.51100000000E-03 0. -1.
        -11    1    4    4    0    0 -0.95719414063E+00 -0.13431885625E+01 -0.21856463141E+01  0.27381428394E+01  0.51100000000E-03 0.  1.
        -12    1    4    4    0    0 -0.25682539142E+01 -0.94687902260E+01  0.31967447011E+02  0.33439072728E+02  0.00000000000E+00 0.  1.
</event>
<event>
 8    1  0.2994958E-010  0.9118800E+02  0.7816164E-02  0.1184000E+00
        -11   -1    0    0    0    0  0.00000000000E+00  0.00000000000E+00  0.45593999997E+02  0.45594000000E+02  0.51100000000E-03 0. -1.
         11   -1    0    0    0    0 -0.00000000000E+00 -0.00000000000E+00 -0.45593999997E+02  0.45594000000E+02  0.51100000000E-03 0.  1.
         23    2    1    2    0    0 -0.35527136788E-14  0.00000000000E+00  0.35527136788E-14  0.91188000000E+02  0.91188000000E+02 0.  0.
    9900012    2    3    3    0    0 -0.24104837431E+02 -0.18529589420E+02 -0.30971511425E+02  0.47787269688E+02  0.19999993816E+02 0.  0.
         12    1    3    3    0    0  0.24104837431E+02  0.18529589420E+02  0.30971511425E+02  0.43400730312E+02  0.00000000000E+00 0. -1.
         11    1    4    4    0    0 -0.11291138567E+02 -0.62299046675E+01 -0.11038689688E+02  0.16975105083E+02  0.51100000000E-03 0. -1.
        -11    1    4    4    0    0 -0.13851356573E+02 -0.38666772830E+01 -0.15796782242E+02  0.21362340733E+02  0.51100000000E-03 0.  1.
         12    1    4    4    0    0  0.10376577093E+01 -0.84330074695E+01 -0.41360394955E+01  0.94498238719E+01  0.00000000000E+00 0. -1.
</event>
<event>
 8    1  0.2994958E-010  0.9118800E+02  0.7816164E-02  0.1184000E+00
        -11   -1    0    0    0    0  0.00000000000E+00  0.00000000000E+00  0.45593999997E+02  0.45594000000E+02  0.51100000000E-03 0. -1.
         11   -1    0    0    0    0 -0.00000000000E+00 -0.00000000000E+00 -0.45593999997E+02  0.45594000000E+02  0.51100000000E-03 0.  1.
         23    2    1    2    0    0  0.00000000000E+00  0.00000000000E+00  0.00000000000E+00  0.91188000000E+02  0.91188000000E+02 0.  0.
    9900012    2    3    3    0    0 -0.13728982550E+02 -0.23946286526E+02  0.33491994773E+02  0.47787270581E+02  0.19999997886E+02 0.  0.
        -12    1    3    3    0    0  0.13728982550E+02  0.23946286526E+02 -0.33491994773E+02  0.43400729419E+02  0.00000000000E+00 0.  1.
         11    1    4    4    0    0 -0.10809636462E+02 -0.20645346808E+02  0.16790720882E+02  0.28722933228E+02  0.51100000000E-03 0. -1.
        -11    1    4    4    0    0 -0.41519925557E+01 -0.53572938020E+01  0.12844505418E+02  0.14523118079E+02  0.51100000000E-03 0.  1.
        -12    1    4    4    0    0  0.12326464669E+01  0.20563540835E+01  0.38567684738E+01  0.45412192735E+01  0.00000000000E+00 0.  1.
</event>
<event>
 8    1  0.2994958E-010  0.9118800E+02  0.7816164E-02  0.1184000E+00
        -11   -1    0    0    0    0  0.00000000000E+00  0.00000000000E+00  0.45593999997E+02  0.45594000000E+02  0.51100000000E-03 0. -1.
         11   -1    0    0    0    0 -0.00000000000E+00 -0.00000000000E+00 -0.45593999997E+02  0.45594000000E+02  0.51100000000E-03 0.  1.
         23    2    1    2    0    0  0.00000000000E+00  0.00000000000E+00  0.00000000000E+00  0.91188000000E+02  0.91188000000E+02 0.  0.
    9900012    2    3    3    0    0  0.32819647540E+02  0.61626968146E+01  0.27722111948E+02  0.47787267431E+02  0.19999983523E+02 0.  0.
        -12    1    3    3    0    0 -0.32819647540E+02 -0.61626968146E+01 -0.27722111948E+02  0.43400732569E+02  0.00000000000E+00 0.  1.
         11    1    4    4    0    0  0.19125354089E+02  0.52551899566E+00  0.12146375921E+02  0.22662519443E+02  0.51100000000E-03 0. -1.
        -11    1    4    4    0    0  0.43082897211E+01 -0.12475119911E+01 -0.12580630461E+01  0.46583655264E+01  0.51100000000E-03 0.  1.
         12    1    4    4    0    0  0.93860037309E+01  0.68846898101E+01  0.16833799073E+02  0.20466382461E+02  0.00000000000E+00 0. -1.
</event>
<event>
 8    1  0.2994958E-010  0.9118800E+02  0.7816164E-02  0.1184000E+00
        -11   -1    0    0    0    0  0.00000000000E+00  0.00000000000E+00  0.45593999997E+02  0.45594000000E+02  0.51100000000E-03 0.  1.
         11   -1    0    0    0    0 -0.00000000000E+00 -0.00000000000E+00 -0.45593999997E+02  0.45594000000E+02  0.51100000000E-03 0. -1.
         23    2    1    2    0    0  0.00000000000E+00  0.00000000000E+00  0.35527136788E-14  0.91188000000E+02  0.91188000000E+02 0.  0.
    9900012    2    3    3    0    0 -0.17696013829E+02 -0.35728933706E+02 -0.17144029985E+02  0.47787269899E+02  0.19999994777E+02 0.  0.
         12    1    3    3    0    0  0.17696013829E+02  0.35728933706E+02  0.17144029985E+02  0.43400730101E+02  0.00000000000E+00 0. -1.
         11    1    4    4    0    0 -0.18147310068E+02 -0.19861630818E+02 -0.15516153941E+02  0.31057370701E+02  0.51100000000E-03 0. -1.
        -11    1    4    4    0    0 -0.97381635337E+00 -0.62787588379E+01  0.15285213311E+01  0.65350982055E+01  0.51100000000E-03 0.  1.
        -12    1    4    4    0    0  0.14251125923E+01 -0.95885440497E+01 -0.31563973747E+01  0.10194800993E+02  0.00000000000E+00 0.  1.
</event>
<event>
 8    1  0.2994958E-010  0.9118800E+02  0.7816164E-02  0.1184000E+00
        -11   -1    0    0    0    0  0.00000000000E+00  0.00000000000E+00  0.45593999997E+02  0.45594000000E+02  0.51100000000E-03 0. -1.
         11   -1    0    0    0    0 -0.00000000000E+00 -0.00000000000E+00 -0.45593999997E+02  0.45594000000E+02  0.51100000000E-03 0.  1.
         23    2    1    2    0    0  0.00000000000E+00  0.00000000000E+00  0.00000000000E+00  0.91188000000E+02  0.91188000000E+02 0.  0.
    9900012    2    3    3    0    0  0.11151336441E+02 -0.11428276688E+02 -0.40356729257E+02  0.47787269490E+02  0.19999992911E+02 0.  0.
         12    1    3    3    0    0 -0.11151336441E+02  0.11428276688E+02  0.40356729257E+02  0.43400730510E+02  0.00000000000E+00 0. -1.
         11    1    4    4    0    0  0.12193520168E+02 -0.21099512395E+01 -0.15385439139E+02  0.19744507239E+02  0.51100000000E-03 0. -1.
        -11    1    4    4    0    0  0.35228221020E+01 -0.63558183164E+01 -0.13016242616E+02  0.14907356376E+02  0.51100000000E-03 0.  1.
        -12    1    4    4    0    0 -0.45650058284E+01 -0.29625071323E+01 -0.11955047502E+02  0.13135405875E+02  0.00000000000E+00 0.  1.
</event>
<event>
 8    1  0.2994958E-010  0.9118800E+02  0.7816164E-02  0.1184000E+00
        -11   -1    0    0    0    0  0.00000000000E+00  0.00000000000E+00  0.45593999997E+02  0.45594000000E+02  0.51100000000E-03 0. -1.
         11   -1    0    0    0    0 -0.00000000000E+00 -0.00000000000E+00 -0.45593999997E+02  0.45594000000E+02  0.51100000000E-03 0.  1.
         23    2    1    2    0    0  0.00000000000E+00  0.35527136788E-14  0.00000000000E+00  0.91188000000E+02  0.91188000000E+02 0.  0.
    9900012    2    3    3    0    0 -0.75962403673E+01  0.16452876702E+02  0.39436314584E+02  0.47787275035E+02  0.20000018194E+02 0.  0.
        -12    1    3    3    0    0  0.75962403673E+01 -0.16452876702E+02 -0.39436314584E+02  0.43400724965E+02  0.00000000000E+00 0.  1.
         11    1    4    4    0    0 -0.73891139085E+01  0.41007926166E+01  0.61041591563E+01  0.10424790823E+02  0.51100000000E-03 0. -1.
        -11    1    4    4    0    0 -0.53348449340E+01  0.27882013408E+01  0.11334701870E+02  0.12833943429E+02  0.51100000000E-03 0.  1.
        -12    1    4    4    0    0  0.51277184752E+01  0.95638827451E+01  0.21997453558E+02  0.24528540783E+02  0.00000000000E+00 0.  1.
</event>
<event>
 8    1  0.2994958E-010  0.9118800E+02  0.7816164E-02  0.1184000E+00
        -11   -1    0    0    0    0  0.00000000000E+00  0.00000000000E+00  0.45593999997E+02  0.45594000000E+02  0.51100000000E-03 0.  1.
         11   -1    0    0    0    0 -0.00000000000E+00 -0.00000000000E+00 -0.45593999997E+02  0.45594000000E+02  0.51100000000E-03 0. -1.
         23    2    1    2    0    0 -0.35527136788E-14 -0.71054273576E-14  0.00000000000E+00  0.91188000000E+02  0.91188000000E+02 0.  0.
    9900012    2    3    3    0    0  0.28701560436E+02  0.32521004015E+02 -0.14922190780E+01  0.47787285820E+02  0.20000067366E+02 0.  0.
        -12    1    3    3    0    0 -0.28701560436E+02 -0.32521004015E+02  0.14922190780E+01  0.43400714180E+02  0.00000000000E+00 0.  1.
         11    1    4    4    0    0 -0.12151621041E+01 -0.65690250429E+00 -0.47520672473E+00  0.14608085198E+01  0.51100000000E-03 0.  1.
        -11    1    4    4    0    0  0.36202345569E+01  0.99895373349E+01  0.29905889620E+01  0.11038141919E+02  0.51100000000E-03 0. -1.
         12    1    4    4    0    0  0.26296487983E+02  0.23188369184E+02 -0.40076013152E+01  0.35288335381E+02  0.00000000000E+00 0. -1.
</event>
<event>
 8    1  0.2994958E-010  0.9118800E+02  0.7816164E-02  0.1184000E+00
        -11   -1    0    0    0    0  0.00000000000E+00  0.00000000000E+00  0.45593999997E+02  0.45594000000E+02  0.51100000000E-03 0. -1.
         11   -1    0    0    0    0 -0.00000000000E+00 -0.00000000000E+00 -0.45593999997E+02  0.45594000000E+02  0.51100000000E-03 0.  1.
         23    2    1    2    0    0  0.00000000000E+00  0.00000000000E+00  0.00000000000E+00  0.91188000000E+02  0.91188000000E+02 0.  0.
    9900012    2    3    3    0    0  0.29893203518E+02 -0.17110374198E+02 -0.26405573938E+02  0.47787275850E+02  0.20000021909E+02 0.  0.
         12    1    3    3    0    0 -0.29893203518E+02  0.17110374198E+02  0.26405573938E+02  0.43400724150E+02  0.00000000000E+00 0. -1.
         11    1    4    4    0    0  0.17139261672E+02 -0.97844368103E+01 -0.12156044626E+02  0.23178846295E+02  0.51100000000E-03 0. -1.
        -11    1    4    4    0    0  0.99263314417E+01 -0.93275226730E+01 -0.46339043664E+01  0.14387765811E+02  0.51100000000E-03 0.  1.
         12    1    4    4    0    0  0.28276104043E+01  0.20015852855E+01 -0.96156249456E+01  0.10220663743E+02  0.00000000000E+00 0. -1.
</event>
<event>
 8    1  0.2994958E-010  0.9118800E+02  0.7816164E-02  0.1184000E+00
        -11   -1    0    0    0    0  0.00000000000E+00  0.00000000000E+00  0.45593999997E+02  0.45594000000E+02  0.51100000000E-03 0.  1.
         11   -1    0    0    0    0 -0.00000000000E+00 -0.00000000000E+00 -0.45593999997E+02  0.45594000000E+02  0.51100000000E-03 0. -1.
         23    2    1    2    0    0  0.00000000000E+00  0.00000000000E+00  0.00000000000E+00  0.91188000000E+02  0.91188000000E+02 0.  0.
    9900012    2    3    3    0    0  0.28389805126E+01 -0.31626568127E+02 -0.29585868749E+02  0.47787271303E+02  0.20000001177E+02 0.  0.
         12    1    3    3    0    0 -0.28389805126E+01  0.31626568127E+02  0.29585868749E+02  0.43400728697E+02  0.00000000000E+00 0. -1.
         11    1    4    4    0    0  0.29105793079E+00 -0.40752719967E+01 -0.91814761490E+00  0.41875472380E+01  0.51100000000E-03 0. -1.
        -11    1    4    4    0    0  0.26157080443E+01 -0.87946823895E+01  0.19530600424E+00  0.91775002915E+01  0.51100000000E-03 0.  1.
         12    1    4    4    0    0 -0.67785462432E-01 -0.18756613740E+02 -0.28863027139E+02  0.34422223773E+02  0.00000000000E+00 0. -1.
</event>
<event>
 8    1  0.2994958E-010  0.9118800E+02  0.7816164E-02  0.1184000E+00
        -11   -1    0    0    0    0  0.00000000000E+00  0.00000000000E+00  0.45593999997E+02  0.45594000000E+02  0.51100000000E-03 0. -1.
         11   -1    0    0    0    0 -0.00000000000E+00 -0.00000000000E+00 -0.45593999997E+02  0.45594000000E+02  0.51100000000E-03 0.  1.
         23    2    1    2    0    0  0.00000000000E+00  0.88817841970E-15  0.00000000000E+00  0.91188000000E+02  0.91188000000E+02 0.  0.
    9900012    2    3    3    0    0 -0.11778124954E+02 -0.44371436236E+01  0.41535653894E+02  0.47787274022E+02  0.20000013577E+02 0.  0.
        -12    1    3    3    0    0  0.11778124954E+02  0.44371436236E+01 -0.41535653894E+02  0.43400725978E+02  0.00000000000E+00 0.  1.
         11    1    4    4    0    0 -0.63225104763E+01  0.17391617199E+00  0.13348007670E+02  0.14770703930E+02  0.51100000000E-03 0. -1.
        -11    1    4    4    0    0 -0.51592237786E+01 -0.95653524683E+01  0.12506963748E+02  0.16569179228E+02  0.51100000000E-03 0.  1.
        -12    1    4    4    0    0 -0.29639069954E+00  0.49542926727E+01  0.15680682476E+02  0.16447390864E+02  0.00000000000E+00 0.  1.
</event>
<event>
 8    1  0.2994958E-010  0.9118800E+02  0.7816164E-02  0.1184000E+00
        -11   -1    0    0    0    0  0.00000000000E+00  0.00000000000E+00  0.45593999997E+02  0.45594000000E+02  0.51100000000E-03 0. -1.
         11   -1    0    0    0    0 -0.00000000000E+00 -0.00000000000E+00 -0.45593999997E+02  0.45594000000E+02  0.51100000000E-03 0.  1.
         23    2    1    2    0    0  0.71054273576E-14 -0.88817841970E-15 -0.71054273576E-14  0.91188000000E+02  0.91188000000E+02 0.  0.
    9900012    2    3    3    0    0 -0.33540253456E+02  0.11115145925E+01  0.27521644834E+02  0.47787251148E+02  0.19999909283E+02 0.  0.
        -12    1    3    3    0    0  0.33540253456E+02 -0.11115145925E+01 -0.27521644834E+02  0.43400748852E+02  0.00000000000E+00 0.  1.
         11    1    4    4    0    0 -0.15929131278E+02  0.45672033161E+01  0.10196650823E+02  0.19456830617E+02  0.51100000000E-03 0. -1.
        -11    1    4    4    0    0 -0.14290231221E+02  0.19989801649E+01  0.16454850354E+02  0.21885354246E+02  0.51100000000E-03 0.  1.
        -12    1    4    4    0    0 -0.33208909567E+01 -0.54546688885E+01  0.87014365731E+00  0.64450662847E+01  0.00000000000E+00 0.  1.
</event>
<event>
 8    1  0.2994958E-010  0.9118800E+02  0.7816164E-02  0.1184000E+00
        -11   -1    0    0    0    0  0.00000000000E+00  0.00000000000E+00  0.45593999997E+02  0.45594000000E+02  0.51100000000E-03 0. -1.
         11   -1    0    0    0    0 -0.00000000000E+00 -0.00000000000E+00 -0.45593999997E+02  0.45594000000E+02  0.51100000000E-03 0.  1.
         23    2    1    2    0    0  0.00000000000E+00  0.00000000000E+00  0.00000000000E+00  0.91188000000E+02  0.91188000000E+02 0.  0.
    9900012    2    3    3    0    0 -0.92116365720E+01 -0.24026375295E+02  0.34949997874E+02  0.47787270633E+02  0.19999998125E+02 0.  0.
        -12    1    3    3    0    0  0.92116365720E+01  0.24026375295E+02 -0.34949997874E+02  0.43400729367E+02  0.00000000000E+00 0.  1.
         11    1    4    4    0    0 -0.58217239953E+01 -0.15380060801E+02  0.16669357885E+02  0.23415939722E+02  0.51100000000E-03 0. -1.
        -11    1    4    4    0    0 -0.46289234478E+01 -0.92657165291E+01  0.19781404520E+02  0.22329003563E+02  0.51100000000E-03 0.  1.
        -12    1    4    4    0    0  0.12390108711E+01  0.61940203518E+00 -0.15007645304E+01  0.20423273478E+01  0.00000000000E+00 0.  1.
</event>
<event>
 8    1  0.2994958E-010  0.9118800E+02  0.7816164E-02  0.1184000E+00
        -11   -1    0    0    0    0  0.00000000000E+00  0.00000000000E+00  0.45593999997E+02  0.45594000000E+02  0.51100000000E-03 0. -1.
         11   -1    0    0    0    0 -0.00000000000E+00 -0.00000000000E+00 -0.45593999997E+02  0.45594000000E+02  0.51100000000E-03 0.  1.
         23    2    1    2    0    0 -0.88817841970E-15  0.00000000000E+00 -0.71054273576E-14  0.91188000000E+02  0.91188000000E+02 0.  0.
    9900012    2    3    3    0    0 -0.63493867003E+01 -0.88883481962E+01 -0.42003638092E+02  0.47787273530E+02  0.20000011334E+02 0.  0.
         12    1    3    3    0    0  0.63493867003E+01  0.88883481962E+01  0.42003638092E+02  0.43400726470E+02  0.00000000000E+00 0. -1.
         11    1    4    4    0    0 -0.61856255654E+00 -0.63952807847E+01 -0.64571655353E+01  0.91091834411E+01  0.51100000000E-03 0. -1.
        -11    1    4    4    0    0  0.17395829820E+00 -0.71200347531E+01 -0.22815698795E+02  0.23901490919E+02  0.51100000000E-03 0.  1.
         12    1    4    4    0    0 -0.59047824420E+01  0.46269673416E+01 -0.12730773762E+02  0.14776599170E+02  0.00000000000E+00 0. -1.
</event>
<event>
 8    1  0.2994958E-010  0.9118800E+02  0.7816164E-02  0.1184000E+00
        -11   -1    0    0    0    0  0.00000000000E+00  0.00000000000E+00  0.45593999997E+02  0.45594000000E+02  0.51100000000E-03 0. -1.
         11   -1    0    0    0    0 -0.00000000000E+00 -0.00000000000E+00 -0.45593999997E+02  0.45594000000E+02  0.51100000000E-03 0.  1.
         23    2    1    2    0    0  0.17763568394E-14  0.00000000000E+00  0.00000000000E+00  0.91188000000E+02  0.91188000000E+02 0.  0.
    9900012    2    3    3    0    0 -0.14868663145E+02  0.12668239063E+02 -0.38756441218E+02  0.47787272350E+02  0.20000005951E+02 0.  0.
         12    1    3    3    0    0  0.14868663145E+02 -0.12668239063E+02  0.38756441218E+02  0.43400727650E+02  0.00000000000E+00 0. -1.
         11    1    4    4    0    0 -0.30085702575E+01  0.78274839593E+01 -0.69683934795E+01  0.10903187977E+02  0.51100000000E-03 0. -1.
        -11    1    4    4    0    0 -0.91767554280E+01  0.75319324512E+01 -0.30723470053E+02  0.32937432489E+02  0.51100000000E-03 0.  1.
        -12    1    4    4    0    0 -0.26833374593E+01 -0.26911773475E+01 -0.10645776860E+01  0.39466518831E+01  0.00000000000E+00 0.  1.
</event>
<event>
 8    1  0.2994958E-010  0.9118800E+02  0.7816164E-02  0.1184000E+00
        -11   -1    0    0    0    0  0.00000000000E+00  0.00000000000E+00  0.45593999997E+02  0.45594000000E+02  0.51100000000E-03 0. -1.
         11   -1    0    0    0    0 -0.00000000000E+00 -0.00000000000E+00 -0.45593999997E+02  0.45594000000E+02  0.51100000000E-03 0.  1.
         23    2    1    2    0    0  0.00000000000E+00  0.00000000000E+00  0.00000000000E+00  0.91188000000E+02  0.91188000000E+02 0.  0.
    9900012    2    3    3    0    0  0.11854553430E+02 -0.22871615140E+02  0.34928237108E+02  0.47787274619E+02  0.20000016299E+02 0.  0.
        -12    1    3    3    0    0 -0.11854553430E+02  0.22871615140E+02 -0.34928237108E+02  0.43400725381E+02  0.00000000000E+00 0.  1.
         11    1    4    4    0    0  0.31804134100E+01  0.83619867096E+00  0.70085448348E+01  0.77417025672E+01  0.51100000000E-03 0. -1.
        -11    1    4    4    0    0  0.65471306376E+01 -0.42386125901E+01  0.13972426409E+02  0.16001857901E+02  0.51100000000E-03 0.  1.
         12    1    4    4    0    0  0.21270093825E+01 -0.19469201221E+02  0.13947265864E+02  0.24043714151E+02  0.00000000000E+00 0. -1.
</event>
<event>
 8    1  0.2994958E-010  0.9118800E+02  0.7816164E-02  0.1184000E+00
        -11   -1    0    0    0    0  0.00000000000E+00  0.00000000000E+00  0.45593999997E+02  0.45594000000E+02  0.51100000000E-03 0. -1.
         11   -1    0    0    0    0 -0.00000000000E+00 -0.00000000000E+00 -0.45593999997E+02  0.45594000000E+02  0.51100000000E-03 0.  1.
         23    2    1    2    0    0  0.35527136788E-14  0.17763568394E-14 -0.71054273576E-14  0.91188000000E+02  0.91188000000E+02 0.  0.
    9900012    2    3    3    0    0 -0.24312393658E+02 -0.80294017034E+01  0.35043675967E+02  0.47787274172E+02  0.20000014260E+02 0.  0.
        -12    1    3    3    0    0  0.24312393658E+02  0.80294017034E+01 -0.35043675967E+02  0.43400725828E+02  0.00000000000E+00 0.  1.
         11    1    4    4    0    0 -0.14517291617E+02 -0.43326429293E+01  0.26655512524E+02  0.30660070105E+02  0.51100000000E-03 0. -1.
        -11    1    4    4    0    0 -0.18070507558E+01  0.27586916919E+01  0.55768165410E+01  0.64789424506E+01  0.51100000000E-03 0.  1.
         12    1    4    4    0    0 -0.79880512848E+01 -0.64554504659E+01  0.28113469020E+01  0.10648261616E+02  0.00000000000E+00 0. -1.
</event>
<event>
 8    1  0.2994958E-010  0.9118800E+02  0.7816164E-02  0.1184000E+00
        -11   -1    0    0    0    0  0.00000000000E+00  0.00000000000E+00  0.45593999997E+02  0.45594000000E+02  0.51100000000E-03 0. -1.
         11   -1    0    0    0    0 -0.00000000000E+00 -0.00000000000E+00 -0.45593999997E+02  0.45594000000E+02  0.51100000000E-03 0.  1.
         23    2    1    2    0    0 -0.88817841970E-15  0.00000000000E+00  0.71054273576E-14  0.91188000000E+02  0.91188000000E+02 0.  0.
    9900012    2    3    3    0    0  0.47100234869E+01 -0.13563429848E+02 -0.40956954967E+02  0.47787272925E+02  0.20000008574E+02 0.  0.
         12    1    3    3    0    0 -0.47100234869E+01  0.13563429848E+02  0.40956954967E+02  0.43400727075E+02  0.00000000000E+00 0. -1.
         11    1    4    4    0    0  0.19707035863E+01  0.27133893866E+01 -0.14372287852E+02  0.14758347229E+02  0.51100000000E-03 0. -1.
        -11    1    4    4    0    0  0.52551935117E+01 -0.43273072215E+01 -0.13572943098E+02  0.15184447018E+02  0.51100000000E-03 0.  1.
         12    1    4    4    0    0 -0.25158736112E+01 -0.11949512013E+02 -0.13011724017E+02  0.17844478678E+02  0.00000000000E+00 0. -1.
</event>
<event>
 8    1  0.2994958E-010  0.9118800E+02  0.7816164E-02  0.1184000E+00
        -11   -1    0    0    0    0  0.00000000000E+00  0.00000000000E+00  0.45593999997E+02  0.45594000000E+02  0.51100000000E-03 0.  1.
         11   -1    0    0    0    0 -0.00000000000E+00 -0.00000000000E+00 -0.45593999997E+02  0.45594000000E+02  0.51100000000E-03 0. -1.
         23    2    1    2    0    0  0.00000000000E+00  0.00000000000E+00  0.00000000000E+00  0.91188000000E+02  0.91188000000E+02 0.  0.
    9900012    2    3    3    0    0  0.41222943255E+02  0.51312933145E+01  0.12568298049E+02  0.47787270311E+02  0.19999996656E+02 0.  0.
        -12    1    3    3    0    0 -0.41222943255E+02 -0.51312933145E+01 -0.12568298049E+02  0.43400729689E+02  0.00000000000E+00 0.  1.
         11    1    4    4    0    0  0.62992430894E+01  0.12889455779E+01  0.71759423691E+00  0.64696820596E+01  0.51100000000E-03 0. -1.
        -11    1    4    4    0    0  0.41037773769E+01  0.55825329145E+01  0.73864249318E+01  0.10127434820E+02  0.51100000000E-03 0.  1.
         12    1    4    4    0    0  0.30819922789E+02 -0.17401851779E+01  0.44642788802E+01  0.31190153431E+02  0.00000000000E+00 0. -1.
</event>
<event>
 8    1  0.2994958E-010  0.9118800E+02  0.7816164E-02  0.1184000E+00
        -11   -1    0    0    0    0  0.00000000000E+00  0.00000000000E+00  0.45593999997E+02  0.45594000000E+02  0.51100000000E-03 0. -1.
         11   -1    0    0    0    0 -0.00000000000E+00 -0.00000000000E+00 -0.45593999997E+02  0.45594000000E+02  0.51100000000E-03 0.  1.
         23    2    1    2    0    0  0.00000000000E+00  0.00000000000E+00  0.00000000000E+00  0.91188000000E+02  0.91188000000E+02 0.  0.
    9900012    2    3    3    0    0  0.12263238354E+02  0.16694742337E+02 -0.38138200369E+02  0.47787265398E+02  0.19999974256E+02 0.  0.
         12    1    3    3    0    0 -0.12263238354E+02 -0.16694742337E+02  0.38138200369E+02  0.43400734602E+02  0.00000000000E+00 0. -1.
         11    1    4    4    0    0  0.36179900556E+01  0.72273224177E+00 -0.22449391213E+01  0.43187898600E+01  0.51100000000E-03 0. -1.
        -11    1    4    4    0    0  0.13583788653E+02  0.11798670487E+02 -0.25012297527E+02  0.30811409693E+02  0.51100000000E-03 0.  1.
         12    1    4    4    0    0 -0.49385403548E+01  0.41733396082E+01 -0.10880963721E+02  0.12657065846E+02  0.00000000000E+00 0. -1.
</event>
<event>
 8    1  0.2994958E-010  0.9118800E+02  0.7816164E-02  0.1184000E+00
        -11   -1    0    0    0    0  0.00000000000E+00  0.00000000000E+00  0.45593999997E+02  0.45594000000E+02  0.51100000000E-03 0. -1.
         11   -1    0    0    0    0 -0.00000000000E+00 -0.00000000000E+00 -0.45593999997E+02  0.45594000000E+02  0.51100000000E-03 0.  1.
         23    2    1    2    0    0  0.17763568394E-14  0.00000000000E+00 -0.71054273576E-14  0.91188000000E+02  0.91188000000E+02 0.  0.
    9900012    2    3    3    0    0 -0.85793566035E+01  0.22797343278E+02  0.35920731011E+02  0.47787272625E+02  0.20000007208E+02 0.  0.
        -12    1    3    3    0    0  0.85793566035E+01 -0.22797343278E+02 -0.35920731011E+02  0.43400727375E+02  0.00000000000E+00 0.  1.
         11    1    4    4    0    0 -0.24961568043E+01  0.12355387968E+02  0.16569966152E+02  0.20819466592E+02  0.51100000000E-03 0. -1.
        -11    1    4    4    0    0 -0.48562950685E+01  0.74559236853E+01  0.17437086315E+01  0.90672443359E+01  0.51100000000E-03 0.  1.
         12    1    4    4    0    0 -0.12269047307E+01  0.29860316246E+01  0.17607056228E+02  0.17900561698E+02  0.00000000000E+00 0. -1.
</event>
<event>
 8    1  0.2994958E-010  0.9118800E+02  0.7816164E-02  0.1184000E+00
        -11   -1    0    0    0    0  0.00000000000E+00  0.00000000000E+00  0.45593999997E+02  0.45594000000E+02  0.51100000000E-03 0. -1.
         11   -1    0    0    0    0 -0.00000000000E+00 -0.00000000000E+00 -0.45593999997E+02  0.45594000000E+02  0.51100000000E-03 0.  1.
         23    2    1    2    0    0  0.00000000000E+00  0.00000000000E+00  0.00000000000E+00  0.91188000000E+02  0.91188000000E+02 0.  0.
    9900012    2    3    3    0    0  0.29976192823E+02  0.24104040883E+02  0.20100911642E+02  0.47787267611E+02  0.19999984347E+02 0.  0.
        -12    1    3    3    0    0 -0.29976192823E+02 -0.24104040883E+02 -0.20100911642E+02  0.43400732389E+02  0.00000000000E+00 0.  1.
         11    1    4    4    0    0  0.10507808480E+02  0.60266880407E+01  0.14713223108E+02  0.19058172585E+02  0.51100000000E-03 0. -1.
        -11    1    4    4    0    0  0.28057939695E+01  0.43704423649E+01  0.49111177555E+01  0.71478894881E+01  0.51100000000E-03 0.  1.
         12    1    4    4    0    0  0.16662590374E+02  0.13706910477E+02  0.47657077823E+00  0.21581205538E+02  0.00000000000E+00 0. -1.
</event>
<event>
 8    1  0.2994958E-010  0.9118800E+02  0.7816164E-02  0.1184000E+00
        -11   -1    0    0    0    0  0.00000000000E+00  0.00000000000E+00  0.45593999997E+02  0.45594000000E+02  0.51100000000E-03 0. -1.
         11   -1    0    0    0    0 -0.00000000000E+00 -0.00000000000E+00 -0.45593999997E+02  0.45594000000E+02  0.51100000000E-03 0.  1.
         23    2    1    2    0    0  0.00000000000E+00  0.66613381478E-15  0.00000000000E+00  0.91188000000E+02  0.91188000000E+02 0.  0.
    9900012    2    3    3    0    0 -0.33057947610E+02  0.72088158763E+00  0.28111844085E+02  0.47787270187E+02  0.19999996092E+02 0.  0.
        -12    1    3    3    0    0  0.33057947610E+02 -0.72088158763E+00 -0.28111844085E+02  0.43400729813E+02  0.00000000000E+00 0.  1.
         11    1    4    4    0    0 -0.20538639546E+02  0.57466559290E+01  0.19891642134E+02  0.29163970852E+02  0.51100000000E-03 0. -1.
        -11    1    4    4    0    0 -0.11998943271E+02 -0.77285928819E+00  0.41673091281E+01  0.12725502612E+02  0.51100000000E-03 0.  1.
        -12    1    4    4    0    0 -0.52036479287E+00 -0.42529150532E+01  0.40528928223E+01  0.58977967239E+01  0.00000000000E+00 0.  1.
</event>
<event>
 8    1  0.3333440E-010  0.9118800E+02  0.7816164E-02  0.1184000E+00
        -11   -1    0    0    0    0  0.00000000000E+00  0.00000000000E+00  0.45593999997E+02  0.45594000000E+02  0.51100000000E-03 0. -1.
         11   -1    0    0    0    0 -0.00000000000E+00 -0.00000000000E+00 -0.45593999997E+02  0.45594000000E+02  0.51100000000E-03 0.  1.
         23    2    1    2    0    0 -0.35527136788E-14 -0.35527136788E-14  0.00000000000E+00  0.91188000000E+02  0.91188000000E+02 0.  0.
    9900012    2    3    3    0    0 -0.22649004561E+02 -0.16806988436E+02  0.32987434568E+02  0.47787272964E+02  0.20000008753E+02 0.  0.
        -12    1    3    3    0    0  0.22649004561E+02  0.16806988436E+02 -0.32987434568E+02  0.43400727036E+02  0.00000000000E+00 0.  1.
         11    1    4    4    0    0 -0.10462691095E+02 -0.92429056165E+01  0.57094502983E+01  0.15083004746E+02  0.51100000000E-03 0.  1.
        -11    1    4    4    0    0 -0.18190169406E+01  0.18273541709E+01  0.70306962046E+00  0.26725181100E+01  0.51100000000E-03 0. -1.
         12    1    4    4    0    0 -0.10367296525E+02 -0.93914369901E+01  0.26574914649E+02  0.30031750108E+02  0.00000000000E+00 0. -1.
</event>
<event>
 8    1  0.2994958E-010  0.9118800E+02  0.7816164E-02  0.1184000E+00
        -11   -1    0    0    0    0  0.00000000000E+00  0.00000000000E+00  0.45593999997E+02  0.45594000000E+02  0.51100000000E-03 0. -1.
         11   -1    0    0    0    0 -0.00000000000E+00 -0.00000000000E+00 -0.45593999997E+02  0.45594000000E+02  0.51100000000E-03 0.  1.
         23    2    1    2    0    0  0.00000000000E+00  0.17763568394E-14  0.00000000000E+00  0.91188000000E+02  0.91188000000E+02 0.  0.
    9900012    2    3    3    0    0 -0.58652970421E+01 -0.14990379444E+02  0.40305212263E+02  0.47787270504E+02  0.19999997534E+02 0.  0.
        -12    1    3    3    0    0  0.58652970421E+01  0.14990379444E+02 -0.40305212263E+02  0.43400729496E+02  0.00000000000E+00 0.  1.
         11    1    4    4    0    0  0.66641489631E+00 -0.10014241262E+02  0.17588420767E+02  0.20250473629E+02  0.51100000000E-03 0. -1.
        -11    1    4    4    0    0 -0.11435108630E+01 -0.98820034957E+00  0.20382623760E+02  0.20438578928E+02  0.51100000000E-03 0.  1.
        -12    1    4    4    0    0 -0.53882010754E+01 -0.39879378326E+01  0.23341677359E+01  0.70982179457E+01  0.00000000000E+00 0.  1.
</event>
<event>
 8    1  0.2994958E-010  0.9118800E+02  0.7816164E-02  0.1184000E+00
        -11   -1    0    0    0    0  0.00000000000E+00  0.00000000000E+00  0.45593999997E+02  0.45594000000E+02  0.51100000000E-03 0. -1.
         11   -1    0    0    0    0 -0.00000000000E+00 -0.00000000000E+00 -0.45593999997E+02  0.45594000000E+02  0.51100000000E-03 0.  1.
         23    2    1    2    0    0  0.00000000000E+00  0.00000000000E+00  0.00000000000E+00  0.91188000000E+02  0.91188000000E+02 0.  0.
    9900012    2    3    3    0    0 -0.94408067687E+01  0.16059808409E+02  0.39199250424E+02  0.47787222214E+02  0.19999777362E+02 0.  0.
        -12    1    3    3    0    0  0.94408067687E+01 -0.16059808409E+02 -0.39199250424E+02  0.43400777786E+02  0.00000000000E+00 0.  1.
         11    1    4    4    0    0 -0.43434795306E+01  0.10318097352E+02  0.24496555036E+02  0.26933439370E+02  0.51100000000E-03 0. -1.
        -11    1    4    4    0    0 -0.44737920668E+01 -0.32804711368E+01  0.72871011798E+01  0.91585015260E+01  0.51100000000E-03 0.  1.
         12    1    4    4    0    0 -0.62353517127E+00  0.90221821933E+01  0.74155942084E+01  0.11695281318E+02  0.00000000000E+00 0. -1.
</event>
<event>
 8    1  0.2994958E-010  0.9118800E+02  0.7816164E-02  0.1184000E+00
        -11   -1    0    0    0    0  0.00000000000E+00  0.00000000000E+00  0.45593999997E+02  0.45594000000E+02  0.51100000000E-03 0. -1.
         11   -1    0    0    0    0 -0.00000000000E+00 -0.00000000000E+00 -0.45593999997E+02  0.45594000000E+02  0.51100000000E-03 0.  1.
         23    2    1    2    0    0  0.00000000000E+00  0.17763568394E-14  0.00000000000E+00  0.91188000000E+02  0.91188000000E+02 0.  0.
    9900012    2    3    3    0    0  0.16445536848E+02  0.12672399636E+02  0.38112728775E+02  0.47787245520E+02  0.19999883622E+02 0.  0.
        -12    1    3    3    0    0 -0.16445536848E+02 -0.12672399636E+02 -0.38112728775E+02  0.43400754480E+02  0.00000000000E+00 0.  1.
         11    1    4    4    0    0 -0.23209764083E+01 -0.12467609073E+01  0.96042052202E+01  0.99590211577E+01  0.51100000000E-03 0. -1.
        -11    1    4    4    0    0  0.76550670240E+01  0.10380311453E+01  0.10735194636E+02  0.13225806740E+02  0.51100000000E-03 0.  1.
         12    1    4    4    0    0  0.11111446232E+02  0.12881129398E+02  0.17773328920E+02  0.24602417622E+02  0.00000000000E+00 0. -1.
</event>
<event>
 8    1  0.2994958E-010  0.9118800E+02  0.7816164E-02  0.1184000E+00
        -11   -1    0    0    0    0  0.00000000000E+00  0.00000000000E+00  0.45593999997E+02  0.45594000000E+02  0.51100000000E-03 0. -1.
         11   -1    0    0    0    0 -0.00000000000E+00 -0.00000000000E+00 -0.45593999997E+02  0.45594000000E+02  0.51100000000E-03 0.  1.
         23    2    1    2    0    0  0.17763568394E-14  0.00000000000E+00  0.00000000000E+00  0.91188000000E+02  0.91188000000E+02 0.  0.
    9900012    2    3    3    0    0  0.10887920057E+02  0.32114724799E+02 -0.27087265909E+02  0.47787281959E+02  0.20000049762E+02 0.  0.
         12    1    3    3    0    0 -0.10887920057E+02 -0.32114724799E+02  0.27087265909E+02  0.43400718041E+02  0.00000000000E+00 0. -1.
         11    1    4    4    0    0 -0.15486240715E+01  0.38718764015E+01  0.60226332072E+00  0.42133578951E+01  0.51100000000E-03 0. -1.
        -11    1    4    4    0    0 -0.12628775596E+01  0.86624563663E+01 -0.31037266228E+01  0.92879561390E+01  0.51100000000E-03 0.  1.
         12    1    4    4    0    0  0.13699421688E+02  0.19580392031E+02 -0.24585802607E+02  0.34285967924E+02  0.00000000000E+00 0. -1.
</event>
<event>
 8    1  0.2994958E-010  0.9118800E+02  0.7816164E-02  0.1184000E+00
        -11   -1    0    0    0    0  0.00000000000E+00  0.00000000000E+00  0.45593999997E+02  0.45594000000E+02  0.51100000000E-03 0. -1.
         11   -1    0    0    0    0 -0.00000000000E+00 -0.00000000000E+00 -0.45593999997E+02  0.45594000000E+02  0.51100000000E-03 0.  1.
         23    2    1    2    0    0  0.00000000000E+00 -0.88817841970E-15  0.00000000000E+00  0.91188000000E+02  0.91188000000E+02 0.  0.
    9900012    2    3    3    0    0 -0.38348969145E+02  0.73341401870E+01 -0.18952313425E+02  0.47787271539E+02  0.20000002256E+02 0.  0.
         12    1    3    3    0    0  0.38348969145E+02 -0.73341401870E+01  0.18952313425E+02  0.43400728461E+02  0.00000000000E+00 0. -1.
         11    1    4    4    0    0 -0.13105163918E+00 -0.21078424314E+01 -0.21627180350E+01  0.30228337380E+01  0.51100000000E-03 0. -1.
        -11    1    4    4    0    0 -0.65140454569E+01  0.62870208891E+01 -0.69688629178E+01  0.11424730653E+02  0.51100000000E-03 0.  1.
        -12    1    4    4    0    0 -0.31703872049E+02  0.31549617292E+01 -0.98207324725E+01  0.33339707148E+02  0.00000000000E+00 0.  1.
</event>
<event>
 8    1  0.2994958E-010  0.9118800E+02  0.7816164E-02  0.1184000E+00
        -11   -1    0    0    0    0  0.00000000000E+00  0.00000000000E+00  0.45593999997E+02  0.45594000000E+02  0.51100000000E-03 0. -1.
         11   -1    0    0    0    0 -0.00000000000E+00 -0.00000000000E+00 -0.45593999997E+02  0.45594000000E+02  0.51100000000E-03 0.  1.
         23    2    1    2    0    0  0.00000000000E+00  0.00000000000E+00  0.00000000000E+00  0.91188000000E+02  0.91188000000E+02 0.  0.
    9900012    2    3    3    0    0  0.10529310168E+02  0.35452782567E+02  0.22712492278E+02  0.47787268786E+02  0.19999989705E+02 0.  0.
        -12    1    3    3    0    0 -0.10529310168E+02 -0.35452782567E+02 -0.22712492278E+02  0.43400731214E+02  0.00000000000E+00 0.  1.
         11    1    4    4    0    0 -0.28531128630E+01  0.16336286242E+02  0.13362512321E+02  0.21297211953E+02  0.51100000000E-03 0. -1.
        -11    1    4    4    0    0  0.37403918883E+01  0.79522353927E+01  0.76307899129E+01  0.11638622520E+02  0.51100000000E-03 0.  1.
        -12    1    4    4    0    0  0.96420311432E+01  0.11164260933E+02  0.17191900443E+01  0.14851434313E+02  0.00000000000E+00 0.  1.
</event>
<event>
 8    1  0.2994958E-010  0.9118800E+02  0.7816164E-02  0.1184000E+00
        -11   -1    0    0    0    0  0.00000000000E+00  0.00000000000E+00  0.45593999997E+02  0.45594000000E+02  0.51100000000E-03 0. -1.
         11   -1    0    0    0    0 -0.00000000000E+00 -0.00000000000E+00 -0.45593999997E+02  0.45594000000E+02  0.51100000000E-03 0.  1.
         23    2    1    2    0    0  0.00000000000E+00  0.00000000000E+00  0.00000000000E+00  0.91188000000E+02  0.91188000000E+02 0.  0.
    9900012    2    3    3    0    0 -0.15097669631E+02  0.32303575929E+02 -0.24741916030E+02  0.47787273567E+02  0.20000011501E+02 0.  0.
         12    1    3    3    0    0  0.15097669631E+02 -0.32303575929E+02  0.24741916030E+02  0.43400726433E+02  0.00000000000E+00 0. -1.
         11    1    4    4    0    0 -0.34123625659E+01  0.28015322413E+01 -0.46700869993E+00  0.44396957741E+01  0.51100000000E-03 0. -1.
        -11    1    4    4    0    0 -0.13122318953E+02  0.13493372311E+02 -0.79314119127E+01  0.20424829160E+02  0.51100000000E-03 0.  1.
         12    1    4    4    0    0  0.14370118878E+01  0.16008671376E+02 -0.16343495417E+02  0.22922748632E+02  0.00000000000E+00 0. -1.
</event>
<event>
 8    1  0.2994958E-010  0.9118800E+02  0.7816164E-02  0.1184000E+00
        -11   -1    0    0    0    0  0.00000000000E+00  0.00000000000E+00  0.45593999997E+02  0.45594000000E+02  0.51100000000E-03 0. -1.
         11   -1    0    0    0    0 -0.00000000000E+00 -0.00000000000E+00 -0.45593999997E+02  0.45594000000E+02  0.51100000000E-03 0.  1.
         23    2    1    2    0    0 -0.35527136788E-14  0.88817841970E-15  0.71054273576E-14  0.91188000000E+02  0.91188000000E+02 0.  0.
    9900012    2    3    3    0    0  0.21558595921E+02 -0.58366858733E+01  0.37212677765E+02  0.47787270207E+02  0.19999996183E+02 0.  0.
        -12    1    3    3    0    0 -0.21558595921E+02  0.58366858733E+01 -0.37212677765E+02  0.43400729793E+02  0.00000000000E+00 0.  1.
         11    1    4    4    0    0  0.99782899634E+01  0.17395419610E+01  0.24216374457E+02  0.26249287018E+02  0.51100000000E-03 0. -1.
        -11    1    4    4    0    0  0.40234651499E+01  0.22648527055E+01  0.23101998336E+01  0.51628338267E+01  0.51100000000E-03 0.  1.
        -12    1    4    4    0    0  0.75568408078E+01 -0.98410805398E+01  0.10686103475E+02  0.16375149363E+02  0.00000000000E+00 0.  1.
</event>
<event>
 8    1  0.2994958E-010  0.9118800E+02  0.7816164E-02  0.1184000E+00
        -11   -1    0    0    0    0  0.00000000000E+00  0.00000000000E+00  0.45593999997E+02  0.45594000000E+02  0.51100000000E-03 0.  1.
         11   -1    0    0    0    0 -0.00000000000E+00 -0.00000000000E+00 -0.45593999997E+02  0.45594000000E+02  0.51100000000E-03 0. -1.
         23    2    1    2    0    0  0.00000000000E+00  0.00000000000E+00  0.00000000000E+00  0.91188000000E+02  0.91188000000E+02 0.  0.
    9900012    2    3    3    0    0  0.59017331726E+01 -0.35286176451E+02 -0.24569870037E+02  0.47787271704E+02  0.20000003009E+02 0.  0.
         12    1    3    3    0    0 -0.59017331726E+01  0.35286176451E+02  0.24569870037E+02  0.43400728296E+02  0.00000000000E+00 0. -1.
         11    1    4    4    0    0  0.35723391211E+01 -0.23676321759E+01 -0.34602707433E+01  0.55082449831E+01  0.51100000000E-03 0. -1.
        -11    1    4    4    0    0  0.58539024364E+01 -0.19674732051E+02 -0.49975157137E+01  0.21126722855E+02  0.51100000000E-03 0.  1.
        -12    1    4    4    0    0 -0.35245083849E+01 -0.13243812224E+02 -0.16112083580E+02  0.21152303866E+02  0.00000000000E+00 0.  1.
</event>
<event>
 8    1  0.2994958E-010  0.9118800E+02  0.7816164E-02  0.1184000E+00
        -11   -1    0    0    0    0  0.00000000000E+00  0.00000000000E+00  0.45593999997E+02  0.45594000000E+02  0.51100000000E-03 0. -1.
         11   -1    0    0    0    0 -0.00000000000E+00 -0.00000000000E+00 -0.45593999997E+02  0.45594000000E+02  0.51100000000E-03 0.  1.
         23    2    1    2    0    0  0.00000000000E+00  0.00000000000E+00  0.71054273576E-14  0.91188000000E+02  0.91188000000E+02 0.  0.
    9900012    2    3    3    0    0  0.52282505594E+01  0.14279376040E+02 -0.40649594992E+02  0.47787253958E+02  0.19999922095E+02 0.  0.
         12    1    3    3    0    0 -0.52282505594E+01 -0.14279376040E+02  0.40649594992E+02  0.43400746042E+02  0.00000000000E+00 0. -1.
         11    1    4    4    0    0  0.60701003634E+01  0.43068830204E+01 -0.42081658748E+01  0.85500888922E+01  0.51100000000E-03 0. -1.
        -11    1    4    4    0    0  0.10681794897E+01  0.10379795909E+02 -0.18915136157E+02  0.21602396780E+02  0.51100000000E-03 0.  1.
         12    1    4    4    0    0 -0.19100292937E+01 -0.40730289013E+00 -0.17526292961E+02  0.17634768286E+02  0.00000000000E+00 0. -1.
</event>
<event>
 8    1  0.2994958E-010  0.9118800E+02  0.7816164E-02  0.1184000E+00
        -11   -1    0    0    0    0  0.00000000000E+00  0.00000000000E+00  0.45593999997E+02  0.45594000000E+02  0.51100000000E-03 0. -1.
         11   -1    0    0    0    0 -0.00000000000E+00 -0.00000000000E+00 -0.45593999997E+02  0.45594000000E+02  0.51100000000E-03 0.  1.
         23    2    1    2    0    0 -0.35527136788E-14  0.44408920985E-15  0.00000000000E+00  0.91188000000E+02  0.91188000000E+02 0.  0.
    9900012    2    3    3    0    0  0.18051613036E+02 -0.38580867014E+01 -0.39279482304E+02  0.47787270787E+02  0.19999998826E+02 0.  0.
         12    1    3    3    0    0 -0.18051613036E+02  0.38580867014E+01  0.39279482304E+02  0.43400729213E+02  0.00000000000E+00 0. -1.
         11    1    4    4    0    0 -0.27039133757E+01 -0.21338520235E+01 -0.13409305007E+01  0.36962909613E+01  0.51100000000E-03 0. -1.
        -11    1    4    4    0    0  0.23163298452E+01  0.26443250375E+01 -0.59857696459E+01  0.69417056528E+01  0.51100000000E-03 0.  1.
        -12    1    4    4    0    0  0.18439196566E+02 -0.43685597155E+01 -0.31952782157E+02  0.37149274173E+02  0.00000000000E+00 0.  1.
</event>
<event>
 8    1  0.2994958E-010  0.9118800E+02  0.7816164E-02  0.1184000E+00
        -11   -1    0    0    0    0  0.00000000000E+00  0.00000000000E+00  0.45593999997E+02  0.45594000000E+02  0.51100000000E-03 0. -1.
         11   -1    0    0    0    0 -0.00000000000E+00 -0.00000000000E+00 -0.45593999997E+02  0.45594000000E+02  0.51100000000E-03 0.  1.
         23    2    1    2    0    0  0.88817841970E-15  0.00000000000E+00  0.71054273576E-14  0.91188000000E+02  0.91188000000E+02 0.  0.
    9900012    2    3    3    0    0  0.50246199144E+01  0.15468498536E+02  0.40238063823E+02  0.47787273826E+02  0.20000012682E+02 0.  0.
        -12    1    3    3    0    0 -0.50246199144E+01 -0.15468498536E+02 -0.40238063823E+02  0.43400726174E+02  0.00000000000E+00 0.  1.
         11    1    4    4    0    0  0.25179975314E+01  0.18944502862E+02  0.29434298438E+02  0.35094336082E+02  0.51100000000E-03 0. -1.
        -11    1    4    4    0    0 -0.10479710819E+01 -0.18542161175E+01  0.15086460447E+01  0.26100524800E+01  0.51100000000E-03 0.  1.
         12    1    4    4    0    0  0.35545934650E+01 -0.16217882085E+01  0.92951193402E+01  0.10082885264E+02  0.00000000000E+00 0. -1.
</event>
<event>
 8    1  0.2994958E-010  0.9118800E+02  0.7816164E-02  0.1184000E+00
        -11   -1    0    0    0    0  0.00000000000E+00  0.00000000000E+00  0.45593999997E+02  0.45594000000E+02  0.51100000000E-03 0. -1.
         11   -1    0    0    0    0 -0.00000000000E+00 -0.00000000000E+00 -0.45593999997E+02  0.45594000000E+02  0.51100000000E-03 0.  1.
         23    2    1    2    0    0  0.88817841970E-15  0.00000000000E+00  0.00000000000E+00  0.91188000000E+02  0.91188000000E+02 0.  0.
    9900012    2    3    3    0    0  0.65471804703E+01  0.55480872851E+01 -0.42543816770E+02  0.47787272011E+02  0.20000004405E+02 0.  0.
         12    1    3    3    0    0 -0.65471804703E+01 -0.55480872851E+01  0.42543816770E+02  0.43400727989E+02  0.00000000000E+00 0. -1.
         11    1    4    4    0    0  0.40970207792E+01  0.47355559065E+01 -0.19619523510E+02  0.20594581133E+02  0.51100000000E-03 0. -1.
        -11    1    4    4    0    0  0.44860243279E+01 -0.17142053630E+01 -0.23422541679E+02  0.23909796596E+02  0.51100000000E-03 0.  1.
        -12    1    4    4    0    0 -0.20358646367E+01  0.25267367417E+01  0.49824841858E+00  0.32828942821E+01  0.00000000000E+00 0.  1.
</event>
<event>
 8    1  0.2994958E-010  0.9118800E+02  0.7816164E-02  0.1184000E+00
        -11   -1    0    0    0    0  0.00000000000E+00  0.00000000000E+00  0.45593999997E+02  0.45594000000E+02  0.51100000000E-03 0. -1.
         11   -1    0    0    0    0 -0.00000000000E+00 -0.00000000000E+00 -0.45593999997E+02  0.45594000000E+02  0.51100000000E-03 0.  1.
         23    2    1    2    0    0  0.00000000000E+00  0.00000000000E+00  0.00000000000E+00  0.91188000000E+02  0.91188000000E+02 0.  0.
    9900012    2    3    3    0    0  0.84418534492E+01  0.17174229903E+02  0.38953874991E+02  0.47787269139E+02  0.19999991312E+02 0.  0.
        -12    1    3    3    0    0 -0.84418534492E+01 -0.17174229903E+02 -0.38953874991E+02  0.43400730861E+02  0.00000000000E+00 0.  1.
         11    1    4    4    0    0  0.27318711662E+01  0.15487055072E+01  0.48243207685E+01  0.57563599571E+01  0.51100000000E-03 0. -1.
        -11    1    4    4    0    0  0.36000235410E+01  0.12026024683E+02  0.65915970996E+01  0.14178666784E+02  0.51100000000E-03 0.  1.
        -12    1    4    4    0    0  0.21099587421E+01  0.35994997129E+01  0.27537957123E+02  0.27852242398E+02  0.00000000000E+00 0.  1.
</event>
<event>
 8    1  0.2994958E-010  0.9118800E+02  0.7816164E-02  0.1184000E+00
        -11   -1    0    0    0    0  0.00000000000E+00  0.00000000000E+00  0.45593999997E+02  0.45594000000E+02  0.51100000000E-03 0. -1.
         11   -1    0    0    0    0 -0.00000000000E+00 -0.00000000000E+00 -0.45593999997E+02  0.45594000000E+02  0.51100000000E-03 0.  1.
         23    2    1    2    0    0  0.17763568394E-14 -0.71054273576E-14  0.71054273576E-14  0.91188000000E+02  0.91188000000E+02 0.  0.
    9900012    2    3    3    0    0 -0.15189810630E+02 -0.32678536800E+02  0.24186885780E+02  0.47787279291E+02  0.20000037599E+02 0.  0.
        -12    1    3    3    0    0  0.15189810630E+02  0.32678536800E+02 -0.24186885780E+02  0.43400720709E+02  0.00000000000E+00 0.  1.
         11    1    4    4    0    0 -0.12688574929E+02 -0.12529493211E+02  0.13101137518E+02  0.22127538010E+02  0.51100000000E-03 0. -1.
        -11    1    4    4    0    0 -0.66014986847E+01 -0.97345892273E+01  0.40506504717E+01  0.12439846535E+02  0.51100000000E-03 0.  1.
        -12    1    4    4    0    0  0.41002629834E+01 -0.10414454361E+02  0.70350977905E+01  0.13219894746E+02  0.00000000000E+00 0.  1.
</event>
<event>
 8    1  0.2994958E-010  0.9118800E+02  0.7816164E-02  0.1184000E+00
        -11   -1    0    0    0    0  0.00000000000E+00  0.00000000000E+00  0.45593999997E+02  0.45594000000E+02  0.51100000000E-03 0. -1.
         11   -1    0    0    0    0 -0.00000000000E+00 -0.00000000000E+00 -0.45593999997E+02  0.45594000000E+02  0.51100000000E-03 0.  1.
         23    2    1    2    0    0  0.00000000000E+00  0.44408920985E-15  0.00000000000E+00  0.91188000000E+02  0.91188000000E+02 0.  0.
    9900012    2    3    3    0    0  0.18943026415E+02 -0.22394801382E+01  0.38984222990E+02  0.47787272320E+02  0.20000005817E+02 0.  0.
        -12    1    3    3    0    0 -0.18943026415E+02  0.22394801382E+01 -0.38984222990E+02  0.43400727680E+02  0.00000000000E+00 0.  1.
         11    1    4    4    0    0  0.14979596247E+02 -0.76813299440E+01  0.17143062387E+02  0.24026562835E+02  0.51100000000E-03 0.  1.
        -11    1    4    4    0    0  0.12738396089E+01 -0.75256478142E+00  0.10166470518E+02  0.10273565308E+02  0.51100000000E-03 0. -1.
         12    1    4    4    0    0  0.26895905591E+01  0.61944145873E+01  0.11674690085E+02  0.13487144177E+02  0.00000000000E+00 0. -1.
</event>
<event>
 8    1  0.2994958E-010  0.9118800E+02  0.7816164E-02  0.1184000E+00
        -11   -1    0    0    0    0  0.00000000000E+00  0.00000000000E+00  0.45593999997E+02  0.45594000000E+02  0.51100000000E-03 0. -1.
         11   -1    0    0    0    0 -0.00000000000E+00 -0.00000000000E+00 -0.45593999997E+02  0.45594000000E+02  0.51100000000E-03 0.  1.
         23    2    1    2    0    0  0.00000000000E+00 -0.71054273576E-14  0.35527136788E-14  0.91188000000E+02  0.91188000000E+02 0.  0.
    9900012    2    3    3    0    0  0.21976386674E+02  0.31366399054E+02 -0.20415926242E+02  0.47787278748E+02  0.20000035125E+02 0.  0.
         12    1    3    3    0    0 -0.21976386674E+02 -0.31366399054E+02  0.20415926242E+02  0.43400721252E+02  0.00000000000E+00 0. -1.
         11    1    4    4    0    0  0.13102201576E+02  0.53257214470E+01 -0.95439461988E+01  0.17062177597E+02  0.51100000000E-03 0. -1.
        -11    1    4    4    0    0  0.47413361666E+01  0.91739526220E+01 -0.81327535199E+01  0.13144708267E+02  0.51100000000E-03 0.  1.
         12    1    4    4    0    0  0.41328489313E+01  0.16866724985E+02 -0.27392265238E+01  0.17580392884E+02  0.00000000000E+00 0. -1.
</event>
<event>
 8    1  0.3377455E-010  0.9118800E+02  0.7816164E-02  0.1184000E+00
        -11   -1    0    0    0    0  0.00000000000E+00  0.00000000000E+00  0.45593999997E+02  0.45594000000E+02  0.51100000000E-03 0. -1.
         11   -1    0    0    0    0 -0.00000000000E+00 -0.00000000000E+00 -0.45593999997E+02  0.45594000000E+02  0.51100000000E-03 0.  1.
         23    2    1    2    0    0  0.17763568394E-14  0.17763568394E-14  0.00000000000E+00  0.91188000000E+02  0.91188000000E+02 0.  0.
    9900012    2    3    3    0    0  0.50846572353E+01  0.13755830378E+02  0.40847850202E+02  0.47787268731E+02  0.19999989452E+02 0.  0.
        -12    1    3    3    0    0 -0.50846572353E+01 -0.13755830378E+02 -0.40847850202E+02  0.43400731269E+02  0.00000000000E+00 0.  1.
         11    1    4    4    0    0  0.60260062603E+01  0.83032791389E+00  0.17047544420E+02  0.18100302951E+02  0.51100000000E-03 0. -1.
        -11    1    4    4    0    0  0.29693078497E+01  0.67578964876E+00  0.51698233772E+00  0.30888107346E+01  0.51100000000E-03 0.  1.
         12    1    4    4    0    0 -0.39106568747E+01  0.12249712815E+02  0.23283323444E+02  0.26598155046E+02  0.00000000000E+00 0. -1.
</event>
<event>
 8    1  0.2994958E-010  0.9118800E+02  0.7816164E-02  0.1184000E+00
        -11   -1    0    0    0    0  0.00000000000E+00  0.00000000000E+00  0.45593999997E+02  0.45594000000E+02  0.51100000000E-03 0.  1.
         11   -1    0    0    0    0 -0.00000000000E+00 -0.00000000000E+00 -0.45593999997E+02  0.45594000000E+02  0.51100000000E-03 0. -1.
         23    2    1    2    0    0  0.00000000000E+00  0.88817841970E-15  0.00000000000E+00  0.91188000000E+02  0.91188000000E+02 0.  0.
    9900012    2    3    3    0    0  0.42001136760E+02 -0.76242028449E+01 -0.78358067248E+01  0.47787264693E+02  0.19999971040E+02 0.  0.
         12    1    3    3    0    0 -0.42001136760E+02  0.76242028449E+01  0.78358067248E+01  0.43400735307E+02  0.00000000000E+00 0. -1.
         11    1    4    4    0    0  0.22792012404E+02  0.19546356586E+01 -0.42290667498E+01  0.23263306640E+02  0.51100000000E-03 0. -1.
        -11    1    4    4    0    0  0.97124982054E+01  0.75072162401E+00  0.90857671368E+00  0.97837475567E+01  0.51100000000E-03 0.  1.
        -12    1    4    4    0    0  0.94966261507E+01 -0.10329560127E+02 -0.45153166887E+01  0.14740210496E+02  0.00000000000E+00 0.  1.
</event>
<event>
 8    1  0.2994958E-010  0.9118800E+02  0.7816164E-02  0.1184000E+00
        -11   -1    0    0    0    0  0.00000000000E+00  0.00000000000E+00  0.45593999997E+02  0.45594000000E+02  0.51100000000E-03 0. -1.
         11   -1    0    0    0    0 -0.00000000000E+00 -0.00000000000E+00 -0.45593999997E+02  0.45594000000E+02  0.51100000000E-03 0.  1.
         23    2    1    2    0    0  0.00000000000E+00  0.00000000000E+00  0.00000000000E+00  0.91188000000E+02  0.91188000000E+02 0.  0.
    9900012    2    3    3    0    0  0.27777076607E+02  0.10187420517E+02  0.31753326018E+02  0.47787271494E+02  0.20000002050E+02 0.  0.
        -12    1    3    3    0    0 -0.27777076607E+02 -0.10187420517E+02 -0.31753326018E+02  0.43400728506E+02  0.00000000000E+00 0.  1.
         11    1    4    4    0    0  0.50513919473E+01 -0.94664668641E+00  0.55978686272E+01  0.75992653581E+01  0.51100000000E-03 0. -1.
        -11    1    4    4    0    0  0.11094475706E+02 -0.10197819381E+01  0.18743902382E+02  0.21805073336E+02  0.51100000000E-03 0.  1.
        -12    1    4    4    0    0  0.11631208954E+02  0.12153849142E+02  0.74115550084E+01  0.18382932800E+02  0.00000000000E+00 0.  1.
</event>
<event>
 8    1  0.2994958E-010  0.9118800E+02  0.7816164E-02  0.1184000E+00
        -11   -1    0    0    0    0  0.00000000000E+00  0.00000000000E+00  0.45593999997E+02  0.45594000000E+02  0.51100000000E-03 0. -1.
         11   -1    0    0    0    0 -0.00000000000E+00 -0.00000000000E+00 -0.45593999997E+02  0.45594000000E+02  0.51100000000E-03 0.  1.
         23    2    1    2    0    0  0.00000000000E+00  0.00000000000E+00  0.00000000000E+00  0.91188000000E+02  0.91188000000E+02 0.  0.
    9900012    2    3    3    0    0 -0.16996187269E+02  0.29455514170E+02  0.26965272437E+02  0.47787267122E+02  0.19999982118E+02 0.  0.
        -12    1    3    3    0    0  0.16996187269E+02 -0.29455514170E+02 -0.26965272437E+02  0.43400732878E+02  0.00000000000E+00 0.  1.
         11    1    4    4    0    0 -0.11221755352E+02  0.25675346678E+02  0.17687891214E+02  0.33136274928E+02  0.51100000000E-03 0. -1.
        -11    1    4    4    0    0 -0.52989860448E+01  0.64968742394E+01  0.80820930953E+01  0.11645121599E+02  0.51100000000E-03 0.  1.
        -12    1    4    4    0    0 -0.47544587181E+00 -0.27167067477E+01  0.11952881285E+01  0.30058705961E+01  0.00000000000E+00 0.  1.
</event>
<event>
 8    1  0.2994958E-010  0.9118800E+02  0.7816164E-02  0.1184000E+00
        -11   -1    0    0    0    0  0.00000000000E+00  0.00000000000E+00  0.45593999997E+02  0.45594000000E+02  0.51100000000E-03 0. -1.
         11   -1    0    0    0    0 -0.00000000000E+00 -0.00000000000E+00 -0.45593999997E+02  0.45594000000E+02  0.51100000000E-03 0.  1.
         23    2    1    2    0    0  0.00000000000E+00  0.00000000000E+00  0.71054273576E-14  0.91188000000E+02  0.91188000000E+02 0.  0.
    9900012    2    3    3    0    0 -0.16702788948E+02  0.88984780910E+01  0.39057102008E+02  0.47787270879E+02  0.19999999247E+02 0.  0.
        -12    1    3    3    0    0  0.16702788948E+02 -0.88984780910E+01 -0.39057102008E+02  0.43400729121E+02  0.00000000000E+00 0.  1.
         11    1    4    4    0    0 -0.94230251042E+01 -0.10952658375E+01  0.17528255044E+02  0.19930698295E+02  0.51100000000E-03 0. -1.
        -11    1    4    4    0    0 -0.87952393759E+01  0.18351785662E+01  0.82481122396E+01  0.12196535239E+02  0.51100000000E-03 0.  1.
        -12    1    4    4    0    0  0.15154755319E+01  0.81585653624E+01  0.13280734724E+02  0.15660037345E+02  0.00000000000E+00 0.  1.
</event>
<event>
 8    1  0.2994958E-010  0.9118800E+02  0.7816164E-02  0.1184000E+00
        -11   -1    0    0    0    0  0.00000000000E+00  0.00000000000E+00  0.45593999997E+02  0.45594000000E+02  0.51100000000E-03 0. -1.
         11   -1    0    0    0    0 -0.00000000000E+00 -0.00000000000E+00 -0.45593999997E+02  0.45594000000E+02  0.51100000000E-03 0.  1.
         23    2    1    2    0    0  0.00000000000E+00  0.00000000000E+00 -0.35527136788E-14  0.91188000000E+02  0.91188000000E+02 0.  0.
    9900012    2    3    3    0    0  0.26739018400E+01 -0.38256254915E+02  0.20320741896E+02  0.47787270255E+02  0.19999996401E+02 0.  0.
        -12    1    3    3    0    0 -0.26739018400E+01  0.38256254915E+02 -0.20320741896E+02  0.43400729745E+02  0.00000000000E+00 0.  1.
         11    1    4    4    0    0 -0.36377765987E+01 -0.21534428244E+02  0.53573176178E+01  0.22487015602E+02  0.51100000000E-03 0. -1.
        -11    1    4    4    0    0  0.91128163126E-02 -0.13981266754E+01 -0.14242850792E+01  0.19958530737E+01  0.51100000000E-03 0.  1.
        -12    1    4    4    0    0  0.63025656224E+01 -0.15323699996E+02  0.16387709357E+02  0.23304401580E+02  0.00000000000E+00 0.  1.
</event>
<event>
 8    1  0.2994958E-010  0.9118800E+02  0.7816164E-02  0.1184000E+00
        -11   -1    0    0    0    0  0.00000000000E+00  0.00000000000E+00  0.45593999997E+02  0.45594000000E+02  0.51100000000E-03 0.  1.
         11   -1    0    0    0    0 -0.00000000000E+00 -0.00000000000E+00 -0.45593999997E+02  0.45594000000E+02  0.51100000000E-03 0. -1.
         23    2    1    2    0    0  0.00000000000E+00  0.71054273576E-14  0.00000000000E+00  0.91188000000E+02  0.91188000000E+02 0.  0.
    9900012    2    3    3    0    0 -0.19293400041E+02  0.33780137492E+02 -0.19242926720E+02  0.47787271863E+02  0.20000003731E+02 0.  0.
         12    1    3    3    0    0  0.19293400041E+02 -0.33780137492E+02  0.19242926720E+02  0.43400728137E+02  0.00000000000E+00 0. -1.
         11    1    4    4    0    0  0.33022545709E+01  0.50721875033E+01 -0.62880588788E+00  0.60850117852E+01  0.51100000000E-03 0. -1.
        -11    1    4    4    0    0 -0.50417213085E+01  0.44425683820E+01 -0.66435410129E+01  0.94494446944E+01  0.51100000000E-03 0.  1.
         12    1    4    4    0    0 -0.17553933304E+02  0.24265381606E+02 -0.11970579819E+02  0.32252815383E+02  0.00000000000E+00 0. -1.
</event>
<event>
 8    1  0.2994958E-010  0.9118800E+02  0.7816164E-02  0.1184000E+00
        -11   -1    0    0    0    0  0.00000000000E+00  0.00000000000E+00  0.45593999997E+02  0.45594000000E+02  0.51100000000E-03 0. -1.
         11   -1    0    0    0    0 -0.00000000000E+00 -0.00000000000E+00 -0.45593999997E+02  0.45594000000E+02  0.51100000000E-03 0.  1.
         23    2    1    2    0    0  0.00000000000E+00  0.00000000000E+00  0.00000000000E+00  0.91188000000E+02  0.91188000000E+02 0.  0.
    9900012    2    3    3    0    0  0.11943762068E+02 -0.16556518890E+02 -0.38299496683E+02  0.47787271708E+02  0.20000003027E+02 0.  0.
         12    1    3    3    0    0 -0.11943762068E+02  0.16556518890E+02  0.38299496683E+02  0.43400728292E+02  0.00000000000E+00 0. -1.
         11    1    4    4    0    0  0.21696551817E+01 -0.76959862075E+00 -0.74525621669E+01  0.78000236383E+01  0.51100000000E-03 0. -1.
        -11    1    4    4    0    0 -0.90460081573E+00 -0.68371835269E+01 -0.22967043597E+02  0.23980210030E+02  0.51100000000E-03 0.  1.
         12    1    4    4    0    0  0.10678707702E+02 -0.89497367424E+01 -0.78798909186E+01  0.16007038040E+02  0.00000000000E+00 0. -1.
</event>
<event>
 8    1  0.2994958E-010  0.9118800E+02  0.7816164E-02  0.1184000E+00
        -11   -1    0    0    0    0  0.00000000000E+00  0.00000000000E+00  0.45593999997E+02  0.45594000000E+02  0.51100000000E-03 0. -1.
         11   -1    0    0    0    0 -0.00000000000E+00 -0.00000000000E+00 -0.45593999997E+02  0.45594000000E+02  0.51100000000E-03 0.  1.
         23    2    1    2    0    0 -0.88817841970E-15  0.00000000000E+00  0.00000000000E+00  0.91188000000E+02  0.91188000000E+02 0.  0.
    9900012    2    3    3    0    0  0.45677660381E+01 -0.28682944161E+02 -0.32249786502E+02  0.47787256899E+02  0.19999935503E+02 0.  0.
         12    1    3    3    0    0 -0.45677660381E+01  0.28682944161E+02  0.32249786502E+02  0.43400743101E+02  0.00000000000E+00 0. -1.
         11    1    4    4    0    0  0.17357487953E+01 -0.11434955269E+02 -0.11572627593E+01  0.11623694905E+02  0.51100000000E-03 0. -1.
        -11    1    4    4    0    0 -0.12035200731E+01 -0.28585104937E+01 -0.28567206904E+01  0.42166807056E+01  0.51100000000E-03 0.  1.
        -12    1    4    4    0    0  0.40355373160E+01 -0.14389478398E+02 -0.28235803053E+02  0.31946881288E+02  0.00000000000E+00 0.  1.
</event>
<event>
 8    1  0.2994958E-010  0.9118800E+02  0.7816164E-02  0.1184000E+00
        -11   -1    0    0    0    0  0.00000000000E+00  0.00000000000E+00  0.45593999997E+02  0.45594000000E+02  0.51100000000E-03 0. -1.
         11   -1    0    0    0    0 -0.00000000000E+00 -0.00000000000E+00 -0.45593999997E+02  0.45594000000E+02  0.51100000000E-03 0.  1.
         23    2    1    2    0    0  0.00000000000E+00 -0.44408920985E-15  0.71054273576E-14  0.91188000000E+02  0.91188000000E+02 0.  0.
    9900012    2    3    3    0    0 -0.14232493364E+02 -0.38166677652E+01  0.40822693742E+02  0.47787272534E+02  0.20000006794E+02 0.  0.
        -12    1    3    3    0    0  0.14232493364E+02  0.38166677652E+01 -0.40822693742E+02  0.43400727466E+02  0.00000000000E+00 0.  1.
         11    1    4    4    0    0  0.53229878120E+00  0.63478350933E+00  0.10567775910E+02  0.10600197170E+02  0.51100000000E-03 0. -1.
        -11    1    4    4    0    0 -0.36198244298E+01  0.36057486429E+01  0.18185320295E+02  0.18889426319E+02  0.51100000000E-03 0.  1.
         12    1    4    4    0    0 -0.11144967715E+02 -0.80571999175E+01  0.12069597538E+02  0.18297649046E+02  0.00000000000E+00 0. -1.
</event>
<event>
 8    1  0.2994958E-010  0.9118800E+02  0.7816164E-02  0.1184000E+00
        -11   -1    0    0    0    0  0.00000000000E+00  0.00000000000E+00  0.45593999997E+02  0.45594000000E+02  0.51100000000E-03 0.  1.
         11   -1    0    0    0    0 -0.00000000000E+00 -0.00000000000E+00 -0.45593999997E+02  0.45594000000E+02  0.51100000000E-03 0. -1.
         23    2    1    2    0    0  0.00000000000E+00  0.00000000000E+00  0.00000000000E+00  0.91188000000E+02  0.91188000000E+02 0.  0.
    9900012    2    3    3    0    0  0.39864503617E+02  0.21118079069E+01  0.17028963577E+02  0.47787262889E+02  0.19999962816E+02 0.  0.
        -12    1    3    3    0    0 -0.39864503617E+02 -0.21118079069E+01 -0.17028963577E+02  0.43400737111E+02  0.00000000000E+00 0.  1.
         11    1    4    4    0    0  0.13060661432E+02 -0.43256557959E+01  0.31485764133E+00  0.13761951558E+02  0.51100000000E-03 0. -1.
        -11    1    4    4    0    0  0.79518892648E+01 -0.22394808878E+01  0.17621525754E+01  0.84470704677E+01  0.51100000000E-03 0.  1.
        -12    1    4    4    0    0  0.18851952921E+02  0.86769445905E+01  0.14951953361E+02  0.25578240863E+02  0.00000000000E+00 0.  1.
</event>
<event>
 8    1  0.2994958E-010  0.9118800E+02  0.7816164E-02  0.1184000E+00
        -11   -1    0    0    0    0  0.00000000000E+00  0.00000000000E+00  0.45593999997E+02  0.45594000000E+02  0.51100000000E-03 0.  1.
         11   -1    0    0    0    0 -0.00000000000E+00 -0.00000000000E+00 -0.45593999997E+02  0.45594000000E+02  0.51100000000E-03 0. -1.
         23    2    1    2    0    0 -0.35527136788E-14  0.00000000000E+00  0.00000000000E+00  0.91188000000E+02  0.91188000000E+02 0.  0.
    9900012    2    3    3    0    0  0.24892686481E+02 -0.22206596066E+02  0.27764099702E+02  0.47787262894E+02  0.19999962837E+02 0.  0.
        -12    1    3    3    0    0 -0.24892686481E+02  0.22206596066E+02 -0.27764099702E+02  0.43400737106E+02  0.00000000000E+00 0.  1.
         11    1    4    4    0    0  0.12795725338E+00 -0.29907709392E+00  0.24083981427E+01  0.24302678951E+01  0.51100000000E-03 0. -1.
        -11    1    4    4    0    0 -0.23991971048E+01 -0.11213576903E+01  0.47133235282E+01  0.54063859241E+01  0.51100000000E-03 0.  1.
         12    1    4    4    0    0  0.27163926333E+02 -0.20786161282E+02  0.20642378031E+02  0.39950609075E+02  0.00000000000E+00 0. -1.
</event>
<event>
 8    1  0.2994958E-010  0.9118800E+02  0.7816164E-02  0.1184000E+00
        -11   -1    0    0    0    0  0.00000000000E+00  0.00000000000E+00  0.45593999997E+02  0.45594000000E+02  0.51100000000E-03 0. -1.
         11   -1    0    0    0    0 -0.00000000000E+00 -0.00000000000E+00 -0.45593999997E+02  0.45594000000E+02  0.51100000000E-03 0.  1.
         23    2    1    2    0    0  0.00000000000E+00  0.00000000000E+00  0.00000000000E+00  0.91188000000E+02  0.91188000000E+02 0.  0.
    9900012    2    3    3    0    0  0.34132914234E+02 -0.14738335897E+02 -0.22390831391E+02  0.47787266026E+02  0.19999977119E+02 0.  0.
         12    1    3    3    0    0 -0.34132914234E+02  0.14738335897E+02  0.22390831391E+02  0.43400733974E+02  0.00000000000E+00 0. -1.
         11    1    4    4    0    0  0.58005493643E+00 -0.15229469079E+01  0.14360112131E+01  0.21720864345E+01  0.51100000000E-03 0. -1.
        -11    1    4    4    0    0  0.24398386085E+02 -0.88417179140E+01 -0.86406949320E+01  0.27351760974E+02  0.51100000000E-03 0.  1.
        -12    1    4    4    0    0  0.91544732120E+01 -0.43736710748E+01 -0.15186147672E+02  0.18263418617E+02  0.00000000000E+00 0.  1.
</event>
<event>
 8    1  0.2994958E-010  0.9118800E+02  0.7816164E-02  0.1184000E+00
        -11   -1    0    0    0    0  0.00000000000E+00  0.00000000000E+00  0.45593999997E+02  0.45594000000E+02  0.51100000000E-03 0. -1.
         11   -1    0    0    0    0 -0.00000000000E+00 -0.00000000000E+00 -0.45593999997E+02  0.45594000000E+02  0.51100000000E-03 0.  1.
         23    2    1    2    0    0  0.88817841970E-15  0.22204460493E-15  0.00000000000E+00  0.91188000000E+02  0.91188000000E+02 0.  0.
    9900012    2    3    3    0    0 -0.44925936826E+01 -0.14443118254E+01 -0.43143401332E+02  0.47787279808E+02  0.20000039959E+02 0.  0.
         12    1    3    3    0    0  0.44925936826E+01  0.14443118254E+01  0.43143401332E+02  0.43400720192E+02  0.00000000000E+00 0. -1.
         11    1    4    4    0    0  0.41669583148E+01  0.10045813034E+01 -0.11635171855E+02  0.12399594733E+02  0.51100000000E-03 0. -1.
        -11    1    4    4    0    0  0.20759316614E+01  0.29324326850E+01 -0.40244236596E+01  0.53948716173E+01  0.51100000000E-03 0.  1.
        -12    1    4    4    0    0 -0.10735483659E+02 -0.53813258138E+01 -0.27483805818E+02  0.29992813458E+02  0.00000000000E+00 0.  1.
</event>
<event>
 8    1  0.2994958E-010  0.9118800E+02  0.7816164E-02  0.1184000E+00
        -11   -1    0    0    0    0  0.00000000000E+00  0.00000000000E+00  0.45593999997E+02  0.45594000000E+02  0.51100000000E-03 0. -1.
         11   -1    0    0    0    0 -0.00000000000E+00 -0.00000000000E+00 -0.45593999997E+02  0.45594000000E+02  0.51100000000E-03 0.  1.
         23    2    1    2    0    0  0.35527136788E-14 -0.35527136788E-14  0.35527136788E-14  0.91188000000E+02  0.91188000000E+02 0.  0.
    9900012    2    3    3    0    0 -0.27637477798E+02  0.17904354929E+02  0.28270609406E+02  0.47787268893E+02  0.19999990188E+02 0.  0.
        -12    1    3    3    0    0  0.27637477798E+02 -0.17904354929E+02 -0.28270609406E+02  0.43400731107E+02  0.00000000000E+00 0.  1.
         11    1    4    4    0    0 -0.11144040819E+02  0.42199328715E+01  0.97349061081E+01  0.15387198458E+02  0.51100000000E-03 0. -1.
        -11    1    4    4    0    0 -0.83908727362E+01  0.14406002149E+02  0.17549494542E+02  0.24205875364E+02  0.51100000000E-03 0.  1.
         12    1    4    4    0    0 -0.81025642431E+01 -0.72158009065E+00  0.98620875616E+00  0.81941950704E+01  0.00000000000E+00 0. -1.
</event>
<event>
 8    1  0.2994958E-010  0.9118800E+02  0.7816164E-02  0.1184000E+00
        -11   -1    0    0    0    0  0.00000000000E+00  0.00000000000E+00  0.45593999997E+02  0.45594000000E+02  0.51100000000E-03 0. -1.
         11   -1    0    0    0    0 -0.00000000000E+00 -0.00000000000E+00 -0.45593999997E+02  0.45594000000E+02  0.51100000000E-03 0.  1.
         23    2    1    2    0    0  0.00000000000E+00 -0.55511151231E-15  0.00000000000E+00  0.91188000000E+02  0.91188000000E+02 0.  0.
    9900012    2    3    3    0    0 -0.18621401681E+02  0.93494678841E+00  0.39191739396E+02  0.47787272322E+02  0.20000005826E+02 0.  0.
        -12    1    3    3    0    0  0.18621401681E+02 -0.93494678841E+00 -0.39191739396E+02  0.43400727678E+02  0.00000000000E+00 0.  1.
         11    1    4    4    0    0  0.37913267173E+00  0.20500180430E+01  0.33881269924E+01  0.39781553938E+01  0.51100000000E-03 0. -1.
        -11    1    4    4    0    0  0.27941981146E+01  0.26074458422E+00  0.78495846228E+01  0.83361567796E+01  0.51100000000E-03 0.  1.
         12    1    4    4    0    0 -0.21794732468E+02 -0.13758158388E+01  0.27954027781E+02  0.35472960149E+02  0.00000000000E+00 0. -1.
</event>
<event>
 8    1  0.2994958E-010  0.9118800E+02  0.7816164E-02  0.1184000E+00
        -11   -1    0    0    0    0  0.00000000000E+00  0.00000000000E+00  0.45593999997E+02  0.45594000000E+02  0.51100000000E-03 0. -1.
         11   -1    0    0    0    0 -0.00000000000E+00 -0.00000000000E+00 -0.45593999997E+02  0.45594000000E+02  0.51100000000E-03 0.  1.
         23    2    1    2    0    0  0.00000000000E+00 -0.71054273576E-14 -0.35527136788E-14  0.91188000000E+02  0.91188000000E+02 0.  0.
    9900012    2    3    3    0    0  0.20661850567E+02 -0.28177917598E+02 -0.25743265311E+02  0.47787276298E+02  0.20000023951E+02 0.  0.
         12    1    3    3    0    0 -0.20661850567E+02  0.28177917598E+02  0.25743265311E+02  0.43400723702E+02  0.00000000000E+00 0. -1.
         11    1    4    4    0    0  0.36627417849E+01 -0.16379405448E+02 -0.10442076890E+02  0.19767082998E+02  0.51100000000E-03 0. -1.
        -11    1    4    4    0    0  0.48270566166E+01 -0.95249599598E+01 -0.44963269407E+01  0.11586297685E+02  0.51100000000E-03 0.  1.
         12    1    4    4    0    0  0.12172052166E+02 -0.22735521909E+01 -0.10804861480E+02  0.16433895615E+02  0.00000000000E+00 0. -1.
</event>
<event>
 8    1  0.2994958E-010  0.9118800E+02  0.7816164E-02  0.1184000E+00
        -11   -1    0    0    0    0  0.00000000000E+00  0.00000000000E+00  0.45593999997E+02  0.45594000000E+02  0.51100000000E-03 0. -1.
         11   -1    0    0    0    0 -0.00000000000E+00 -0.00000000000E+00 -0.45593999997E+02  0.45594000000E+02  0.51100000000E-03 0.  1.
         23    2    1    2    0    0  0.00000000000E+00  0.00000000000E+00  0.00000000000E+00  0.91188000000E+02  0.91188000000E+02 0.  0.
    9900012    2    3    3    0    0 -0.22230546338E+02 -0.10513725013E+02 -0.35761549188E+02  0.47787262628E+02  0.19999961625E+02 0.  0.
         12    1    3    3    0    0  0.22230546338E+02  0.10513725013E+02  0.35761549188E+02  0.43400737372E+02  0.00000000000E+00 0. -1.
         11    1    4    4    0    0 -0.12025638641E+02 -0.48297681102E+01 -0.15727976380E+02  0.20379202290E+02  0.51100000000E-03 0.  1.
        -11    1    4    4    0    0 -0.11694174666E+02 -0.61518283129E+01 -0.83721548038E+01  0.15642624109E+02  0.51100000000E-03 0. -1.
         12    1    4    4    0    0  0.14892669688E+01  0.46787141056E+00 -0.11661418004E+02  0.11765436228E+02  0.00000000000E+00 0. -1.
</event>
<event>
 8    1  0.2994958E-010  0.9118800E+02  0.7816164E-02  0.1184000E+00
        -11   -1    0    0    0    0  0.00000000000E+00  0.00000000000E+00  0.45593999997E+02  0.45594000000E+02  0.51100000000E-03 0. -1.
         11   -1    0    0    0    0 -0.00000000000E+00 -0.00000000000E+00 -0.45593999997E+02  0.45594000000E+02  0.51100000000E-03 0.  1.
         23    2    1    2    0    0 -0.35527136788E-14 -0.35527136788E-14  0.00000000000E+00  0.91188000000E+02  0.91188000000E+02 0.  0.
    9900012    2    3    3    0    0  0.17050358373E+02  0.16538086007E+02 -0.36323551681E+02  0.47787269406E+02  0.19999992530E+02 0.  0.
         12    1    3    3    0    0 -0.17050358373E+02 -0.16538086007E+02  0.36323551681E+02  0.43400730594E+02  0.00000000000E+00 0. -1.
         11    1    4    4    0    0  0.26420153453E+01  0.46486612727E+01 -0.55078585354E+00  0.53752825070E+01  0.51100000000E-03 0. -1.
        -11    1    4    4    0    0  0.90272758568E+01  0.13144773607E+02 -0.19289437452E+02  0.25027168838E+02  0.51100000000E-03 0.  1.
         12    1    4    4    0    0  0.53810671704E+01 -0.12553488734E+01 -0.16483328375E+02  0.17384818061E+02  0.00000000000E+00 0. -1.
</event>
<event>
 8    1  0.2994958E-010  0.9118800E+02  0.7816164E-02  0.1184000E+00
        -11   -1    0    0    0    0  0.00000000000E+00  0.00000000000E+00  0.45593999997E+02  0.45594000000E+02  0.51100000000E-03 0.  1.
         11   -1    0    0    0    0 -0.00000000000E+00 -0.00000000000E+00 -0.45593999997E+02  0.45594000000E+02  0.51100000000E-03 0. -1.
         23    2    1    2    0    0  0.00000000000E+00  0.35527136788E-14  0.00000000000E+00  0.91188000000E+02  0.91188000000E+02 0.  0.
    9900012    2    3    3    0    0  0.30512782762E+02 -0.27192094322E+02 -0.14600786519E+02  0.47787275669E+02  0.20000021085E+02 0.  0.
         12    1    3    3    0    0 -0.30512782762E+02  0.27192094322E+02  0.14600786519E+02  0.43400724331E+02  0.00000000000E+00 0. -1.
         11    1    4    4    0    0  0.13860448310E+02 -0.12720726487E+02 -0.71804767916E+01  0.20136736502E+02  0.51100000000E-03 0. -1.
        -11    1    4    4    0    0  0.30218739204E+01 -0.12209185014E+02 -0.16825803935E+01  0.12689641355E+02  0.51100000000E-03 0.  1.
         12    1    4    4    0    0  0.13630460532E+02 -0.22621828206E+01 -0.57377293341E+01  0.14960897812E+02  0.00000000000E+00 0. -1.
</event>
<event>
 8    1  0.2994958E-010  0.9118800E+02  0.7816164E-02  0.1184000E+00
        -11   -1    0    0    0    0  0.00000000000E+00  0.00000000000E+00  0.45593999997E+02  0.45594000000E+02  0.51100000000E-03 0. -1.
         11   -1    0    0    0    0 -0.00000000000E+00 -0.00000000000E+00 -0.45593999997E+02  0.45594000000E+02  0.51100000000E-03 0.  1.
         23    2    1    2    0    0  0.00000000000E+00  0.35527136788E-14 -0.71054273576E-14  0.91188000000E+02  0.91188000000E+02 0.  0.
    9900012    2    3    3    0    0  0.10517165514E+02  0.26693849618E+02 -0.32564561258E+02  0.47787273879E+02  0.20000012926E+02 0.  0.
         12    1    3    3    0    0 -0.10517165514E+02 -0.26693849618E+02  0.32564561258E+02  0.43400726121E+02  0.00000000000E+00 0. -1.
         11    1    4    4    0    0  0.80452180312E+01  0.20459974334E+01 -0.37280529677E+01  0.91000009812E+01  0.51100000000E-03 0. -1.
        -11    1    4    4    0    0  0.21723807603E+01  0.43759818971E+01 -0.26128500121E+01  0.55403466659E+01  0.51100000000E-03 0.  1.
        -12    1    4    4    0    0  0.29956672219E+00  0.20271870287E+02 -0.26223658278E+02  0.33146926232E+02  0.00000000000E+00 0.  1.
</event>
<event>
 8    1  0.2994958E-010  0.9118800E+02  0.7816164E-02  0.1184000E+00
        -11   -1    0    0    0    0  0.00000000000E+00  0.00000000000E+00  0.45593999997E+02  0.45594000000E+02  0.51100000000E-03 0. -1.
         11   -1    0    0    0    0 -0.00000000000E+00 -0.00000000000E+00 -0.45593999997E+02  0.45594000000E+02  0.51100000000E-03 0.  1.
         23    2    1    2    0    0  0.00000000000E+00  0.00000000000E+00  0.00000000000E+00  0.91188000000E+02  0.91188000000E+02 0.  0.
    9900012    2    3    3    0    0  0.31304932008E+02  0.15903083552E+02 -0.25509129316E+02  0.47787279811E+02  0.20000039969E+02 0.  0.
         12    1    3    3    0    0 -0.31304932008E+02 -0.15903083552E+02  0.25509129316E+02  0.43400720189E+02  0.00000000000E+00 0. -1.
         11    1    4    4    0    0  0.18334819031E+01  0.28094756606E+01 -0.10751117530E+01  0.35228787829E+01  0.51100000000E-03 0. -1.
        -11    1    4    4    0    0 -0.84118249287E+00  0.19264048250E+01  0.17073027345E+01  0.27080447604E+01  0.51100000000E-03 0.  1.
        -12    1    4    4    0    0  0.30312632597E+02  0.11167203067E+02 -0.26141320298E+02  0.41556356267E+02  0.00000000000E+00 0.  1.
</event>
<event>
 8    1  0.2994958E-010  0.9118800E+02  0.7816164E-02  0.1184000E+00
        -11   -1    0    0    0    0  0.00000000000E+00  0.00000000000E+00  0.45593999997E+02  0.45594000000E+02  0.51100000000E-03 0. -1.
         11   -1    0    0    0    0 -0.00000000000E+00 -0.00000000000E+00 -0.45593999997E+02  0.45594000000E+02  0.51100000000E-03 0.  1.
         23    2    1    2    0    0  0.00000000000E+00  0.00000000000E+00  0.00000000000E+00  0.91188000000E+02  0.91188000000E+02 0.  0.
    9900012    2    3    3    0    0  0.28685011067E+02  0.16177863752E+02  0.28267829521E+02  0.47787270497E+02  0.19999997505E+02 0.  0.
        -12    1    3    3    0    0 -0.28685011067E+02 -0.16177863752E+02 -0.28267829521E+02  0.43400729503E+02  0.00000000000E+00 0.  1.
         11    1    4    4    0    0  0.84379898291E+01  0.83300269425E+01  0.17898376397E+02  0.21469534208E+02  0.51100000000E-03 0. -1.
        -11    1    4    4    0    0  0.13411229962E+01  0.44773655366E+01  0.37916106906E+01  0.60184487145E+01  0.51100000000E-03 0.  1.
         12    1    4    4    0    0  0.18905898242E+02  0.33704712731E+01  0.65778424339E+01  0.20299287574E+02  0.00000000000E+00 0. -1.
</event>
<event>
 8    1  0.2994958E-010  0.9118800E+02  0.7816164E-02  0.1184000E+00
        -11   -1    0    0    0    0  0.00000000000E+00  0.00000000000E+00  0.45593999997E+02  0.45594000000E+02  0.51100000000E-03 0. -1.
         11   -1    0    0    0    0 -0.00000000000E+00 -0.00000000000E+00 -0.45593999997E+02  0.45594000000E+02  0.51100000000E-03 0.  1.
         23    2    1    2    0    0  0.35527136788E-14  0.00000000000E+00  0.00000000000E+00  0.91188000000E+02  0.91188000000E+02 0.  0.
    9900012    2    3    3    0    0  0.27064513945E+02 -0.10449418490E+02  0.32279172375E+02  0.47787271538E+02  0.20000002250E+02 0.  0.
        -12    1    3    3    0    0 -0.27064513945E+02  0.10449418490E+02 -0.32279172375E+02  0.43400728462E+02  0.00000000000E+00 0.  1.
         11    1    4    4    0    0  0.16905350524E+01  0.29632107505E+01  0.10927924874E+01  0.35822789390E+01  0.51100000000E-03 0. -1.
        -11    1    4    4    0    0 -0.56996945077E+00  0.98372392882E-02 -0.73867399164E+00  0.93306027304E+00  0.51100000000E-03 0.  1.
         12    1    4    4    0    0  0.25943948343E+02 -0.13422466480E+02  0.31925053879E+02  0.43271932326E+02  0.00000000000E+00 0. -1.
</event>
<event>
 8    1  0.2994958E-010  0.9118800E+02  0.7816164E-02  0.1184000E+00
        -11   -1    0    0    0    0  0.00000000000E+00  0.00000000000E+00  0.45593999997E+02  0.45594000000E+02  0.51100000000E-03 0. -1.
         11   -1    0    0    0    0 -0.00000000000E+00 -0.00000000000E+00 -0.45593999997E+02  0.45594000000E+02  0.51100000000E-03 0.  1.
         23    2    1    2    0    0  0.35527136788E-14  0.00000000000E+00  0.35527136788E-14  0.91188000000E+02  0.91188000000E+02 0.  0.
    9900012    2    3    3    0    0 -0.24393502000E+02  0.27002177049E+02 -0.23652968077E+02  0.47787269545E+02  0.19999993163E+02 0.  0.
         12    1    3    3    0    0  0.24393502000E+02 -0.27002177049E+02  0.23652968077E+02  0.43400730455E+02  0.00000000000E+00 0. -1.
         11    1    4    4    0    0 -0.12455719289E+02  0.12566037431E+02 -0.20049816499E+02  0.26740332489E+02  0.51100000000E-03 0. -1.
        -11    1    4    4    0    0 -0.72990463476E+01  0.56368015358E+01 -0.57537695543E+01  0.10869934383E+02  0.51100000000E-03 0.  1.
        -12    1    4    4    0    0 -0.46387363630E+01  0.87993380816E+01  0.21506179763E+01  0.10177002673E+02  0.00000000000E+00 0.  1.
</event>
<event>
 8    1  0.2994958E-010  0.9118800E+02  0.7816164E-02  0.1184000E+00
        -11   -1    0    0    0    0  0.00000000000E+00  0.00000000000E+00  0.45593999997E+02  0.45594000000E+02  0.51100000000E-03 0. -1.
         11   -1    0    0    0    0 -0.00000000000E+00 -0.00000000000E+00 -0.45593999997E+02  0.45594000000E+02  0.51100000000E-03 0.  1.
         23    2    1    2    0    0  0.00000000000E+00  0.00000000000E+00  0.17763568394E-14  0.91188000000E+02  0.91188000000E+02 0.  0.
    9900012    2    3    3    0    0  0.38340436632E+02 -0.14308675076E+02 -0.14453238920E+02  0.47787269835E+02  0.19999994487E+02 0.  0.
         12    1    3    3    0    0 -0.38340436632E+02  0.14308675076E+02  0.14453238920E+02  0.43400730165E+02  0.00000000000E+00 0. -1.
         11    1    4    4    0    0  0.14036796001E+02 -0.74428714818E+01 -0.87571580671E+01  0.18141548874E+02  0.51100000000E-03 0.  1.
        -11    1    4    4    0    0  0.15432863875E+02 -0.38060728505E+00 -0.93707198488E+01  0.18059029322E+02  0.51100000000E-03 0. -1.
         12    1    4    4    0    0  0.88707767553E+01 -0.64851963089E+01  0.36746389954E+01  0.11586691640E+02  0.00000000000E+00 0. -1.
</event>
<event>
 8    1  0.2994958E-010  0.9118800E+02  0.7816164E-02  0.1184000E+00
        -11   -1    0    0    0    0  0.00000000000E+00  0.00000000000E+00  0.45593999997E+02  0.45594000000E+02  0.51100000000E-03 0. -1.
         11   -1    0    0    0    0 -0.00000000000E+00 -0.00000000000E+00 -0.45593999997E+02  0.45594000000E+02  0.51100000000E-03 0.  1.
         23    2    1    2    0    0  0.00000000000E+00  0.00000000000E+00  0.00000000000E+00  0.91188000000E+02  0.91188000000E+02 0.  0.
    9900012    2    3    3    0    0  0.40869117666E+02  0.93375463102E+01 -0.11231598081E+02  0.47787270221E+02  0.19999996245E+02 0.  0.
         12    1    3    3    0    0 -0.40869117666E+02 -0.93375463102E+01  0.11231598081E+02  0.43400729779E+02  0.00000000000E+00 0. -1.
         11    1    4    4    0    0 -0.18120475027E+00 -0.16402084370E-01  0.12489084422E+01  0.12620922106E+01  0.51100000000E-03 0. -1.
        -11    1    4    4    0    0  0.11149615085E+02  0.57950869737E+01 -0.10453254207E+02  0.16345258436E+02  0.51100000000E-03 0.  1.
        -12    1    4    4    0    0  0.29900707332E+02  0.35588614209E+01 -0.20272523162E+01  0.30179919574E+02  0.00000000000E+00 0.  1.
</event>
<event>
 8    1  0.2994958E-010  0.9118800E+02  0.7816164E-02  0.1184000E+00
        -11   -1    0    0    0    0  0.00000000000E+00  0.00000000000E+00  0.45593999997E+02  0.45594000000E+02  0.51100000000E-03 0. -1.
         11   -1    0    0    0    0 -0.00000000000E+00 -0.00000000000E+00 -0.45593999997E+02  0.45594000000E+02  0.51100000000E-03 0.  1.
         23    2    1    2    0    0 -0.35527136788E-14  0.00000000000E+00  0.71054273576E-14  0.91188000000E+02  0.91188000000E+02 0.  0.
    9900012    2    3    3    0    0  0.21405963585E+02 -0.72190348336E+01  0.37057978755E+02  0.47787268090E+02  0.19999986529E+02 0.  0.
        -12    1    3    3    0    0 -0.21405963585E+02  0.72190348336E+01 -0.37057978755E+02  0.43400731910E+02  0.00000000000E+00 0.  1.
         11    1    4    4    0    0  0.22996397937E+02 -0.32452861042E+01  0.24532971419E+02  0.33782138577E+02  0.51100000000E-03 0.  1.
        -11    1    4    4    0    0  0.23673535417E+00  0.94898748359E+00  0.25769679039E+01  0.27563353771E+01  0.51100000000E-03 0. -1.
        -12    1    4    4    0    0 -0.18271697057E+01 -0.49227362130E+01  0.99480394322E+01  0.11248794135E+02  0.00000000000E+00 0.  1.
</event>
<event>
 8    1  0.2994958E-010  0.9118800E+02  0.7816164E-02  0.1184000E+00
        -11   -1    0    0    0    0  0.00000000000E+00  0.00000000000E+00  0.45593999997E+02  0.45594000000E+02  0.51100000000E-03 0. -1.
         11   -1    0    0    0    0 -0.00000000000E+00 -0.00000000000E+00 -0.45593999997E+02  0.45594000000E+02  0.51100000000E-03 0.  1.
         23    2    1    2    0    0  0.17763568394E-14 -0.88817841970E-15  0.00000000000E+00  0.91188000000E+02  0.91188000000E+02 0.  0.
    9900012    2    3    3    0    0  0.86875169815E+01 -0.59685666631E+01  0.42101350303E+02  0.47787303731E+02  0.20000149029E+02 0.  0.
        -12    1    3    3    0    0 -0.86875169815E+01  0.59685666631E+01 -0.42101350303E+02  0.43400696269E+02  0.00000000000E+00 0.  1.
         11    1    4    4    0    0  0.10614640042E+02 -0.92481258750E+01  0.36799549279E+02  0.39400574143E+02  0.51100000000E-03 0. -1.
        -11    1    4    4    0    0  0.42123820924E+00  0.23696003986E+01  0.53514453536E+01  0.58677436304E+01  0.51100000000E-03 0.  1.
         12    1    4    4    0    0 -0.23483612694E+01  0.90995881330E+00 -0.49644329261E-01  0.25189859573E+01  0.00000000000E+00 0. -1.
</event>
<event>
 8    1  0.2994958E-010  0.9118800E+02  0.7816164E-02  0.1184000E+00
        -11   -1    0    0    0    0  0.00000000000E+00  0.00000000000E+00  0.45593999997E+02  0.45594000000E+02  0.51100000000E-03 0. -1.
         11   -1    0    0    0    0 -0.00000000000E+00 -0.00000000000E+00 -0.45593999997E+02  0.45594000000E+02  0.51100000000E-03 0.  1.
         23    2    1    2    0    0  0.00000000000E+00  0.00000000000E+00  0.00000000000E+00  0.91188000000E+02  0.91188000000E+02 0.  0.
    9900012    2    3    3    0    0  0.45950980623E+01 -0.36125603816E+02 -0.23610348877E+02  0.47787277064E+02  0.20000027444E+02 0.  0.
         12    1    3    3    0    0 -0.45950980623E+01  0.36125603816E+02  0.23610348877E+02  0.43400722936E+02  0.00000000000E+00 0. -1.
         11    1    4    4    0    0 -0.79087695346E-01 -0.34648072640E+00 -0.35228475358E+01  0.35407285661E+01  0.51100000000E-03 0. -1.
        -11    1    4    4    0    0 -0.55044142590E+01 -0.70817307765E+01 -0.42606895337E+01  0.99299024511E+01  0.51100000000E-03 0.  1.
        -12    1    4    4    0    0  0.10178600017E+02 -0.28697392313E+02 -0.15826811808E+02  0.34316646047E+02  0.00000000000E+00 0.  1.
</event>
<event>
 8    1  0.2994958E-010  0.9118800E+02  0.7816164E-02  0.1184000E+00
        -11   -1    0    0    0    0  0.00000000000E+00  0.00000000000E+00  0.45593999997E+02  0.45594000000E+02  0.51100000000E-03 0. -1.
         11   -1    0    0    0    0 -0.00000000000E+00 -0.00000000000E+00 -0.45593999997E+02  0.45594000000E+02  0.51100000000E-03 0.  1.
         23    2    1    2    0    0 -0.35527136788E-14  0.00000000000E+00  0.35527136788E-14  0.91188000000E+02  0.91188000000E+02 0.  0.
    9900012    2    3    3    0    0  0.27224034382E+02  0.17679215176E+02 -0.28808339026E+02  0.47787273109E+02  0.20000009411E+02 0.  0.
         12    1    3    3    0    0 -0.27224034382E+02 -0.17679215176E+02  0.28808339026E+02  0.43400726891E+02  0.00000000000E+00 0. -1.
         11    1    4    4    0    0  0.97025592718E+01  0.70650028120E+01 -0.59463099165E+01  0.13394495998E+02  0.51100000000E-03 0. -1.
        -11    1    4    4    0    0  0.17454019551E+02  0.13519148859E+02 -0.17049323272E+02  0.27894257629E+02  0.51100000000E-03 0.  1.
         12    1    4    4    0    0  0.67455558853E-01 -0.29049364956E+01 -0.58127058377E+01  0.64985194815E+01  0.00000000000E+00 0. -1.
</event>
<event>
 8    1  0.2994958E-010  0.9118800E+02  0.7816164E-02  0.1184000E+00
        -11   -1    0    0    0    0  0.00000000000E+00  0.00000000000E+00  0.45593999997E+02  0.45594000000E+02  0.51100000000E-03 0. -1.
         11   -1    0    0    0    0 -0.00000000000E+00 -0.00000000000E+00 -0.45593999997E+02  0.45594000000E+02  0.51100000000E-03 0.  1.
         23    2    1    2    0    0  0.00000000000E+00  0.35527136788E-14  0.00000000000E+00  0.91188000000E+02  0.91188000000E+02 0.  0.
    9900012    2    3    3    0    0 -0.16747501809E+02  0.23604251600E+02  0.32341669972E+02  0.47787272736E+02  0.20000007712E+02 0.  0.
        -12    1    3    3    0    0  0.16747501809E+02 -0.23604251600E+02 -0.32341669972E+02  0.43400727264E+02  0.00000000000E+00 0.  1.
         11    1    4    4    0    0 -0.41177850672E+01  0.10081314799E+02  0.14311687468E+02  0.17983699853E+02  0.51100000000E-03 0. -1.
        -11    1    4    4    0    0 -0.71663947994E+01  0.14952078401E+02  0.17537882239E+02  0.24135019714E+02  0.51100000000E-03 0.  1.
        -12    1    4    4    0    0 -0.54633219423E+01 -0.14291415996E+01  0.49210026477E+00  0.56685531688E+01  0.00000000000E+00 0.  1.
</event>
<event>
 8    1  0.2994958E-010  0.9118800E+02  0.7816164E-02  0.1184000E+00
        -11   -1    0    0    0    0  0.00000000000E+00  0.00000000000E+00  0.45593999997E+02  0.45594000000E+02  0.51100000000E-03 0.  1.
         11   -1    0    0    0    0 -0.00000000000E+00 -0.00000000000E+00 -0.45593999997E+02  0.45594000000E+02  0.51100000000E-03 0. -1.
         23    2    1    2    0    0  0.00000000000E+00  0.00000000000E+00  0.35527136788E-14  0.91188000000E+02  0.91188000000E+02 0.  0.
    9900012    2    3    3    0    0 -0.33787626489E+02 -0.17827696781E+02  0.20595938336E+02  0.47787272446E+02  0.20000006389E+02 0.  0.
         12    1    3    3    0    0  0.33787626489E+02  0.17827696781E+02 -0.20595938336E+02  0.43400727554E+02  0.00000000000E+00 0. -1.
         11    1    4    4    0    0 -0.11561499801E+02 -0.46970575166E+01  0.97667521598E+01  0.15846768597E+02  0.51100000000E-03 0.  1.
        -11    1    4    4    0    0 -0.24269671886E+02 -0.12817873208E+02  0.83004368502E+01  0.28674241040E+02  0.51100000000E-03 0. -1.
         12    1    4    4    0    0  0.20435451978E+01 -0.31276605670E+00  0.25287493263E+01  0.32662628089E+01  0.00000000000E+00 0. -1.
</event>
<event>
 8    1  0.3797832E-010  0.9118800E+02  0.7816164E-02  0.1184000E+00
        -11   -1    0    0    0    0  0.00000000000E+00  0.00000000000E+00  0.45593999997E+02  0.45594000000E+02  0.51100000000E-03 0. -1.
         11   -1    0    0    0    0 -0.00000000000E+00 -0.00000000000E+00 -0.45593999997E+02  0.45594000000E+02  0.51100000000E-03 0.  1.
         23    2    1    2    0    0  0.00000000000E+00  0.00000000000E+00  0.71054273576E-14  0.91188000000E+02  0.91188000000E+02 0.  0.
    9900012    2    3    3    0    0 -0.23941114170E+02  0.10773262207E+02  0.34559851246E+02  0.47787269080E+02  0.19999991043E+02 0.  0.
        -12    1    3    3    0    0  0.23941114170E+02 -0.10773262207E+02 -0.34559851246E+02  0.43400730920E+02  0.00000000000E+00 0.  1.
         11    1    4    4    0    0  0.14235529932E+01  0.31679743726E+01  0.19645208514E+01  0.39902264581E+01  0.51100000000E-03 0. -1.
        -11    1    4    4    0    0 -0.30796112796E+01  0.15535941595E+01 -0.45446613833E+00  0.34791091069E+01  0.51100000000E-03 0.  1.
         12    1    4    4    0    0 -0.22285055883E+02  0.60516936752E+01  0.33049796533E+02  0.40317933515E+02  0.00000000000E+00 0. -1.
</event>
<event>
 8    1  0.2994958E-010  0.9118800E+02  0.7816164E-02  0.1184000E+00
        -11   -1    0    0    0    0  0.00000000000E+00  0.00000000000E+00  0.45593999997E+02  0.45594000000E+02  0.51100000000E-03 0. -1.
         11   -1    0    0    0    0 -0.00000000000E+00 -0.00000000000E+00 -0.45593999997E+02  0.45594000000E+02  0.51100000000E-03 0.  1.
         23    2    1    2    0    0  0.00000000000E+00 -0.44408920985E-15  0.00000000000E+00  0.91188000000E+02  0.91188000000E+02 0.  0.
    9900012    2    3    3    0    0 -0.15606054599E+02 -0.39658812925E+01 -0.40303179131E+02  0.47787269561E+02  0.19999993235E+02 0.  0.
         12    1    3    3    0    0  0.15606054599E+02  0.39658812925E+01  0.40303179131E+02  0.43400730439E+02  0.00000000000E+00 0. -1.
         11    1    4    4    0    0 -0.55411896305E+01 -0.11897695391E+01 -0.18078838776E+01  0.59488468171E+01  0.51100000000E-03 0. -1.
        -11    1    4    4    0    0 -0.11842444120E+02  0.91852959858E+00 -0.32247030780E+02  0.34365072003E+02  0.51100000000E-03 0.  1.
         12    1    4    4    0    0  0.17775791518E+01 -0.36946413520E+01 -0.62482644740E+01  0.74733507410E+01  0.00000000000E+00 0. -1.
</event>
<event>
 8    1  0.2994958E-010  0.9118800E+02  0.7816164E-02  0.1184000E+00
        -11   -1    0    0    0    0  0.00000000000E+00  0.00000000000E+00  0.45593999997E+02  0.45594000000E+02  0.51100000000E-03 0. -1.
         11   -1    0    0    0    0 -0.00000000000E+00 -0.00000000000E+00 -0.45593999997E+02  0.45594000000E+02  0.51100000000E-03 0.  1.
         23    2    1    2    0    0  0.00000000000E+00  0.35527136788E-14 -0.35527136788E-14  0.91188000000E+02  0.91188000000E+02 0.  0.
    9900012    2    3    3    0    0 -0.23328414204E+02  0.31968439451E+02  0.17816473745E+02  0.47787276885E+02  0.20000026629E+02 0.  0.
        -12    1    3    3    0    0  0.23328414204E+02 -0.31968439451E+02 -0.17816473745E+02  0.43400723115E+02  0.00000000000E+00 0.  1.
         11    1    4    4    0    0 -0.10631006016E+02  0.10552479720E+02  0.60073030178E+01  0.16138798189E+02  0.51100000000E-03 0. -1.
        -11    1    4    4    0    0 -0.10808146418E+02  0.17023326198E+02  0.15642025509E+02  0.25520239539E+02  0.51100000000E-03 0.  1.
        -12    1    4    4    0    0 -0.18892617699E+01  0.43926335329E+01 -0.38328547819E+01  0.61282391573E+01  0.00000000000E+00 0.  1.
</event>
<event>
 8    1  0.2994958E-010  0.9118800E+02  0.7816164E-02  0.1184000E+00
        -11   -1    0    0    0    0  0.00000000000E+00  0.00000000000E+00  0.45593999997E+02  0.45594000000E+02  0.51100000000E-03 0. -1.
         11   -1    0    0    0    0 -0.00000000000E+00 -0.00000000000E+00 -0.45593999997E+02  0.45594000000E+02  0.51100000000E-03 0.  1.
         23    2    1    2    0    0  0.17763568394E-14  0.00000000000E+00  0.00000000000E+00  0.91188000000E+02  0.91188000000E+02 0.  0.
    9900012    2    3    3    0    0 -0.59345622468E+01 -0.32778771409E+02 -0.27820073094E+02  0.47787270155E+02  0.19999995943E+02 0.  0.
         12    1    3    3    0    0  0.59345622468E+01  0.32778771409E+02  0.27820073094E+02  0.43400729845E+02  0.00000000000E+00 0. -1.
         11    1    4    4    0    0 -0.53750490652E+01 -0.10438630515E+02 -0.34277127216E+01  0.12231327575E+02  0.51100000000E-03 0. -1.
        -11    1    4    4    0    0 -0.59399408096E+01 -0.66109445929E+01 -0.11412457731E+02  0.14464842790E+02  0.51100000000E-03 0.  1.
        -12    1    4    4    0    0  0.53804276280E+01 -0.15729196301E+02 -0.12979902642E+02  0.21091099789E+02  0.00000000000E+00 0.  1.
</event>
<event>
 8    1  0.2994958E-010  0.9118800E+02  0.7816164E-02  0.1184000E+00
        -11   -1    0    0    0    0  0.00000000000E+00  0.00000000000E+00  0.45593999997E+02  0.45594000000E+02  0.51100000000E-03 0. -1.
         11   -1    0    0    0    0 -0.00000000000E+00 -0.00000000000E+00 -0.45593999997E+02  0.45594000000E+02  0.51100000000E-03 0.  1.
         23    2    1    2    0    0  0.00000000000E+00  0.00000000000E+00  0.17763568394E-14  0.91188000000E+02  0.91188000000E+02 0.  0.
    9900012    2    3    3    0    0  0.22611693072E+02 -0.34661441017E+02  0.13073586900E+02  0.47787276142E+02  0.20000023243E+02 0.  0.
        -12    1    3    3    0    0 -0.22611693072E+02  0.34661441017E+02 -0.13073586900E+02  0.43400723858E+02  0.00000000000E+00 0.  1.
         11    1    4    4    0    0 -0.10011439970E+01 -0.77738068033E+01 -0.84449115993E+00  0.78833702880E+01  0.51100000000E-03 0. -1.
        -11    1    4    4    0    0 -0.10373872817E+01 -0.55235890940E+00  0.11353278299E+01  0.16340875984E+01  0.51100000000E-03 0.  1.
         12    1    4    4    0    0  0.24650224350E+02 -0.26335275304E+02  0.12782750230E+02  0.38269818256E+02  0.00000000000E+00 0. -1.
</event>
<event>
 8    1  0.2994958E-010  0.9118800E+02  0.7816164E-02  0.1184000E+00
        -11   -1    0    0    0    0  0.00000000000E+00  0.00000000000E+00  0.45593999997E+02  0.45594000000E+02  0.51100000000E-03 0.  1.
         11   -1    0    0    0    0 -0.00000000000E+00 -0.00000000000E+00 -0.45593999997E+02  0.45594000000E+02  0.51100000000E-03 0. -1.
         23    2    1    2    0    0 -0.17763568394E-14  0.00000000000E+00  0.00000000000E+00  0.91188000000E+02  0.91188000000E+02 0.  0.
    9900012    2    3    3    0    0 -0.14039830236E+02 -0.39242320280E+02 -0.12105645032E+02  0.47787272176E+02  0.20000005160E+02 0.  0.
         12    1    3    3    0    0  0.14039830236E+02  0.39242320280E+02  0.12105645032E+02  0.43400727824E+02  0.00000000000E+00 0. -1.
         11    1    4    4    0    0  0.22902369733E+01 -0.97132550095E+01 -0.62240258906E+01  0.11761420272E+02  0.51100000000E-03 0.  1.
        -11    1    4    4    0    0 -0.15437432796E+02 -0.29627943418E+02 -0.36341690101E+01  0.33605602913E+02  0.51100000000E-03 0. -1.
         12    1    4    4    0    0 -0.89263441348E+00  0.98878148018E-01 -0.22474501310E+01  0.24202489904E+01  0.00000000000E+00 0. -1.
</event>
<event>
 8    1  0.2994958E-010  0.9118800E+02  0.7816164E-02  0.1184000E+00
        -11   -1    0    0    0    0  0.00000000000E+00  0.00000000000E+00  0.45593999997E+02  0.45594000000E+02  0.51100000000E-03 0. -1.
         11   -1    0    0    0    0 -0.00000000000E+00 -0.00000000000E+00 -0.45593999997E+02  0.45594000000E+02  0.51100000000E-03 0.  1.
         23    2    1    2    0    0  0.00000000000E+00  0.00000000000E+00  0.00000000000E+00  0.91188000000E+02  0.91188000000E+02 0.  0.
    9900012    2    3    3    0    0 -0.11637538241E+02 -0.26464299202E+02  0.32370230421E+02  0.47787271365E+02  0.20000001460E+02 0.  0.
        -12    1    3    3    0    0  0.11637538241E+02  0.26464299202E+02 -0.32370230421E+02  0.43400728635E+02  0.00000000000E+00 0.  1.
         11    1    4    4    0    0 -0.75839205402E+01 -0.20175923318E+02  0.24672639051E+02  0.32761606348E+02  0.51100000000E-03 0. -1.
        -11    1    4    4    0    0  0.11888867982E+01 -0.73786137789E+01  0.36754570342E+01  0.83286480169E+01  0.51100000000E-03 0.  1.
        -12    1    4    4    0    0 -0.52425044986E+01  0.10902378945E+01  0.40221343359E+01  0.66970170001E+01  0.00000000000E+00 0.  1.
</event>
<event>
 8    1  0.2994958E-010  0.9118800E+02  0.7816164E-02  0.1184000E+00
        -11   -1    0    0    0    0  0.00000000000E+00  0.00000000000E+00  0.45593999997E+02  0.45594000000E+02  0.51100000000E-03 0. -1.
         11   -1    0    0    0    0 -0.00000000000E+00 -0.00000000000E+00 -0.45593999997E+02  0.45594000000E+02  0.51100000000E-03 0.  1.
         23    2    1    2    0    0  0.17763568394E-14 -0.22204460493E-15 -0.71054273576E-14  0.91188000000E+02  0.91188000000E+02 0.  0.
    9900012    2    3    3    0    0 -0.86544425966E+01 -0.15788410553E+01  0.42499777695E+02  0.47787271666E+02  0.20000002835E+02 0.  0.
        -12    1    3    3    0    0  0.86544425966E+01  0.15788410553E+01 -0.42499777695E+02  0.43400728334E+02  0.00000000000E+00 0.  1.
         11    1    4    4    0    0  0.17445471989E+01  0.38216994405E-02  0.20586657551E+02  0.20660443580E+02  0.51100000000E-03 0. -1.
        -11    1    4    4    0    0 -0.13600808207E+01  0.46967679475E+01  0.54318496731E+01  0.73085183261E+01  0.51100000000E-03 0.  1.
        -12    1    4    4    0    0 -0.90389089747E+01 -0.62794307022E+01  0.16481270471E+02  0.19818309760E+02  0.00000000000E+00 0.  1.
</event>
<event>
 8    1  0.2994958E-010  0.9118800E+02  0.7816164E-02  0.1184000E+00
        -11   -1    0    0    0    0  0.00000000000E+00  0.00000000000E+00  0.45593999997E+02  0.45594000000E+02  0.51100000000E-03 0. -1.
         11   -1    0    0    0    0 -0.00000000000E+00 -0.00000000000E+00 -0.45593999997E+02  0.45594000000E+02  0.51100000000E-03 0.  1.
         23    2    1    2    0    0  0.88817841970E-15  0.10269562978E-14  0.00000000000E+00  0.91188000000E+02  0.91188000000E+02 0.  0.
    9900012    2    3    3    0    0  0.57919104039E+01  0.22650485097E+00  0.43011924467E+02  0.47787272161E+02  0.20000005091E+02 0.  0.
        -12    1    3    3    0    0 -0.57919104039E+01 -0.22650485097E+00 -0.43011924467E+02  0.43400727839E+02  0.00000000000E+00 0.  1.
         11    1    4    4    0    0 -0.11062175515E+01  0.35537536182E+01  0.15303355346E+02  0.15749462440E+02  0.51100000000E-03 0. -1.
        -11    1    4    4    0    0  0.59017574660E+01  0.41270769668E+01  0.71558042583E+01  0.10152292368E+02  0.51100000000E-03 0.  1.
        -12    1    4    4    0    0  0.99637048940E+00 -0.74543257340E+01  0.20552764863E+02  0.21885517353E+02  0.00000000000E+00 0.  1.
</event>
<event>
 8    1  0.2994958E-010  0.9118800E+02  0.7816164E-02  0.1184000E+00
        -11   -1    0    0    0    0  0.00000000000E+00  0.00000000000E+00  0.45593999997E+02  0.45594000000E+02  0.51100000000E-03 0. -1.
         11   -1    0    0    0    0 -0.00000000000E+00 -0.00000000000E+00 -0.45593999997E+02  0.45594000000E+02  0.51100000000E-03 0.  1.
         23    2    1    2    0    0  0.17763568394E-14  0.00000000000E+00  0.00000000000E+00  0.91188000000E+02  0.91188000000E+02 0.  0.
    9900012    2    3    3    0    0 -0.14645638522E+02  0.20280171945E+02  0.35466085055E+02  0.47787270848E+02  0.19999999103E+02 0.  0.
        -12    1    3    3    0    0  0.14645638522E+02 -0.20280171945E+02 -0.35466085055E+02  0.43400729152E+02  0.00000000000E+00 0.  1.
         11    1    4    4    0    0 -0.87708336794E+01  0.35703472455E+00  0.15604702852E+02  0.17904238286E+02  0.51100000000E-03 0.  1.
        -11    1    4    4    0    0 -0.20551314339E+01  0.31036704911E-01  0.15070056582E+01  0.25486456801E+01  0.51100000000E-03 0. -1.
        -12    1    4    4    0    0 -0.38196734091E+01  0.19892100515E+02  0.18354376544E+02  0.27334386882E+02  0.00000000000E+00 0.  1.
</event>
<event>
 8    1  0.2994958E-010  0.9118800E+02  0.7816164E-02  0.1184000E+00
        -11   -1    0    0    0    0  0.00000000000E+00  0.00000000000E+00  0.45593999997E+02  0.45594000000E+02  0.51100000000E-03 0.  1.
         11   -1    0    0    0    0 -0.00000000000E+00 -0.00000000000E+00 -0.45593999997E+02  0.45594000000E+02  0.51100000000E-03 0. -1.
         23    2    1    2    0    0 -0.17763568394E-14  0.00000000000E+00  0.00000000000E+00  0.91188000000E+02  0.91188000000E+02 0.  0.
    9900012    2    3    3    0    0 -0.98533251115E+01 -0.42181577220E+02  0.26926406736E+01  0.47787265141E+02  0.19999973082E+02 0.  0.
         12    1    3    3    0    0  0.98533251115E+01  0.42181577220E+02 -0.26926406736E+01  0.43400734859E+02  0.00000000000E+00 0. -1.
         11    1    4    4    0    0 -0.72342366508E+00 -0.13189958379E+01  0.78831308794E+00  0.16983902983E+01  0.51100000000E-03 0. -1.
        -11    1    4    4    0    0  0.54684176303E+01 -0.18814021873E+02  0.13634453752E+01  0.19640010029E+02  0.51100000000E-03 0.  1.
        -12    1    4    4    0    0 -0.14598319077E+02 -0.22048559510E+02  0.54088221041E+00  0.26448864813E+02  0.00000000000E+00 0.  1.
</event>
<event>
 8    1  0.2994958E-010  0.9118800E+02  0.7816164E-02  0.1184000E+00
        -11   -1    0    0    0    0  0.00000000000E+00  0.00000000000E+00  0.45593999997E+02  0.45594000000E+02  0.51100000000E-03 0. -1.
         11   -1    0    0    0    0 -0.00000000000E+00 -0.00000000000E+00 -0.45593999997E+02  0.45594000000E+02  0.51100000000E-03 0.  1.
         23    2    1    2    0    0  0.00000000000E+00  0.00000000000E+00  0.71054273576E-14  0.91188000000E+02  0.91188000000E+02 0.  0.
    9900012    2    3    3    0    0  0.19336107120E+02 -0.20875308131E+02  0.32771326189E+02  0.47787270188E+02  0.19999996093E+02 0.  0.
        -12    1    3    3    0    0 -0.19336107120E+02  0.20875308131E+02 -0.32771326189E+02  0.43400729812E+02  0.00000000000E+00 0.  1.
         11    1    4    4    0    0  0.13196620433E+01 -0.26024891592E+00  0.49318627285E+01  0.51119964438E+01  0.51100000000E-03 0. -1.
        -11    1    4    4    0    0  0.10676916761E+02 -0.33835169537E+00  0.76901767292E+01  0.13162440950E+02  0.51100000000E-03 0.  1.
         12    1    4    4    0    0  0.73395283153E+01 -0.20276707519E+02  0.20149286731E+02  0.29512832793E+02  0.00000000000E+00 0. -1.
</event>
<event>
 8    1  0.2994958E-010  0.9118800E+02  0.7816164E-02  0.1184000E+00
        -11   -1    0    0    0    0  0.00000000000E+00  0.00000000000E+00  0.45593999997E+02  0.45594000000E+02  0.51100000000E-03 0. -1.
         11   -1    0    0    0    0 -0.00000000000E+00 -0.00000000000E+00 -0.45593999997E+02  0.45594000000E+02  0.51100000000E-03 0.  1.
         23    2    1    2    0    0  0.00000000000E+00 -0.17763568394E-14  0.00000000000E+00  0.91188000000E+02  0.91188000000E+02 0.  0.
    9900012    2    3    3    0    0  0.27579556686E+02  0.12662235904E+02 -0.31026757593E+02  0.47787264386E+02  0.19999969640E+02 0.  0.
         12    1    3    3    0    0 -0.27579556686E+02 -0.12662235904E+02  0.31026757593E+02  0.43400735614E+02  0.00000000000E+00 0. -1.
         11    1    4    4    0    0  0.17341422073E+01 -0.28712879032E+01 -0.25783822616E+01  0.42307917422E+01  0.51100000000E-03 0. -1.
        -11    1    4    4    0    0  0.91886901763E+01 -0.13203365693E+01 -0.77185824179E+01  0.12072772284E+02  0.51100000000E-03 0.  1.
        -12    1    4    4    0    0  0.16656724303E+02  0.16853860377E+02 -0.20729792914E+02  0.31483700360E+02  0.00000000000E+00 0.  1.
</event>
<event>
 8    1  0.2994958E-010  0.9118800E+02  0.7816164E-02  0.1184000E+00
        -11   -1    0    0    0    0  0.00000000000E+00  0.00000000000E+00  0.45593999997E+02  0.45594000000E+02  0.51100000000E-03 0.  1.
         11   -1    0    0    0    0 -0.00000000000E+00 -0.00000000000E+00 -0.45593999997E+02  0.45594000000E+02  0.51100000000E-03 0. -1.
         23    2    1    2    0    0  0.00000000000E+00  0.00000000000E+00 -0.17763568394E-14  0.91188000000E+02  0.91188000000E+02 0.  0.
    9900012    2    3    3    0    0 -0.24203628324E+02 -0.33654562542E+02 -0.12852144571E+02  0.47787276227E+02  0.20000023629E+02 0.  0.
         12    1    3    3    0    0  0.24203628324E+02  0.33654562542E+02  0.12852144571E+02  0.43400723773E+02  0.00000000000E+00 0. -1.
         11    1    4    4    0    0 -0.95492054455E+01 -0.20544101854E+02 -0.87540837443E+01  0.24287474716E+02  0.51100000000E-03 0. -1.
        -11    1    4    4    0    0 -0.64147217679E+00 -0.80805844768E+01 -0.19494051150E+00  0.81083496536E+01  0.51100000000E-03 0.  1.
         12    1    4    4    0    0 -0.14012950702E+02 -0.50298762111E+01 -0.39031203151E+01  0.15391451857E+02  0.00000000000E+00 0. -1.
</event>
<event>
 8    1  0.2994958E-010  0.9118800E+02  0.7816164E-02  0.1184000E+00
        -11   -1    0    0    0    0  0.00000000000E+00  0.00000000000E+00  0.45593999997E+02  0.45594000000E+02  0.51100000000E-03 0. -1.
         11   -1    0    0    0    0 -0.00000000000E+00 -0.00000000000E+00 -0.45593999997E+02  0.45594000000E+02  0.51100000000E-03 0.  1.
         23    2    1    2    0    0  0.00000000000E+00  0.00000000000E+00  0.00000000000E+00  0.91188000000E+02  0.91188000000E+02 0.  0.
    9900012    2    3    3    0    0 -0.29727264534E+02 -0.26772206533E+02  0.16827390086E+02  0.47787281614E+02  0.20000048191E+02 0.  0.
         12    1    3    3    0    0  0.29727264534E+02  0.26772206533E+02 -0.16827390086E+02  0.43400718386E+02  0.00000000000E+00 0. -1.
         11    1    4    4    0    0 -0.93744869547E+00 -0.39817285351E+01  0.53632147886E+01  0.67451497621E+01  0.51100000000E-03 0. -1.
        -11    1    4    4    0    0 -0.90224674206E+01 -0.62748505166E+01  0.10599992547E+02  0.15268873882E+02  0.51100000000E-03 0.  1.
        -12    1    4    4    0    0 -0.19767348418E+02 -0.16515627481E+02  0.86418275105E+00  0.25773257970E+02  0.00000000000E+00 0.  1.
</event>
<event>
 8    1  0.2994958E-010  0.9118800E+02  0.7816164E-02  0.1184000E+00
        -11   -1    0    0    0    0  0.00000000000E+00  0.00000000000E+00  0.45593999997E+02  0.45594000000E+02  0.51100000000E-03 0. -1.
         11   -1    0    0    0    0 -0.00000000000E+00 -0.00000000000E+00 -0.45593999997E+02  0.45594000000E+02  0.51100000000E-03 0.  1.
         23    2    1    2    0    0  0.00000000000E+00  0.88817841970E-15  0.00000000000E+00  0.91188000000E+02  0.91188000000E+02 0.  0.
    9900012    2    3    3    0    0 -0.31455283690E+01  0.75483357330E+01 -0.42623368062E+02  0.47787271596E+02  0.20000002515E+02 0.  0.
         12    1    3    3    0    0  0.31455283690E+01 -0.75483357330E+01  0.42623368062E+02  0.43400728404E+02  0.00000000000E+00 0. -1.
         11    1    4    4    0    0  0.75808812412E+00  0.46180325211E+01 -0.65512525185E+00  0.47254747197E+01  0.51100000000E-03 0. -1.
        -11    1    4    4    0    0 -0.29338743294E+01 -0.17416794466E+01 -0.71981836059E+01  0.79658592355E+01  0.51100000000E-03 0.  1.
        -12    1    4    4    0    0 -0.96974216372E+00  0.46719826585E+01 -0.34770059204E+02  0.35095937641E+02  0.00000000000E+00 0.  1.
</event>
<event>
 8    1  0.2994958E-010  0.9118800E+02  0.7816164E-02  0.1184000E+00
        -11   -1    0    0    0    0  0.00000000000E+00  0.00000000000E+00  0.45593999997E+02  0.45594000000E+02  0.51100000000E-03 0. -1.
         11   -1    0    0    0    0 -0.00000000000E+00 -0.00000000000E+00 -0.45593999997E+02  0.45594000000E+02  0.51100000000E-03 0.  1.
         23    2    1    2    0    0  0.00000000000E+00 -0.88817841970E-15  0.00000000000E+00  0.91188000000E+02  0.91188000000E+02 0.  0.
    9900012    2    3    3    0    0 -0.27766693271E+02  0.53116178963E+01  0.32930543771E+02  0.47787271285E+02  0.20000001097E+02 0.  0.
        -12    1    3    3    0    0  0.27766693271E+02 -0.53116178963E+01 -0.32930543771E+02  0.43400728715E+02  0.00000000000E+00 0.  1.
         11    1    4    4    0    0 -0.13208480813E+02  0.18456758430E+01  0.80952510302E+01  0.15601396546E+02  0.51100000000E-03 0.  1.
        -11    1    4    4    0    0 -0.61380742538E+01  0.27159503976E+00  0.41515793236E+00  0.61580902706E+01  0.51100000000E-03 0. -1.
         12    1    4    4    0    0 -0.84201382049E+01  0.31943470135E+01  0.24420134809E+02  0.26027784468E+02  0.00000000000E+00 0. -1.
</event>
<event>
 8    1  0.2994958E-010  0.9118800E+02  0.7816164E-02  0.1184000E+00
        -11   -1    0    0    0    0  0.00000000000E+00  0.00000000000E+00  0.45593999997E+02  0.45594000000E+02  0.51100000000E-03 0. -1.
         11   -1    0    0    0    0 -0.00000000000E+00 -0.00000000000E+00 -0.45593999997E+02  0.45594000000E+02  0.51100000000E-03 0.  1.
         23    2    1    2    0    0  0.00000000000E+00 -0.35527136788E-14  0.00000000000E+00  0.91188000000E+02  0.91188000000E+02 0.  0.
    9900012    2    3    3    0    0 -0.18397794640E+02  0.28778989160E+02  0.26775251289E+02  0.47787272515E+02  0.20000006703E+02 0.  0.
        -12    1    3    3    0    0  0.18397794640E+02 -0.28778989160E+02 -0.26775251289E+02  0.43400727485E+02  0.00000000000E+00 0.  1.
         11    1    4    4    0    0 -0.89068523528E+01  0.61875997745E+01  0.83775055229E+01  0.13704050819E+02  0.51100000000E-03 0. -1.
        -11    1    4    4    0    0 -0.82591420918E+01  0.25975921099E+01  0.57159514683E+01  0.10374633213E+02  0.51100000000E-03 0.  1.
         12    1    4    4    0    0 -0.12318001951E+01  0.19993797276E+02  0.12681794298E+02  0.23708588482E+02  0.00000000000E+00 0. -1.
</event>
<event>
 8    1  0.2994958E-010  0.9118800E+02  0.7816164E-02  0.1184000E+00
        -11   -1    0    0    0    0  0.00000000000E+00  0.00000000000E+00  0.45593999997E+02  0.45594000000E+02  0.51100000000E-03 0. -1.
         11   -1    0    0    0    0 -0.00000000000E+00 -0.00000000000E+00 -0.45593999997E+02  0.45594000000E+02  0.51100000000E-03 0.  1.
         23    2    1    2    0    0 -0.88817841970E-15  0.71054273576E-14  0.17763568394E-14  0.91188000000E+02  0.91188000000E+02 0.  0.
    9900012    2    3    3    0    0 -0.58078927373E+01 -0.41136009523E+02 -0.12558672144E+02  0.47787272546E+02  0.20000006846E+02 0.  0.
         12    1    3    3    0    0  0.58078927373E+01  0.41136009523E+02  0.12558672144E+02  0.43400727454E+02  0.00000000000E+00 0. -1.
         11    1    4    4    0    0  0.23613018780E+01 -0.12343849963E+02 -0.83068652933E+01  0.15064872709E+02  0.51100000000E-03 0. -1.
        -11    1    4    4    0    0  0.20421601975E+01 -0.15716903515E+02 -0.17683036946E+01  0.15947362559E+02  0.51100000000E-03 0.  1.
         12    1    4    4    0    0 -0.10211354813E+02 -0.13075256044E+02 -0.24835031563E+01  0.16775037278E+02  0.00000000000E+00 0. -1.
</event>
<event>
 8    1  0.2994958E-010  0.9118800E+02  0.7816164E-02  0.1184000E+00
        -11   -1    0    0    0    0  0.00000000000E+00  0.00000000000E+00  0.45593999997E+02  0.45594000000E+02  0.51100000000E-03 0. -1.
         11   -1    0    0    0    0 -0.00000000000E+00 -0.00000000000E+00 -0.45593999997E+02  0.45594000000E+02  0.51100000000E-03 0.  1.
         23    2    1    2    0    0  0.00000000000E+00  0.00000000000E+00 -0.71054273576E-14  0.91188000000E+02  0.91188000000E+02 0.  0.
    9900012    2    3    3    0    0 -0.66396898231E+01 -0.17147157407E+02 -0.39313009976E+02  0.47787271418E+02  0.20000001701E+02 0.  0.
         12    1    3    3    0    0  0.66396898231E+01  0.17147157407E+02  0.39313009976E+02  0.43400728582E+02  0.00000000000E+00 0. -1.
         11    1    4    4    0    0  0.39662286414E+01 -0.27901363056E+01 -0.19452444987E+01  0.52249216894E+01  0.51100000000E-03 0. -1.
        -11    1    4    4    0    0 -0.61384425217E+00 -0.76578696571E+01 -0.95625027092E+01  0.12266263929E+02  0.51100000000E-03 0.  1.
        -12    1    4    4    0    0 -0.99920742123E+01 -0.66991514448E+01 -0.27805262768E+02  0.30296085799E+02  0.00000000000E+00 0.  1.
</event>
<event>
 8    1  0.2994958E-010  0.9118800E+02  0.7816164E-02  0.1184000E+00
        -11   -1    0    0    0    0  0.00000000000E+00  0.00000000000E+00  0.45593999997E+02  0.45594000000E+02  0.51100000000E-03 0. -1.
         11   -1    0    0    0    0 -0.00000000000E+00 -0.00000000000E+00 -0.45593999997E+02  0.45594000000E+02  0.51100000000E-03 0.  1.
         23    2    1    2    0    0  0.00000000000E+00  0.00000000000E+00 -0.35527136788E-14  0.91188000000E+02  0.91188000000E+02 0.  0.
    9900012    2    3    3    0    0  0.21761239925E+02 -0.26322525082E+02  0.26780509856E+02  0.47787278832E+02  0.20000035507E+02 0.  0.
        -12    1    3    3    0    0 -0.21761239925E+02  0.26322525082E+02 -0.26780509856E+02  0.43400721168E+02  0.00000000000E+00 0.  1.
         11    1    4    4    0    0 -0.13602985997E+01 -0.34037437761E+00 -0.81387204177E+00  0.16213127270E+01  0.51100000000E-03 0.  1.
        -11    1    4    4    0    0  0.14425327761E+02 -0.12575496722E+02  0.22177152454E+02  0.29292649078E+02  0.51100000000E-03 0. -1.
         12    1    4    4    0    0  0.86962107638E+01 -0.13406653982E+02  0.54172294441E+01  0.16873317027E+02  0.00000000000E+00 0. -1.
</event>
<event>
 8    1  0.2994958E-010  0.9118800E+02  0.7816164E-02  0.1184000E+00
        -11   -1    0    0    0    0  0.00000000000E+00  0.00000000000E+00  0.45593999997E+02  0.45594000000E+02  0.51100000000E-03 0. -1.
         11   -1    0    0    0    0 -0.00000000000E+00 -0.00000000000E+00 -0.45593999997E+02  0.45594000000E+02  0.51100000000E-03 0.  1.
         23    2    1    2    0    0  0.00000000000E+00 -0.35527136788E-14  0.00000000000E+00  0.91188000000E+02  0.91188000000E+02 0.  0.
    9900012    2    3    3    0    0  0.14085579569E+02 -0.22034954600E+02 -0.34636401476E+02  0.47787273241E+02  0.20000010015E+02 0.  0.
         12    1    3    3    0    0 -0.14085579569E+02  0.22034954600E+02  0.34636401476E+02  0.43400726759E+02  0.00000000000E+00 0. -1.
         11    1    4    4    0    0  0.23172520910E+01 -0.10434366518E+02 -0.96575678313E+01  0.14405355898E+02  0.51100000000E-03 0.  1.
        -11    1    4    4    0    0  0.75004839736E+01 -0.93744570385E+01 -0.25839158296E+02  0.28492100771E+02  0.51100000000E-03 0. -1.
         12    1    4    4    0    0  0.42678435041E+01 -0.22261310436E+01  0.86032465167E+00  0.48898165718E+01  0.00000000000E+00 0. -1.
</event>
<event>
 8    1  0.2994958E-010  0.9118800E+02  0.7816164E-02  0.1184000E+00
        -11   -1    0    0    0    0  0.00000000000E+00  0.00000000000E+00  0.45593999997E+02  0.45594000000E+02  0.51100000000E-03 0. -1.
         11   -1    0    0    0    0 -0.00000000000E+00 -0.00000000000E+00 -0.45593999997E+02  0.45594000000E+02  0.51100000000E-03 0.  1.
         23    2    1    2    0    0  0.44408920985E-15  0.88817841970E-15 -0.71054273576E-14  0.91188000000E+02  0.91188000000E+02 0.  0.
    9900012    2    3    3    0    0 -0.13090425119E+01 -0.54473368061E+01  0.43037614651E+02  0.47787270220E+02  0.19999996241E+02 0.  0.
        -12    1    3    3    0    0  0.13090425119E+01  0.54473368061E+01 -0.43037614651E+02  0.43400729780E+02  0.00000000000E+00 0.  1.
         11    1    4    4    0    0 -0.44318592348E+01 -0.14759999386E+01  0.16974549029E+02  0.17605546487E+02  0.51100000000E-03 0. -1.
        -11    1    4    4    0    0  0.22812596594E+00 -0.88803142796E+00  0.25934379163E+02  0.25950581190E+02  0.51100000000E-03 0.  1.
        -12    1    4    4    0    0  0.28946907569E+01 -0.30833054396E+01  0.12868645886E+00  0.42311425427E+01  0.00000000000E+00 0.  1.
</event>
<event>
 8    1  0.2994958E-010  0.9118800E+02  0.7816164E-02  0.1184000E+00
        -11   -1    0    0    0    0  0.00000000000E+00  0.00000000000E+00  0.45593999997E+02  0.45594000000E+02  0.51100000000E-03 0. -1.
         11   -1    0    0    0    0 -0.00000000000E+00 -0.00000000000E+00 -0.45593999997E+02  0.45594000000E+02  0.51100000000E-03 0.  1.
         23    2    1    2    0    0  0.00000000000E+00  0.17763568394E-14  0.00000000000E+00  0.91188000000E+02  0.91188000000E+02 0.  0.
    9900012    2    3    3    0    0  0.12326891320E+02  0.15843038826E+02 -0.38479471532E+02  0.47787264312E+02  0.19999969303E+02 0.  0.
         12    1    3    3    0    0 -0.12326891320E+02 -0.15843038826E+02  0.38479471532E+02  0.43400735688E+02  0.00000000000E+00 0. -1.
         11    1    4    4    0    0  0.69013562890E+01  0.37988380554E+01 -0.25556808138E+01  0.82819921445E+01  0.51100000000E-03 0. -1.
        -11    1    4    4    0    0  0.45992937946E+01  0.83389602867E+01 -0.12185689098E+02  0.15465535268E+02  0.51100000000E-03 0.  1.
        -12    1    4    4    0    0  0.82624123667E+00  0.37052404843E+01 -0.23738101621E+02  0.24039736899E+02  0.00000000000E+00 0.  1.
</event>
<event>
 8    1  0.2994958E-010  0.9118800E+02  0.7816164E-02  0.1184000E+00
        -11   -1    0    0    0    0  0.00000000000E+00  0.00000000000E+00  0.45593999997E+02  0.45594000000E+02  0.51100000000E-03 0. -1.
         11   -1    0    0    0    0 -0.00000000000E+00 -0.00000000000E+00 -0.45593999997E+02  0.45594000000E+02  0.51100000000E-03 0.  1.
         23    2    1    2    0    0  0.35527136788E-14  0.00000000000E+00  0.71054273576E-14  0.91188000000E+02  0.91188000000E+02 0.  0.
    9900012    2    3    3    0    0 -0.22907898957E+02  0.14223561169E+02 -0.34007963088E+02  0.47787273274E+02  0.20000010165E+02 0.  0.
         12    1    3    3    0    0  0.22907898957E+02 -0.14223561169E+02  0.34007963088E+02  0.43400726726E+02  0.00000000000E+00 0. -1.
         11    1    4    4    0    0 -0.37441974949E+00  0.33823256327E+01 -0.13800387861E+02  0.14213761719E+02  0.51100000000E-03 0.  1.
        -11    1    4    4    0    0 -0.13668209981E+01  0.44486066125E+01 -0.42849954744E+01  0.63260957082E+01  0.51100000000E-03 0. -1.
        -12    1    4    4    0    0 -0.21166658210E+02  0.63926289242E+01 -0.15922579753E+02  0.27247415846E+02  0.00000000000E+00 0.  1.
</event>
<event>
 8    1  0.2994958E-010  0.9118800E+02  0.7816164E-02  0.1184000E+00
        -11   -1    0    0    0    0  0.00000000000E+00  0.00000000000E+00  0.45593999997E+02  0.45594000000E+02  0.51100000000E-03 0. -1.
         11   -1    0    0    0    0 -0.00000000000E+00 -0.00000000000E+00 -0.45593999997E+02  0.45594000000E+02  0.51100000000E-03 0.  1.
         23    2    1    2    0    0  0.00000000000E+00  0.00000000000E+00  0.00000000000E+00  0.91188000000E+02  0.91188000000E+02 0.  0.
    9900012    2    3    3    0    0  0.15442121065E+02  0.39939967461E+02  0.70684682159E+01  0.47787270205E+02  0.19999996173E+02 0.  0.
        -12    1    3    3    0    0 -0.15442121065E+02 -0.39939967461E+02 -0.70684682159E+01  0.43400729795E+02  0.00000000000E+00 0.  1.
         11    1    4    4    0    0  0.10496986412E+02  0.12415076755E+02  0.23155641131E+01  0.16422018511E+02  0.51100000000E-03 0.  1.
        -11    1    4    4    0    0  0.48370637671E+01  0.16418578128E+01  0.11039438414E+01  0.52260477639E+01  0.51100000000E-03 0. -1.
         12    1    4    4    0    0  0.10807088611E+00  0.25883032894E+02  0.36489602614E+01  0.26139203930E+02  0.00000000000E+00 0. -1.
</event>
<event>
 8    1  0.2994958E-010  0.9118800E+02  0.7816164E-02  0.1184000E+00
        -11   -1    0    0    0    0  0.00000000000E+00  0.00000000000E+00  0.45593999997E+02  0.45594000000E+02  0.51100000000E-03 0. -1.
         11   -1    0    0    0    0 -0.00000000000E+00 -0.00000000000E+00 -0.45593999997E+02  0.45594000000E+02  0.51100000000E-03 0.  1.
         23    2    1    2    0    0  0.00000000000E+00  0.00000000000E+00  0.00000000000E+00  0.91188000000E+02  0.91188000000E+02 0.  0.
    9900012    2    3    3    0    0  0.21508818220E+02 -0.70120135366E+01  0.37038157663E+02  0.47787277447E+02  0.20000029191E+02 0.  0.
        -12    1    3    3    0    0 -0.21508818220E+02  0.70120135366E+01 -0.37038157663E+02  0.43400722553E+02  0.00000000000E+00 0.  1.
         11    1    4    4    0    0 -0.13770026826E+01 -0.40352213771E+01  0.52195650533E+01  0.67396593057E+01  0.51100000000E-03 0. -1.
        -11    1    4    4    0    0  0.50709017257E+00 -0.25738697922E+01  0.69899527502E+00  0.27148739945E+01  0.51100000000E-03 0.  1.
        -12    1    4    4    0    0  0.22378730730E+02 -0.40292236735E+00  0.31119597335E+02  0.38332744147E+02  0.00000000000E+00 0.  1.
</event>
<event>
 8    1  0.2994958E-010  0.9118800E+02  0.7816164E-02  0.1184000E+00
        -11   -1    0    0    0    0  0.00000000000E+00  0.00000000000E+00  0.45593999997E+02  0.45594000000E+02  0.51100000000E-03 0.  1.
         11   -1    0    0    0    0 -0.00000000000E+00 -0.00000000000E+00 -0.45593999997E+02  0.45594000000E+02  0.51100000000E-03 0. -1.
         23    2    1    2    0    0 -0.35527136788E-14  0.71054273576E-14  0.44408920985E-15  0.91188000000E+02  0.91188000000E+02 0.  0.
    9900012    2    3    3    0    0 -0.29289563863E+02  0.32003622928E+02  0.12288265205E+01  0.47787303618E+02  0.20000148517E+02 0.  0.
        -12    1    3    3    0    0  0.29289563863E+02 -0.32003622928E+02 -0.12288265205E+01  0.43400696382E+02  0.00000000000E+00 0.  1.
         11    1    4    4    0    0 -0.78452461024E+01  0.37000713213E+01 -0.17652894379E+01  0.88518168333E+01  0.51100000000E-03 0. -1.
        -11    1    4    4    0    0  0.25155475885E+01  0.19073188351E+01 -0.46937754799E-01  0.31572215986E+01  0.51100000000E-03 0.  1.
         12    1    4    4    0    0 -0.23959865349E+02  0.26396232771E+02  0.30410537132E+01  0.35778265186E+02  0.00000000000E+00 0. -1.
</event>
<event>
 8    1  0.2994958E-010  0.9118800E+02  0.7816164E-02  0.1184000E+00
        -11   -1    0    0    0    0  0.00000000000E+00  0.00000000000E+00  0.45593999997E+02  0.45594000000E+02  0.51100000000E-03 0. -1.
         11   -1    0    0    0    0 -0.00000000000E+00 -0.00000000000E+00 -0.45593999997E+02  0.45594000000E+02  0.51100000000E-03 0.  1.
         23    2    1    2    0    0  0.00000000000E+00  0.00000000000E+00  0.00000000000E+00  0.91188000000E+02  0.91188000000E+02 0.  0.
    9900012    2    3    3    0    0 -0.23002820563E+02 -0.89326485969E+01 -0.35702964284E+02  0.47787267017E+02  0.19999981636E+02 0.  0.
         12    1    3    3    0    0  0.23002820563E+02  0.89326485969E+01  0.35702964284E+02  0.43400732983E+02  0.00000000000E+00 0. -1.
         11    1    4    4    0    0 -0.47802249346E+01  0.36120365312E+01 -0.52888675635E+01  0.79918382550E+01  0.51100000000E-03 0. -1.
        -11    1    4    4    0    0 -0.49238324283E+01  0.13663000835E+01 -0.12495805769E+02  0.13500224582E+02  0.51100000000E-03 0.  1.
         12    1    4    4    0    0 -0.13298763200E+02 -0.13910985212E+02 -0.17918290952E+02  0.26295204180E+02  0.00000000000E+00 0. -1.
</event>
<event>
 8    1  0.2994958E-010  0.9118800E+02  0.7816164E-02  0.1184000E+00
        -11   -1    0    0    0    0  0.00000000000E+00  0.00000000000E+00  0.45593999997E+02  0.45594000000E+02  0.51100000000E-03 0. -1.
         11   -1    0    0    0    0 -0.00000000000E+00 -0.00000000000E+00 -0.45593999997E+02  0.45594000000E+02  0.51100000000E-03 0.  1.
         23    2    1    2    0    0 -0.44408920985E-15  0.00000000000E+00  0.00000000000E+00  0.91188000000E+02  0.91188000000E+02 0.  0.
    9900012    2    3    3    0    0 -0.36990182895E+01 -0.17036694063E+02  0.39745332068E+02  0.47787273023E+02  0.20000009021E+02 0.  0.
        -12    1    3    3    0    0  0.36990182895E+01  0.17036694063E+02 -0.39745332068E+02  0.43400726977E+02  0.00000000000E+00 0.  1.
         11    1    4    4    0    0  0.37279295270E+01 -0.10664968586E+01  0.86437938488E+01  0.94736501133E+01  0.51100000000E-03 0. -1.
        -11    1    4    4    0    0  0.31755933251E+01 -0.24622061953E+01  0.19176299897E+01  0.44524327455E+01  0.51100000000E-03 0.  1.
         12    1    4    4    0    0 -0.10602541142E+02 -0.13507991009E+02  0.29183908230E+02  0.33861190164E+02  0.00000000000E+00 0. -1.
</event>
<event>
 8    1  0.2994958E-010  0.9118800E+02  0.7816164E-02  0.1184000E+00
        -11   -1    0    0    0    0  0.00000000000E+00  0.00000000000E+00  0.45593999997E+02  0.45594000000E+02  0.51100000000E-03 0. -1.
         11   -1    0    0    0    0 -0.00000000000E+00 -0.00000000000E+00 -0.45593999997E+02  0.45594000000E+02  0.51100000000E-03 0.  1.
         23    2    1    2    0    0 -0.10658141036E-13  0.35527136788E-14  0.44408920985E-15  0.91188000000E+02  0.91188000000E+02 0.  0.
    9900012    2    3    3    0    0  0.30884403977E+02 -0.30361649342E+02 -0.28190442797E+01  0.47787272236E+02  0.20000005434E+02 0.  0.
        -12    1    3    3    0    0 -0.30884403977E+02  0.30361649342E+02  0.28190442797E+01  0.43400727764E+02  0.00000000000E+00 0.  1.
         11    1    4    4    0    0  0.83393649496E+01 -0.76737931147E+01  0.14976594407E+01  0.11431320684E+02  0.51100000000E-03 0. -1.
        -11    1    4    4    0    0  0.19800972047E+02 -0.19898529501E+02 -0.97003208091E+01  0.29700609327E+02  0.51100000000E-03 0.  1.
         12    1    4    4    0    0  0.27440669807E+01 -0.27893267256E+01  0.53836170886E+01  0.66553422251E+01  0.00000000000E+00 0. -1.
</event>
<event>
 8    1  0.2994958E-010  0.9118800E+02  0.7816164E-02  0.1184000E+00
        -11   -1    0    0    0    0  0.00000000000E+00  0.00000000000E+00  0.45593999997E+02  0.45594000000E+02  0.51100000000E-03 0. -1.
         11   -1    0    0    0    0 -0.00000000000E+00 -0.00000000000E+00 -0.45593999997E+02  0.45594000000E+02  0.51100000000E-03 0.  1.
         23    2    1    2    0    0 -0.35527136788E-14  0.00000000000E+00  0.71054273576E-14  0.91188000000E+02  0.91188000000E+02 0.  0.
    9900012    2    3    3    0    0 -0.18098221988E+02  0.16874866962E+02  0.35655528336E+02  0.47787268727E+02  0.19999989435E+02 0.  0.
        -12    1    3    3    0    0  0.18098221988E+02 -0.16874866962E+02 -0.35655528336E+02  0.43400731273E+02  0.00000000000E+00 0.  1.
         11    1    4    4    0    0 -0.19378905215E+02  0.12581018491E+02  0.35998710815E+02  0.42775357091E+02  0.51100000000E-03 0. -1.
        -11    1    4    4    0    0 -0.29436211649E-01  0.41991630421E+00  0.67692076387E+00  0.79713121554E+00  0.51100000000E-03 0.  1.
        -12    1    4    4    0    0  0.13101194388E+01  0.38739321661E+01 -0.10201032429E+01  0.42147804211E+01  0.00000000000E+00 0.  1.
</event>
<event>
 8    1  0.2994958E-010  0.9118800E+02  0.7816164E-02  0.1184000E+00
        -11   -1    0    0    0    0  0.00000000000E+00  0.00000000000E+00  0.45593999997E+02  0.45594000000E+02  0.51100000000E-03 0. -1.
         11   -1    0    0    0    0 -0.00000000000E+00 -0.00000000000E+00 -0.45593999997E+02  0.45594000000E+02  0.51100000000E-03 0.  1.
         23    2    1    2    0    0  0.00000000000E+00  0.00000000000E+00  0.00000000000E+00  0.91188000000E+02  0.91188000000E+02 0.  0.
    9900012    2    3    3    0    0 -0.35384350015E+02  0.52923198178E+01  0.24567506653E+02  0.47787271225E+02  0.20000000824E+02 0.  0.
        -12    1    3    3    0    0  0.35384350015E+02 -0.52923198178E+01 -0.24567506653E+02  0.43400728775E+02  0.00000000000E+00 0.  1.
         11    1    4    4    0    0 -0.25577845802E+01 -0.16410301736E+01 -0.67815301089E+00  0.31137009742E+01  0.51100000000E-03 0.  1.
        -11    1    4    4    0    0 -0.28468628319E+02  0.10955625276E+02  0.23454293410E+02  0.38478466747E+02  0.51100000000E-03 0. -1.
         12    1    4    4    0    0 -0.43579371159E+01 -0.40222752844E+01  0.17913662532E+01  0.61951035038E+01  0.00000000000E+00 0. -1.
</event>
<event>
 8    1  0.2994958E-010  0.9118800E+02  0.7816164E-02  0.1184000E+00
        -11   -1    0    0    0    0  0.00000000000E+00  0.00000000000E+00  0.45593999997E+02  0.45594000000E+02  0.51100000000E-03 0. -1.
         11   -1    0    0    0    0 -0.00000000000E+00 -0.00000000000E+00 -0.45593999997E+02  0.45594000000E+02  0.51100000000E-03 0.  1.
         23    2    1    2    0    0  0.00000000000E+00 -0.44408920985E-15  0.00000000000E+00  0.91188000000E+02  0.91188000000E+02 0.  0.
    9900012    2    3    3    0    0  0.29092579296E+02  0.37135115941E+01  0.31991483751E+02  0.47787269925E+02  0.19999994897E+02 0.  0.
        -12    1    3    3    0    0 -0.29092579296E+02 -0.37135115941E+01 -0.31991483751E+02  0.43400730075E+02  0.00000000000E+00 0.  1.
         11    1    4    4    0    0  0.23284832748E+01  0.71576228710E+01  0.52709614661E+01  0.91889300010E+01  0.51100000000E-03 0. -1.
        -11    1    4    4    0    0  0.29509282471E+01  0.95534552605E+00  0.96987661963E+00  0.32498189968E+01  0.51100000000E-03 0.  1.
         12    1    4    4    0    0  0.23813167774E+02 -0.43994568030E+01  0.25750645665E+02  0.35348520927E+02  0.00000000000E+00 0. -1.
</event>
<event>
 8    1  0.2994958E-010  0.9118800E+02  0.7816164E-02  0.1184000E+00
        -11   -1    0    0    0    0  0.00000000000E+00  0.00000000000E+00  0.45593999997E+02  0.45594000000E+02  0.51100000000E-03 0. -1.
         11   -1    0    0    0    0 -0.00000000000E+00 -0.00000000000E+00 -0.45593999997E+02  0.45594000000E+02  0.51100000000E-03 0.  1.
         23    2    1    2    0    0  0.35527136788E-14  0.00000000000E+00  0.00000000000E+00  0.91188000000E+02  0.91188000000E+02 0.  0.
    9900012    2    3    3    0    0  0.18630500591E+02 -0.17246169167E+02  0.35200815546E+02  0.47787270533E+02  0.19999997666E+02 0.  0.
        -12    1    3    3    0    0 -0.18630500591E+02  0.17246169167E+02 -0.35200815546E+02  0.43400729467E+02  0.00000000000E+00 0.  1.
         11    1    4    4    0    0 -0.89510123442E+00  0.17644210617E+01  0.38100471862E+00  0.20148331840E+01  0.51100000000E-03 0. -1.
        -11    1    4    4    0    0  0.15602481647E+00  0.61718146325E+00 -0.60607735887E+00  0.87896912801E+00  0.51100000000E-03 0.  1.
         12    1    4    4    0    0  0.19369577009E+02 -0.19627771692E+02  0.35425888186E+02  0.44893468221E+02  0.00000000000E+00 0. -1.
</event>
<event>
 8    1  0.2994958E-010  0.9118800E+02  0.7816164E-02  0.1184000E+00
        -11   -1    0    0    0    0  0.00000000000E+00  0.00000000000E+00  0.45593999997E+02  0.45594000000E+02  0.51100000000E-03 0. -1.
         11   -1    0    0    0    0 -0.00000000000E+00 -0.00000000000E+00 -0.45593999997E+02  0.45594000000E+02  0.51100000000E-03 0.  1.
         23    2    1    2    0    0  0.00000000000E+00  0.17763568394E-14  0.00000000000E+00  0.91188000000E+02  0.91188000000E+02 0.  0.
    9900012    2    3    3    0    0  0.18355530705E+02  0.14643347941E+02 -0.36500261828E+02  0.47787282726E+02  0.20000053260E+02 0.  0.
         12    1    3    3    0    0 -0.18355530705E+02 -0.14643347941E+02  0.36500261828E+02  0.43400717274E+02  0.00000000000E+00 0. -1.
         11    1    4    4    0    0  0.47048428701E+01  0.60469936626E+01 -0.16575450396E+02  0.18260537640E+02  0.51100000000E-03 0. -1.
        -11    1    4    4    0    0  0.59335889387E+01  0.62447279767E+01 -0.19649310257E+02  0.21454591561E+02  0.51100000000E-03 0.  1.
         12    1    4    4    0    0  0.77170988958E+01  0.23516263019E+01 -0.27550117450E+00  0.80721535249E+01  0.00000000000E+00 0. -1.
</event>
<event>
 8    1  0.2994958E-010  0.9118800E+02  0.7816164E-02  0.1184000E+00
        -11   -1    0    0    0    0  0.00000000000E+00  0.00000000000E+00  0.45593999997E+02  0.45594000000E+02  0.51100000000E-03 0. -1.
         11   -1    0    0    0    0 -0.00000000000E+00 -0.00000000000E+00 -0.45593999997E+02  0.45594000000E+02  0.51100000000E-03 0.  1.
         23    2    1    2    0    0  0.00000000000E+00  0.00000000000E+00  0.00000000000E+00  0.91188000000E+02  0.91188000000E+02 0.  0.
    9900012    2    3    3    0    0 -0.21000469225E+02 -0.28673501987E+02 -0.24908468601E+02  0.47787294569E+02  0.20000107257E+02 0.  0.
         12    1    3    3    0    0  0.21000469225E+02  0.28673501987E+02  0.24908468601E+02  0.43400705431E+02  0.00000000000E+00 0. -1.
         11    1    4    4    0    0 -0.33597450563E+00  0.23558641609E+01  0.59235201116E-01  0.23804377503E+01  0.51100000000E-03 0. -1.
        -11    1    4    4    0    0 -0.40475362016E+01 -0.35971758972E+01 -0.62597226983E+01  0.82768564237E+01  0.51100000000E-03 0.  1.
        -12    1    4    4    0    0 -0.16616958518E+02 -0.27432190251E+02 -0.18707981104E+02  0.37130000395E+02  0.00000000000E+00 0.  1.
</event>
<event>
 8    1  0.2994958E-010  0.9118800E+02  0.7816164E-02  0.1184000E+00
        -11   -1    0    0    0    0  0.00000000000E+00  0.00000000000E+00  0.45593999997E+02  0.45594000000E+02  0.51100000000E-03 0. -1.
         11   -1    0    0    0    0 -0.00000000000E+00 -0.00000000000E+00 -0.45593999997E+02  0.45594000000E+02  0.51100000000E-03 0.  1.
         23    2    1    2    0    0  0.00000000000E+00 -0.17763568394E-14  0.00000000000E+00  0.91188000000E+02  0.91188000000E+02 0.  0.
    9900012    2    3    3    0    0 -0.11948064616E+02  0.11725758128E+02 -0.40042147317E+02  0.47787271740E+02  0.20000003173E+02 0.  0.
         12    1    3    3    0    0  0.11948064616E+02 -0.11725758128E+02  0.40042147317E+02  0.43400728260E+02  0.00000000000E+00 0. -1.
         11    1    4    4    0    0 -0.48808978045E+00  0.61548530142E+01 -0.14979025666E+02  0.16201594286E+02  0.51100000000E-03 0. -1.
        -11    1    4    4    0    0 -0.53965592715E+01  0.14273224303E+01 -0.23398826698E+02  0.24055460761E+02  0.51100000000E-03 0.  1.
         12    1    4    4    0    0 -0.60634155643E+01  0.41435826832E+01 -0.16642949523E+01  0.75302166932E+01  0.00000000000E+00 0. -1.
</event>
<event>
 8    1  0.2994958E-010  0.9118800E+02  0.7816164E-02  0.1184000E+00
        -11   -1    0    0    0    0  0.00000000000E+00  0.00000000000E+00  0.45593999997E+02  0.45594000000E+02  0.51100000000E-03 0. -1.
         11   -1    0    0    0    0 -0.00000000000E+00 -0.00000000000E+00 -0.45593999997E+02  0.45594000000E+02  0.51100000000E-03 0.  1.
         23    2    1    2    0    0  0.00000000000E+00  0.00000000000E+00  0.71054273576E-14  0.91188000000E+02  0.91188000000E+02 0.  0.
    9900012    2    3    3    0    0  0.95312472923E+01  0.21784434904E+02 -0.36307256233E+02  0.47787272653E+02  0.20000007334E+02 0.  0.
         12    1    3    3    0    0 -0.95312472923E+01 -0.21784434904E+02  0.36307256233E+02  0.43400727347E+02  0.00000000000E+00 0. -1.
         11    1    4    4    0    0  0.52093591463E+01  0.40160196060E+01 -0.17339343630E+01  0.68023793504E+01  0.51100000000E-03 0. -1.
        -11    1    4    4    0    0 -0.32619740421E+01  0.25581558628E+01 -0.29643991440E+01  0.50963024455E+01  0.51100000000E-03 0.  1.
        -12    1    4    4    0    0  0.75838621881E+01  0.15210259436E+02 -0.31608922726E+02  0.35888590857E+02  0.00000000000E+00 0.  1.
</event>
<event>
 8    1  0.2994958E-010  0.9118800E+02  0.7816164E-02  0.1184000E+00
        -11   -1    0    0    0    0  0.00000000000E+00  0.00000000000E+00  0.45593999997E+02  0.45594000000E+02  0.51100000000E-03 0. -1.
         11   -1    0    0    0    0 -0.00000000000E+00 -0.00000000000E+00 -0.45593999997E+02  0.45594000000E+02  0.51100000000E-03 0.  1.
         23    2    1    2    0    0  0.17763568394E-14  0.00000000000E+00  0.00000000000E+00  0.91188000000E+02  0.91188000000E+02 0.  0.
    9900012    2    3    3    0    0  0.94208644451E+01 -0.17918290086E+02 -0.38390176764E+02  0.47787268687E+02  0.19999989252E+02 0.  0.
         12    1    3    3    0    0 -0.94208644451E+01  0.17918290086E+02  0.38390176764E+02  0.43400731313E+02  0.00000000000E+00 0. -1.
         11    1    4    4    0    0  0.27072461829E+01  0.41031576942E+01 -0.56520609803E+01  0.74907194945E+01  0.51100000000E-03 0. -1.
        -11    1    4    4    0    0  0.15815965163E+01 -0.19921473452E+01 -0.58397600714E+01  0.63696857488E+01  0.51100000000E-03 0.  1.
        -12    1    4    4    0    0  0.51320217459E+01 -0.20029300435E+02 -0.26898355713E+02  0.33926863444E+02  0.00000000000E+00 0.  1.
</event>
<event>
 8    1  0.2994958E-010  0.9118800E+02  0.7816164E-02  0.1184000E+00
        -11   -1    0    0    0    0  0.00000000000E+00  0.00000000000E+00  0.45593999997E+02  0.45594000000E+02  0.51100000000E-03 0. -1.
         11   -1    0    0    0    0 -0.00000000000E+00 -0.00000000000E+00 -0.45593999997E+02  0.45594000000E+02  0.51100000000E-03 0.  1.
         23    2    1    2    0    0  0.00000000000E+00  0.00000000000E+00  0.00000000000E+00  0.91188000000E+02  0.91188000000E+02 0.  0.
    9900012    2    3    3    0    0 -0.86515341571E+01  0.34356700784E+02  0.25067745204E+02  0.47787265195E+02  0.19999973328E+02 0.  0.
        -12    1    3    3    0    0  0.86515341571E+01 -0.34356700784E+02 -0.25067745204E+02  0.43400734805E+02  0.00000000000E+00 0.  1.
         11    1    4    4    0    0 -0.63474274165E+01  0.14349223757E+02  0.14219530049E+02  0.21175105486E+02  0.51100000000E-03 0. -1.
        -11    1    4    4    0    0 -0.72794914989E+01  0.16487298234E+02  0.94869313509E+01  0.20367225296E+02  0.51100000000E-03 0.  1.
        -12    1    4    4    0    0  0.49753847584E+01  0.35201787932E+01  0.13612838037E+01  0.62449344131E+01  0.00000000000E+00 0.  1.
</event>
<event>
 8    1  0.2994958E-010  0.9118800E+02  0.7816164E-02  0.1184000E+00
        -11   -1    0    0    0    0  0.00000000000E+00  0.00000000000E+00  0.45593999997E+02  0.45594000000E+02  0.51100000000E-03 0. -1.
         11   -1    0    0    0    0 -0.00000000000E+00 -0.00000000000E+00 -0.45593999997E+02  0.45594000000E+02  0.51100000000E-03 0.  1.
         23    2    1    2    0    0 -0.88817841970E-15  0.00000000000E+00 -0.71054273576E-14  0.91188000000E+02  0.91188000000E+02 0.  0.
    9900012    2    3    3    0    0  0.76092060861E+01 -0.17162650309E+02 -0.39130128027E+02  0.47787268413E+02  0.19999988000E+02 0.  0.
         12    1    3    3    0    0 -0.76092060861E+01  0.17162650309E+02  0.39130128027E+02  0.43400731587E+02  0.00000000000E+00 0. -1.
         11    1    4    4    0    0  0.23007883545E+01 -0.45358169553E+01 -0.11923343681E+02  0.12962769276E+02  0.51100000000E-03 0. -1.
        -11    1    4    4    0    0 -0.34075065860E+01 -0.77886866522E+01 -0.21983887509E+02  0.23570448684E+02  0.51100000000E-03 0.  1.
         12    1    4    4    0    0  0.87159243175E+01 -0.48381467017E+01 -0.52228968373E+01  0.11254050453E+02  0.00000000000E+00 0. -1.
</event>
<event>
 8    1  0.2994958E-010  0.9118800E+02  0.7816164E-02  0.1184000E+00
        -11   -1    0    0    0    0  0.00000000000E+00  0.00000000000E+00  0.45593999997E+02  0.45594000000E+02  0.51100000000E-03 0. -1.
         11   -1    0    0    0    0 -0.00000000000E+00 -0.00000000000E+00 -0.45593999997E+02  0.45594000000E+02  0.51100000000E-03 0.  1.
         23    2    1    2    0    0  0.00000000000E+00  0.00000000000E+00  0.00000000000E+00  0.91188000000E+02  0.91188000000E+02 0.  0.
    9900012    2    3    3    0    0  0.19516661970E+02 -0.26016078875E+02 -0.28738242974E+02  0.47787273466E+02  0.20000011040E+02 0.  0.
         12    1    3    3    0    0 -0.19516661970E+02  0.26016078875E+02  0.28738242974E+02  0.43400726534E+02  0.00000000000E+00 0. -1.
         11    1    4    4    0    0 -0.26630406235E+01  0.60065982525E+00 -0.12709155142E+01  0.30112794778E+01  0.51100000000E-03 0. -1.
        -11    1    4    4    0    0  0.57892834410E+01 -0.38527525665E+01 -0.30774382458E+01  0.76046125159E+01  0.51100000000E-03 0.  1.
        -12    1    4    4    0    0  0.16390419152E+02 -0.22763986134E+02 -0.24389889214E+02  0.37171381472E+02  0.00000000000E+00 0.  1.
</event>
<event>
 8    1  0.2994958E-010  0.9118800E+02  0.7816164E-02  0.1184000E+00
        -11   -1    0    0    0    0  0.00000000000E+00  0.00000000000E+00  0.45593999997E+02  0.45594000000E+02  0.51100000000E-03 0. -1.
         11   -1    0    0    0    0 -0.00000000000E+00 -0.00000000000E+00 -0.45593999997E+02  0.45594000000E+02  0.51100000000E-03 0.  1.
         23    2    1    2    0    0  0.00000000000E+00  0.00000000000E+00  0.00000000000E+00  0.91188000000E+02  0.91188000000E+02 0.  0.
    9900012    2    3    3    0    0 -0.32979941633E+02 -0.97379851570E+01  0.26478640404E+02  0.47787270713E+02  0.19999998488E+02 0.  0.
        -12    1    3    3    0    0  0.32979941633E+02  0.97379851570E+01 -0.26478640404E+02  0.43400729287E+02  0.00000000000E+00 0.  1.
         11    1    4    4    0    0 -0.17266224074E+02 -0.69600072079E+01  0.83208822028E+01  0.20391205825E+02  0.51100000000E-03 0. -1.
        -11    1    4    4    0    0 -0.15535255372E+02 -0.39069375056E+01  0.94191437959E+01  0.18583018868E+02  0.51100000000E-03 0.  1.
        -12    1    4    4    0    0 -0.17846218745E+00  0.11289595564E+01  0.87386144050E+01  0.88130460200E+01  0.00000000000E+00 0.  1.
</event>
<event>
 8    1  0.2994958E-010  0.9118800E+02  0.7816164E-02  0.1184000E+00
        -11   -1    0    0    0    0  0.00000000000E+00  0.00000000000E+00  0.45593999997E+02  0.45594000000E+02  0.51100000000E-03 0. -1.
         11   -1    0    0    0    0 -0.00000000000E+00 -0.00000000000E+00 -0.45593999997E+02  0.45594000000E+02  0.51100000000E-03 0.  1.
         23    2    1    2    0    0  0.35527136788E-14 -0.35527136788E-14  0.00000000000E+00  0.91188000000E+02  0.91188000000E+02 0.  0.
    9900012    2    3    3    0    0 -0.19267698815E+02  0.20612724510E+02  0.32977185618E+02  0.47787269584E+02  0.19999993340E+02 0.  0.
        -12    1    3    3    0    0  0.19267698815E+02 -0.20612724510E+02 -0.32977185618E+02  0.43400730416E+02  0.00000000000E+00 0.  1.
         11    1    4    4    0    0 -0.10117939470E+02  0.48684727752E+01  0.13732494308E+02  0.17738549165E+02  0.51100000000E-03 0. -1.
        -11    1    4    4    0    0  0.70021399039E+00 -0.23030210154E+01  0.11846008138E+01  0.26828128482E+01  0.51100000000E-03 0.  1.
        -12    1    4    4    0    0 -0.98499733349E+01  0.18047272750E+02  0.18060090497E+02  0.27365907571E+02  0.00000000000E+00 0.  1.
</event>
<event>
 8    1  0.2994958E-010  0.9118800E+02  0.7816164E-02  0.1184000E+00
        -11   -1    0    0    0    0  0.00000000000E+00  0.00000000000E+00  0.45593999997E+02  0.45594000000E+02  0.51100000000E-03 0. -1.
         11   -1    0    0    0    0 -0.00000000000E+00 -0.00000000000E+00 -0.45593999997E+02  0.45594000000E+02  0.51100000000E-03 0.  1.
         23    2    1    2    0    0 -0.35527136788E-14  0.00000000000E+00  0.00000000000E+00  0.91188000000E+02  0.91188000000E+02 0.  0.
    9900012    2    3    3    0    0 -0.19781444985E+02  0.85582505477E+01  0.37670601042E+02  0.47787269580E+02  0.19999993323E+02 0.  0.
        -12    1    3    3    0    0  0.19781444985E+02 -0.85582505477E+01 -0.37670601042E+02  0.43400730420E+02  0.00000000000E+00 0.  1.
         11    1    4    4    0    0 -0.15398634008E+02  0.92168764150E+01  0.28998000800E+02  0.34102093643E+02  0.51100000000E-03 0. -1.
        -11    1    4    4    0    0 -0.32222412769E+01  0.98683429501E+00  0.10462022934E+02  0.10991387760E+02  0.51100000000E-03 0.  1.
        -12    1    4    4    0    0 -0.11605696996E+01 -0.16454601623E+01 -0.17894226915E+01  0.26937881769E+01  0.00000000000E+00 0.  1.
</event>
<event>
 8    1  0.3029029E-010  0.9118800E+02  0.7816164E-02  0.1184000E+00
        -11   -1    0    0    0    0  0.00000000000E+00  0.00000000000E+00  0.45593999997E+02  0.45594000000E+02  0.51100000000E-03 0. -1.
         11   -1    0    0    0    0 -0.00000000000E+00 -0.00000000000E+00 -0.45593999997E+02  0.45594000000E+02  0.51100000000E-03 0.  1.
         23    2    1    2    0    0  0.00000000000E+00 -0.35527136788E-14  0.71054273576E-14  0.91188000000E+02  0.91188000000E+02 0.  0.
    9900012    2    3    3    0    0 -0.12876029466E+01 -0.21669290810E+02  0.37581993420E+02  0.47787282092E+02  0.20000050368E+02 0.  0.
        -12    1    3    3    0    0  0.12876029466E+01  0.21669290810E+02 -0.37581993420E+02  0.43400717908E+02  0.00000000000E+00 0.  1.
         11    1    4    4    0    0 -0.37917008979E+00  0.11859857747E+01  0.59456959224E+00  0.13797990709E+01  0.51100000000E-03 0. -1.
        -11    1    4    4    0    0  0.16009777400E+01  0.86763417543E+00 -0.57551923923E+00  0.19097490522E+01  0.51100000000E-03 0.  1.
         12    1    4    4    0    0 -0.25094105968E+01 -0.23722910760E+02  0.37562943067E+02  0.44497733968E+02  0.00000000000E+00 0. -1.
</event>
<event>
 8    1  0.2994958E-010  0.9118800E+02  0.7816164E-02  0.1184000E+00
        -11   -1    0    0    0    0  0.00000000000E+00  0.00000000000E+00  0.45593999997E+02  0.45594000000E+02  0.51100000000E-03 0. -1.
         11   -1    0    0    0    0 -0.00000000000E+00 -0.00000000000E+00 -0.45593999997E+02  0.45594000000E+02  0.51100000000E-03 0.  1.
         23    2    1    2    0    0 -0.26645352591E-14  0.00000000000E+00 -0.71054273576E-14  0.91188000000E+02  0.91188000000E+02 0.  0.
    9900012    2    3    3    0    0 -0.62954339456E+01 -0.25022107577E+02 -0.34898208140E+02  0.47787270887E+02  0.19999999284E+02 0.  0.
         12    1    3    3    0    0  0.62954339456E+01  0.25022107577E+02  0.34898208140E+02  0.43400729113E+02  0.00000000000E+00 0. -1.
         11    1    4    4    0    0 -0.49502532358E+01 -0.54252828419E+01 -0.41696081098E+01  0.84453734709E+01  0.51100000000E-03 0. -1.
        -11    1    4    4    0    0 -0.61118272420E+01 -0.12532586863E+02 -0.26229136874E+02  0.29705012829E+02  0.51100000000E-03 0.  1.
         12    1    4    4    0    0  0.47666465322E+01 -0.70642378721E+01 -0.44994631554E+01  0.96368845880E+01  0.00000000000E+00 0. -1.
</event>
<event>
 8    1  0.2994958E-010  0.9118800E+02  0.7816164E-02  0.1184000E+00
        -11   -1    0    0    0    0  0.00000000000E+00  0.00000000000E+00  0.45593999997E+02  0.45594000000E+02  0.51100000000E-03 0. -1.
         11   -1    0    0    0    0 -0.00000000000E+00 -0.00000000000E+00 -0.45593999997E+02  0.45594000000E+02  0.51100000000E-03 0.  1.
         23    2    1    2    0    0  0.00000000000E+00  0.00000000000E+00 -0.35527136788E-14  0.91188000000E+02  0.91188000000E+02 0.  0.
    9900012    2    3    3    0    0  0.78200545157E+01  0.33324612701E+02 -0.26682206351E+02  0.47787271895E+02  0.20000003878E+02 0.  0.
         12    1    3    3    0    0 -0.78200545157E+01 -0.33324612701E+02  0.26682206351E+02  0.43400728105E+02  0.00000000000E+00 0. -1.
         11    1    4    4    0    0  0.34064025625E+01  0.80189176161E+01 -0.13593251567E+02  0.16145683837E+02  0.51100000000E-03 0.  1.
        -11    1    4    4    0    0 -0.41170536851E+01  0.36435635829E+01 -0.19566095143E+01  0.58355811777E+01  0.51100000000E-03 0. -1.
         12    1    4    4    0    0  0.85307056383E+01  0.21662131502E+02 -0.11132345270E+02  0.25806006880E+02  0.00000000000E+00 0. -1.
</event>
<event>
 8    1  0.2994958E-010  0.9118800E+02  0.7816164E-02  0.1184000E+00
        -11   -1    0    0    0    0  0.00000000000E+00  0.00000000000E+00  0.45593999997E+02  0.45594000000E+02  0.51100000000E-03 0. -1.
         11   -1    0    0    0    0 -0.00000000000E+00 -0.00000000000E+00 -0.45593999997E+02  0.45594000000E+02  0.51100000000E-03 0.  1.
         23    2    1    2    0    0  0.00000000000E+00  0.00000000000E+00  0.00000000000E+00  0.91188000000E+02  0.91188000000E+02 0.  0.
    9900012    2    3    3    0    0 -0.15654137354E+02 -0.27589383670E+02  0.29620891815E+02  0.47787270289E+02  0.19999996556E+02 0.  0.
        -12    1    3    3    0    0  0.15654137354E+02  0.27589383670E+02 -0.29620891815E+02  0.43400729711E+02  0.00000000000E+00 0.  1.
         11    1    4    4    0    0  0.98409402518E+00 -0.13653539576E+00  0.57948346563E+01  0.58793870361E+01  0.51100000000E-03 0. -1.
        -11    1    4    4    0    0 -0.17288293215E+01 -0.90538525153E+01  0.14567659350E+01  0.93318413747E+01  0.51100000000E-03 0.  1.
         12    1    4    4    0    0 -0.14909402057E+02 -0.18398995759E+02  0.22369291223E+02  0.32576041878E+02  0.00000000000E+00 0. -1.
</event>
<event>
 8    1  0.2994958E-010  0.9118800E+02  0.7816164E-02  0.1184000E+00
        -11   -1    0    0    0    0  0.00000000000E+00  0.00000000000E+00  0.45593999997E+02  0.45594000000E+02  0.51100000000E-03 0. -1.
         11   -1    0    0    0    0 -0.00000000000E+00 -0.00000000000E+00 -0.45593999997E+02  0.45594000000E+02  0.51100000000E-03 0.  1.
         23    2    1    2    0    0  0.00000000000E+00  0.00000000000E+00  0.00000000000E+00  0.91188000000E+02  0.91188000000E+02 0.  0.
    9900012    2    3    3    0    0 -0.10103124654E+02 -0.17321246513E+02 -0.38490579195E+02  0.47787269645E+02  0.19999993621E+02 0.  0.
         12    1    3    3    0    0  0.10103124654E+02  0.17321246513E+02  0.38490579195E+02  0.43400730355E+02  0.00000000000E+00 0. -1.
         11    1    4    4    0    0 -0.76656817988E+01 -0.19144944704E+01 -0.13743651662E+02  0.15852946974E+02  0.51100000000E-03 0. -1.
        -11    1    4    4    0    0 -0.37196189904E+01 -0.54912925347E+01 -0.19594868737E+02  0.20686921961E+02  0.51100000000E-03 0.  1.
         12    1    4    4    0    0  0.12821761355E+01 -0.99154595076E+01 -0.51520587965E+01  0.11247400710E+02  0.00000000000E+00 0. -1.
</event>
<event>
 8    1  0.2994958E-010  0.9118800E+02  0.7816164E-02  0.1184000E+00
        -11   -1    0    0    0    0  0.00000000000E+00  0.00000000000E+00  0.45593999997E+02  0.45594000000E+02  0.51100000000E-03 0. -1.
         11   -1    0    0    0    0 -0.00000000000E+00 -0.00000000000E+00 -0.45593999997E+02  0.45594000000E+02  0.51100000000E-03 0.  1.
         23    2    1    2    0    0 -0.35527136788E-14  0.00000000000E+00  0.00000000000E+00  0.91188000000E+02  0.91188000000E+02 0.  0.
    9900012    2    3    3    0    0  0.27664834584E+02  0.29970837384E+02 -0.14833369420E+02  0.47787274034E+02  0.20000013629E+02 0.  0.
         12    1    3    3    0    0 -0.27664834584E+02 -0.29970837384E+02  0.14833369420E+02  0.43400725966E+02  0.00000000000E+00 0. -1.
         11    1    4    4    0    0  0.41275426078E+01 -0.14924720259E+01 -0.55413386837E+01  0.70689826281E+01  0.51100000000E-03 0. -1.
        -11    1    4    4    0    0  0.88865705491E+01  0.16261256585E+02 -0.43973527706E+01  0.19045637650E+02  0.51100000000E-03 0.  1.
        -12    1    4    4    0    0  0.14650721427E+02  0.15202052825E+02 -0.48946779658E+01  0.21672653756E+02  0.00000000000E+00 0.  1.
</event>
<event>
 8    1  0.2994958E-010  0.9118800E+02  0.7816164E-02  0.1184000E+00
        -11   -1    0    0    0    0  0.00000000000E+00  0.00000000000E+00  0.45593999997E+02  0.45594000000E+02  0.51100000000E-03 0. -1.
         11   -1    0    0    0    0 -0.00000000000E+00 -0.00000000000E+00 -0.45593999997E+02  0.45594000000E+02  0.51100000000E-03 0.  1.
         23    2    1    2    0    0  0.00000000000E+00  0.00000000000E+00  0.00000000000E+00  0.91188000000E+02  0.91188000000E+02 0.  0.
    9900012    2    3    3    0    0  0.21788702245E+02 -0.17611920453E+02 -0.33146582582E+02  0.47787271614E+02  0.20000002598E+02 0.  0.
         12    1    3    3    0    0 -0.21788702245E+02  0.17611920453E+02  0.33146582582E+02  0.43400728386E+02  0.00000000000E+00 0. -1.
         11    1    4    4    0    0  0.42836997031E+01  0.15062804996E+01 -0.17319068510E+01  0.48598833002E+01  0.51100000000E-03 0. -1.
        -11    1    4    4    0    0  0.10660182111E+02 -0.17794068007E+02 -0.16647192447E+02  0.26596942597E+02  0.51100000000E-03 0.  1.
         12    1    4    4    0    0  0.68448204312E+01 -0.13241329455E+01 -0.14767483283E+02  0.16330445717E+02  0.00000000000E+00 0. -1.
</event>
<event>
 8    1  0.3019768E-010  0.9118800E+02  0.7816164E-02  0.1184000E+00
        -11   -1    0    0    0    0  0.00000000000E+00  0.00000000000E+00  0.45593999997E+02  0.45594000000E+02  0.51100000000E-03 0. -1.
         11   -1    0    0    0    0 -0.00000000000E+00 -0.00000000000E+00 -0.45593999997E+02  0.45594000000E+02  0.51100000000E-03 0.  1.
         23    2    1    2    0    0  0.00000000000E+00  0.00000000000E+00 -0.35527136788E-14  0.91188000000E+02  0.91188000000E+02 0.  0.
    9900012    2    3    3    0    0 -0.22890838415E+01 -0.30341824772E+02  0.30947649862E+02  0.47787271120E+02  0.20000000346E+02 0.  0.
        -12    1    3    3    0    0  0.22890838415E+01  0.30341824772E+02 -0.30947649862E+02  0.43400728880E+02  0.00000000000E+00 0.  1.
         11    1    4    4    0    0 -0.53160920029E+00 -0.11607371677E+02  0.42150734657E+01  0.12360442151E+02  0.51100000000E-03 0. -1.
        -11    1    4    4    0    0 -0.22785355135E+01 -0.25779740644E+00 -0.65553322024E+00  0.23849334693E+01  0.51100000000E-03 0.  1.
         12    1    4    4    0    0  0.52106087228E+00 -0.18476655688E+02  0.27388109617E+02  0.33041895500E+02  0.00000000000E+00 0. -1.
</event>
<event>
 8    1  0.2994958E-010  0.9118800E+02  0.7816164E-02  0.1184000E+00
        -11   -1    0    0    0    0  0.00000000000E+00  0.00000000000E+00  0.45593999997E+02  0.45594000000E+02  0.51100000000E-03 0. -1.
         11   -1    0    0    0    0 -0.00000000000E+00 -0.00000000000E+00 -0.45593999997E+02  0.45594000000E+02  0.51100000000E-03 0.  1.
         23    2    1    2    0    0 -0.44408920985E-15 -0.17763568394E-14 -0.71054273576E-14  0.91188000000E+02  0.91188000000E+02 0.  0.
    9900012    2    3    3    0    0  0.35526376140E+01  0.15022581018E+02 -0.40562598211E+02  0.47787267885E+02  0.19999985595E+02 0.  0.
         12    1    3    3    0    0 -0.35526376140E+01 -0.15022581018E+02  0.40562598211E+02  0.43400732115E+02  0.00000000000E+00 0. -1.
         11    1    4    4    0    0  0.19793549214E+00  0.17222146387E+02 -0.29675984113E+02  0.34311886249E+02  0.51100000000E-03 0. -1.
        -11    1    4    4    0    0 -0.85844499560E+00  0.11112745795E+01 -0.61987313372E+01  0.63557949506E+01  0.51100000000E-03 0.  1.
        -12    1    4    4    0    0  0.42131471175E+01 -0.33108399477E+01 -0.46878827607E+01  0.71195866854E+01  0.00000000000E+00 0.  1.
</event>
<event>
 8    1  0.2994958E-010  0.9118800E+02  0.7816164E-02  0.1184000E+00
        -11   -1    0    0    0    0  0.00000000000E+00  0.00000000000E+00  0.45593999997E+02  0.45594000000E+02  0.51100000000E-03 0. -1.
         11   -1    0    0    0    0 -0.00000000000E+00 -0.00000000000E+00 -0.45593999997E+02  0.45594000000E+02  0.51100000000E-03 0.  1.
         23    2    1    2    0    0 -0.17763568394E-14  0.35527136788E-14  0.35527136788E-14  0.91188000000E+02  0.91188000000E+02 0.  0.
    9900012    2    3    3    0    0  0.11467605527E+02 -0.28349125207E+02 -0.30796824144E+02  0.47787271274E+02  0.20000001049E+02 0.  0.
         12    1    3    3    0    0 -0.11467605527E+02  0.28349125207E+02  0.30796824144E+02  0.43400728726E+02  0.00000000000E+00 0. -1.
         11    1    4    4    0    0  0.41185161207E+01 -0.20164314341E+02 -0.11246978571E+02  0.23453278558E+02  0.51100000000E-03 0. -1.
        -11    1    4    4    0    0  0.67797253019E+01 -0.10127934525E+02 -0.14812186933E+02  0.19181778200E+02  0.51100000000E-03 0.  1.
        -12    1    4    4    0    0  0.56936410427E+00  0.19431236585E+01 -0.47376586400E+01  0.51522145166E+01  0.00000000000E+00 0.  1.
</event>
<event>
 8    1  0.2994958E-010  0.9118800E+02  0.7816164E-02  0.1184000E+00
        -11   -1    0    0    0    0  0.00000000000E+00  0.00000000000E+00  0.45593999997E+02  0.45594000000E+02  0.51100000000E-03 0. -1.
         11   -1    0    0    0    0 -0.00000000000E+00 -0.00000000000E+00 -0.45593999997E+02  0.45594000000E+02  0.51100000000E-03 0.  1.
         23    2    1    2    0    0  0.00000000000E+00  0.00000000000E+00  0.00000000000E+00  0.91188000000E+02  0.91188000000E+02 0.  0.
    9900012    2    3    3    0    0  0.73373615179E+01 -0.11298902658E+02 -0.41256775886E+02  0.47787266920E+02  0.19999981197E+02 0.  0.
         12    1    3    3    0    0 -0.73373615179E+01  0.11298902658E+02  0.41256775886E+02  0.43400733080E+02  0.00000000000E+00 0. -1.
         11    1    4    4    0    0  0.13549715194E+01 -0.24192949126E+01 -0.11854389792E+02  0.12174378559E+02  0.51100000000E-03 0. -1.
        -11    1    4    4    0    0  0.10437279238E+02 -0.32796128218E+00 -0.15828704265E+02  0.18962917378E+02  0.51100000000E-03 0.  1.
         12    1    4    4    0    0 -0.44548892395E+01 -0.85516464631E+01 -0.13573681829E+02  0.16649970983E+02  0.00000000000E+00 0. -1.
</event>
<event>
 8    1  0.2994958E-010  0.9118800E+02  0.7816164E-02  0.1184000E+00
        -11   -1    0    0    0    0  0.00000000000E+00  0.00000000000E+00  0.45593999997E+02  0.45594000000E+02  0.51100000000E-03 0.  1.
         11   -1    0    0    0    0 -0.00000000000E+00 -0.00000000000E+00 -0.45593999997E+02  0.45594000000E+02  0.51100000000E-03 0. -1.
         23    2    1    2    0    0  0.00000000000E+00  0.00000000000E+00  0.00000000000E+00  0.91188000000E+02  0.91188000000E+02 0.  0.
    9900012    2    3    3    0    0 -0.12515979665E+02 -0.35555777130E+02 -0.21511865631E+02  0.47787269624E+02  0.19999993523E+02 0.  0.
         12    1    3    3    0    0  0.12515979665E+02  0.35555777130E+02  0.21511865631E+02  0.43400730376E+02  0.00000000000E+00 0. -1.
         11    1    4    4    0    0 -0.77035800757E+01 -0.34709390379E+01 -0.66151786442E+01  0.10730943693E+02  0.51100000000E-03 0. -1.
        -11    1    4    4    0    0 -0.37373479137E+01 -0.29203880218E+01 -0.19147562297E+01  0.51149513493E+01  0.51100000000E-03 0.  1.
        -12    1    4    4    0    0 -0.10750516761E+01 -0.29164450070E+02 -0.12981930757E+02  0.31941374581E+02  0.00000000000E+00 0.  1.
</event>
<event>
 8    1 -0.3278331E-009  0.9118800E+02  0.7816164E-02  0.1184000E+00
        -11   -1    0    0    0    0  0.00000000000E+00  0.00000000000E+00  0.45593999997E+02  0.45594000000E+02  0.51100000000E-03 0. -1.
         11   -1    0    0    0    0 -0.00000000000E+00 -0.00000000000E+00 -0.45593999997E+02  0.45594000000E+02  0.51100000000E-03 0.  1.
         23    2    1    2    0    0 -0.35527136788E-14  0.17763568394E-14  0.35527136788E-14  0.91188000000E+02  0.91188000000E+02 0.  0.
    9900012    2    3    3    0    0  0.28088378309E+02 -0.98003818272E+01  0.31600931043E+02  0.47787270481E+02  0.19999997429E+02 0.  0.
        -12    1    3    3    0    0 -0.28088378309E+02  0.98003818272E+01 -0.31600931043E+02  0.43400729519E+02  0.00000000000E+00 0.  1.
         11    1    4    4    0    0  0.12298285979E+02 -0.59360574654E+01  0.13191717130E+02  0.18986996007E+02  0.51100000000E-03 0. -1.
        -11    1    4    4    0    0  0.13809240748E+02  0.99676176465E+00  0.55593723223E+01  0.14919627506E+02  0.51100000000E-03 0.  1.
        -12    1    4    4    0    0  0.19808515824E+01 -0.48610861265E+01  0.12849841591E+02  0.13880646967E+02  0.00000000000E+00 0.  1.
</event>
<event>
 8    1  0.2994958E-010  0.9118800E+02  0.7816164E-02  0.1184000E+00
        -11   -1    0    0    0    0  0.00000000000E+00  0.00000000000E+00  0.45593999997E+02  0.45594000000E+02  0.51100000000E-03 0. -1.
         11   -1    0    0    0    0 -0.00000000000E+00 -0.00000000000E+00 -0.45593999997E+02  0.45594000000E+02  0.51100000000E-03 0.  1.
         23    2    1    2    0    0  0.00000000000E+00  0.00000000000E+00  0.00000000000E+00  0.91188000000E+02  0.91188000000E+02 0.  0.
    9900012    2    3    3    0    0 -0.94970892534E+01  0.40294610634E+02 -0.13029697220E+02  0.47787270051E+02  0.19999995473E+02 0.  0.
        -12    1    3    3    0    0  0.94970892534E+01 -0.40294610634E+02  0.13029697220E+02  0.43400729949E+02  0.00000000000E+00 0.  1.
         11    1    4    4    0    0 -0.44711443644E+01  0.25729426068E+02 -0.42039808335E+01  0.26451237264E+02  0.51100000000E-03 0. -1.
        -11    1    4    4    0    0 -0.13460643883E+00  0.14497922385E+02 -0.60372834467E+01  0.15705306875E+02  0.51100000000E-03 0.  1.
        -12    1    4    4    0    0 -0.48913384501E+01  0.67262181205E-01 -0.27884329393E+01  0.56307259116E+01  0.00000000000E+00 0.  1.
</event>
<event>
 8    1  0.2994958E-010  0.9118800E+02  0.7816164E-02  0.1184000E+00
        -11   -1    0    0    0    0  0.00000000000E+00  0.00000000000E+00  0.45593999997E+02  0.45594000000E+02  0.51100000000E-03 0. -1.
         11   -1    0    0    0    0 -0.00000000000E+00 -0.00000000000E+00 -0.45593999997E+02  0.45594000000E+02  0.51100000000E-03 0.  1.
         23    2    1    2    0    0  0.00000000000E+00  0.71054273576E-14  0.00000000000E+00  0.91188000000E+02  0.91188000000E+02 0.  0.
    9900012    2    3    3    0    0  0.13654385149E+02  0.34868077794E+02 -0.21940784820E+02  0.47787272802E+02  0.20000008012E+02 0.  0.
         12    1    3    3    0    0 -0.13654385149E+02 -0.34868077794E+02  0.21940784820E+02  0.43400727198E+02  0.00000000000E+00 0. -1.
         11    1    4    4    0    0  0.56593344140E+01  0.75597904112E+01 -0.57623444377E+01  0.11062690032E+02  0.51100000000E-03 0. -1.
        -11    1    4    4    0    0  0.63908507602E+01  0.27353515590E+02 -0.18693061883E+02  0.33741493022E+02  0.51100000000E-03 0.  1.
         12    1    4    4    0    0  0.16041999747E+01 -0.45228206866E-01  0.25146215006E+01  0.29830897474E+01  0.00000000000E+00 0. -1.
</event>
<event>
 8    1  0.2994958E-010  0.9118800E+02  0.7816164E-02  0.1184000E+00
        -11   -1    0    0    0    0  0.00000000000E+00  0.00000000000E+00  0.45593999997E+02  0.45594000000E+02  0.51100000000E-03 0.  1.
         11   -1    0    0    0    0 -0.00000000000E+00 -0.00000000000E+00 -0.45593999997E+02  0.45594000000E+02  0.51100000000E-03 0. -1.
         23    2    1    2    0    0  0.00000000000E+00  0.44408920985E-15  0.00000000000E+00  0.91188000000E+02  0.91188000000E+02 0.  0.
    9900012    2    3    3    0    0 -0.41720906671E+02 -0.24464888746E+01  0.11704854352E+02  0.47787274468E+02  0.20000015610E+02 0.  0.
         12    1    3    3    0    0  0.41720906671E+02  0.24464888746E+01 -0.11704854352E+02  0.43400725532E+02  0.00000000000E+00 0. -1.
         11    1    4    4    0    0 -0.77136680730E+01  0.97214297267E+00 -0.73688956336E+00  0.78095290248E+01  0.51100000000E-03 0. -1.
        -11    1    4    4    0    0 -0.32323394202E+02 -0.14559874361E+01  0.58285793198E+01  0.32876953163E+02  0.51100000000E-03 0.  1.
        -12    1    4    4    0    0 -0.16838443964E+01 -0.19626444112E+01  0.66131645959E+01  0.71007922803E+01  0.00000000000E+00 0.  1.
</event>
<event>
 8    1  0.2994958E-010  0.9118800E+02  0.7816164E-02  0.1184000E+00
        -11   -1    0    0    0    0  0.00000000000E+00  0.00000000000E+00  0.45593999997E+02  0.45594000000E+02  0.51100000000E-03 0.  1.
         11   -1    0    0    0    0 -0.00000000000E+00 -0.00000000000E+00 -0.45593999997E+02  0.45594000000E+02  0.51100000000E-03 0. -1.
         23    2    1    2    0    0  0.00000000000E+00  0.00000000000E+00  0.88817841970E-15  0.91188000000E+02  0.91188000000E+02 0.  0.
    9900012    2    3    3    0    0 -0.36771931769E+02 -0.22440791281E+02 -0.52781807522E+01  0.47787271073E+02  0.20000000131E+02 0.  0.
        -12    1    3    3    0    0  0.36771931769E+02  0.22440791281E+02  0.52781807522E+01  0.43400728927E+02  0.00000000000E+00 0.  1.
         11    1    4    4    0    0 -0.12038488240E+02 -0.35446386088E+01  0.68568356465E+00  0.12568206881E+02  0.51100000000E-03 0. -1.
        -11    1    4    4    0    0 -0.14443885518E+02 -0.40872927183E+01  0.26359279227E+01  0.15240731836E+02  0.51100000000E-03 0.  1.
         12    1    4    4    0    0 -0.10289558011E+02 -0.14808859954E+02 -0.85997922396E+01  0.19978332357E+02  0.00000000000E+00 0. -1.
</event>
<event>
 8    1  0.2994958E-010  0.9118800E+02  0.7816164E-02  0.1184000E+00
        -11   -1    0    0    0    0  0.00000000000E+00  0.00000000000E+00  0.45593999997E+02  0.45594000000E+02  0.51100000000E-03 0. -1.
         11   -1    0    0    0    0 -0.00000000000E+00 -0.00000000000E+00 -0.45593999997E+02  0.45594000000E+02  0.51100000000E-03 0.  1.
         23    2    1    2    0    0 -0.88817841970E-15  0.00000000000E+00  0.00000000000E+00  0.91188000000E+02  0.91188000000E+02 0.  0.
    9900012    2    3    3    0    0  0.58284852014E+01 -0.18219104859E+02  0.38957874981E+02  0.47787273686E+02  0.20000012043E+02 0.  0.
        -12    1    3    3    0    0 -0.58284852014E+01  0.18219104859E+02 -0.38957874981E+02  0.43400726314E+02  0.00000000000E+00 0.  1.
         11    1    4    4    0    0 -0.55770805195E+01 -0.46542573177E+01  0.39165122902E+01  0.82525757846E+01  0.51100000000E-03 0. -1.
        -11    1    4    4    0    0  0.38357430994E+01 -0.52958811100E+01  0.85107271511E+01  0.10732742369E+02  0.51100000000E-03 0.  1.
         12    1    4    4    0    0  0.75698226216E+01 -0.82689664310E+01  0.26530635539E+02  0.28801955532E+02  0.00000000000E+00 0. -1.
</event>
<event>
 8    1  0.2994958E-010  0.9118800E+02  0.7816164E-02  0.1184000E+00
        -11   -1    0    0    0    0  0.00000000000E+00  0.00000000000E+00  0.45593999997E+02  0.45594000000E+02  0.51100000000E-03 0. -1.
         11   -1    0    0    0    0 -0.00000000000E+00 -0.00000000000E+00 -0.45593999997E+02  0.45594000000E+02  0.51100000000E-03 0.  1.
         23    2    1    2    0    0  0.00000000000E+00  0.00000000000E+00  0.35527136788E-14  0.91188000000E+02  0.91188000000E+02 0.  0.
    9900012    2    3    3    0    0 -0.14074526488E+02 -0.32972136862E+02 -0.24461490205E+02  0.47787324797E+02  0.20000245077E+02 0.  0.
         12    1    3    3    0    0  0.14074526488E+02  0.32972136862E+02  0.24461490205E+02  0.43400675203E+02  0.00000000000E+00 0. -1.
         11    1    4    4    0    0 -0.31903738077E+01 -0.13062938238E+02 -0.94296731136E+01  0.16423689468E+02  0.51100000000E-03 0. -1.
        -11    1    4    4    0    0 -0.75295424615E+01 -0.15794069701E+02 -0.18146710888E+02  0.25208128921E+02  0.51100000000E-03 0.  1.
         12    1    4    4    0    0 -0.33546102186E+01 -0.41151289230E+01  0.31148937971E+01  0.61555064079E+01  0.00000000000E+00 0. -1.
</event>
<event>
 8    1  0.2994958E-010  0.9118800E+02  0.7816164E-02  0.1184000E+00
        -11   -1    0    0    0    0  0.00000000000E+00  0.00000000000E+00  0.45593999997E+02  0.45594000000E+02  0.51100000000E-03 0. -1.
         11   -1    0    0    0    0 -0.00000000000E+00 -0.00000000000E+00 -0.45593999997E+02  0.45594000000E+02  0.51100000000E-03 0.  1.
         23    2    1    2    0    0  0.00000000000E+00  0.00000000000E+00  0.35527136788E-14  0.91188000000E+02  0.91188000000E+02 0.  0.
    9900012    2    3    3    0    0 -0.34329720697E+02 -0.19227053516E+02  0.18314322217E+02  0.47787266039E+02  0.19999977179E+02 0.  0.
        -12    1    3    3    0    0  0.34329720697E+02  0.19227053516E+02 -0.18314322217E+02  0.43400733961E+02  0.00000000000E+00 0.  1.
         11    1    4    4    0    0 -0.97200040457E+01 -0.88989140074E+01  0.21097384281E+01  0.13346165953E+02  0.51100000000E-03 0. -1.
        -11    1    4    4    0    0 -0.88518164336E+01 -0.21140418973E+01 -0.16514895849E+01  0.92493916247E+01  0.51100000000E-03 0.  1.
        -12    1    4    4    0    0 -0.15757900218E+02 -0.82140976118E+01  0.17856073374E+02  0.25191708461E+02  0.00000000000E+00 0.  1.
</event>
<event>
 8    1  0.2994958E-010  0.9118800E+02  0.7816164E-02  0.1184000E+00
        -11   -1    0    0    0    0  0.00000000000E+00  0.00000000000E+00  0.45593999997E+02  0.45594000000E+02  0.51100000000E-03 0. -1.
         11   -1    0    0    0    0 -0.00000000000E+00 -0.00000000000E+00 -0.45593999997E+02  0.45594000000E+02  0.51100000000E-03 0.  1.
         23    2    1    2    0    0  0.00000000000E+00  0.00000000000E+00  0.00000000000E+00  0.91188000000E+02  0.91188000000E+02 0.  0.
    9900012    2    3    3    0    0  0.22296719738E+02  0.32064126647E+02 -0.18930698006E+02  0.47787271254E+02  0.20000000954E+02 0.  0.
         12    1    3    3    0    0 -0.22296719738E+02 -0.32064126647E+02  0.18930698006E+02  0.43400728746E+02  0.00000000000E+00 0. -1.
         11    1    4    4    0    0  0.10878966971E+01  0.42952937319E+01 -0.85521806057E+01  0.96318669447E+01  0.51100000000E-03 0. -1.
        -11    1    4    4    0    0  0.56386839619E+01  0.21761701418E+01 -0.47202687309E+01  0.76688597889E+01  0.51100000000E-03 0.  1.
         12    1    4    4    0    0  0.15570139079E+02  0.25592662774E+02 -0.56582486691E+01  0.30486544520E+02  0.00000000000E+00 0. -1.
</event>
<event>
 8    1  0.2994958E-010  0.9118800E+02  0.7816164E-02  0.1184000E+00
        -11   -1    0    0    0    0  0.00000000000E+00  0.00000000000E+00  0.45593999997E+02  0.45594000000E+02  0.51100000000E-03 0.  1.
         11   -1    0    0    0    0 -0.00000000000E+00 -0.00000000000E+00 -0.45593999997E+02  0.45594000000E+02  0.51100000000E-03 0. -1.
         23    2    1    2    0    0  0.00000000000E+00 -0.71054273576E-14  0.00000000000E+00  0.91188000000E+02  0.91188000000E+02 0.  0.
    9900012    2    3    3    0    0 -0.80932727032E+01 -0.42582912737E+02 -0.21949321624E+01  0.47787271349E+02  0.20000001389E+02 0.  0.
         12    1    3    3    0    0  0.80932727032E+01  0.42582912737E+02  0.21949321624E+01  0.43400728651E+02  0.00000000000E+00 0. -1.
         11    1    4    4    0    0 -0.22938434604E+01 -0.19721221580E+02 -0.33768352748E+01  0.20139297782E+02  0.51100000000E-03 0. -1.
        -11    1    4    4    0    0 -0.49469911428E+01 -0.24838435630E+02  0.31771035440E+00  0.25328275623E+02  0.51100000000E-03 0.  1.
         12    1    4    4    0    0 -0.85243809997E+00  0.19767444730E+01  0.86419275800E+00  0.23196979434E+01  0.00000000000E+00 0. -1.
</event>
<event>
 8    1  0.2994958E-010  0.9118800E+02  0.7816164E-02  0.1184000E+00
        -11   -1    0    0    0    0  0.00000000000E+00  0.00000000000E+00  0.45593999997E+02  0.45594000000E+02  0.51100000000E-03 0. -1.
         11   -1    0    0    0    0 -0.00000000000E+00 -0.00000000000E+00 -0.45593999997E+02  0.45594000000E+02  0.51100000000E-03 0.  1.
         23    2    1    2    0    0 -0.35527136788E-14  0.00000000000E+00 -0.44408920985E-15  0.91188000000E+02  0.91188000000E+02 0.  0.
    9900012    2    3    3    0    0  0.18355975992E+02  0.39222978013E+02 -0.28704128089E+01  0.47787272719E+02  0.20000007634E+02 0.  0.
         12    1    3    3    0    0 -0.18355975992E+02 -0.39222978013E+02  0.28704128089E+01  0.43400727281E+02  0.00000000000E+00 0. -1.
         11    1    4    4    0    0 -0.25337565887E+01  0.19438924357E+01  0.44102278724E+00  0.32238395761E+01  0.51100000000E-03 0. -1.
        -11    1    4    4    0    0  0.90401667944E+01  0.11765611564E+02  0.42494607227E+01  0.15434122840E+02  0.51100000000E-03 0.  1.
         12    1    4    4    0    0  0.11849565786E+02  0.25513474013E+02 -0.75608963188E+01  0.29129310302E+02  0.00000000000E+00 0. -1.
</event>
<event>
 8    1  0.2994958E-010  0.9118800E+02  0.7816164E-02  0.1184000E+00
        -11   -1    0    0    0    0  0.00000000000E+00  0.00000000000E+00  0.45593999997E+02  0.45594000000E+02  0.51100000000E-03 0. -1.
         11   -1    0    0    0    0 -0.00000000000E+00 -0.00000000000E+00 -0.45593999997E+02  0.45594000000E+02  0.51100000000E-03 0.  1.
         23    2    1    2    0    0  0.00000000000E+00  0.00000000000E+00  0.00000000000E+00  0.91188000000E+02  0.91188000000E+02 0.  0.
    9900012    2    3    3    0    0  0.32978729060E+01  0.25264511817E+02  0.35134769893E+02  0.47787267535E+02  0.19999983999E+02 0.  0.
        -12    1    3    3    0    0 -0.32978729060E+01 -0.25264511817E+02 -0.35134769893E+02  0.43400732465E+02  0.00000000000E+00 0.  1.
         11    1    4    4    0    0  0.15235559380E+00  0.19330723514E+02  0.22745344565E+02  0.29850473756E+02  0.51100000000E-03 0. -1.
        -11    1    4    4    0    0 -0.16666052931E+01  0.54139281498E+01  0.12637688172E+01  0.58039041256E+01  0.51100000000E-03 0.  1.
        -12    1    4    4    0    0  0.48121226053E+01  0.51986015315E+00  0.11125656511E+02  0.12132889654E+02  0.00000000000E+00 0.  1.
</event>
<event>
 8    1  0.2994958E-010  0.9118800E+02  0.7816164E-02  0.1184000E+00
        -11   -1    0    0    0    0  0.00000000000E+00  0.00000000000E+00  0.45593999997E+02  0.45594000000E+02  0.51100000000E-03 0. -1.
         11   -1    0    0    0    0 -0.00000000000E+00 -0.00000000000E+00 -0.45593999997E+02  0.45594000000E+02  0.51100000000E-03 0.  1.
         23    2    1    2    0    0  0.00000000000E+00  0.00000000000E+00 -0.17763568394E-14  0.91188000000E+02  0.91188000000E+02 0.  0.
    9900012    2    3    3    0    0  0.43286582586E+01  0.41136166679E+02 -0.13141616058E+02  0.47787267702E+02  0.19999984763E+02 0.  0.
         12    1    3    3    0    0 -0.43286582586E+01 -0.41136166679E+02  0.13141616058E+02  0.43400732298E+02  0.00000000000E+00 0. -1.
         11    1    4    4    0    0  0.51277877822E+01  0.60309917188E+01 -0.28260299219E+01  0.84055644684E+01  0.51100000000E-03 0. -1.
        -11    1    4    4    0    0 -0.34210705140E+01  0.66079740386E+01  0.27364253080E+01  0.79282449561E+01  0.51100000000E-03 0.  1.
        -12    1    4    4    0    0  0.26219409904E+01  0.28497200921E+02 -0.13052011444E+02  0.31453458278E+02  0.00000000000E+00 0.  1.
</event>
<event>
 8    1  0.2994958E-010  0.9118800E+02  0.7816164E-02  0.1184000E+00
        -11   -1    0    0    0    0  0.00000000000E+00  0.00000000000E+00  0.45593999997E+02  0.45594000000E+02  0.51100000000E-03 0. -1.
         11   -1    0    0    0    0 -0.00000000000E+00 -0.00000000000E+00 -0.45593999997E+02  0.45594000000E+02  0.51100000000E-03 0.  1.
         23    2    1    2    0    0  0.00000000000E+00 -0.17763568394E-14  0.00000000000E+00  0.91188000000E+02  0.91188000000E+02 0.  0.
    9900012    2    3    3    0    0  0.32920227469E+02  0.15814938413E+02  0.23447165908E+02  0.47787271403E+02  0.20000001636E+02 0.  0.
        -12    1    3    3    0    0 -0.32920227469E+02 -0.15814938413E+02 -0.23447165908E+02  0.43400728597E+02  0.00000000000E+00 0.  1.
         11    1    4    4    0    0  0.21580408087E+02  0.13591199382E+02  0.14118235461E+02  0.29150630981E+02  0.51100000000E-03 0. -1.
        -11    1    4    4    0    0  0.72621335825E+01  0.33601873183E+01 -0.41534669438E+00  0.80126123157E+01  0.51100000000E-03 0.  1.
         12    1    4    4    0    0  0.40776857998E+01 -0.11364482870E+01  0.97442771413E+01  0.10624028106E+02  0.00000000000E+00 0. -1.
</event>
<event>
 8    1  0.2994958E-010  0.9118800E+02  0.7816164E-02  0.1184000E+00
        -11   -1    0    0    0    0  0.00000000000E+00  0.00000000000E+00  0.45593999997E+02  0.45594000000E+02  0.51100000000E-03 0. -1.
         11   -1    0    0    0    0 -0.00000000000E+00 -0.00000000000E+00 -0.45593999997E+02  0.45594000000E+02  0.51100000000E-03 0.  1.
         23    2    1    2    0    0  0.00000000000E+00  0.00000000000E+00  0.00000000000E+00  0.91188000000E+02  0.91188000000E+02 0.  0.
    9900012    2    3    3    0    0  0.20611792894E+02  0.83346570734E+01  0.37273459191E+02  0.47787271033E+02  0.19999999946E+02 0.  0.
        -12    1    3    3    0    0 -0.20611792894E+02 -0.83346570734E+01 -0.37273459191E+02  0.43400728967E+02  0.00000000000E+00 0.  1.
         11    1    4    4    0    0  0.73764981384E+01 -0.19341057839E+01  0.52981313205E+01  0.92856709892E+01  0.51100000000E-03 0. -1.
        -11    1    4    4    0    0  0.10554137293E+01 -0.30095680522E+01  0.29865203932E+01  0.43692908259E+01  0.51100000000E-03 0.  1.
        -12    1    4    4    0    0  0.12179881026E+02  0.13278330910E+02  0.28988807477E+02  0.34132309217E+02  0.00000000000E+00 0.  1.
</event>
<event>
 8    1  0.2994958E-010  0.9118800E+02  0.7816164E-02  0.1184000E+00
        -11   -1    0    0    0    0  0.00000000000E+00  0.00000000000E+00  0.45593999997E+02  0.45594000000E+02  0.51100000000E-03 0. -1.
         11   -1    0    0    0    0 -0.00000000000E+00 -0.00000000000E+00 -0.45593999997E+02  0.45594000000E+02  0.51100000000E-03 0.  1.
         23    2    1    2    0    0  0.35527136788E-14  0.00000000000E+00  0.00000000000E+00  0.91188000000E+02  0.91188000000E+02 0.  0.
    9900012    2    3    3    0    0 -0.20419256755E+02 -0.43837762242E+01 -0.38045498598E+02  0.47787268393E+02  0.19999987912E+02 0.  0.
         12    1    3    3    0    0  0.20419256755E+02  0.43837762242E+01  0.38045498598E+02  0.43400731607E+02  0.00000000000E+00 0. -1.
         11    1    4    4    0    0 -0.10659263312E+02  0.29250170135E+01 -0.12354388499E+02  0.16577289716E+02  0.51100000000E-03 0. -1.
        -11    1    4    4    0    0 -0.11439606857E+02 -0.30891869133E+01 -0.12341919365E+02  0.17109373300E+02  0.51100000000E-03 0.  1.
        -12    1    4    4    0    0  0.16796134137E+01 -0.42196063244E+01 -0.13349190735E+02  0.14100605378E+02  0.00000000000E+00 0.  1.
</event>
<event>
 8    1  0.2994958E-010  0.9118800E+02  0.7816164E-02  0.1184000E+00
        -11   -1    0    0    0    0  0.00000000000E+00  0.00000000000E+00  0.45593999997E+02  0.45594000000E+02  0.51100000000E-03 0.  1.
         11   -1    0    0    0    0 -0.00000000000E+00 -0.00000000000E+00 -0.45593999997E+02  0.45594000000E+02  0.51100000000E-03 0. -1.
         23    2    1    2    0    0  0.00000000000E+00 -0.22204460493E-15  0.00000000000E+00  0.91188000000E+02  0.91188000000E+02 0.  0.
    9900012    2    3    3    0    0  0.42403687655E+02  0.10461286992E+01 -0.91900185424E+01  0.47787267831E+02  0.19999985351E+02 0.  0.
         12    1    3    3    0    0 -0.42403687655E+02 -0.10461286992E+01  0.91900185424E+01  0.43400732169E+02  0.00000000000E+00 0. -1.
         11    1    4    4    0    0 -0.63975611103E+00  0.17908789626E+00 -0.13397600832E+01  0.14954322779E+01  0.51100000000E-03 0. -1.
        -11    1    4    4    0    0  0.18752675325E+02  0.26213865276E+01 -0.10736926391E+02  0.21767316963E+02  0.51100000000E-03 0.  1.
         12    1    4    4    0    0  0.24290768441E+02 -0.17543457247E+01  0.28866679319E+01  0.24524518591E+02  0.00000000000E+00 0. -1.
</event>
<event>
 8    1  0.2994958E-010  0.9118800E+02  0.7816164E-02  0.1184000E+00
        -11   -1    0    0    0    0  0.00000000000E+00  0.00000000000E+00  0.45593999997E+02  0.45594000000E+02  0.51100000000E-03 0. -1.
         11   -1    0    0    0    0 -0.00000000000E+00 -0.00000000000E+00 -0.45593999997E+02  0.45594000000E+02  0.51100000000E-03 0.  1.
         23    2    1    2    0    0  0.00000000000E+00 -0.71054273576E-14  0.00000000000E+00  0.91188000000E+02  0.91188000000E+02 0.  0.
    9900012    2    3    3    0    0 -0.19591635084E+02  0.31092371299E+02  0.23087992369E+02  0.47787272934E+02  0.20000008617E+02 0.  0.
        -12    1    3    3    0    0  0.19591635084E+02 -0.31092371299E+02 -0.23087992369E+02  0.43400727066E+02  0.00000000000E+00 0.  1.
         11    1    4    4    0    0 -0.66036468858E+01  0.16410359937E+02  0.73535910060E+01  0.19156809922E+02  0.51100000000E-03 0. -1.
        -11    1    4    4    0    0 -0.13021192281E+02  0.17012480381E+02  0.15114359520E+02  0.26218691826E+02  0.51100000000E-03 0.  1.
        -12    1    4    4    0    0  0.33204082830E-01 -0.23304690199E+01  0.62004184284E+00  0.24117711854E+01  0.00000000000E+00 0.  1.
</event>
<event>
 8    1  0.2994958E-010  0.9118800E+02  0.7816164E-02  0.1184000E+00
        -11   -1    0    0    0    0  0.00000000000E+00  0.00000000000E+00  0.45593999997E+02  0.45594000000E+02  0.51100000000E-03 0. -1.
         11   -1    0    0    0    0 -0.00000000000E+00 -0.00000000000E+00 -0.45593999997E+02  0.45594000000E+02  0.51100000000E-03 0.  1.
         23    2    1    2    0    0  0.00000000000E+00  0.00000000000E+00  0.00000000000E+00  0.91188000000E+02  0.91188000000E+02 0.  0.
    9900012    2    3    3    0    0  0.22184314569E+02 -0.13032218545E+02  0.34951974558E+02  0.47787273525E+02  0.20000011308E+02 0.  0.
        -12    1    3    3    0    0 -0.22184314569E+02  0.13032218545E+02 -0.34951974558E+02  0.43400726475E+02  0.00000000000E+00 0.  1.
         11    1    4    4    0    0  0.15125478290E+02  0.34793036083E+00  0.15669514747E+02  0.21781525238E+02  0.51100000000E-03 0. -1.
        -11    1    4    4    0    0  0.10472858652E+01 -0.21924339902E+01 -0.51587755528E+00  0.24838889665E+01  0.51100000000E-03 0.  1.
         12    1    4    4    0    0  0.60115504138E+01 -0.11187714916E+02  0.19798337366E+02  0.23521859320E+02  0.00000000000E+00 0. -1.
</event>
<event>
 8    1  0.2994958E-010  0.9118800E+02  0.7816164E-02  0.1184000E+00
        -11   -1    0    0    0    0  0.00000000000E+00  0.00000000000E+00  0.45593999997E+02  0.45594000000E+02  0.51100000000E-03 0.  1.
         11   -1    0    0    0    0 -0.00000000000E+00 -0.00000000000E+00 -0.45593999997E+02  0.45594000000E+02  0.51100000000E-03 0. -1.
         23    2    1    2    0    0  0.00000000000E+00  0.00000000000E+00  0.00000000000E+00  0.91188000000E+02  0.91188000000E+02 0.  0.
    9900012    2    3    3    0    0  0.41899115384E+02 -0.10974779399E+02 -0.27643264444E+01  0.47787272431E+02  0.20000006323E+02 0.  0.
         12    1    3    3    0    0 -0.41899115384E+02  0.10974779399E+02  0.27643264444E+01  0.43400727569E+02  0.00000000000E+00 0. -1.
         11    1    4    4    0    0  0.57842477346E+01  0.14373265118E+01  0.46900145322E+01  0.75841720662E+01  0.51100000000E-03 0. -1.
        -11    1    4    4    0    0  0.21173960414E+02 -0.38823166332E+01 -0.18935734846E+00  0.21527769009E+02  0.51100000000E-03 0.  1.
         12    1    4    4    0    0  0.14940907236E+02 -0.85297892777E+01 -0.72649836281E+01  0.18675331356E+02  0.00000000000E+00 0. -1.
</event>
<event>
 8    1  0.2994958E-010  0.9118800E+02  0.7816164E-02  0.1184000E+00
        -11   -1    0    0    0    0  0.00000000000E+00  0.00000000000E+00  0.45593999997E+02  0.45594000000E+02  0.51100000000E-03 0. -1.
         11   -1    0    0    0    0 -0.00000000000E+00 -0.00000000000E+00 -0.45593999997E+02  0.45594000000E+02  0.51100000000E-03 0.  1.
         23    2    1    2    0    0  0.00000000000E+00  0.00000000000E+00  0.00000000000E+00  0.91188000000E+02  0.91188000000E+02 0.  0.
    9900012    2    3    3    0    0  0.16371155342E+02 -0.21283166066E+02  0.34097434277E+02  0.47787275245E+02  0.20000019151E+02 0.  0.
        -12    1    3    3    0    0 -0.16371155342E+02  0.21283166066E+02 -0.34097434277E+02  0.43400724755E+02  0.00000000000E+00 0.  1.
         11    1    4    4    0    0  0.12093600274E+02 -0.22114529151E+02  0.21724383531E+02  0.33275462539E+02  0.51100000000E-03 0. -1.
        -11    1    4    4    0    0  0.49008041649E+01 -0.13385656805E+01  0.67172619499E+01  0.84220690990E+01  0.51100000000E-03 0.  1.
         12    1    4    4    0    0 -0.62324909671E+00  0.21699287657E+01  0.56557887965E+01  0.60897436068E+01  0.00000000000E+00 0. -1.
</event>
<event>
 8    1  0.2994958E-010  0.9118800E+02  0.7816164E-02  0.1184000E+00
        -11   -1    0    0    0    0  0.00000000000E+00  0.00000000000E+00  0.45593999997E+02  0.45594000000E+02  0.51100000000E-03 0. -1.
         11   -1    0    0    0    0 -0.00000000000E+00 -0.00000000000E+00 -0.45593999997E+02  0.45594000000E+02  0.51100000000E-03 0.  1.
         23    2    1    2    0    0  0.88817841970E-15  0.00000000000E+00  0.00000000000E+00  0.91188000000E+02  0.91188000000E+02 0.  0.
    9900012    2    3    3    0    0 -0.71917674965E+01  0.33662245282E+02  0.26433974889E+02  0.47787270679E+02  0.19999998334E+02 0.  0.
        -12    1    3    3    0    0  0.71917674965E+01 -0.33662245282E+02 -0.26433974889E+02  0.43400729321E+02  0.00000000000E+00 0.  1.
         11    1    4    4    0    0 -0.71214369873E+01  0.29400738335E+02  0.16117265181E+02  0.34276588462E+02  0.51100000000E-03 0. -1.
        -11    1    4    4    0    0 -0.23692951804E+01  0.92687228213E+00  0.12905702838E+00  0.25474119920E+01  0.51100000000E-03 0.  1.
         12    1    4    4    0    0  0.22989646712E+01  0.33346346650E+01  0.10187652679E+02  0.10963270225E+02  0.00000000000E+00 0. -1.
</event>
<event>
 8    1  0.2994958E-010  0.9118800E+02  0.7816164E-02  0.1184000E+00
        -11   -1    0    0    0    0  0.00000000000E+00  0.00000000000E+00  0.45593999997E+02  0.45594000000E+02  0.51100000000E-03 0.  1.
         11   -1    0    0    0    0 -0.00000000000E+00 -0.00000000000E+00 -0.45593999997E+02  0.45594000000E+02  0.51100000000E-03 0. -1.
         23    2    1    2    0    0  0.00000000000E+00  0.00000000000E+00  0.35527136788E-14  0.91188000000E+02  0.91188000000E+02 0.  0.
    9900012    2    3    3    0    0 -0.16308711325E+02 -0.27009619878E+02 -0.29801505409E+02  0.47787270102E+02  0.19999995704E+02 0.  0.
         12    1    3    3    0    0  0.16308711325E+02  0.27009619878E+02  0.29801505409E+02  0.43400729898E+02  0.00000000000E+00 0. -1.
         11    1    4    4    0    0 -0.78972189890E+01 -0.10976983463E+02 -0.13209255581E+01  0.13586945142E+02  0.51100000000E-03 0. -1.
        -11    1    4    4    0    0 -0.58099288023E+01 -0.65982743652E+01 -0.10208105778E+02  0.13472116431E+02  0.51100000000E-03 0.  1.
         12    1    4    4    0    0 -0.26015635335E+01 -0.94343620499E+01 -0.18272474072E+02  0.20728208529E+02  0.00000000000E+00 0. -1.
</event>
<event>
 8    1  0.2994958E-010  0.9118800E+02  0.7816164E-02  0.1184000E+00
        -11   -1    0    0    0    0  0.00000000000E+00  0.00000000000E+00  0.45593999997E+02  0.45594000000E+02  0.51100000000E-03 0. -1.
         11   -1    0    0    0    0 -0.00000000000E+00 -0.00000000000E+00 -0.45593999997E+02  0.45594000000E+02  0.51100000000E-03 0.  1.
         23    2    1    2    0    0  0.00000000000E+00 -0.88817841970E-15  0.00000000000E+00  0.91188000000E+02  0.91188000000E+02 0.  0.
    9900012    2    3    3    0    0  0.19166528283E+02 -0.58778393958E+01 -0.38493091498E+02  0.47787275404E+02  0.20000019878E+02 0.  0.
         12    1    3    3    0    0 -0.19166528283E+02  0.58778393958E+01  0.38493091498E+02  0.43400724596E+02  0.00000000000E+00 0. -1.
         11    1    4    4    0    0  0.70393656599E+01 -0.56842096975E+01 -0.40668172242E+01  0.99197737563E+01  0.51100000000E-03 0. -1.
        -11    1    4    4    0    0  0.82581855666E+00 -0.17033332266E+01 -0.33792826567E+00  0.19228926499E+01  0.51100000000E-03 0.  1.
        -12    1    4    4    0    0  0.11301344066E+02  0.15097035283E+01 -0.34088346008E+02  0.35944608998E+02  0.00000000000E+00 0.  1.
</event>
<event>
 8    1  0.2994958E-010  0.9118800E+02  0.7816164E-02  0.1184000E+00
        -11   -1    0    0    0    0  0.00000000000E+00  0.00000000000E+00  0.45593999997E+02  0.45594000000E+02  0.51100000000E-03 0.  1.
         11   -1    0    0    0    0 -0.00000000000E+00 -0.00000000000E+00 -0.45593999997E+02  0.45594000000E+02  0.51100000000E-03 0. -1.
         23    2    1    2    0    0  0.00000000000E+00  0.35527136788E-14  0.00000000000E+00  0.91188000000E+02  0.91188000000E+02 0.  0.
    9900012    2    3    3    0    0  0.23323189961E+02  0.31961262672E+02 -0.17836191742E+02  0.47787271465E+02  0.20000001916E+02 0.  0.
         12    1    3    3    0    0 -0.23323189961E+02 -0.31961262672E+02  0.17836191742E+02  0.43400728535E+02  0.00000000000E+00 0. -1.
         11    1    4    4    0    0  0.19156564151E+02  0.25642934590E+02 -0.18335341748E+02  0.36887922167E+02  0.51100000000E-03 0. -1.
        -11    1    4    4    0    0  0.39068819916E+01  0.81052464482E+01 -0.95630192944E-01  0.89982160608E+01  0.51100000000E-03 0.  1.
        -12    1    4    4    0    0  0.25974381800E+00 -0.17869183670E+01  0.59478019857E+00  0.19011332373E+01  0.00000000000E+00 0.  1.
</event>
<event>
 8    1  0.2994958E-010  0.9118800E+02  0.7816164E-02  0.1184000E+00
        -11   -1    0    0    0    0  0.00000000000E+00  0.00000000000E+00  0.45593999997E+02  0.45594000000E+02  0.51100000000E-03 0. -1.
         11   -1    0    0    0    0 -0.00000000000E+00 -0.00000000000E+00 -0.45593999997E+02  0.45594000000E+02  0.51100000000E-03 0.  1.
         23    2    1    2    0    0  0.00000000000E+00 -0.17763568394E-14  0.00000000000E+00  0.91188000000E+02  0.91188000000E+02 0.  0.
    9900012    2    3    3    0    0  0.83724002309E+01  0.93998179880E+01  0.41535131685E+02  0.47787299223E+02  0.20000128477E+02 0.  0.
        -12    1    3    3    0    0 -0.83724002309E+01 -0.93998179880E+01 -0.41535131685E+02  0.43400700777E+02  0.00000000000E+00 0.  1.
         11    1    4    4    0    0  0.48619268130E+00  0.30854981197E+01  0.85111733616E+01  0.90662425636E+01  0.51100000000E-03 0. -1.
        -11    1    4    4    0    0 -0.92826420956E-01  0.43025910811E+01 -0.37825769460E+00  0.43201835493E+01  0.51100000000E-03 0.  1.
         12    1    4    4    0    0  0.79790339706E+01  0.20117287872E+01  0.33402216018E+02  0.34400873110E+02  0.00000000000E+00 0. -1.
</event>
<event>
 8    1  0.2994958E-010  0.9118800E+02  0.7816164E-02  0.1184000E+00
        -11   -1    0    0    0    0  0.00000000000E+00  0.00000000000E+00  0.45593999997E+02  0.45594000000E+02  0.51100000000E-03 0. -1.
         11   -1    0    0    0    0 -0.00000000000E+00 -0.00000000000E+00 -0.45593999997E+02  0.45594000000E+02  0.51100000000E-03 0.  1.
         23    2    1    2    0    0  0.35527136788E-14  0.00000000000E+00 -0.35527136788E-14  0.91188000000E+02  0.91188000000E+02 0.  0.
    9900012    2    3    3    0    0  0.27135803511E+02 -0.28027875503E+02 -0.19018680366E+02  0.47787264520E+02  0.19999970251E+02 0.  0.
         12    1    3    3    0    0 -0.27135803511E+02  0.28027875503E+02  0.19018680366E+02  0.43400735480E+02  0.00000000000E+00 0. -1.
         11    1    4    4    0    0  0.12363149924E+02 -0.26019970386E+01 -0.11819695245E+02  0.17300955482E+02  0.51100000000E-03 0. -1.
        -11    1    4    4    0    0  0.18297943948E+01 -0.59365386466E+01 -0.19264956689E+01  0.65040006498E+01  0.51100000000E-03 0.  1.
        -12    1    4    4    0    0  0.12942859192E+02 -0.19489339818E+02 -0.52724894518E+01  0.23982308388E+02  0.00000000000E+00 0.  1.
</event>
<event>
 8    1  0.2994958E-010  0.9118800E+02  0.7816164E-02  0.1184000E+00
        -11   -1    0    0    0    0  0.00000000000E+00  0.00000000000E+00  0.45593999997E+02  0.45594000000E+02  0.51100000000E-03 0. -1.
         11   -1    0    0    0    0 -0.00000000000E+00 -0.00000000000E+00 -0.45593999997E+02  0.45594000000E+02  0.51100000000E-03 0.  1.
         23    2    1    2    0    0 -0.35527136788E-14  0.00000000000E+00  0.00000000000E+00  0.91188000000E+02  0.91188000000E+02 0.  0.
    9900012    2    3    3    0    0  0.19487491929E+02  0.36772079692E+02  0.12315738991E+02  0.47787244091E+02  0.19999877109E+02 0.  0.
        -12    1    3    3    0    0 -0.19487491929E+02 -0.36772079692E+02 -0.12315738991E+02  0.43400755909E+02  0.00000000000E+00 0.  1.
         11    1    4    4    0    0  0.56601326423E+01  0.10837475142E+02  0.31630476878E+01  0.12629047467E+02  0.51100000000E-03 0. -1.
        -11    1    4    4    0    0  0.57445484715E+01  0.24545471086E+01 -0.36340600547E+01  0.72271039423E+01  0.51100000000E-03 0.  1.
        -12    1    4    4    0    0  0.80828108151E+01  0.23480057442E+02  0.12786751357E+02  0.27931092682E+02  0.00000000000E+00 0.  1.
</event>
<event>
 8    1  0.2994958E-010  0.9118800E+02  0.7816164E-02  0.1184000E+00
        -11   -1    0    0    0    0  0.00000000000E+00  0.00000000000E+00  0.45593999997E+02  0.45594000000E+02  0.51100000000E-03 0. -1.
         11   -1    0    0    0    0 -0.00000000000E+00 -0.00000000000E+00 -0.45593999997E+02  0.45594000000E+02  0.51100000000E-03 0.  1.
         23    2    1    2    0    0 -0.35527136788E-14  0.17763568394E-14  0.00000000000E+00  0.91188000000E+02  0.91188000000E+02 0.  0.
    9900012    2    3    3    0    0  0.22996541145E+02 -0.10050128253E+02  0.35408710820E+02  0.47787276683E+02  0.20000025706E+02 0.  0.
        -12    1    3    3    0    0 -0.22996541145E+02  0.10050128253E+02 -0.35408710820E+02  0.43400723317E+02  0.00000000000E+00 0.  1.
         11    1    4    4    0    0  0.10814535815E+02 -0.60430912798E+01  0.19374666989E+02  0.22996757561E+02  0.51100000000E-03 0. -1.
        -11    1    4    4    0    0  0.90147612705E+01 -0.73219226410E+01  0.46356620448E+01  0.12504632533E+02  0.51100000000E-03 0.  1.
        -12    1    4    4    0    0  0.31672440589E+01  0.33148856681E+01  0.11398381787E+02  0.12285886589E+02  0.00000000000E+00 0.  1.
</event>
<event>
 8    1  0.2994958E-010  0.9118800E+02  0.7816164E-02  0.1184000E+00
        -11   -1    0    0    0    0  0.00000000000E+00  0.00000000000E+00  0.45593999997E+02  0.45594000000E+02  0.51100000000E-03 0. -1.
         11   -1    0    0    0    0 -0.00000000000E+00 -0.00000000000E+00 -0.45593999997E+02  0.45594000000E+02  0.51100000000E-03 0.  1.
         23    2    1    2    0    0  0.35527136788E-14 -0.88817841970E-15  0.00000000000E+00  0.91188000000E+02  0.91188000000E+02 0.  0.
    9900012    2    3    3    0    0  0.23624034905E+02 -0.49731727915E+01 -0.36066549586E+02  0.47787268764E+02  0.19999989603E+02 0.  0.
         12    1    3    3    0    0 -0.23624034905E+02  0.49731727915E+01  0.36066549586E+02  0.43400731236E+02  0.00000000000E+00 0. -1.
         11    1    4    4    0    0  0.63604215629E+01 -0.72652686967E+01 -0.85539829070E+01  0.12899988974E+02  0.51100000000E-03 0. -1.
        -11    1    4    4    0    0  0.33746076072E+01 -0.47711920216E+01 -0.67547076106E+01  0.89318713031E+01  0.51100000000E-03 0.  1.
         12    1    4    4    0    0  0.13889005734E+02  0.70632879268E+01 -0.20757859068E+02  0.25955408487E+02  0.00000000000E+00 0. -1.
</event>
<event>
 8    1  0.2994958E-010  0.9118800E+02  0.7816164E-02  0.1184000E+00
        -11   -1    0    0    0    0  0.00000000000E+00  0.00000000000E+00  0.45593999997E+02  0.45594000000E+02  0.51100000000E-03 0. -1.
         11   -1    0    0    0    0 -0.00000000000E+00 -0.00000000000E+00 -0.45593999997E+02  0.45594000000E+02  0.51100000000E-03 0.  1.
         23    2    1    2    0    0  0.00000000000E+00  0.88817841970E-15  0.00000000000E+00  0.91188000000E+02  0.91188000000E+02 0.  0.
    9900012    2    3    3    0    0 -0.31567535760E+02  0.15933847475E+01 -0.29741863864E+02  0.47787232092E+02  0.19999822397E+02 0.  0.
         12    1    3    3    0    0  0.31567535760E+02 -0.15933847475E+01  0.29741863864E+02  0.43400767908E+02  0.00000000000E+00 0. -1.
         11    1    4    4    0    0 -0.14556733344E+02  0.32399749835E+01 -0.69263129374E+01  0.16442923545E+02  0.51100000000E-03 0. -1.
        -11    1    4    4    0    0 -0.79190821508E+01  0.56179409358E+01 -0.12202871783E+02  0.15594332383E+02  0.51100000000E-03 0.  1.
         12    1    4    4    0    0 -0.90917202659E+01 -0.72645311719E+01 -0.10612679144E+02  0.15749976163E+02  0.00000000000E+00 0. -1.
</event>
<event>
 8    1  0.2994958E-010  0.9118800E+02  0.7816164E-02  0.1184000E+00
        -11   -1    0    0    0    0  0.00000000000E+00  0.00000000000E+00  0.45593999997E+02  0.45594000000E+02  0.51100000000E-03 0. -1.
         11   -1    0    0    0    0 -0.00000000000E+00 -0.00000000000E+00 -0.45593999997E+02  0.45594000000E+02  0.51100000000E-03 0.  1.
         23    2    1    2    0    0  0.00000000000E+00  0.17763568394E-14  0.00000000000E+00  0.91188000000E+02  0.91188000000E+02 0.  0.
    9900012    2    3    3    0    0  0.24793159034E+02 -0.88341889055E+01  0.34509124521E+02  0.47787270701E+02  0.19999998434E+02 0.  0.
        -12    1    3    3    0    0 -0.24793159034E+02  0.88341889055E+01 -0.34509124521E+02  0.43400729299E+02  0.00000000000E+00 0.  1.
         11    1    4    4    0    0  0.14758702630E+02 -0.76002325820E+00  0.17655626764E+02  0.23024293591E+02  0.51100000000E-03 0. -1.
        -11    1    4    4    0    0  0.10915140874E+02 -0.23974070025E+01  0.65152205693E+01  0.12935840134E+02  0.51100000000E-03 0.  1.
        -12    1    4    4    0    0 -0.88068447020E+00 -0.56767586448E+01  0.10338277187E+02  0.11827136976E+02  0.00000000000E+00 0.  1.
</event>
<event>
 8    1  0.2994958E-010  0.9118800E+02  0.7816164E-02  0.1184000E+00
        -11   -1    0    0    0    0  0.00000000000E+00  0.00000000000E+00  0.45593999997E+02  0.45594000000E+02  0.51100000000E-03 0. -1.
         11   -1    0    0    0    0 -0.00000000000E+00 -0.00000000000E+00 -0.45593999997E+02  0.45594000000E+02  0.51100000000E-03 0.  1.
         23    2    1    2    0    0  0.00000000000E+00  0.00000000000E+00  0.00000000000E+00  0.91188000000E+02  0.91188000000E+02 0.  0.
    9900012    2    3    3    0    0  0.10005195547E+02  0.22378294450E+02 -0.35815236290E+02  0.47787272460E+02  0.20000006455E+02 0.  0.
         12    1    3    3    0    0 -0.10005195547E+02 -0.22378294450E+02  0.35815236290E+02  0.43400727540E+02  0.00000000000E+00 0. -1.
         11    1    4    4    0    0 -0.30079984648E+01  0.14499295734E+01 -0.92293794437E+00  0.34644141269E+01  0.51100000000E-03 0. -1.
        -11    1    4    4    0    0  0.92654535572E+01  0.16512761354E+02 -0.16755312474E+02  0.25283599695E+02  0.51100000000E-03 0.  1.
         12    1    4    4    0    0  0.37477404549E+01  0.44156035228E+01 -0.18136985872E+02  0.19039258639E+02  0.00000000000E+00 0. -1.
</event>
<event>
 8    1  0.2994958E-010  0.9118800E+02  0.7816164E-02  0.1184000E+00
        -11   -1    0    0    0    0  0.00000000000E+00  0.00000000000E+00  0.45593999997E+02  0.45594000000E+02  0.51100000000E-03 0. -1.
         11   -1    0    0    0    0 -0.00000000000E+00 -0.00000000000E+00 -0.45593999997E+02  0.45594000000E+02  0.51100000000E-03 0.  1.
         23    2    1    2    0    0  0.44408920985E-15 -0.88817841970E-15  0.71054273576E-14  0.91188000000E+02  0.91188000000E+02 0.  0.
    9900012    2    3    3    0    0  0.27005041973E+01 -0.73610974583E+01 -0.42686589904E+02  0.47787269173E+02  0.19999991466E+02 0.  0.
         12    1    3    3    0    0 -0.27005041973E+01  0.73610974583E+01  0.42686589904E+02  0.43400730827E+02  0.00000000000E+00 0. -1.
         11    1    4    4    0    0 -0.22575848028E+00  0.21900132252E+01 -0.23364536743E+02  0.23468035757E+02  0.51100000000E-03 0.  1.
        -11    1    4    4    0    0 -0.82239053347E+00 -0.83537109353E+00 -0.12688438325E+02  0.12742473796E+02  0.51100000000E-03 0. -1.
         12    1    4    4    0    0  0.37486532110E+01 -0.87157395900E+01 -0.66336148355E+01  0.11576759619E+02  0.00000000000E+00 0. -1.
</event>
<event>
 8    1  0.2994958E-010  0.9118800E+02  0.7816164E-02  0.1184000E+00
        -11   -1    0    0    0    0  0.00000000000E+00  0.00000000000E+00  0.45593999997E+02  0.45594000000E+02  0.51100000000E-03 0. -1.
         11   -1    0    0    0    0 -0.00000000000E+00 -0.00000000000E+00 -0.45593999997E+02  0.45594000000E+02  0.51100000000E-03 0.  1.
         23    2    1    2    0    0  0.17763568394E-14  0.71054273576E-14 -0.35527136788E-14  0.91188000000E+02  0.91188000000E+02 0.  0.
    9900012    2    3    3    0    0 -0.71636280419E+01 -0.38026307094E+02  0.19654665520E+02  0.47787268732E+02  0.19999989455E+02 0.  0.
        -12    1    3    3    0    0  0.71636280419E+01  0.38026307094E+02 -0.19654665520E+02  0.43400731268E+02  0.00000000000E+00 0.  1.
         11    1    4    4    0    0 -0.38242345362E+01 -0.16761203185E+02  0.40674682556E+01  0.17666550322E+02  0.51100000000E-03 0. -1.
        -11    1    4    4    0    0 -0.71557936002E+01 -0.17003040691E+02  0.68521927682E+01  0.19678956293E+02  0.51100000000E-03 0.  1.
         12    1    4    4    0    0  0.38164000945E+01 -0.42620632182E+01  0.87350044965E+01  0.10441762117E+02  0.00000000000E+00 0. -1.
</event>
<event>
 8    1  0.2994958E-010  0.9118800E+02  0.7816164E-02  0.1184000E+00
        -11   -1    0    0    0    0  0.00000000000E+00  0.00000000000E+00  0.45593999997E+02  0.45594000000E+02  0.51100000000E-03 0. -1.
         11   -1    0    0    0    0 -0.00000000000E+00 -0.00000000000E+00 -0.45593999997E+02  0.45594000000E+02  0.51100000000E-03 0.  1.
         23    2    1    2    0    0  0.00000000000E+00  0.17763568394E-14  0.00000000000E+00  0.91188000000E+02  0.91188000000E+02 0.  0.
    9900012    2    3    3    0    0 -0.25302423541E+02  0.95130817121E+01 -0.33954556524E+02  0.47787271096E+02  0.20000000233E+02 0.  0.
         12    1    3    3    0    0  0.25302423541E+02 -0.95130817121E+01  0.33954556524E+02  0.43400728904E+02  0.00000000000E+00 0. -1.
         11    1    4    4    0    0 -0.13642166005E+02 -0.12155047336E+01 -0.14783253342E+02  0.20152685298E+02  0.51100000000E-03 0.  1.
        -11    1    4    4    0    0 -0.14056249912E-01 -0.12898921547E+01 -0.65433834984E+01  0.66693243449E+01  0.51100000000E-03 0. -1.
        -12    1    4    4    0    0 -0.11646201286E+02  0.12018478600E+02 -0.12627919683E+02  0.20965261453E+02  0.00000000000E+00 0.  1.
</event>
<event>
 8    1  0.2994958E-010  0.9118800E+02  0.7816164E-02  0.1184000E+00
        -11   -1    0    0    0    0  0.00000000000E+00  0.00000000000E+00  0.45593999997E+02  0.45594000000E+02  0.51100000000E-03 0. -1.
         11   -1    0    0    0    0 -0.00000000000E+00 -0.00000000000E+00 -0.45593999997E+02  0.45594000000E+02  0.51100000000E-03 0.  1.
         23    2    1    2    0    0  0.00000000000E+00  0.00000000000E+00  0.00000000000E+00  0.91188000000E+02  0.91188000000E+02 0.  0.
    9900012    2    3    3    0    0 -0.72769107177E+01  0.39988306910E+02 -0.15218586315E+02  0.47787268571E+02  0.19999988723E+02 0.  0.
         12    1    3    3    0    0  0.72769107177E+01 -0.39988306910E+02  0.15218586315E+02  0.43400731429E+02  0.00000000000E+00 0. -1.
         11    1    4    4    0    0  0.29777150278E+01  0.95184849784E+00 -0.63981674079E+00  0.31909509668E+01  0.51100000000E-03 0. -1.
        -11    1    4    4    0    0 -0.74039912556E+01  0.78918678724E+01 -0.28067920135E+01  0.11179389370E+02  0.51100000000E-03 0.  1.
        -12    1    4    4    0    0 -0.28506344899E+01  0.31144590540E+02 -0.11771977561E+02  0.33416928234E+02  0.00000000000E+00 0.  1.
</event>
<event>
 8    1  0.2994958E-010  0.9118800E+02  0.7816164E-02  0.1184000E+00
        -11   -1    0    0    0    0  0.00000000000E+00  0.00000000000E+00  0.45593999997E+02  0.45594000000E+02  0.51100000000E-03 0. -1.
         11   -1    0    0    0    0 -0.00000000000E+00 -0.00000000000E+00 -0.45593999997E+02  0.45594000000E+02  0.51100000000E-03 0.  1.
         23    2    1    2    0    0  0.17763568394E-14  0.00000000000E+00  0.00000000000E+00  0.91188000000E+02  0.91188000000E+02 0.  0.
    9900012    2    3    3    0    0 -0.11227522739E+02  0.18991565496E+02 -0.37374942320E+02  0.47787272583E+02  0.20000007016E+02 0.  0.
         12    1    3    3    0    0  0.11227522739E+02 -0.18991565496E+02  0.37374942320E+02  0.43400727417E+02  0.00000000000E+00 0. -1.
         11    1    4    4    0    0 -0.11913816212E+01 -0.12006023643E+01  0.57394207617E+00  0.17861259677E+01  0.51100000000E-03 0. -1.
        -11    1    4    4    0    0  0.31692415752E+01  0.41406331422E+01 -0.76416530596E+01  0.92511511027E+01  0.51100000000E-03 0.  1.
        -12    1    4    4    0    0 -0.13205382693E+02  0.16051534719E+02 -0.30307231337E+02  0.36749995513E+02  0.00000000000E+00 0.  1.
</event>
<event>
 8    1  0.2994958E-010  0.9118800E+02  0.7816164E-02  0.1184000E+00
        -11   -1    0    0    0    0  0.00000000000E+00  0.00000000000E+00  0.45593999997E+02  0.45594000000E+02  0.51100000000E-03 0. -1.
         11   -1    0    0    0    0 -0.00000000000E+00 -0.00000000000E+00 -0.45593999997E+02  0.45594000000E+02  0.51100000000E-03 0.  1.
         23    2    1    2    0    0 -0.35527136788E-14  0.71054273576E-14 -0.17763568394E-14  0.91188000000E+02  0.91188000000E+02 0.  0.
    9900012    2    3    3    0    0  0.22248255276E+02 -0.34365354090E+02  0.14410438625E+02  0.47787272288E+02  0.20000005668E+02 0.  0.
        -12    1    3    3    0    0 -0.22248255276E+02  0.34365354090E+02 -0.14410438625E+02  0.43400727712E+02  0.00000000000E+00 0.  1.
         11    1    4    4    0    0  0.26715073134E+01 -0.70336659817E+01  0.58239517614E+01  0.95146110192E+01  0.51100000000E-03 0. -1.
        -11    1    4    4    0    0  0.62729424109E+01 -0.18530168095E+02 -0.11280773119E+01  0.19595649895E+02  0.51100000000E-03 0.  1.
        -12    1    4    4    0    0  0.13303805552E+02 -0.88015200133E+01  0.97145641757E+01  0.18677011373E+02  0.00000000000E+00 0.  1.
</event>
<event>
 8    1  0.2994958E-010  0.9118800E+02  0.7816164E-02  0.1184000E+00
        -11   -1    0    0    0    0  0.00000000000E+00  0.00000000000E+00  0.45593999997E+02  0.45594000000E+02  0.51100000000E-03 0. -1.
         11   -1    0    0    0    0 -0.00000000000E+00 -0.00000000000E+00 -0.45593999997E+02  0.45594000000E+02  0.51100000000E-03 0.  1.
         23    2    1    2    0    0  0.00000000000E+00  0.00000000000E+00 -0.71054273576E-14  0.91188000000E+02  0.91188000000E+02 0.  0.
    9900012    2    3    3    0    0 -0.25101158776E+02  0.45426238223E+01 -0.35112950737E+02  0.47787275207E+02  0.20000018979E+02 0.  0.
         12    1    3    3    0    0  0.25101158776E+02 -0.45426238223E+01  0.35112950737E+02  0.43400724793E+02  0.00000000000E+00 0. -1.
         11    1    4    4    0    0 -0.14971226981E+02 -0.32708841043E+01 -0.17488419286E+02  0.23252551033E+02  0.51100000000E-03 0. -1.
        -11    1    4    4    0    0 -0.44062491451E+01 -0.16630664139E+01 -0.10113481273E+02  0.11156313241E+02  0.51100000000E-03 0.  1.
         12    1    4    4    0    0 -0.57236826500E+01  0.94765743405E+01 -0.75110501783E+01  0.13378410933E+02  0.00000000000E+00 0. -1.
</event>
<event>
 8    1  0.2994958E-010  0.9118800E+02  0.7816164E-02  0.1184000E+00
        -11   -1    0    0    0    0  0.00000000000E+00  0.00000000000E+00  0.45593999997E+02  0.45594000000E+02  0.51100000000E-03 0. -1.
         11   -1    0    0    0    0 -0.00000000000E+00 -0.00000000000E+00 -0.45593999997E+02  0.45594000000E+02  0.51100000000E-03 0.  1.
         23    2    1    2    0    0  0.00000000000E+00  0.00000000000E+00  0.35527136788E-14  0.91188000000E+02  0.91188000000E+02 0.  0.
    9900012    2    3    3    0    0 -0.92188617615E+01  0.36293462118E+02  0.21941301780E+02  0.47787268111E+02  0.19999986625E+02 0.  0.
        -12    1    3    3    0    0  0.92188617615E+01 -0.36293462118E+02 -0.21941301780E+02  0.43400731889E+02  0.00000000000E+00 0.  1.
         11    1    4    4    0    0 -0.12651573877E+01  0.85380060438E+01  0.44673103654E+01  0.97187978979E+01  0.51100000000E-03 0.  1.
        -11    1    4    4    0    0 -0.33805944615E+01  0.15695157794E+02  0.19230142829E+02  0.25051243294E+02  0.51100000000E-03 0. -1.
        -12    1    4    4    0    0 -0.45731099123E+01  0.12060298280E+02 -0.17561514141E+01  0.13017226919E+02  0.00000000000E+00 0.  1.
</event>
<event>
 8    1  0.2994958E-010  0.9118800E+02  0.7816164E-02  0.1184000E+00
        -11   -1    0    0    0    0  0.00000000000E+00  0.00000000000E+00  0.45593999997E+02  0.45594000000E+02  0.51100000000E-03 0. -1.
         11   -1    0    0    0    0 -0.00000000000E+00 -0.00000000000E+00 -0.45593999997E+02  0.45594000000E+02  0.51100000000E-03 0.  1.
         23    2    1    2    0    0  0.00000000000E+00  0.00000000000E+00  0.00000000000E+00  0.91188000000E+02  0.91188000000E+02 0.  0.
    9900012    2    3    3    0    0 -0.36307275824E+02  0.17588968211E+02 -0.16001029269E+02  0.47787273990E+02  0.20000013432E+02 0.  0.
         12    1    3    3    0    0  0.36307275824E+02 -0.17588968211E+02  0.16001029269E+02  0.43400726010E+02  0.00000000000E+00 0. -1.
         11    1    4    4    0    0 -0.81818974679E+01  0.14227927813E+01  0.22740891061E+01  0.86104161919E+01  0.51100000000E-03 0. -1.
        -11    1    4    4    0    0 -0.36958569064E+01  0.78905248886E+01 -0.30854280538E+01  0.92433547928E+01  0.51100000000E-03 0.  1.
        -12    1    4    4    0    0 -0.24429521450E+02  0.82756505410E+01 -0.15189690321E+02  0.29933503006E+02  0.00000000000E+00 0.  1.
</event>
<event>
 8    1  0.2994958E-010  0.9118800E+02  0.7816164E-02  0.1184000E+00
        -11   -1    0    0    0    0  0.00000000000E+00  0.00000000000E+00  0.45593999997E+02  0.45594000000E+02  0.51100000000E-03 0. -1.
         11   -1    0    0    0    0 -0.00000000000E+00 -0.00000000000E+00 -0.45593999997E+02  0.45594000000E+02  0.51100000000E-03 0.  1.
         23    2    1    2    0    0 -0.35527136788E-14  0.00000000000E+00  0.00000000000E+00  0.91188000000E+02  0.91188000000E+02 0.  0.
    9900012    2    3    3    0    0  0.18532054962E+02  0.11104621762E+02 -0.37641406069E+02  0.47787249586E+02  0.19999902163E+02 0.  0.
         12    1    3    3    0    0 -0.18532054962E+02 -0.11104621762E+02  0.37641406069E+02  0.43400750414E+02  0.00000000000E+00 0. -1.
         11    1    4    4    0    0  0.41889881269E+01  0.68851101692E+01 -0.40075016980E+01  0.90006907341E+01  0.51100000000E-03 0. -1.
        -11    1    4    4    0    0  0.13336854712E+02  0.58175501810E+01 -0.18505746313E+02  0.23540990433E+02  0.51100000000E-03 0.  1.
         12    1    4    4    0    0  0.10062121234E+01 -0.15980385881E+01 -0.15128158059E+02  0.15245568419E+02  0.00000000000E+00 0. -1.
</event>
<event>
 8    1  0.2994958E-010  0.9118800E+02  0.7816164E-02  0.1184000E+00
        -11   -1    0    0    0    0  0.00000000000E+00  0.00000000000E+00  0.45593999997E+02  0.45594000000E+02  0.51100000000E-03 0. -1.
         11   -1    0    0    0    0 -0.00000000000E+00 -0.00000000000E+00 -0.45593999997E+02  0.45594000000E+02  0.51100000000E-03 0.  1.
         23    2    1    2    0    0  0.00000000000E+00  0.00000000000E+00  0.00000000000E+00  0.91188000000E+02  0.91188000000E+02 0.  0.
    9900012    2    3    3    0    0 -0.21066895211E+02 -0.34191937390E+02 -0.16453591457E+02  0.47787270419E+02  0.19999997147E+02 0.  0.
         12    1    3    3    0    0  0.21066895211E+02  0.34191937390E+02  0.16453591457E+02  0.43400729581E+02  0.00000000000E+00 0. -1.
         11    1    4    4    0    0 -0.11940269984E+02 -0.67583575720E+01 -0.55951305857E+01  0.14817251125E+02  0.51100000000E-03 0. -1.
        -11    1    4    4    0    0 -0.44998825279E+01 -0.66162882322E+01 -0.82381361402E+01  0.11484385054E+02  0.51100000000E-03 0.  1.
         12    1    4    4    0    0 -0.46267426990E+01 -0.20817291586E+02 -0.26203247313E+01  0.21485634240E+02  0.00000000000E+00 0. -1.
</event>
<event>
 8    1  0.2994958E-010  0.9118800E+02  0.7816164E-02  0.1184000E+00
        -11   -1    0    0    0    0  0.00000000000E+00  0.00000000000E+00  0.45593999997E+02  0.45594000000E+02  0.51100000000E-03 0. -1.
         11   -1    0    0    0    0 -0.00000000000E+00 -0.00000000000E+00 -0.45593999997E+02  0.45594000000E+02  0.51100000000E-03 0.  1.
         23    2    1    2    0    0 -0.71054273576E-14 -0.17763568394E-14  0.88817841970E-15  0.91188000000E+02  0.91188000000E+02 0.  0.
    9900012    2    3    3    0    0 -0.40729709413E+02 -0.14064713440E+02 -0.51863515404E+01  0.47787266881E+02  0.19999981017E+02 0.  0.
         12    1    3    3    0    0  0.40729709413E+02  0.14064713440E+02  0.51863515404E+01  0.43400733119E+02  0.00000000000E+00 0. -1.
         11    1    4    4    0    0 -0.16000724348E+02 -0.52222158791E+01 -0.39987507702E+01  0.17299847581E+02  0.51100000000E-03 0.  1.
        -11    1    4    4    0    0 -0.12417804666E+02  0.34815288228E+01 -0.19898547082E+01  0.13049231306E+02  0.51100000000E-03 0. -1.
         12    1    4    4    0    0 -0.12311180399E+02 -0.12324026384E+02  0.80225393809E+00  0.17438187994E+02  0.00000000000E+00 0. -1.
</event>
<event>
 8    1  0.2994958E-010  0.9118800E+02  0.7816164E-02  0.1184000E+00
        -11   -1    0    0    0    0  0.00000000000E+00  0.00000000000E+00  0.45593999997E+02  0.45594000000E+02  0.51100000000E-03 0. -1.
         11   -1    0    0    0    0 -0.00000000000E+00 -0.00000000000E+00 -0.45593999997E+02  0.45594000000E+02  0.51100000000E-03 0.  1.
         23    2    1    2    0    0 -0.71054273576E-14  0.00000000000E+00  0.00000000000E+00  0.91188000000E+02  0.91188000000E+02 0.  0.
    9900012    2    3    3    0    0  0.29033709289E+02 -0.68923334511E+01  0.31514489055E+02  0.47787267796E+02  0.19999985189E+02 0.  0.
        -12    1    3    3    0    0 -0.29033709289E+02  0.68923334511E+01 -0.31514489055E+02  0.43400732204E+02  0.00000000000E+00 0.  1.
         11    1    4    4    0    0  0.77922243218E+01  0.16988432184E+01  0.13675508713E+02  0.15831120206E+02  0.51100000000E-03 0. -1.
        -11    1    4    4    0    0  0.15294393874E+02  0.88491824056E+00  0.10640933424E+02  0.18652909388E+02  0.51100000000E-03 0.  1.
        -12    1    4    4    0    0  0.59470910928E+01 -0.94760949100E+01  0.71980469182E+01  0.13303238202E+02  0.00000000000E+00 0.  1.
</event>
<event>
 8    1  0.2994958E-010  0.9118800E+02  0.7816164E-02  0.1184000E+00
        -11   -1    0    0    0    0  0.00000000000E+00  0.00000000000E+00  0.45593999997E+02  0.45594000000E+02  0.51100000000E-03 0. -1.
         11   -1    0    0    0    0 -0.00000000000E+00 -0.00000000000E+00 -0.45593999997E+02  0.45594000000E+02  0.51100000000E-03 0.  1.
         23    2    1    2    0    0  0.35527136788E-14  0.00000000000E+00  0.00000000000E+00  0.91188000000E+02  0.91188000000E+02 0.  0.
    9900012    2    3    3    0    0  0.28094453386E+02 -0.32058042779E+02 -0.81613033116E+01  0.47787270863E+02  0.19999999172E+02 0.  0.
         12    1    3    3    0    0 -0.28094453386E+02  0.32058042779E+02  0.81613033116E+01  0.43400729137E+02  0.00000000000E+00 0. -1.
         11    1    4    4    0    0  0.11742542400E+01 -0.14842655957E+01 -0.28693141511E+01  0.34372781874E+01  0.51100000000E-03 0. -1.
        -11    1    4    4    0    0  0.27848104824E+02 -0.31693555603E+02 -0.61886599826E+01  0.42641504683E+02  0.51100000000E-03 0.  1.
        -12    1    4    4    0    0 -0.92790567764E+00  0.11197784196E+01  0.89667082207E+00  0.17084879920E+01  0.00000000000E+00 0.  1.
</event>
<event>
 8    1  0.2994958E-010  0.9118800E+02  0.7816164E-02  0.1184000E+00
        -11   -1    0    0    0    0  0.00000000000E+00  0.00000000000E+00  0.45593999997E+02  0.45594000000E+02  0.51100000000E-03 0. -1.
         11   -1    0    0    0    0 -0.00000000000E+00 -0.00000000000E+00 -0.45593999997E+02  0.45594000000E+02  0.51100000000E-03 0.  1.
         23    2    1    2    0    0 -0.44408920985E-15  0.00000000000E+00  0.71054273576E-14  0.91188000000E+02  0.91188000000E+02 0.  0.
    9900012    2    3    3    0    0 -0.32962228143E+01 -0.22114313248E+02  0.37198326581E+02  0.47787269180E+02  0.19999991500E+02 0.  0.
        -12    1    3    3    0    0  0.32962228143E+01  0.22114313248E+02 -0.37198326581E+02  0.43400730820E+02  0.00000000000E+00 0.  1.
         11    1    4    4    0    0 -0.83193423615E+01 -0.80335049485E+01  0.21656877485E+02  0.24551354377E+02  0.51100000000E-03 0. -1.
        -11    1    4    4    0    0  0.18058620440E+01 -0.91773317695E+01  0.14536582793E+02  0.17285739663E+02  0.51100000000E-03 0.  1.
        -12    1    4    4    0    0  0.32172575031E+01 -0.49034765297E+01  0.10048663036E+01  0.59501751408E+01  0.00000000000E+00 0.  1.
</event>
<event>
 8    1  0.2994958E-010  0.9118800E+02  0.7816164E-02  0.1184000E+00
        -11   -1    0    0    0    0  0.00000000000E+00  0.00000000000E+00  0.45593999997E+02  0.45594000000E+02  0.51100000000E-03 0. -1.
         11   -1    0    0    0    0 -0.00000000000E+00 -0.00000000000E+00 -0.45593999997E+02  0.45594000000E+02  0.51100000000E-03 0.  1.
         23    2    1    2    0    0 -0.44408920985E-15  0.71054273576E-14  0.00000000000E+00  0.91188000000E+02  0.91188000000E+02 0.  0.
    9900012    2    3    3    0    0 -0.13606341133E+01  0.36593325410E+02  0.23295931598E+02  0.47787271679E+02  0.20000002895E+02 0.  0.
        -12    1    3    3    0    0  0.13606341133E+01 -0.36593325410E+02 -0.23295931598E+02  0.43400728321E+02  0.00000000000E+00 0.  1.
         11    1    4    4    0    0 -0.15871028240E+01 -0.48471735079E+00  0.17011946683E+01  0.23765331566E+01  0.51100000000E-03 0. -1.
        -11    1    4    4    0    0 -0.49778037796E+01  0.86975121260E+01  0.12350452486E+01  0.10097058219E+02  0.51100000000E-03 0.  1.
         12    1    4    4    0    0  0.52042724903E+01  0.28380530635E+02  0.20359691681E+02  0.35313680304E+02  0.00000000000E+00 0. -1.
</event>
<event>
 8    1  0.2994958E-010  0.9118800E+02  0.7816164E-02  0.1184000E+00
        -11   -1    0    0    0    0  0.00000000000E+00  0.00000000000E+00  0.45593999997E+02  0.45594000000E+02  0.51100000000E-03 0. -1.
         11   -1    0    0    0    0 -0.00000000000E+00 -0.00000000000E+00 -0.45593999997E+02  0.45594000000E+02  0.51100000000E-03 0.  1.
         23    2    1    2    0    0  0.00000000000E+00 -0.71054273576E-14  0.35527136788E-14  0.91188000000E+02  0.91188000000E+02 0.  0.
    9900012    2    3    3    0    0  0.18708445888E+02  0.35700889279E+02 -0.16095464439E+02  0.47787269379E+02  0.19999992407E+02 0.  0.
         12    1    3    3    0    0 -0.18708445888E+02 -0.35700889279E+02  0.16095464439E+02  0.43400730621E+02  0.00000000000E+00 0. -1.
         11    1    4    4    0    0  0.69004740782E+01  0.26311514037E+01  0.53495505815E+00  0.74044363316E+01  0.51100000000E-03 0. -1.
        -11    1    4    4    0    0  0.46985056521E+01  0.32455563064E+01 -0.48326408526E+00  0.57308930838E+01  0.51100000000E-03 0.  1.
        -12    1    4    4    0    0  0.71094661580E+01  0.29824181569E+02 -0.16147155412E+02  0.34651939964E+02  0.00000000000E+00 0.  1.
</event>
<event>
 8    1  0.2994958E-010  0.9118800E+02  0.7816164E-02  0.1184000E+00
        -11   -1    0    0    0    0  0.00000000000E+00  0.00000000000E+00  0.45593999997E+02  0.45594000000E+02  0.51100000000E-03 0. -1.
         11   -1    0    0    0    0 -0.00000000000E+00 -0.00000000000E+00 -0.45593999997E+02  0.45594000000E+02  0.51100000000E-03 0.  1.
         23    2    1    2    0    0  0.00000000000E+00 -0.88817841970E-15  0.71054273576E-14  0.91188000000E+02  0.91188000000E+02 0.  0.
    9900012    2    3    3    0    0 -0.25468028314E+02 -0.75967888465E+01  0.34311689231E+02  0.47787266309E+02  0.19999978412E+02 0.  0.
        -12    1    3    3    0    0  0.25468028314E+02  0.75967888465E+01 -0.34311689231E+02  0.43400733691E+02  0.00000000000E+00 0.  1.
         11    1    4    4    0    0 -0.10141044752E+02  0.39494558034E+01  0.11720657719E+02  0.15994149163E+02  0.51100000000E-03 0.  1.
        -11    1    4    4    0    0 -0.12278609159E+02 -0.39152449352E+01  0.18675211983E+02  0.22690458978E+02  0.51100000000E-03 0. -1.
        -12    1    4    4    0    0 -0.30483744030E+01 -0.76309997147E+01  0.39158195288E+01  0.91026581683E+01  0.00000000000E+00 0.  1.
</event>
<event>
 8    1  0.2994958E-010  0.9118800E+02  0.7816164E-02  0.1184000E+00
        -11   -1    0    0    0    0  0.00000000000E+00  0.00000000000E+00  0.45593999997E+02  0.45594000000E+02  0.51100000000E-03 0. -1.
         11   -1    0    0    0    0 -0.00000000000E+00 -0.00000000000E+00 -0.45593999997E+02  0.45594000000E+02  0.51100000000E-03 0.  1.
         23    2    1    2    0    0  0.00000000000E+00 -0.71054273576E-14  0.00000000000E+00  0.91188000000E+02  0.91188000000E+02 0.  0.
    9900012    2    3    3    0    0 -0.88066265755E+01 -0.36497429208E+02  0.21771635992E+02  0.47787272538E+02  0.20000006812E+02 0.  0.
        -12    1    3    3    0    0  0.88066265755E+01  0.36497429208E+02 -0.21771635992E+02  0.43400727462E+02  0.00000000000E+00 0.  1.
         11    1    4    4    0    0 -0.33826151968E+01 -0.71809258235E+01  0.55540198906E+01  0.96878748164E+01  0.51100000000E-03 0. -1.
        -11    1    4    4    0    0 -0.37217533163E+01 -0.25332012928E+02  0.50182656082E+01  0.26091096503E+02  0.51100000000E-03 0.  1.
        -12    1    4    4    0    0 -0.17022580625E+01 -0.39844904562E+01  0.11199350493E+02  0.12008301219E+02  0.00000000000E+00 0.  1.
</event>
<event>
 8    1  0.3368197E-010  0.9118800E+02  0.7816164E-02  0.1184000E+00
        -11   -1    0    0    0    0  0.00000000000E+00  0.00000000000E+00  0.45593999997E+02  0.45594000000E+02  0.51100000000E-03 0. -1.
         11   -1    0    0    0    0 -0.00000000000E+00 -0.00000000000E+00 -0.45593999997E+02  0.45594000000E+02  0.51100000000E-03 0.  1.
         23    2    1    2    0    0  0.00000000000E+00  0.22204460493E-15  0.71054273576E-14  0.91188000000E+02  0.91188000000E+02 0.  0.
    9900012    2    3    3    0    0 -0.12230183607E+02  0.80520136451E+00  0.41634089977E+02  0.47787272028E+02  0.20000004484E+02 0.  0.
        -12    1    3    3    0    0  0.12230183607E+02 -0.80520136451E+00 -0.41634089977E+02  0.43400727972E+02  0.00000000000E+00 0.  1.
         11    1    4    4    0    0 -0.40938214194E+01  0.65267633193E+01  0.14007750583E+02  0.15986716045E+02  0.51100000000E-03 0. -1.
        -11    1    4    4    0    0 -0.29869441951E+01  0.86105853558E+00  0.18423264800E+00  0.31140326517E+01  0.51100000000E-03 0.  1.
         12    1    4    4    0    0 -0.51494179926E+01 -0.65826204903E+01  0.27442106746E+02  0.28686523331E+02  0.00000000000E+00 0. -1.
</event>
<event>
 8    1  0.2994958E-010  0.9118800E+02  0.7816164E-02  0.1184000E+00
        -11   -1    0    0    0    0  0.00000000000E+00  0.00000000000E+00  0.45593999997E+02  0.45594000000E+02  0.51100000000E-03 0.  1.
         11   -1    0    0    0    0 -0.00000000000E+00 -0.00000000000E+00 -0.45593999997E+02  0.45594000000E+02  0.51100000000E-03 0. -1.
         23    2    1    2    0    0  0.00000000000E+00 -0.71054273576E-14 -0.44408920985E-15  0.91188000000E+02  0.91188000000E+02 0.  0.
    9900012    2    3    3    0    0  0.43075332153E+01 -0.43142815569E+02 -0.19406261534E+01  0.47787269505E+02  0.19999992982E+02 0.  0.
        -12    1    3    3    0    0 -0.43075332153E+01  0.43142815569E+02  0.19406261534E+01  0.43400730495E+02  0.00000000000E+00 0.  1.
         11    1    4    4    0    0  0.46743724777E+01 -0.25304837157E+02 -0.70554725611E+01  0.26682657944E+02  0.51100000000E-03 0. -1.
        -11    1    4    4    0    0 -0.61183983085E+00 -0.30162281452E+01 -0.29207493127E+01  0.42429655915E+01  0.51100000000E-03 0.  1.
        -12    1    4    4    0    0  0.24500056852E+00 -0.14821750267E+02  0.80355957203E+01  0.16861645970E+02  0.00000000000E+00 0.  1.
</event>
<event>
 8    1  0.2994958E-010  0.9118800E+02  0.7816164E-02  0.1184000E+00
        -11   -1    0    0    0    0  0.00000000000E+00  0.00000000000E+00  0.45593999997E+02  0.45594000000E+02  0.51100000000E-03 0. -1.
         11   -1    0    0    0    0 -0.00000000000E+00 -0.00000000000E+00 -0.45593999997E+02  0.45594000000E+02  0.51100000000E-03 0.  1.
         23    2    1    2    0    0  0.00000000000E+00  0.00000000000E+00  0.00000000000E+00  0.91188000000E+02  0.91188000000E+02 0.  0.
    9900012    2    3    3    0    0  0.22588319234E+02 -0.96250497668E+00 -0.37046796224E+02  0.47787266226E+02  0.19999978033E+02 0.  0.
         12    1    3    3    0    0 -0.22588319234E+02  0.96250497668E+00  0.37046796224E+02  0.43400733774E+02  0.00000000000E+00 0. -1.
         11    1    4    4    0    0  0.25306601634E+02  0.20989192921E+01 -0.30126516612E+02  0.39400971459E+02  0.51100000000E-03 0. -1.
        -11    1    4    4    0    0 -0.66281969817E+00 -0.45223067998E+00 -0.36054193700E+01  0.36936285188E+01  0.51100000000E-03 0.  1.
         12    1    4    4    0    0 -0.20554627019E+01 -0.26091935888E+01 -0.33148602417E+01  0.46926662490E+01  0.00000000000E+00 0. -1.
</event>
<event>
 8    1  0.2994958E-010  0.9118800E+02  0.7816164E-02  0.1184000E+00
        -11   -1    0    0    0    0  0.00000000000E+00  0.00000000000E+00  0.45593999997E+02  0.45594000000E+02  0.51100000000E-03 0. -1.
         11   -1    0    0    0    0 -0.00000000000E+00 -0.00000000000E+00 -0.45593999997E+02  0.45594000000E+02  0.51100000000E-03 0.  1.
         23    2    1    2    0    0  0.00000000000E+00 -0.17763568394E-14 -0.71054273576E-14  0.91188000000E+02  0.91188000000E+02 0.  0.
    9900012    2    3    3    0    0 -0.69643752211E+01  0.95094057133E+01  0.41769512070E+02  0.47787268925E+02  0.19999990336E+02 0.  0.
        -12    1    3    3    0    0  0.69643752211E+01 -0.95094057133E+01 -0.41769512070E+02  0.43400731075E+02  0.00000000000E+00 0.  1.
         11    1    4    4    0    0 -0.14989504051E+01  0.10763071839E+02  0.20062763390E+02  0.22816771086E+02  0.51100000000E-03 0. -1.
        -11    1    4    4    0    0 -0.36780022895E+01  0.34203817444E+01  0.18147343484E+02  0.18829572164E+02  0.51100000000E-03 0.  1.
        -12    1    4    4    0    0 -0.17874225266E+01 -0.46740478698E+01  0.35594051973E+01  0.61409256742E+01  0.00000000000E+00 0.  1.
</event>
<event>
 8    1  0.2994958E-010  0.9118800E+02  0.7816164E-02  0.1184000E+00
        -11   -1    0    0    0    0  0.00000000000E+00  0.00000000000E+00  0.45593999997E+02  0.45594000000E+02  0.51100000000E-03 0. -1.
         11   -1    0    0    0    0 -0.00000000000E+00 -0.00000000000E+00 -0.45593999997E+02  0.45594000000E+02  0.51100000000E-03 0.  1.
         23    2    1    2    0    0  0.00000000000E+00  0.00000000000E+00  0.00000000000E+00  0.91188000000E+02  0.91188000000E+02 0.  0.
    9900012    2    3    3    0    0 -0.16871936384E+02  0.29781867095E+02  0.26683360620E+02  0.47787267529E+02  0.19999983973E+02 0.  0.
        -12    1    3    3    0    0  0.16871936384E+02 -0.29781867095E+02 -0.26683360620E+02  0.43400732471E+02  0.00000000000E+00 0.  1.
         11    1    4    4    0    0 -0.17550773228E+01  0.93342799519E+01  0.29469287419E+01  0.99445194907E+01  0.51100000000E-03 0. -1.
        -11    1    4    4    0    0 -0.13412361593E+02  0.88995987028E+01  0.72787850504E+01  0.17665644982E+02  0.51100000000E-03 0.  1.
        -12    1    4    4    0    0 -0.17044974680E+01  0.11547988441E+02  0.16457646828E+02  0.20177103057E+02  0.00000000000E+00 0.  1.
</event>
<event>
 8    1  0.2994958E-010  0.9118800E+02  0.7816164E-02  0.1184000E+00
        -11   -1    0    0    0    0  0.00000000000E+00  0.00000000000E+00  0.45593999997E+02  0.45594000000E+02  0.51100000000E-03 0. -1.
         11   -1    0    0    0    0 -0.00000000000E+00 -0.00000000000E+00 -0.45593999997E+02  0.45594000000E+02  0.51100000000E-03 0.  1.
         23    2    1    2    0    0 -0.88817841970E-15  0.00000000000E+00  0.00000000000E+00  0.91188000000E+02  0.91188000000E+02 0.  0.
    9900012    2    3    3    0    0  0.79019417528E+01 -0.14439291834E+02 -0.40158300282E+02  0.47787275194E+02  0.20000018920E+02 0.  0.
         12    1    3    3    0    0 -0.79019417528E+01  0.14439291834E+02  0.40158300282E+02  0.43400724806E+02  0.00000000000E+00 0. -1.
         11    1    4    4    0    0  0.35267603024E+00 -0.43202783533E+01 -0.32342890380E+01  0.54083094655E+01  0.51100000000E-03 0. -1.
        -11    1    4    4    0    0  0.32629331387E+01  0.43603219161E+01 -0.70811554234E+01  0.89331910464E+01  0.51100000000E-03 0.  1.
        -12    1    4    4    0    0  0.42863325839E+01 -0.14479335397E+02 -0.29842855821E+02  0.33445774682E+02  0.00000000000E+00 0.  1.
</event>
<event>
 8    1  0.2994958E-010  0.9118800E+02  0.7816164E-02  0.1184000E+00
        -11   -1    0    0    0    0  0.00000000000E+00  0.00000000000E+00  0.45593999997E+02  0.45594000000E+02  0.51100000000E-03 0. -1.
         11   -1    0    0    0    0 -0.00000000000E+00 -0.00000000000E+00 -0.45593999997E+02  0.45594000000E+02  0.51100000000E-03 0.  1.
         23    2    1    2    0    0  0.00000000000E+00  0.35527136788E-14 -0.17763568394E-14  0.91188000000E+02  0.91188000000E+02 0.  0.
    9900012    2    3    3    0    0 -0.35746407558E+02 -0.19085021509E+02  0.15542826720E+02  0.47787272337E+02  0.20000005891E+02 0.  0.
        -12    1    3    3    0    0  0.35746407558E+02  0.19085021509E+02 -0.15542826720E+02  0.43400727663E+02  0.00000000000E+00 0.  1.
         11    1    4    4    0    0 -0.20560540913E+02 -0.18514120237E+02  0.47872643511E+01  0.28078931443E+02  0.51100000000E-03 0. -1.
        -11    1    4    4    0    0 -0.66105365228E+01 -0.36741272057E+00  0.96334010049E+00  0.66904566090E+01  0.51100000000E-03 0.  1.
         12    1    4    4    0    0 -0.85753301224E+01 -0.20348855176E+00  0.97922222680E+01  0.13017884284E+02  0.00000000000E+00 0. -1.
</event>
<event>
 8    1  0.2994958E-010  0.9118800E+02  0.7816164E-02  0.1184000E+00
        -11   -1    0    0    0    0  0.00000000000E+00  0.00000000000E+00  0.45593999997E+02  0.45594000000E+02  0.51100000000E-03 0. -1.
         11   -1    0    0    0    0 -0.00000000000E+00 -0.00000000000E+00 -0.45593999997E+02  0.45594000000E+02  0.51100000000E-03 0.  1.
         23    2    1    2    0    0  0.00000000000E+00  0.00000000000E+00  0.35527136788E-14  0.91188000000E+02  0.91188000000E+02 0.  0.
    9900012    2    3    3    0    0  0.21889975472E+02  0.23954938717E+02  0.28820361629E+02  0.47787270057E+02  0.19999995500E+02 0.  0.
        -12    1    3    3    0    0 -0.21889975472E+02 -0.23954938717E+02 -0.28820361629E+02  0.43400729943E+02  0.00000000000E+00 0.  1.
         11    1    4    4    0    0  0.89497889312E+01  0.57283252945E+01  0.17717862374E+02  0.20659987414E+02  0.51100000000E-03 0. -1.
        -11    1    4    4    0    0  0.70792484921E+00  0.67706221316E+01  0.72221416204E+01  0.99248078817E+01  0.51100000000E-03 0.  1.
        -12    1    4    4    0    0  0.12232261692E+02  0.11455991291E+02  0.38803576352E+01  0.17202474762E+02  0.00000000000E+00 0.  1.
</event>
<event>
 8    1  0.2994958E-010  0.9118800E+02  0.7816164E-02  0.1184000E+00
        -11   -1    0    0    0    0  0.00000000000E+00  0.00000000000E+00  0.45593999997E+02  0.45594000000E+02  0.51100000000E-03 0. -1.
         11   -1    0    0    0    0 -0.00000000000E+00 -0.00000000000E+00 -0.45593999997E+02  0.45594000000E+02  0.51100000000E-03 0.  1.
         23    2    1    2    0    0 -0.88817841970E-15 -0.71054273576E-14 -0.35527136788E-14  0.91188000000E+02  0.91188000000E+02 0.  0.
    9900012    2    3    3    0    0  0.78958726768E+01  0.37657862384E+02  0.20078933468E+02  0.47787274501E+02  0.20000015760E+02 0.  0.
        -12    1    3    3    0    0 -0.78958726768E+01 -0.37657862384E+02 -0.20078933468E+02  0.43400725499E+02  0.00000000000E+00 0.  1.
         11    1    4    4    0    0  0.54106711457E+01  0.10605179973E+02  0.11432016414E+02  0.16505641583E+02  0.51100000000E-03 0. -1.
        -11    1    4    4    0    0  0.74882174368E+01  0.13944224151E+02  0.63975963293E+01  0.17071731799E+02  0.51100000000E-03 0.  1.
        -12    1    4    4    0    0 -0.50030159057E+01  0.13108458260E+02  0.22493207241E+01  0.14209901119E+02  0.00000000000E+00 0.  1.
</event>
<event>
 8    1  0.2994958E-010  0.9118800E+02  0.7816164E-02  0.1184000E+00
        -11   -1    0    0    0    0  0.00000000000E+00  0.00000000000E+00  0.45593999997E+02  0.45594000000E+02  0.51100000000E-03 0. -1.
         11   -1    0    0    0    0 -0.00000000000E+00 -0.00000000000E+00 -0.45593999997E+02  0.45594000000E+02  0.51100000000E-03 0.  1.
         23    2    1    2    0    0  0.00000000000E+00 -0.71054273576E-14  0.00000000000E+00  0.91188000000E+02  0.91188000000E+02 0.  0.
    9900012    2    3    3    0    0 -0.68324551417E+00  0.34108435433E+02  0.26828554844E+02  0.47787267896E+02  0.19999985646E+02 0.  0.
        -12    1    3    3    0    0  0.68324551417E+00 -0.34108435433E+02 -0.26828554844E+02  0.43400732104E+02  0.00000000000E+00 0.  1.
         11    1    4    4    0    0  0.25163352801E+01  0.10810457512E+02  0.10628266090E+02  0.15367432290E+02  0.51100000000E-03 0. -1.
        -11    1    4    4    0    0 -0.38420778516E+00  0.14320348430E+01  0.91560954302E+01  0.92753664727E+01  0.51100000000E-03 0.  1.
        -12    1    4    4    0    0 -0.28153730091E+01  0.21865943078E+02  0.70441933237E+01  0.23144469133E+02  0.00000000000E+00 0.  1.
</event>
<event>
 8    1  0.2994958E-010  0.9118800E+02  0.7816164E-02  0.1184000E+00
        -11   -1    0    0    0    0  0.00000000000E+00  0.00000000000E+00  0.45593999997E+02  0.45594000000E+02  0.51100000000E-03 0. -1.
         11   -1    0    0    0    0 -0.00000000000E+00 -0.00000000000E+00 -0.45593999997E+02  0.45594000000E+02  0.51100000000E-03 0.  1.
         23    2    1    2    0    0  0.00000000000E+00  0.55511151231E-15  0.00000000000E+00  0.91188000000E+02  0.91188000000E+02 0.  0.
    9900012    2    3    3    0    0 -0.43320571289E+02  0.36939691299E+00 -0.26105777052E+01  0.47787268821E+02  0.19999989863E+02 0.  0.
         12    1    3    3    0    0  0.43320571289E+02 -0.36939691299E+00  0.26105777052E+01  0.43400731179E+02  0.00000000000E+00 0. -1.
         11    1    4    4    0    0 -0.86755213428E+01  0.32663236617E+01 -0.58819870701E+01  0.10978675375E+02  0.51100000000E-03 0. -1.
        -11    1    4    4    0    0 -0.21498289673E+02 -0.11394631349E+01 -0.36688545073E+01  0.21838849071E+02  0.51100000000E-03 0.  1.
         12    1    4    4    0    0 -0.13146760273E+02 -0.17574636138E+01  0.69402638721E+01  0.14969744375E+02  0.00000000000E+00 0. -1.
</event>
<event>
 8    1  0.2994958E-010  0.9118800E+02  0.7816164E-02  0.1184000E+00
        -11   -1    0    0    0    0  0.00000000000E+00  0.00000000000E+00  0.45593999997E+02  0.45594000000E+02  0.51100000000E-03 0. -1.
         11   -1    0    0    0    0 -0.00000000000E+00 -0.00000000000E+00 -0.45593999997E+02  0.45594000000E+02  0.51100000000E-03 0.  1.
         23    2    1    2    0    0  0.00000000000E+00  0.35527136788E-14  0.00000000000E+00  0.91188000000E+02  0.91188000000E+02 0.  0.
    9900012    2    3    3    0    0  0.18644996807E+02  0.28656197261E+02  0.26735924130E+02  0.47787272051E+02  0.20000004590E+02 0.  0.
        -12    1    3    3    0    0 -0.18644996807E+02 -0.28656197261E+02 -0.26735924130E+02  0.43400727949E+02  0.00000000000E+00 0.  1.
         11    1    4    4    0    0  0.74776238576E+01  0.78039700663E+01  0.31304357642E+01  0.11252396886E+02  0.51100000000E-03 0. -1.
        -11    1    4    4    0    0  0.17599861938E+01  0.10494740180E+02  0.20509737952E+01  0.10837140611E+02  0.51100000000E-03 0.  1.
         12    1    4    4    0    0  0.94073867559E+01  0.10357487015E+02  0.21554514571E+02  0.25697734554E+02  0.00000000000E+00 0. -1.
</event>
<event>
 8    1  0.2994958E-010  0.9118800E+02  0.7816164E-02  0.1184000E+00
        -11   -1    0    0    0    0  0.00000000000E+00  0.00000000000E+00  0.45593999997E+02  0.45594000000E+02  0.51100000000E-03 0. -1.
         11   -1    0    0    0    0 -0.00000000000E+00 -0.00000000000E+00 -0.45593999997E+02  0.45594000000E+02  0.51100000000E-03 0.  1.
         23    2    1    2    0    0  0.00000000000E+00 -0.17763568394E-14  0.00000000000E+00  0.91188000000E+02  0.91188000000E+02 0.  0.
    9900012    2    3    3    0    0  0.10303428196E+02  0.12949271895E+02 -0.40122049559E+02  0.47787272633E+02  0.20000007242E+02 0.  0.
         12    1    3    3    0    0 -0.10303428196E+02 -0.12949271895E+02  0.40122049559E+02  0.43400727367E+02  0.00000000000E+00 0. -1.
         11    1    4    4    0    0  0.53597792770E+01  0.10983545130E+02 -0.10984660950E+02  0.16432537052E+02  0.51100000000E-03 0. -1.
        -11    1    4    4    0    0 -0.79857809491E+00  0.41455630136E+01 -0.55063665696E+01  0.69385511985E+01  0.51100000000E-03 0.  1.
         12    1    4    4    0    0  0.57422270139E+01 -0.21798362491E+01 -0.23631022040E+02  0.24416184383E+02  0.00000000000E+00 0. -1.
</event>
<event>
 8    1  0.2994958E-010  0.9118800E+02  0.7816164E-02  0.1184000E+00
        -11   -1    0    0    0    0  0.00000000000E+00  0.00000000000E+00  0.45593999997E+02  0.45594000000E+02  0.51100000000E-03 0. -1.
         11   -1    0    0    0    0 -0.00000000000E+00 -0.00000000000E+00 -0.45593999997E+02  0.45594000000E+02  0.51100000000E-03 0.  1.
         23    2    1    2    0    0 -0.88817841970E-15  0.88817841970E-15  0.00000000000E+00  0.91188000000E+02  0.91188000000E+02 0.  0.
    9900012    2    3    3    0    0 -0.66574536916E+01 -0.62275281286E+01  0.42432528088E+02  0.47787271479E+02  0.20000001981E+02 0.  0.
        -12    1    3    3    0    0  0.66574536916E+01  0.62275281286E+01 -0.42432528088E+02  0.43400728521E+02  0.00000000000E+00 0.  1.
         11    1    4    4    0    0 -0.31801789967E+01 -0.46519560304E+01  0.13318868030E+02  0.14461897497E+02  0.51100000000E-03 0. -1.
        -11    1    4    4    0    0  0.53080202773E+01 -0.26891533003E+01  0.18862909686E+02  0.19779180641E+02  0.51100000000E-03 0.  1.
         12    1    4    4    0    0 -0.87852949723E+01  0.11135812021E+01  0.10250750372E+02  0.13546193341E+02  0.00000000000E+00 0. -1.
</event>
<event>
 8    1  0.2994958E-010  0.9118800E+02  0.7816164E-02  0.1184000E+00
        -11   -1    0    0    0    0  0.00000000000E+00  0.00000000000E+00  0.45593999997E+02  0.45594000000E+02  0.51100000000E-03 0. -1.
         11   -1    0    0    0    0 -0.00000000000E+00 -0.00000000000E+00 -0.45593999997E+02  0.45594000000E+02  0.51100000000E-03 0.  1.
         23    2    1    2    0    0 -0.88817841970E-15  0.00000000000E+00  0.00000000000E+00  0.91188000000E+02  0.91188000000E+02 0.  0.
    9900012    2    3    3    0    0  0.50085319246E+01  0.12289208649E+02 -0.41322066943E+02  0.47787271231E+02  0.20000000851E+02 0.  0.
         12    1    3    3    0    0 -0.50085319246E+01 -0.12289208649E+02  0.41322066943E+02  0.43400728769E+02  0.00000000000E+00 0. -1.
         11    1    4    4    0    0  0.26546922918E+01 -0.21770832384E+01 -0.10708296254E+02  0.11245207491E+02  0.51100000000E-03 0. -1.
        -11    1    4    4    0    0  0.79751319032E+01  0.91352404147E+01 -0.17067613008E+02  0.20937018899E+02  0.51100000000E-03 0.  1.
         12    1    4    4    0    0 -0.56212922704E+01  0.53310514722E+01 -0.13546157680E+02  0.15605044841E+02  0.00000000000E+00 0. -1.
</event>
<event>
 8    1  0.2994958E-010  0.9118800E+02  0.7816164E-02  0.1184000E+00
        -11   -1    0    0    0    0  0.00000000000E+00  0.00000000000E+00  0.45593999997E+02  0.45594000000E+02  0.51100000000E-03 0.  1.
         11   -1    0    0    0    0 -0.00000000000E+00 -0.00000000000E+00 -0.45593999997E+02  0.45594000000E+02  0.51100000000E-03 0. -1.
         23    2    1    2    0    0  0.00000000000E+00 -0.35527136788E-14  0.00000000000E+00  0.91188000000E+02  0.91188000000E+02 0.  0.
    9900012    2    3    3    0    0  0.29178420758E+02 -0.21341684994E+02 -0.24016196255E+02  0.47787246102E+02  0.19999886277E+02 0.  0.
         12    1    3    3    0    0 -0.29178420758E+02  0.21341684994E+02  0.24016196255E+02  0.43400753898E+02  0.00000000000E+00 0. -1.
         11    1    4    4    0    0  0.11016183850E+02 -0.28793522251E+01 -0.66360170397E+01  0.13178911119E+02  0.51100000000E-03 0. -1.
        -11    1    4    4    0    0  0.13360663391E+02 -0.46794344166E+01 -0.37651764537E+01  0.14648583096E+02  0.51100000000E-03 0.  1.
        -12    1    4    4    0    0  0.48015735168E+01 -0.13782898352E+02 -0.13615002762E+02  0.19959751888E+02  0.00000000000E+00 0.  1.
</event>
<event>
 8    1  0.2994958E-010  0.9118800E+02  0.7816164E-02  0.1184000E+00
        -11   -1    0    0    0    0  0.00000000000E+00  0.00000000000E+00  0.45593999997E+02  0.45594000000E+02  0.51100000000E-03 0. -1.
         11   -1    0    0    0    0 -0.00000000000E+00 -0.00000000000E+00 -0.45593999997E+02  0.45594000000E+02  0.51100000000E-03 0.  1.
         23    2    1    2    0    0  0.00000000000E+00  0.00000000000E+00  0.00000000000E+00  0.91188000000E+02  0.91188000000E+02 0.  0.
    9900012    2    3    3    0    0  0.19080216157E+02  0.49232731742E+01  0.38669492420E+02  0.47787275220E+02  0.20000019039E+02 0.  0.
        -12    1    3    3    0    0 -0.19080216157E+02 -0.49232731742E+01 -0.38669492420E+02  0.43400724780E+02  0.00000000000E+00 0.  1.
         11    1    4    4    0    0  0.46132818114E+01 -0.14092141126E+01  0.62018872058E+01  0.78569497046E+01  0.51100000000E-03 0. -1.
        -11    1    4    4    0    0  0.12604031912E+02  0.94756170537E+00  0.83498048611E+01  0.15148555545E+02  0.51100000000E-03 0.  1.
        -12    1    4    4    0    0  0.18629024342E+01  0.53849255814E+01  0.24117800353E+02  0.24781769971E+02  0.00000000000E+00 0.  1.
</event>
<event>
 8    1  0.2994958E-010  0.9118800E+02  0.7816164E-02  0.1184000E+00
        -11   -1    0    0    0    0  0.00000000000E+00  0.00000000000E+00  0.45593999997E+02  0.45594000000E+02  0.51100000000E-03 0.  1.
         11   -1    0    0    0    0 -0.00000000000E+00 -0.00000000000E+00 -0.45593999997E+02  0.45594000000E+02  0.51100000000E-03 0. -1.
         23    2    1    2    0    0 -0.71054273576E-14  0.44408920985E-15  0.00000000000E+00  0.91188000000E+02  0.91188000000E+02 0.  0.
    9900012    2    3    3    0    0 -0.42005906112E+02  0.31636131263E+01  0.10445990386E+02  0.47787270611E+02  0.19999998026E+02 0.  0.
        -12    1    3    3    0    0  0.42005906112E+02 -0.31636131263E+01 -0.10445990386E+02  0.43400729389E+02  0.00000000000E+00 0.  1.
         11    1    4    4    0    0 -0.86988407453E+01  0.34425759915E+01  0.11104169221E+01  0.94209439958E+01  0.51100000000E-03 0. -1.
        -11    1    4    4    0    0 -0.10522070069E+02 -0.69801602536E+00  0.11345028058E+02  0.15489055711E+02  0.51100000000E-03 0.  1.
         12    1    4    4    0    0 -0.22784995298E+02  0.41905316023E+00 -0.20094545948E+01  0.22877270905E+02  0.00000000000E+00 0. -1.
</event>
<event>
 8    1  0.2994958E-010  0.9118800E+02  0.7816164E-02  0.1184000E+00
        -11   -1    0    0    0    0  0.00000000000E+00  0.00000000000E+00  0.45593999997E+02  0.45594000000E+02  0.51100000000E-03 0.  1.
         11   -1    0    0    0    0 -0.00000000000E+00 -0.00000000000E+00 -0.45593999997E+02  0.45594000000E+02  0.51100000000E-03 0. -1.
         23    2    1    2    0    0  0.00000000000E+00  0.00000000000E+00  0.00000000000E+00  0.91188000000E+02  0.91188000000E+02 0.  0.
    9900012    2    3    3    0    0  0.12525677797E+02  0.17664673416E+02  0.37612362839E+02  0.47787272708E+02  0.20000007585E+02 0.  0.
        -12    1    3    3    0    0 -0.12525677797E+02 -0.17664673416E+02 -0.37612362839E+02  0.43400727292E+02  0.00000000000E+00 0.  1.
         11    1    4    4    0    0  0.42722575852E+01  0.10463042144E+02  0.13943983087E+02  0.17948874627E+02  0.51100000000E-03 0. -1.
        -11    1    4    4    0    0  0.34603774564E+01  0.10985559300E+02  0.11789473856E+02  0.16481760202E+02  0.51100000000E-03 0.  1.
        -12    1    4    4    0    0  0.47930427555E+01 -0.37839280281E+01  0.11878905896E+02  0.13356637880E+02  0.00000000000E+00 0.  1.
</event>
<event>
 8    1  0.2994958E-010  0.9118800E+02  0.7816164E-02  0.1184000E+00
        -11   -1    0    0    0    0  0.00000000000E+00  0.00000000000E+00  0.45593999997E+02  0.45594000000E+02  0.51100000000E-03 0. -1.
         11   -1    0    0    0    0 -0.00000000000E+00 -0.00000000000E+00 -0.45593999997E+02  0.45594000000E+02  0.51100000000E-03 0.  1.
         23    2    1    2    0    0  0.00000000000E+00 -0.17763568394E-14 -0.99920072216E-15  0.91188000000E+02  0.91188000000E+02 0.  0.
    9900012    2    3    3    0    0 -0.41604658778E+02  0.12350676123E+02  0.37015874377E+00  0.47787264404E+02  0.19999969725E+02 0.  0.
        -12    1    3    3    0    0  0.41604658778E+02 -0.12350676123E+02 -0.37015874377E+00  0.43400735596E+02  0.00000000000E+00 0.  1.
         11    1    4    4    0    0 -0.19162747196E+02  0.37352695978E+01 -0.26988298108E+01  0.19709053799E+02  0.51100000000E-03 0. -1.
        -11    1    4    4    0    0 -0.16874698242E+02  0.66033311335E+00  0.60224104435E+01  0.17929330952E+02  0.51100000000E-03 0.  1.
        -12    1    4    4    0    0 -0.55672133410E+01  0.79550734114E+01 -0.29534218889E+01  0.10148879653E+02  0.00000000000E+00 0.  1.
</event>
<event>
 8    1  0.2994958E-010  0.9118800E+02  0.7816164E-02  0.1184000E+00
        -11   -1    0    0    0    0  0.00000000000E+00  0.00000000000E+00  0.45593999997E+02  0.45594000000E+02  0.51100000000E-03 0. -1.
         11   -1    0    0    0    0 -0.00000000000E+00 -0.00000000000E+00 -0.45593999997E+02  0.45594000000E+02  0.51100000000E-03 0.  1.
         23    2    1    2    0    0 -0.44408920985E-15 -0.55511151231E-15  0.71054273576E-14  0.91188000000E+02  0.91188000000E+02 0.  0.
    9900012    2    3    3    0    0  0.14131696096E+01 -0.26892120410E+00 -0.43376880088E+02  0.47787273127E+02  0.20000009495E+02 0.  0.
         12    1    3    3    0    0 -0.14131696096E+01  0.26892120410E+00  0.43376880088E+02  0.43400726873E+02  0.00000000000E+00 0. -1.
         11    1    4    4    0    0 -0.34794763279E+01 -0.16338513215E+01 -0.18895105673E+02  0.19282148333E+02  0.51100000000E-03 0. -1.
        -11    1    4    4    0    0  0.44398501319E+01  0.53449397007E+01 -0.23321763751E+02  0.24334858009E+02  0.51100000000E-03 0.  1.
        -12    1    4    4    0    0  0.45279580558E+00 -0.39800095832E+01 -0.11600106637E+01  0.41702667857E+01  0.00000000000E+00 0.  1.
</event>
<event>
 8    1  0.3202797E-010  0.9118800E+02  0.7816164E-02  0.1184000E+00
        -11   -1    0    0    0    0  0.00000000000E+00  0.00000000000E+00  0.45593999997E+02  0.45594000000E+02  0.51100000000E-03 0. -1.
         11   -1    0    0    0    0 -0.00000000000E+00 -0.00000000000E+00 -0.45593999997E+02  0.45594000000E+02  0.51100000000E-03 0.  1.
         23    2    1    2    0    0  0.35527136788E-14  0.00000000000E+00 -0.35527136788E-14  0.91188000000E+02  0.91188000000E+02 0.  0.
    9900012    2    3    3    0    0 -0.29928287087E+02 -0.16840514927E+02  0.26538989766E+02  0.47787270873E+02  0.19999999218E+02 0.  0.
        -12    1    3    3    0    0  0.29928287087E+02  0.16840514927E+02 -0.26538989766E+02  0.43400729127E+02  0.00000000000E+00 0.  1.
         11    1    4    4    0    0 -0.75289410739E+01 -0.11069540866E+01  0.11359823480E+01  0.76942028307E+01  0.51100000000E-03 0. -1.
        -11    1    4    4    0    0 -0.52802150557E+00  0.12418477212E+01  0.63322131470E+01  0.64744046887E+01  0.51100000000E-03 0.  1.
         12    1    4    4    0    0 -0.21871324507E+02 -0.16975408562E+02  0.19070794271E+02  0.33618663353E+02  0.00000000000E+00 0. -1.
</event>
<event>
 8    1  0.2994958E-010  0.9118800E+02  0.7816164E-02  0.1184000E+00
        -11   -1    0    0    0    0  0.00000000000E+00  0.00000000000E+00  0.45593999997E+02  0.45594000000E+02  0.51100000000E-03 0.  1.
         11   -1    0    0    0    0 -0.00000000000E+00 -0.00000000000E+00 -0.45593999997E+02  0.45594000000E+02  0.51100000000E-03 0. -1.
         23    2    1    2    0    0  0.00000000000E+00  0.00000000000E+00  0.35527136788E-14  0.91188000000E+02  0.91188000000E+02 0.  0.
    9900012    2    3    3    0    0  0.37520940005E+02 -0.10410765034E+01  0.21788037208E+02  0.47787270231E+02  0.19999996291E+02 0.  0.
        -12    1    3    3    0    0 -0.37520940005E+02  0.10410765034E+01 -0.21788037208E+02  0.43400729769E+02  0.00000000000E+00 0.  1.
         11    1    4    4    0    0  0.45134308767E+01 -0.27181410527E+01  0.13886627439E+01  0.54486451103E+01  0.51100000000E-03 0. -1.
        -11    1    4    4    0    0 -0.75683551612E-01  0.36835127187E+01  0.37149953131E+01  0.52321300047E+01  0.51100000000E-03 0.  1.
         12    1    4    4    0    0  0.33083192679E+02 -0.20064481694E+01  0.16684379151E+02  0.37106495116E+02  0.00000000000E+00 0. -1.
</event>
<event>
 8    1  0.2994958E-010  0.9118800E+02  0.7816164E-02  0.1184000E+00
        -11   -1    0    0    0    0  0.00000000000E+00  0.00000000000E+00  0.45593999997E+02  0.45594000000E+02  0.51100000000E-03 0.  1.
         11   -1    0    0    0    0 -0.00000000000E+00 -0.00000000000E+00 -0.45593999997E+02  0.45594000000E+02  0.51100000000E-03 0. -1.
         23    2    1    2    0    0  0.00000000000E+00  0.35527136788E-14  0.00000000000E+00  0.91188000000E+02  0.91188000000E+02 0.  0.
    9900012    2    3    3    0    0 -0.31526488661E+02  0.29815873740E+02 -0.84698624675E+00  0.47787271897E+02  0.20000003887E+02 0.  0.
         12    1    3    3    0    0  0.31526488661E+02 -0.29815873740E+02  0.84698624675E+00  0.43400728103E+02  0.00000000000E+00 0. -1.
         11    1    4    4    0    0 -0.28939322593E+01 -0.19057810985E+01 -0.31573373125E+00  0.34794444336E+01  0.51100000000E-03 0. -1.
        -11    1    4    4    0    0  0.57862874481E+00  0.37868101937E+01  0.57836075618E+00  0.38741765697E+01  0.51100000000E-03 0.  1.
        -12    1    4    4    0    0 -0.29211185147E+02  0.27934844644E+02 -0.11096132717E+01  0.40433650894E+02  0.00000000000E+00 0.  1.
</event>
<event>
 8    1  0.2994958E-010  0.9118800E+02  0.7816164E-02  0.1184000E+00
        -11   -1    0    0    0    0  0.00000000000E+00  0.00000000000E+00  0.45593999997E+02  0.45594000000E+02  0.51100000000E-03 0. -1.
         11   -1    0    0    0    0 -0.00000000000E+00 -0.00000000000E+00 -0.45593999997E+02  0.45594000000E+02  0.51100000000E-03 0.  1.
         23    2    1    2    0    0  0.00000000000E+00 -0.22204460493E-15  0.00000000000E+00  0.91188000000E+02  0.91188000000E+02 0.  0.
    9900012    2    3    3    0    0  0.26021048575E+02  0.79177501438E+00 -0.34726089613E+02  0.47787272167E+02  0.20000005120E+02 0.  0.
         12    1    3    3    0    0 -0.26021048575E+02 -0.79177501438E+00  0.34726089613E+02  0.43400727833E+02  0.00000000000E+00 0. -1.
         11    1    4    4    0    0  0.15147599043E+02 -0.12389710736E+01 -0.85053859735E+01  0.17416268168E+02  0.51100000000E-03 0. -1.
        -11    1    4    4    0    0  0.86494495208E+01  0.41366330445E+01 -0.99618444013E+01  0.13826172793E+02  0.51100000000E-03 0.  1.
        -12    1    4    4    0    0  0.22240000108E+01 -0.21058869565E+01 -0.16258859238E+02  0.16544831206E+02  0.00000000000E+00 0.  1.
</event>
<event>
 8    1  0.2994958E-010  0.9118800E+02  0.7816164E-02  0.1184000E+00
        -11   -1    0    0    0    0  0.00000000000E+00  0.00000000000E+00  0.45593999997E+02  0.45594000000E+02  0.51100000000E-03 0. -1.
         11   -1    0    0    0    0 -0.00000000000E+00 -0.00000000000E+00 -0.45593999997E+02  0.45594000000E+02  0.51100000000E-03 0.  1.
         23    2    1    2    0    0 -0.35527136788E-14  0.00000000000E+00  0.00000000000E+00  0.91188000000E+02  0.91188000000E+02 0.  0.
    9900012    2    3    3    0    0  0.22944885929E+02  0.28199205559E+02 -0.23705704882E+02  0.47787269264E+02  0.19999991883E+02 0.  0.
         12    1    3    3    0    0 -0.22944885929E+02 -0.28199205559E+02  0.23705704882E+02  0.43400730736E+02  0.00000000000E+00 0. -1.
         11    1    4    4    0    0  0.17022819269E+02  0.11485085912E+02 -0.12273607110E+02  0.23923315114E+02  0.51100000000E-03 0. -1.
        -11    1    4    4    0    0  0.68514356251E+01  0.10841871325E+02 -0.12400968712E+02  0.17840189719E+02  0.51100000000E-03 0.  1.
         12    1    4    4    0    0 -0.92936896540E+00  0.58722483212E+01  0.96887094020E+00  0.60237644309E+01  0.00000000000E+00 0. -1.
</event>
<event>
 8    1  0.2994958E-010  0.9118800E+02  0.7816164E-02  0.1184000E+00
        -11   -1    0    0    0    0  0.00000000000E+00  0.00000000000E+00  0.45593999997E+02  0.45594000000E+02  0.51100000000E-03 0. -1.
         11   -1    0    0    0    0 -0.00000000000E+00 -0.00000000000E+00 -0.45593999997E+02  0.45594000000E+02  0.51100000000E-03 0.  1.
         23    2    1    2    0    0  0.00000000000E+00  0.00000000000E+00  0.00000000000E+00  0.91188000000E+02  0.91188000000E+02 0.  0.
    9900012    2    3    3    0    0  0.41017193535E+01  0.21559387015E+02 -0.37443217529E+02  0.47787241838E+02  0.19999866835E+02 0.  0.
         12    1    3    3    0    0 -0.41017193535E+01 -0.21559387015E+02  0.37443217529E+02  0.43400758162E+02  0.00000000000E+00 0. -1.
         11    1    4    4    0    0 -0.12034546993E+01  0.69811373213E+00  0.10756050007E+01  0.17585768038E+01  0.51100000000E-03 0. -1.
        -11    1    4    4    0    0 -0.38720794135E+01  0.67266267588E+01 -0.17065837207E+02  0.18747888051E+02  0.51100000000E-03 0.  1.
        -12    1    4    4    0    0  0.91772534663E+01  0.14134646524E+02 -0.21452985323E+02  0.27280776983E+02  0.00000000000E+00 0.  1.
</event>
<event>
 8    1  0.2994958E-010  0.9118800E+02  0.7816164E-02  0.1184000E+00
        -11   -1    0    0    0    0  0.00000000000E+00  0.00000000000E+00  0.45593999997E+02  0.45594000000E+02  0.51100000000E-03 0. -1.
         11   -1    0    0    0    0 -0.00000000000E+00 -0.00000000000E+00 -0.45593999997E+02  0.45594000000E+02  0.51100000000E-03 0.  1.
         23    2    1    2    0    0 -0.17763568394E-14 -0.17763568394E-14  0.71054273576E-14  0.91188000000E+02  0.91188000000E+02 0.  0.
    9900012    2    3    3    0    0 -0.83336145050E+01  0.14633454958E+01  0.42567962190E+02  0.47787286691E+02  0.20000071337E+02 0.  0.
        -12    1    3    3    0    0  0.83336145050E+01 -0.14633454958E+01 -0.42567962190E+02  0.43400713309E+02  0.00000000000E+00 0.  1.
         11    1    4    4    0    0 -0.21393755335E+01 -0.31635447751E+01  0.39518506914E+01  0.54956407603E+01  0.51100000000E-03 0. -1.
        -11    1    4    4    0    0 -0.15847705348E+01 -0.56129989886E+01  0.16245041153E+02  0.17260319163E+02  0.51100000000E-03 0.  1.
        -12    1    4    4    0    0 -0.46094684366E+01  0.10239889259E+02  0.22371070345E+02  0.25031326767E+02  0.00000000000E+00 0.  1.
</event>
<event>
 8    1  0.2994958E-010  0.9118800E+02  0.7816164E-02  0.1184000E+00
        -11   -1    0    0    0    0  0.00000000000E+00  0.00000000000E+00  0.45593999997E+02  0.45594000000E+02  0.51100000000E-03 0. -1.
         11   -1    0    0    0    0 -0.00000000000E+00 -0.00000000000E+00 -0.45593999997E+02  0.45594000000E+02  0.51100000000E-03 0.  1.
         23    2    1    2    0    0  0.00000000000E+00  0.00000000000E+00  0.00000000000E+00  0.91188000000E+02  0.91188000000E+02 0.  0.
    9900012    2    3    3    0    0  0.66116836562E+01 -0.83756643886E+01  0.42068503432E+02  0.47787250055E+02  0.19999904302E+02 0.  0.
        -12    1    3    3    0    0 -0.66116836562E+01  0.83756643886E+01 -0.42068503432E+02  0.43400749945E+02  0.00000000000E+00 0.  1.
         11    1    4    4    0    0  0.67416285718E+00  0.25450778571E+01  0.39537490835E+01  0.47501630428E+01  0.51100000000E-03 0. -1.
        -11    1    4    4    0    0  0.27325424858E+01  0.27227709336E+01  0.18691899958E+02  0.19085790377E+02  0.51100000000E-03 0.  1.
         12    1    4    4    0    0  0.32049783132E+01 -0.13643513179E+02  0.19422854391E+02  0.23951296636E+02  0.00000000000E+00 0. -1.
</event>
<event>
 8    1  0.2994958E-010  0.9118800E+02  0.7816164E-02  0.1184000E+00
        -11   -1    0    0    0    0  0.00000000000E+00  0.00000000000E+00  0.45593999997E+02  0.45594000000E+02  0.51100000000E-03 0. -1.
         11   -1    0    0    0    0 -0.00000000000E+00 -0.00000000000E+00 -0.45593999997E+02  0.45594000000E+02  0.51100000000E-03 0.  1.
         23    2    1    2    0    0  0.00000000000E+00  0.00000000000E+00  0.00000000000E+00  0.91188000000E+02  0.91188000000E+02 0.  0.
    9900012    2    3    3    0    0 -0.36992362779E+02  0.16582775230E+02 -0.15498383489E+02  0.47787271561E+02  0.20000002353E+02 0.  0.
         12    1    3    3    0    0  0.36992362779E+02 -0.16582775230E+02  0.15498383489E+02  0.43400728439E+02  0.00000000000E+00 0. -1.
         11    1    4    4    0    0 -0.24463844711E+01  0.95423806562E+00 -0.66650243829E+01  0.71636525287E+01  0.51100000000E-03 0. -1.
        -11    1    4    4    0    0 -0.54542345913E+01  0.13178605271E+01 -0.57854926601E+01  0.80596127032E+01  0.51100000000E-03 0.  1.
        -12    1    4    4    0    0 -0.29091743717E+02  0.14310676637E+02 -0.30478664456E+01  0.32564006329E+02  0.00000000000E+00 0.  1.
</event>
<event>
 8    1  0.2994958E-010  0.9118800E+02  0.7816164E-02  0.1184000E+00
        -11   -1    0    0    0    0  0.00000000000E+00  0.00000000000E+00  0.45593999997E+02  0.45594000000E+02  0.51100000000E-03 0. -1.
         11   -1    0    0    0    0 -0.00000000000E+00 -0.00000000000E+00 -0.45593999997E+02  0.45594000000E+02  0.51100000000E-03 0.  1.
         23    2    1    2    0    0  0.00000000000E+00  0.00000000000E+00  0.00000000000E+00  0.91188000000E+02  0.91188000000E+02 0.  0.
    9900012    2    3    3    0    0  0.22161158143E+02 -0.14088147089E+02 -0.34554755935E+02  0.47787262951E+02  0.19999963100E+02 0.  0.
         12    1    3    3    0    0 -0.22161158143E+02  0.14088147089E+02  0.34554755935E+02  0.43400737049E+02  0.00000000000E+00 0. -1.
         11    1    4    4    0    0  0.11850374238E+02 -0.62080773349E+00 -0.54638199319E+01  0.13064076712E+02  0.51100000000E-03 0. -1.
        -11    1    4    4    0    0 -0.41290978669E+00  0.55792140590E-01 -0.53796562332E+01  0.53957676659E+01  0.51100000000E-03 0.  1.
        -12    1    4    4    0    0  0.10723693692E+02 -0.13523131496E+02 -0.23711279770E+02  0.29327418573E+02  0.00000000000E+00 0.  1.
</event>
<event>
 8    1  0.2994958E-010  0.9118800E+02  0.7816164E-02  0.1184000E+00
        -11   -1    0    0    0    0  0.00000000000E+00  0.00000000000E+00  0.45593999997E+02  0.45594000000E+02  0.51100000000E-03 0. -1.
         11   -1    0    0    0    0 -0.00000000000E+00 -0.00000000000E+00 -0.45593999997E+02  0.45594000000E+02  0.51100000000E-03 0.  1.
         23    2    1    2    0    0  0.00000000000E+00  0.44408920985E-15  0.00000000000E+00  0.91188000000E+02  0.91188000000E+02 0.  0.
    9900012    2    3    3    0    0 -0.12802269591E+02  0.34349178401E+01 -0.41327066014E+02  0.47787272442E+02  0.20000006372E+02 0.  0.
         12    1    3    3    0    0  0.12802269591E+02 -0.34349178401E+01  0.41327066014E+02  0.43400727558E+02  0.00000000000E+00 0. -1.
         11    1    4    4    0    0 -0.56937451340E+00  0.85426967825E+01 -0.10587474615E+02  0.13616037406E+02  0.51100000000E-03 0. -1.
        -11    1    4    4    0    0 -0.31049313371E+01  0.11585486350E+01 -0.37822454682E+01  0.50287388668E+01  0.51100000000E-03 0.  1.
        -12    1    4    4    0    0 -0.91279637403E+01 -0.62663275774E+01 -0.26957345931E+02  0.29142496169E+02  0.00000000000E+00 0.  1.
</event>
<event>
 8    1  0.2994958E-010  0.9118800E+02  0.7816164E-02  0.1184000E+00
        -11   -1    0    0    0    0  0.00000000000E+00  0.00000000000E+00  0.45593999997E+02  0.45594000000E+02  0.51100000000E-03 0. -1.
         11   -1    0    0    0    0 -0.00000000000E+00 -0.00000000000E+00 -0.45593999997E+02  0.45594000000E+02  0.51100000000E-03 0.  1.
         23    2    1    2    0    0  0.00000000000E+00  0.00000000000E+00  0.00000000000E+00  0.91188000000E+02  0.91188000000E+02 0.  0.
    9900012    2    3    3    0    0  0.34755361316E+01 -0.10309899560E+02 -0.42014936129E+02  0.47787213852E+02  0.19999739237E+02 0.  0.
         12    1    3    3    0    0 -0.34755361316E+01  0.10309899560E+02  0.42014936129E+02  0.43400786148E+02  0.00000000000E+00 0. -1.
         11    1    4    4    0    0 -0.35323877112E+01 -0.13068618738E+02 -0.19822175856E+02  0.24003858327E+02  0.51100000000E-03 0. -1.
        -11    1    4    4    0    0  0.86374762538E-01  0.35640501157E+00 -0.59887435115E+01  0.59999611865E+01  0.51100000000E-03 0.  1.
         12    1    4    4    0    0  0.69215490803E+01  0.24023141664E+01 -0.16204016761E+02  0.17783394339E+02  0.00000000000E+00 0. -1.
</event>
<event>
 8    1  0.2994958E-010  0.9118800E+02  0.7816164E-02  0.1184000E+00
        -11   -1    0    0    0    0  0.00000000000E+00  0.00000000000E+00  0.45593999997E+02  0.45594000000E+02  0.51100000000E-03 0. -1.
         11   -1    0    0    0    0 -0.00000000000E+00 -0.00000000000E+00 -0.45593999997E+02  0.45594000000E+02  0.51100000000E-03 0.  1.
         23    2    1    2    0    0  0.00000000000E+00  0.44408920985E-15  0.71054273576E-14  0.91188000000E+02  0.91188000000E+02 0.  0.
    9900012    2    3    3    0    0 -0.11408967057E+02 -0.26304671954E+01 -0.41791604962E+02  0.47787284196E+02  0.20000059964E+02 0.  0.
         12    1    3    3    0    0  0.11408967057E+02  0.26304671954E+01  0.41791604962E+02  0.43400715804E+02  0.00000000000E+00 0. -1.
         11    1    4    4    0    0  0.28743241425E+01 -0.86774402988E+00 -0.13423917632E+02  0.13755591003E+02  0.51100000000E-03 0. -1.
        -11    1    4    4    0    0 -0.61655946844E+01  0.18878362640E+00 -0.23651691855E+02  0.24442846089E+02  0.51100000000E-03 0.  1.
        -12    1    4    4    0    0 -0.81176965151E+01 -0.19515067919E+01 -0.47159954747E+01  0.95888471042E+01  0.00000000000E+00 0.  1.
</event>
<event>
 8    1  0.2994958E-010  0.9118800E+02  0.7816164E-02  0.1184000E+00
        -11   -1    0    0    0    0  0.00000000000E+00  0.00000000000E+00  0.45593999997E+02  0.45594000000E+02  0.51100000000E-03 0.  1.
         11   -1    0    0    0    0 -0.00000000000E+00 -0.00000000000E+00 -0.45593999997E+02  0.45594000000E+02  0.51100000000E-03 0. -1.
         23    2    1    2    0    0  0.17763568394E-14  0.00000000000E+00  0.00000000000E+00  0.91188000000E+02  0.91188000000E+02 0.  0.
    9900012    2    3    3    0    0  0.12953658268E+02 -0.23140990576E+02 -0.34355793335E+02  0.47787271400E+02  0.20000001621E+02 0.  0.
         12    1    3    3    0    0 -0.12953658268E+02  0.23140990576E+02  0.34355793335E+02  0.43400728600E+02  0.00000000000E+00 0. -1.
         11    1    4    4    0    0 -0.29074373698E+01 -0.10799821760E+02 -0.10154151448E+02  0.15106162120E+02  0.51100000000E-03 0. -1.
        -11    1    4    4    0    0  0.20300869489E+00 -0.13904067645E+01  0.46449884466E+00  0.14799334238E+01  0.51100000000E-03 0.  1.
        -12    1    4    4    0    0  0.15658086943E+02 -0.10950762051E+02 -0.24666140732E+02  0.31201175856E+02  0.00000000000E+00 0.  1.
</event>
<event>
 8    1  0.2994958E-010  0.9118800E+02  0.7816164E-02  0.1184000E+00
        -11   -1    0    0    0    0  0.00000000000E+00  0.00000000000E+00  0.45593999997E+02  0.45594000000E+02  0.51100000000E-03 0. -1.
         11   -1    0    0    0    0 -0.00000000000E+00 -0.00000000000E+00 -0.45593999997E+02  0.45594000000E+02  0.51100000000E-03 0.  1.
         23    2    1    2    0    0 -0.17763568394E-14  0.00000000000E+00  0.00000000000E+00  0.91188000000E+02  0.91188000000E+02 0.  0.
    9900012    2    3    3    0    0  0.90419760387E+01 -0.22854007657E+02  0.35770936186E+02  0.47787275671E+02  0.20000021096E+02 0.  0.
        -12    1    3    3    0    0 -0.90419760387E+01  0.22854007657E+02 -0.35770936186E+02  0.43400724329E+02  0.00000000000E+00 0.  1.
         11    1    4    4    0    0  0.26064493909E+01 -0.28127431334E+01  0.32363349333E+01  0.50178647275E+01  0.51100000000E-03 0. -1.
        -11    1    4    4    0    0 -0.48243233626E+01 -0.12776427421E+02  0.11625868654E+02  0.17935217193E+02  0.51100000000E-03 0.  1.
         12    1    4    4    0    0  0.11259850010E+02 -0.72648371026E+01  0.20908732598E+02  0.24834193751E+02  0.00000000000E+00 0. -1.
</event>
<event>
 8    1  0.2994958E-010  0.9118800E+02  0.7816164E-02  0.1184000E+00
        -11   -1    0    0    0    0  0.00000000000E+00  0.00000000000E+00  0.45593999997E+02  0.45594000000E+02  0.51100000000E-03 0. -1.
         11   -1    0    0    0    0 -0.00000000000E+00 -0.00000000000E+00 -0.45593999997E+02  0.45594000000E+02  0.51100000000E-03 0.  1.
         23    2    1    2    0    0  0.00000000000E+00  0.00000000000E+00  0.71054273576E-14  0.91188000000E+02  0.91188000000E+02 0.  0.
    9900012    2    3    3    0    0  0.18683710720E+02  0.19066677314E+02 -0.34219938388E+02  0.47787269438E+02  0.19999992676E+02 0.  0.
         12    1    3    3    0    0 -0.18683710720E+02 -0.19066677314E+02  0.34219938388E+02  0.43400730562E+02  0.00000000000E+00 0. -1.
         11    1    4    4    0    0  0.55427939227E+01  0.26377572603E+01 -0.15024757414E+02  0.16230331588E+02  0.51100000000E-03 0. -1.
        -11    1    4    4    0    0  0.77412952370E+01  0.13273800079E+02 -0.20032555731E+02  0.25247271335E+02  0.51100000000E-03 0.  1.
         12    1    4    4    0    0  0.53996215600E+01  0.31551199746E+01  0.83737475801E+00  0.63096665150E+01  0.00000000000E+00 0. -1.
</event>
<event>
 8    1  0.2994958E-010  0.9118800E+02  0.7816164E-02  0.1184000E+00
        -11   -1    0    0    0    0  0.00000000000E+00  0.00000000000E+00  0.45593999997E+02  0.45594000000E+02  0.51100000000E-03 0. -1.
         11   -1    0    0    0    0 -0.00000000000E+00 -0.00000000000E+00 -0.45593999997E+02  0.45594000000E+02  0.51100000000E-03 0.  1.
         23    2    1    2    0    0  0.00000000000E+00  0.00000000000E+00 -0.35527136788E-14  0.91188000000E+02  0.91188000000E+02 0.  0.
    9900012    2    3    3    0    0 -0.11967909005E+02  0.37489469066E+02  0.18301148276E+02  0.47787272298E+02  0.20000005717E+02 0.  0.
        -12    1    3    3    0    0  0.11967909005E+02 -0.37489469066E+02 -0.18301148276E+02  0.43400727702E+02  0.00000000000E+00 0.  1.
         11    1    4    4    0    0  0.18781526417E+01  0.49758080331E+01  0.41448516619E+01  0.67428420186E+01  0.51100000000E-03 0.  1.
        -11    1    4    4    0    0 -0.12513974242E+02  0.25732286275E+02  0.17316015561E+02  0.33445395848E+02  0.51100000000E-03 0. -1.
        -12    1    4    4    0    0 -0.13320874038E+01  0.67813747584E+01 -0.31597189472E+01  0.75990344314E+01  0.00000000000E+00 0.  1.
</event>
<event>
 8    1  0.2994958E-010  0.9118800E+02  0.7816164E-02  0.1184000E+00
        -11   -1    0    0    0    0  0.00000000000E+00  0.00000000000E+00  0.45593999997E+02  0.45594000000E+02  0.51100000000E-03 0. -1.
         11   -1    0    0    0    0 -0.00000000000E+00 -0.00000000000E+00 -0.45593999997E+02  0.45594000000E+02  0.51100000000E-03 0.  1.
         23    2    1    2    0    0  0.00000000000E+00  0.00000000000E+00  0.35527136788E-14  0.91188000000E+02  0.91188000000E+02 0.  0.
    9900012    2    3    3    0    0  0.29432164788E+02 -0.43219064777E+01 -0.31602092839E+02  0.47787268768E+02  0.19999989620E+02 0.  0.
         12    1    3    3    0    0 -0.29432164788E+02  0.43219064777E+01  0.31602092839E+02  0.43400731232E+02  0.00000000000E+00 0. -1.
         11    1    4    4    0    0  0.74944495858E+01  0.30410895214E+01 -0.13774991048E+02  0.15973896791E+02  0.51100000000E-03 0. -1.
        -11    1    4    4    0    0  0.10109324506E+02 -0.55506878023E+01 -0.15977192070E+02  0.19704802556E+02  0.51100000000E-03 0.  1.
         12    1    4    4    0    0  0.11828390695E+02 -0.18123081968E+01 -0.18499097213E+01  0.12108569421E+02  0.00000000000E+00 0. -1.
</event>
<event>
 8    1  0.2994958E-010  0.9118800E+02  0.7816164E-02  0.1184000E+00
        -11   -1    0    0    0    0  0.00000000000E+00  0.00000000000E+00  0.45593999997E+02  0.45594000000E+02  0.51100000000E-03 0. -1.
         11   -1    0    0    0    0 -0.00000000000E+00 -0.00000000000E+00 -0.45593999997E+02  0.45594000000E+02  0.51100000000E-03 0.  1.
         23    2    1    2    0    0  0.71054273576E-14  0.00000000000E+00  0.00000000000E+00  0.91188000000E+02  0.91188000000E+02 0.  0.
    9900012    2    3    3    0    0 -0.40077908202E+02  0.13428204041E+02  0.98522178757E+01  0.47787290482E+02  0.20000088624E+02 0.  0.
        -12    1    3    3    0    0  0.40077908202E+02 -0.13428204041E+02 -0.98522178757E+01  0.43400709518E+02  0.00000000000E+00 0.  1.
         11    1    4    4    0    0 -0.25213414605E+02  0.10472438696E+02  0.11458588154E+02  0.29608908980E+02  0.51100000000E-03 0. -1.
        -11    1    4    4    0    0 -0.15393136295E+01  0.20592888037E+01  0.30915187505E+01  0.40209010524E+01  0.51100000000E-03 0.  1.
        -12    1    4    4    0    0 -0.13325179967E+02  0.89647654129E+00 -0.46978890286E+01  0.14157480450E+02  0.00000000000E+00 0.  1.
</event>
<event>
 8    1  0.2994958E-010  0.9118800E+02  0.7816164E-02  0.1184000E+00
        -11   -1    0    0    0    0  0.00000000000E+00  0.00000000000E+00  0.45593999997E+02  0.45594000000E+02  0.51100000000E-03 0. -1.
         11   -1    0    0    0    0 -0.00000000000E+00 -0.00000000000E+00 -0.45593999997E+02  0.45594000000E+02  0.51100000000E-03 0.  1.
         23    2    1    2    0    0  0.35527136788E-14  0.35527136788E-14  0.00000000000E+00  0.91188000000E+02  0.91188000000E+02 0.  0.
    9900012    2    3    3    0    0 -0.31088421325E+02 -0.28100576830E+02 -0.11291139008E+02  0.47787283660E+02  0.20000057521E+02 0.  0.
         12    1    3    3    0    0  0.31088421325E+02  0.28100576830E+02  0.11291139008E+02  0.43400716340E+02  0.00000000000E+00 0. -1.
         11    1    4    4    0    0 -0.31768899171E+01 -0.35050652731E+01  0.40039945419E+01  0.61975870036E+01  0.51100000000E-03 0. -1.
        -11    1    4    4    0    0 -0.25893457441E+01 -0.74389163091E+01 -0.49390738958E+01  0.92971306566E+01  0.51100000000E-03 0.  1.
         12    1    4    4    0    0 -0.25322185664E+02 -0.17156595248E+02 -0.10356059654E+02  0.32292566000E+02  0.00000000000E+00 0. -1.
</event>
<event>
 8    1  0.2994958E-010  0.9118800E+02  0.7816164E-02  0.1184000E+00
        -11   -1    0    0    0    0  0.00000000000E+00  0.00000000000E+00  0.45593999997E+02  0.45594000000E+02  0.51100000000E-03 0.  1.
         11   -1    0    0    0    0 -0.00000000000E+00 -0.00000000000E+00 -0.45593999997E+02  0.45594000000E+02  0.51100000000E-03 0. -1.
         23    2    1    2    0    0 -0.11102230246E-15 -0.71054273576E-14 -0.17763568394E-14  0.91188000000E+02  0.91188000000E+02 0.  0.
    9900012    2    3    3    0    0 -0.56323941553E+00  0.42385514552E+02  0.93152700432E+01  0.47787270300E+02  0.19999996607E+02 0.  0.
        -12    1    3    3    0    0  0.56323941553E+00 -0.42385514552E+02 -0.93152700432E+01  0.43400729700E+02  0.00000000000E+00 0.  1.
         11    1    4    4    0    0  0.28470173798E+01  0.29945652442E+02  0.56239259251E+01  0.30601897837E+02  0.51100000000E-03 0. -1.
        -11    1    4    4    0    0 -0.35500716282E+01  0.12708694132E+02  0.62558214897E+01  0.14603055087E+02  0.51100000000E-03 0.  1.
         12    1    4    4    0    0  0.13981483289E+00 -0.26883202178E+00 -0.25644773716E+01  0.25823173765E+01  0.00000000000E+00 0. -1.
</event>
<event>
 8    1  0.4513700E-010  0.9118800E+02  0.7816164E-02  0.1184000E+00
        -11   -1    0    0    0    0  0.00000000000E+00  0.00000000000E+00  0.45593999997E+02  0.45594000000E+02  0.51100000000E-03 0. -1.
         11   -1    0    0    0    0 -0.00000000000E+00 -0.00000000000E+00 -0.45593999997E+02  0.45594000000E+02  0.51100000000E-03 0.  1.
         23    2    1    2    0    0 -0.35527136788E-14  0.00000000000E+00  0.00000000000E+00  0.91188000000E+02  0.91188000000E+02 0.  0.
    9900012    2    3    3    0    0  0.30056700865E+02  0.44308745519E+01  0.30993310556E+02  0.47787271718E+02  0.20000003073E+02 0.  0.
        -12    1    3    3    0    0 -0.30056700865E+02 -0.44308745519E+01 -0.30993310556E+02  0.43400728282E+02  0.00000000000E+00 0.  1.
         11    1    4    4    0    0  0.11701979365E+01 -0.17778931242E+01 -0.10411731368E+01  0.23694532985E+01  0.51100000000E-03 0. -1.
        -11    1    4    4    0    0  0.35626452910E+01  0.53163034811E+01  0.36466432790E+01  0.73656996707E+01  0.51100000000E-03 0.  1.
         12    1    4    4    0    0  0.25323857637E+02  0.89246419502E+00  0.28387840414E+02  0.38052118749E+02  0.00000000000E+00 0. -1.
</event>
<event>
 8    1  0.2994958E-010  0.9118800E+02  0.7816164E-02  0.1184000E+00
        -11   -1    0    0    0    0  0.00000000000E+00  0.00000000000E+00  0.45593999997E+02  0.45594000000E+02  0.51100000000E-03 0. -1.
         11   -1    0    0    0    0 -0.00000000000E+00 -0.00000000000E+00 -0.45593999997E+02  0.45594000000E+02  0.51100000000E-03 0.  1.
         23    2    1    2    0    0  0.44408920985E-15  0.00000000000E+00  0.00000000000E+00  0.91188000000E+02  0.91188000000E+02 0.  0.
    9900012    2    3    3    0    0  0.32081445555E+01 -0.40204440409E+02 -0.16029164030E+02  0.47787270518E+02  0.19999997598E+02 0.  0.
         12    1    3    3    0    0 -0.32081445555E+01  0.40204440409E+02  0.16029164030E+02  0.43400729482E+02  0.00000000000E+00 0. -1.
         11    1    4    4    0    0  0.24194961538E+01 -0.12177072888E+02 -0.50695165705E+01  0.13410259664E+02  0.51100000000E-03 0.  1.
        -11    1    4    4    0    0 -0.25773451896E+01 -0.10151106992E+02  0.36028566966E+01  0.11075570326E+02  0.51100000000E-03 0. -1.
         12    1    4    4    0    0  0.33659935913E+01 -0.17876260529E+02 -0.14562504156E+02  0.23301440528E+02  0.00000000000E+00 0. -1.
</event>
<event>
 8    1  0.2994958E-010  0.9118800E+02  0.7816164E-02  0.1184000E+00
        -11   -1    0    0    0    0  0.00000000000E+00  0.00000000000E+00  0.45593999997E+02  0.45594000000E+02  0.51100000000E-03 0. -1.
         11   -1    0    0    0    0 -0.00000000000E+00 -0.00000000000E+00 -0.45593999997E+02  0.45594000000E+02  0.51100000000E-03 0.  1.
         23    2    1    2    0    0 -0.35527136788E-14  0.35527136788E-14 -0.35527136788E-14  0.91188000000E+02  0.91188000000E+02 0.  0.
    9900012    2    3    3    0    0 -0.23048722619E+02  0.21903916687E+02 -0.29539764332E+02  0.47787275842E+02  0.20000021876E+02 0.  0.
         12    1    3    3    0    0  0.23048722619E+02 -0.21903916687E+02  0.29539764332E+02  0.43400724158E+02  0.00000000000E+00 0. -1.
         11    1    4    4    0    0 -0.86217969395E+01  0.83292087692E+01 -0.45610648774E+01  0.12826317253E+02  0.51100000000E-03 0. -1.
        -11    1    4    4    0    0 -0.11511454673E+02  0.16046644748E+02 -0.16779169066E+02  0.25914260769E+02  0.51100000000E-03 0.  1.
         12    1    4    4    0    0 -0.29154710065E+01 -0.24719368302E+01 -0.81995303882E+01  0.90466978213E+01  0.00000000000E+00 0. -1.
</event>
<event>
 8    1  0.2994958E-010  0.9118800E+02  0.7816164E-02  0.1184000E+00
        -11   -1    0    0    0    0  0.00000000000E+00  0.00000000000E+00  0.45593999997E+02  0.45594000000E+02  0.51100000000E-03 0. -1.
         11   -1    0    0    0    0 -0.00000000000E+00 -0.00000000000E+00 -0.45593999997E+02  0.45594000000E+02  0.51100000000E-03 0.  1.
         23    2    1    2    0    0  0.00000000000E+00  0.00000000000E+00  0.00000000000E+00  0.91188000000E+02  0.91188000000E+02 0.  0.
    9900012    2    3    3    0    0 -0.38590022980E+02 -0.12230820123E+02 -0.15647379392E+02  0.47787270556E+02  0.19999997771E+02 0.  0.
         12    1    3    3    0    0  0.38590022980E+02  0.12230820123E+02  0.15647379392E+02  0.43400729444E+02  0.00000000000E+00 0. -1.
         11    1    4    4    0    0 -0.48013149179E+01  0.43258228864E+00  0.10544108719E+01  0.49347274419E+01  0.51100000000E-03 0. -1.
        -11    1    4    4    0    0 -0.16371742850E+02 -0.12057226430E+02 -0.27282464852E+01  0.20514726473E+02  0.51100000000E-03 0.  1.
         12    1    4    4    0    0 -0.17416965212E+02 -0.60617598091E+00 -0.13973543779E+02  0.22337816640E+02  0.00000000000E+00 0. -1.
</event>
<event>
 8    1  0.2994958E-010  0.9118800E+02  0.7816164E-02  0.1184000E+00
        -11   -1    0    0    0    0  0.00000000000E+00  0.00000000000E+00  0.45593999997E+02  0.45594000000E+02  0.51100000000E-03 0. -1.
         11   -1    0    0    0    0 -0.00000000000E+00 -0.00000000000E+00 -0.45593999997E+02  0.45594000000E+02  0.51100000000E-03 0.  1.
         23    2    1    2    0    0  0.00000000000E+00 -0.35527136788E-14 -0.35527136788E-14  0.91188000000E+02  0.91188000000E+02 0.  0.
    9900012    2    3    3    0    0  0.18480491586E+02 -0.26028652072E+02  0.29404147678E+02  0.47787271911E+02  0.20000003951E+02 0.  0.
        -12    1    3    3    0    0 -0.18480491586E+02  0.26028652072E+02 -0.29404147678E+02  0.43400728089E+02  0.00000000000E+00 0.  1.
         11    1    4    4    0    0  0.18887707022E+01 -0.10780688320E+02  0.61121791933E+01  0.12535925581E+02  0.51100000000E-03 0. -1.
        -11    1    4    4    0    0  0.39485060598E+01 -0.50961650878E+01  0.16420907793E+02  0.17641083066E+02  0.51100000000E-03 0.  1.
         12    1    4    4    0    0  0.12643214824E+02 -0.10151798664E+02  0.68710606916E+01  0.17610263264E+02  0.00000000000E+00 0. -1.
</event>
<event>
 8    1  0.2994958E-010  0.9118800E+02  0.7816164E-02  0.1184000E+00
        -11   -1    0    0    0    0  0.00000000000E+00  0.00000000000E+00  0.45593999997E+02  0.45594000000E+02  0.51100000000E-03 0. -1.
         11   -1    0    0    0    0 -0.00000000000E+00 -0.00000000000E+00 -0.45593999997E+02  0.45594000000E+02  0.51100000000E-03 0.  1.
         23    2    1    2    0    0 -0.66613381478E-15 -0.17763568394E-14  0.00000000000E+00  0.91188000000E+02  0.91188000000E+02 0.  0.
    9900012    2    3    3    0    0 -0.12075591249E+01  0.11044921804E+02 -0.41954449976E+02  0.47787258422E+02  0.19999942450E+02 0.  0.
         12    1    3    3    0    0  0.12075591249E+01 -0.11044921804E+02  0.41954449976E+02  0.43400741578E+02  0.00000000000E+00 0. -1.
         11    1    4    4    0    0 -0.44970658167E+01  0.10534199440E-01 -0.20657198938E+01  0.49488292423E+01  0.51100000000E-03 0.  1.
        -11    1    4    4    0    0  0.24764311115E+00 -0.18107919377E+01 -0.19678046458E+01  0.26856190976E+01  0.51100000000E-03 0. -1.
        -12    1    4    4    0    0  0.30418635806E+01  0.12845179542E+02 -0.37920925437E+02  0.40152810082E+02  0.00000000000E+00 0.  1.
</event>
<event>
 8    1  0.2994958E-010  0.9118800E+02  0.7816164E-02  0.1184000E+00
        -11   -1    0    0    0    0  0.00000000000E+00  0.00000000000E+00  0.45593999997E+02  0.45594000000E+02  0.51100000000E-03 0. -1.
         11   -1    0    0    0    0 -0.00000000000E+00 -0.00000000000E+00 -0.45593999997E+02  0.45594000000E+02  0.51100000000E-03 0.  1.
         23    2    1    2    0    0  0.00000000000E+00 -0.35527136788E-14 -0.35527136788E-14  0.91188000000E+02  0.91188000000E+02 0.  0.
    9900012    2    3    3    0    0 -0.31215377242E+02 -0.20012477053E+02 -0.22554861482E+02  0.47787299653E+02  0.20000130437E+02 0.  0.
         12    1    3    3    0    0  0.31215377242E+02  0.20012477053E+02  0.22554861482E+02  0.43400700347E+02  0.00000000000E+00 0. -1.
         11    1    4    4    0    0 -0.10623561822E+01  0.31978737894E+01 -0.20073621370E+01  0.39223080503E+01  0.51100000000E-03 0. -1.
        -11    1    4    4    0    0 -0.14996603811E+01 -0.12505061557E+00 -0.24109624970E+01  0.28420695520E+01  0.51100000000E-03 0.  1.
        -12    1    4    4    0    0 -0.28653360679E+02 -0.23085300227E+02 -0.18136536848E+02  0.41022922051E+02  0.00000000000E+00 0.  1.
</event>
<event>
 8    1  0.2994958E-010  0.9118800E+02  0.7816164E-02  0.1184000E+00
        -11   -1    0    0    0    0  0.00000000000E+00  0.00000000000E+00  0.45593999997E+02  0.45594000000E+02  0.51100000000E-03 0. -1.
         11   -1    0    0    0    0 -0.00000000000E+00 -0.00000000000E+00 -0.45593999997E+02  0.45594000000E+02  0.51100000000E-03 0.  1.
         23    2    1    2    0    0  0.00000000000E+00  0.00000000000E+00  0.88817841970E-15  0.91188000000E+02  0.91188000000E+02 0.  0.
    9900012    2    3    3    0    0 -0.45619942198E+01 -0.42688109691E+02 -0.63667829904E+01  0.47787280813E+02  0.20000044541E+02 0.  0.
         12    1    3    3    0    0  0.45619942198E+01  0.42688109691E+02  0.63667829904E+01  0.43400719187E+02  0.00000000000E+00 0. -1.
         11    1    4    4    0    0 -0.13961611803E+01 -0.47435995098E+01  0.25367082728E+01  0.55575076674E+01  0.51100000000E-03 0. -1.
        -11    1    4    4    0    0 -0.26114804550E+00  0.12378663138E+01  0.11109796764E+01  0.16836826943E+01  0.51100000000E-03 0.  1.
        -12    1    4    4    0    0 -0.29046849940E+01 -0.39182376495E+02 -0.10014470940E+02  0.40546090452E+02  0.00000000000E+00 0.  1.
</event>
<event>
 8    1  0.2994958E-010  0.9118800E+02  0.7816164E-02  0.1184000E+00
        -11   -1    0    0    0    0  0.00000000000E+00  0.00000000000E+00  0.45593999997E+02  0.45594000000E+02  0.51100000000E-03 0. -1.
         11   -1    0    0    0    0 -0.00000000000E+00 -0.00000000000E+00 -0.45593999997E+02  0.45594000000E+02  0.51100000000E-03 0.  1.
         23    2    1    2    0    0  0.88817841970E-15  0.00000000000E+00  0.00000000000E+00  0.91188000000E+02  0.91188000000E+02 0.  0.
    9900012    2    3    3    0    0 -0.78783222134E+01  0.21438888453E+02  0.36904324289E+02  0.47787273621E+02  0.20000011746E+02 0.  0.
        -12    1    3    3    0    0  0.78783222134E+01 -0.21438888453E+02 -0.36904324289E+02  0.43400726379E+02  0.00000000000E+00 0.  1.
         11    1    4    4    0    0 -0.74863646886E+01  0.67686333268E+01  0.12949130024E+02  0.16417674074E+02  0.51100000000E-03 0. -1.
        -11    1    4    4    0    0 -0.48654583552E+01  0.11747405721E+02  0.92505271171E+01  0.15724073213E+02  0.51100000000E-03 0.  1.
        -12    1    4    4    0    0  0.44735008305E+01  0.29228494048E+01  0.14704667148E+02  0.15645526334E+02  0.00000000000E+00 0.  1.
</event>
<event>
 8    1  0.2994958E-010  0.9118800E+02  0.7816164E-02  0.1184000E+00
        -11   -1    0    0    0    0  0.00000000000E+00  0.00000000000E+00  0.45593999997E+02  0.45594000000E+02  0.51100000000E-03 0. -1.
         11   -1    0    0    0    0 -0.00000000000E+00 -0.00000000000E+00 -0.45593999997E+02  0.45594000000E+02  0.51100000000E-03 0.  1.
         23    2    1    2    0    0  0.71054273576E-14  0.00000000000E+00  0.00000000000E+00  0.91188000000E+02  0.91188000000E+02 0.  0.
    9900012    2    3    3    0    0  0.39921230911E+02  0.12206029041E+02 -0.11871449209E+02  0.47787272716E+02  0.20000007623E+02 0.  0.
         12    1    3    3    0    0 -0.39921230911E+02 -0.12206029041E+02  0.11871449209E+02  0.43400727284E+02  0.00000000000E+00 0. -1.
         11    1    4    4    0    0  0.43696496640E+01  0.46538823447E+01 -0.34266828717E+01  0.72453167514E+01  0.51100000000E-03 0. -1.
        -11    1    4    4    0    0  0.27552173708E+02  0.95828249225E+01 -0.63283623322E+00  0.29177959002E+02  0.51100000000E-03 0.  1.
        -12    1    4    4    0    0  0.79994075389E+01 -0.20306782260E+01 -0.78119301041E+01  0.11363996963E+02  0.00000000000E+00 0.  1.
</event>
<event>
 8    1  0.2994958E-010  0.9118800E+02  0.7816164E-02  0.1184000E+00
        -11   -1    0    0    0    0  0.00000000000E+00  0.00000000000E+00  0.45593999997E+02  0.45594000000E+02  0.51100000000E-03 0.  1.
         11   -1    0    0    0    0 -0.00000000000E+00 -0.00000000000E+00 -0.45593999997E+02  0.45594000000E+02  0.51100000000E-03 0. -1.
         23    2    1    2    0    0  0.00000000000E+00  0.00000000000E+00  0.71054273576E-14  0.91188000000E+02  0.91188000000E+02 0.  0.
    9900012    2    3    3    0    0 -0.70251485933E+01 -0.31764039734E+02 -0.28728321061E+02  0.47787270006E+02  0.19999995266E+02 0.  0.
         12    1    3    3    0    0  0.70251485933E+01  0.31764039734E+02  0.28728321061E+02  0.43400729994E+02  0.00000000000E+00 0. -1.
         11    1    4    4    0    0 -0.54656056626E+01 -0.24538628845E+01 -0.81732022418E+01  0.10133879981E+02  0.51100000000E-03 0.  1.
        -11    1    4    4    0    0  0.11925365758E+01 -0.13827383698E+02 -0.16207862902E+02  0.21338076378E+02  0.51100000000E-03 0. -1.
        -12    1    4    4    0    0 -0.27520795066E+01 -0.15482793152E+02 -0.43472559179E+01  0.16315313648E+02  0.00000000000E+00 0.  1.
</event>
<event>
 8    1  0.2994958E-010  0.9118800E+02  0.7816164E-02  0.1184000E+00
        -11   -1    0    0    0    0  0.00000000000E+00  0.00000000000E+00  0.45593999997E+02  0.45594000000E+02  0.51100000000E-03 0. -1.
         11   -1    0    0    0    0 -0.00000000000E+00 -0.00000000000E+00 -0.45593999997E+02  0.45594000000E+02  0.51100000000E-03 0.  1.
         23    2    1    2    0    0 -0.88817841970E-15  0.00000000000E+00  0.00000000000E+00  0.91188000000E+02  0.91188000000E+02 0.  0.
    9900012    2    3    3    0    0  0.60730300872E+01 -0.58998413225E+01 -0.42566809097E+02  0.47787273522E+02  0.20000011297E+02 0.  0.
         12    1    3    3    0    0 -0.60730300872E+01  0.58998413225E+01  0.42566809097E+02  0.43400726478E+02  0.00000000000E+00 0. -1.
         11    1    4    4    0    0  0.34471638632E+01  0.91627599397E+00 -0.13372732954E+02  0.13840248817E+02  0.51100000000E-03 0.  1.
        -11    1    4    4    0    0 -0.59735278187E+01  0.50626896380E+00 -0.91271251611E+01  0.10919878975E+02  0.51100000000E-03 0. -1.
         12    1    4    4    0    0  0.85993940426E+01 -0.73223862803E+01 -0.20066950982E+02  0.23027145730E+02  0.00000000000E+00 0. -1.
</event>
<event>
 8    1  0.2994958E-010  0.9118800E+02  0.7816164E-02  0.1184000E+00
        -11   -1    0    0    0    0  0.00000000000E+00  0.00000000000E+00  0.45593999997E+02  0.45594000000E+02  0.51100000000E-03 0. -1.
         11   -1    0    0    0    0 -0.00000000000E+00 -0.00000000000E+00 -0.45593999997E+02  0.45594000000E+02  0.51100000000E-03 0.  1.
         23    2    1    2    0    0  0.00000000000E+00  0.00000000000E+00  0.00000000000E+00  0.91188000000E+02  0.91188000000E+02 0.  0.
    9900012    2    3    3    0    0  0.37201240955E+02  0.13976785652E+02  0.17445375645E+02  0.47787262712E+02  0.19999962008E+02 0.  0.
        -12    1    3    3    0    0 -0.37201240955E+02 -0.13976785652E+02 -0.17445375645E+02  0.43400737288E+02  0.00000000000E+00 0.  1.
         11    1    4    4    0    0  0.66982206798E+01  0.62625872191E+01  0.34124506051E+01  0.97842208860E+01  0.51100000000E-03 0.  1.
        -11    1    4    4    0    0  0.27811553014E+02  0.50418034120E+01  0.56808405807E+01  0.28830092137E+02  0.51100000000E-03 0. -1.
        -12    1    4    4    0    0  0.26914672616E+01  0.26723950206E+01  0.83520844596E+01  0.91729496884E+01  0.00000000000E+00 0.  1.
</event>
<event>
 8    1  0.2994958E-010  0.9118800E+02  0.7816164E-02  0.1184000E+00
        -11   -1    0    0    0    0  0.00000000000E+00  0.00000000000E+00  0.45593999997E+02  0.45594000000E+02  0.51100000000E-03 0. -1.
         11   -1    0    0    0    0 -0.00000000000E+00 -0.00000000000E+00 -0.45593999997E+02  0.45594000000E+02  0.51100000000E-03 0.  1.
         23    2    1    2    0    0  0.00000000000E+00 -0.17763568394E-14 -0.35527136788E-14  0.91188000000E+02  0.91188000000E+02 0.  0.
    9900012    2    3    3    0    0  0.27617564345E+02 -0.15183375212E+02 -0.29838883403E+02  0.47787266068E+02  0.19999977309E+02 0.  0.
         12    1    3    3    0    0 -0.27617564345E+02  0.15183375212E+02  0.29838883403E+02  0.43400733932E+02  0.00000000000E+00 0. -1.
         11    1    4    4    0    0  0.11632509322E+02 -0.58880080969E+01 -0.20246776822E+01  0.13194060499E+02  0.51100000000E-03 0. -1.
        -11    1    4    4    0    0  0.10658442795E+02 -0.45389500556E+01 -0.96558809130E+01  0.15081130823E+02  0.51100000000E-03 0.  1.
        -12    1    4    4    0    0  0.53266122270E+01 -0.47564170598E+01 -0.18158324807E+02  0.19512074745E+02  0.00000000000E+00 0.  1.
</event>
<event>
 8    1  0.2994958E-010  0.9118800E+02  0.7816164E-02  0.1184000E+00
        -11   -1    0    0    0    0  0.00000000000E+00  0.00000000000E+00  0.45593999997E+02  0.45594000000E+02  0.51100000000E-03 0.  1.
         11   -1    0    0    0    0 -0.00000000000E+00 -0.00000000000E+00 -0.45593999997E+02  0.45594000000E+02  0.51100000000E-03 0. -1.
         23    2    1    2    0    0 -0.88817841970E-15  0.00000000000E+00  0.00000000000E+00  0.91188000000E+02  0.91188000000E+02 0.  0.
    9900012    2    3    3    0    0 -0.24922346169E+01 -0.36736550933E+02 -0.22974720309E+02  0.47787272113E+02  0.20000004872E+02 0.  0.
         12    1    3    3    0    0  0.24922346169E+01  0.36736550933E+02  0.22974720309E+02  0.43400727887E+02  0.00000000000E+00 0. -1.
         11    1    4    4    0    0 -0.67546586585E+01 -0.11727329365E+02 -0.36518664747E+01  0.14017553162E+02  0.51100000000E-03 0. -1.
        -11    1    4    4    0    0 -0.28996163984E+01 -0.15560311304E+02 -0.11505845194E+02  0.19568227743E+02  0.51100000000E-03 0.  1.
         12    1    4    4    0    0  0.71620404400E+01 -0.94489102641E+01 -0.78170086405E+01  0.14201491208E+02  0.00000000000E+00 0. -1.
</event>
<event>
 8    1  0.2994958E-010  0.9118800E+02  0.7816164E-02  0.1184000E+00
        -11   -1    0    0    0    0  0.00000000000E+00  0.00000000000E+00  0.45593999997E+02  0.45594000000E+02  0.51100000000E-03 0. -1.
         11   -1    0    0    0    0 -0.00000000000E+00 -0.00000000000E+00 -0.45593999997E+02  0.45594000000E+02  0.51100000000E-03 0.  1.
         23    2    1    2    0    0  0.00000000000E+00  0.00000000000E+00  0.00000000000E+00  0.91188000000E+02  0.91188000000E+02 0.  0.
    9900012    2    3    3    0    0 -0.74253737251E+01  0.26489837150E+02 -0.33567472727E+02  0.47787275669E+02  0.20000021085E+02 0.  0.
         12    1    3    3    0    0  0.74253737251E+01 -0.26489837150E+02  0.33567472727E+02  0.43400724331E+02  0.00000000000E+00 0. -1.
         11    1    4    4    0    0 -0.53615341705E+01  0.11309558879E+01 -0.72519031661E+01  0.90892909335E+01  0.51100000000E-03 0. -1.
        -11    1    4    4    0    0  0.25536524475E+01  0.38427644342E+01 -0.30027118685E+00  0.46236503291E+01  0.51100000000E-03 0.  1.
        -12    1    4    4    0    0 -0.46174920021E+01  0.21516116828E+02 -0.26015298374E+02  0.34074334406E+02  0.00000000000E+00 0.  1.
</event>
<event>
 8    1  0.2994958E-010  0.9118800E+02  0.7816164E-02  0.1184000E+00
        -11   -1    0    0    0    0  0.00000000000E+00  0.00000000000E+00  0.45593999997E+02  0.45594000000E+02  0.51100000000E-03 0. -1.
         11   -1    0    0    0    0 -0.00000000000E+00 -0.00000000000E+00 -0.45593999997E+02  0.45594000000E+02  0.51100000000E-03 0.  1.
         23    2    1    2    0    0 -0.17763568394E-14  0.00000000000E+00  0.00000000000E+00  0.91188000000E+02  0.91188000000E+02 0.  0.
    9900012    2    3    3    0    0  0.13348203154E+02  0.73433329748E+01  0.40638948482E+02  0.47787271892E+02  0.20000003864E+02 0.  0.
        -12    1    3    3    0    0 -0.13348203154E+02 -0.73433329748E+01 -0.40638948482E+02  0.43400728108E+02  0.00000000000E+00 0.  1.
         11    1    4    4    0    0  0.74791052853E+01  0.49374196128E+01  0.67520260309E+01  0.11220739017E+02  0.51100000000E-03 0. -1.
        -11    1    4    4    0    0  0.77675258456E+01 -0.22858758812E+01  0.15394359949E+02  0.17393849626E+02  0.51100000000E-03 0.  1.
        -12    1    4    4    0    0 -0.18984279774E+01  0.46917892432E+01  0.18492562502E+02  0.19172683249E+02  0.00000000000E+00 0.  1.
</event>
<event>
 8    1  0.2994958E-010  0.9118800E+02  0.7816164E-02  0.1184000E+00
        -11   -1    0    0    0    0  0.00000000000E+00  0.00000000000E+00  0.45593999997E+02  0.45594000000E+02  0.51100000000E-03 0. -1.
         11   -1    0    0    0    0 -0.00000000000E+00 -0.00000000000E+00 -0.45593999997E+02  0.45594000000E+02  0.51100000000E-03 0.  1.
         23    2    1    2    0    0 -0.35527136788E-14  0.00000000000E+00  0.00000000000E+00  0.91188000000E+02  0.91188000000E+02 0.  0.
    9900012    2    3    3    0    0  0.23160686661E+02 -0.29536262706E+02  0.21790248427E+02  0.47787272497E+02  0.20000006623E+02 0.  0.
        -12    1    3    3    0    0 -0.23160686661E+02  0.29536262706E+02 -0.21790248427E+02  0.43400727503E+02  0.00000000000E+00 0.  1.
         11    1    4    4    0    0  0.77196825992E+01 -0.10014095277E+02  0.13430315018E+02  0.18445838701E+02  0.51100000000E-03 0. -1.
        -11    1    4    4    0    0  0.95187151336E+01 -0.19711657338E+02  0.83157265042E+01  0.23415949273E+02  0.51100000000E-03 0.  1.
        -12    1    4    4    0    0  0.59222889282E+01  0.18948990936E+00  0.44206905054E-01  0.59254845224E+01  0.00000000000E+00 0.  1.
</event>
<event>
 8    1  0.2994958E-010  0.9118800E+02  0.7816164E-02  0.1184000E+00
        -11   -1    0    0    0    0  0.00000000000E+00  0.00000000000E+00  0.45593999997E+02  0.45594000000E+02  0.51100000000E-03 0. -1.
         11   -1    0    0    0    0 -0.00000000000E+00 -0.00000000000E+00 -0.45593999997E+02  0.45594000000E+02  0.51100000000E-03 0.  1.
         23    2    1    2    0    0 -0.71054273576E-14  0.00000000000E+00  0.00000000000E+00  0.91188000000E+02  0.91188000000E+02 0.  0.
    9900012    2    3    3    0    0 -0.36398318166E+02  0.12905129247E+02 -0.19805137229E+02  0.47787269742E+02  0.19999994063E+02 0.  0.
         12    1    3    3    0    0  0.36398318166E+02 -0.12905129247E+02  0.19805137229E+02  0.43400730258E+02  0.00000000000E+00 0. -1.
         11    1    4    4    0    0 -0.16415073661E+02  0.55227596115E+01 -0.11661882744E+02  0.20879536068E+02  0.51100000000E-03 0. -1.
        -11    1    4    4    0    0 -0.19404457334E+02  0.25452634694E+01 -0.96336150498E+01  0.21813249866E+02  0.51100000000E-03 0.  1.
         12    1    4    4    0    0 -0.57878717119E+00  0.48371061662E+01  0.14903605643E+01  0.50944838074E+01  0.00000000000E+00 0. -1.
</event>
<event>
 8    1  0.2994958E-010  0.9118800E+02  0.7816164E-02  0.1184000E+00
        -11   -1    0    0    0    0  0.00000000000E+00  0.00000000000E+00  0.45593999997E+02  0.45594000000E+02  0.51100000000E-03 0. -1.
         11   -1    0    0    0    0 -0.00000000000E+00 -0.00000000000E+00 -0.45593999997E+02  0.45594000000E+02  0.51100000000E-03 0.  1.
         23    2    1    2    0    0  0.66613381478E-15  0.00000000000E+00 -0.71054273576E-14  0.91188000000E+02  0.91188000000E+02 0.  0.
    9900012    2    3    3    0    0 -0.15820837048E+01  0.93657253113E+01  0.42348595934E+02  0.47787269856E+02  0.19999994581E+02 0.  0.
        -12    1    3    3    0    0  0.15820837048E+01 -0.93657253113E+01 -0.42348595934E+02  0.43400730144E+02  0.00000000000E+00 0.  1.
         11    1    4    4    0    0  0.37114985257E+01  0.31922473601E+01  0.13320112517E+02  0.14191231879E+02  0.51100000000E-03 0. -1.
        -11    1    4    4    0    0  0.39689021331E+01  0.54418484286E+01  0.17739657718E+02  0.18975282729E+02  0.51100000000E-03 0.  1.
        -12    1    4    4    0    0 -0.92624843636E+01  0.73162952262E+00  0.11288825699E+02  0.14620755248E+02  0.00000000000E+00 0.  1.
</event>
<event>
 8    1  0.2994958E-010  0.9118800E+02  0.7816164E-02  0.1184000E+00
        -11   -1    0    0    0    0  0.00000000000E+00  0.00000000000E+00  0.45593999997E+02  0.45594000000E+02  0.51100000000E-03 0. -1.
         11   -1    0    0    0    0 -0.00000000000E+00 -0.00000000000E+00 -0.45593999997E+02  0.45594000000E+02  0.51100000000E-03 0.  1.
         23    2    1    2    0    0  0.00000000000E+00  0.17763568394E-14  0.00000000000E+00  0.91188000000E+02  0.91188000000E+02 0.  0.
    9900012    2    3    3    0    0 -0.20243571801E+02 -0.14614409162E+02  0.35499863918E+02  0.47787268524E+02  0.19999988509E+02 0.  0.
        -12    1    3    3    0    0  0.20243571801E+02  0.14614409162E+02 -0.35499863918E+02  0.43400731476E+02  0.00000000000E+00 0.  1.
         11    1    4    4    0    0 -0.47170383023E+01 -0.34080508803E+01 -0.97750694776E+00  0.59009135938E+01  0.51100000000E-03 0. -1.
        -11    1    4    4    0    0 -0.27889060219E+01 -0.42438709076E+01  0.45688823337E+01  0.68310411447E+01  0.51100000000E-03 0.  1.
         12    1    4    4    0    0 -0.12737627477E+02 -0.69624873740E+01  0.31908488532E+02  0.35055313786E+02  0.00000000000E+00 0. -1.
</event>
<event>
 8    1  0.2994958E-010  0.9118800E+02  0.7816164E-02  0.1184000E+00
        -11   -1    0    0    0    0  0.00000000000E+00  0.00000000000E+00  0.45593999997E+02  0.45594000000E+02  0.51100000000E-03 0. -1.
         11   -1    0    0    0    0 -0.00000000000E+00 -0.00000000000E+00 -0.45593999997E+02  0.45594000000E+02  0.51100000000E-03 0.  1.
         23    2    1    2    0    0  0.00000000000E+00  0.00000000000E+00 -0.35527136788E-14  0.91188000000E+02  0.91188000000E+02 0.  0.
    9900012    2    3    3    0    0 -0.11917562850E+02  0.36662729598E+02  0.19935873112E+02  0.47787273248E+02  0.20000010048E+02 0.  0.
        -12    1    3    3    0    0  0.11917562850E+02 -0.36662729598E+02 -0.19935873112E+02  0.43400726752E+02  0.00000000000E+00 0.  1.
         11    1    4    4    0    0 -0.11090376485E+02  0.22379263462E+02  0.12151799110E+02  0.27775782717E+02  0.51100000000E-03 0. -1.
        -11    1    4    4    0    0 -0.61512221872E+00  0.13750660030E+02  0.16640228761E+01  0.13864631225E+02  0.51100000000E-03 0.  1.
        -12    1    4    4    0    0 -0.21206414629E+00  0.53280610605E+00  0.61200511262E+01  0.61468593066E+01  0.00000000000E+00 0.  1.
</event>
<event>
 8    1  0.2994958E-010  0.9118800E+02  0.7816164E-02  0.1184000E+00
        -11   -1    0    0    0    0  0.00000000000E+00  0.00000000000E+00  0.45593999997E+02  0.45594000000E+02  0.51100000000E-03 0. -1.
         11   -1    0    0    0    0 -0.00000000000E+00 -0.00000000000E+00 -0.45593999997E+02  0.45594000000E+02  0.51100000000E-03 0.  1.
         23    2    1    2    0    0  0.00000000000E+00  0.00000000000E+00 -0.17763568394E-14  0.91188000000E+02  0.91188000000E+02 0.  0.
    9900012    2    3    3    0    0 -0.95257839905E+01  0.41822069885E+02 -0.66179621910E+01  0.47787268282E+02  0.19999987403E+02 0.  0.
         12    1    3    3    0    0  0.95257839905E+01 -0.41822069885E+02  0.66179621910E+01  0.43400731718E+02  0.00000000000E+00 0. -1.
         11    1    4    4    0    0  0.49839179733E+00  0.16977447482E+02 -0.70366159015E+01  0.18384669728E+02  0.51100000000E-03 0. -1.
        -11    1    4    4    0    0 -0.23391825272E+01  0.80490941834E+01 -0.54786547368E+01  0.10013758039E+02  0.51100000000E-03 0.  1.
         12    1    4    4    0    0 -0.76849932606E+01  0.16795528220E+02  0.58973084473E+01  0.19388840515E+02  0.00000000000E+00 0. -1.
</event>
<event>
 8    1  0.2994958E-010  0.9118800E+02  0.7816164E-02  0.1184000E+00
        -11   -1    0    0    0    0  0.00000000000E+00  0.00000000000E+00  0.45593999997E+02  0.45594000000E+02  0.51100000000E-03 0. -1.
         11   -1    0    0    0    0 -0.00000000000E+00 -0.00000000000E+00 -0.45593999997E+02  0.45594000000E+02  0.51100000000E-03 0.  1.
         23    2    1    2    0    0  0.00000000000E+00  0.00000000000E+00  0.00000000000E+00  0.91188000000E+02  0.91188000000E+02 0.  0.
    9900012    2    3    3    0    0 -0.82610920225E+01  0.19671311406E+02  0.37794400762E+02  0.47787275780E+02  0.20000021592E+02 0.  0.
        -12    1    3    3    0    0  0.82610920225E+01 -0.19671311406E+02 -0.37794400762E+02  0.43400724220E+02  0.00000000000E+00 0.  1.
         11    1    4    4    0    0 -0.59692396311E+01  0.49757633196E+01  0.22366801360E+02  0.23678341279E+02  0.51100000000E-03 0. -1.
        -11    1    4    4    0    0 -0.38698861156E+01  0.14562812865E+02  0.91369409449E+01  0.17622009737E+02  0.51100000000E-03 0.  1.
        -12    1    4    4    0    0  0.15780337242E+01  0.13273522233E+00  0.62906584575E+01  0.64869247647E+01  0.00000000000E+00 0.  1.
</event>
<event>
 8    1  0.2994958E-010  0.9118800E+02  0.7816164E-02  0.1184000E+00
        -11   -1    0    0    0    0  0.00000000000E+00  0.00000000000E+00  0.45593999997E+02  0.45594000000E+02  0.51100000000E-03 0. -1.
         11   -1    0    0    0    0 -0.00000000000E+00 -0.00000000000E+00 -0.45593999997E+02  0.45594000000E+02  0.51100000000E-03 0.  1.
         23    2    1    2    0    0  0.00000000000E+00 -0.22204460493E-15  0.35527136788E-14  0.91188000000E+02  0.91188000000E+02 0.  0.
    9900012    2    3    3    0    0  0.39712680269E+02 -0.17327851253E+01 -0.17421933281E+02  0.47787271000E+02  0.19999999797E+02 0.  0.
         12    1    3    3    0    0 -0.39712680269E+02  0.17327851253E+01  0.17421933281E+02  0.43400729000E+02  0.00000000000E+00 0. -1.
         11    1    4    4    0    0  0.13658948652E+02  0.51028577787E+00 -0.59568511038E+01  0.14910108825E+02  0.51100000000E-03 0. -1.
        -11    1    4    4    0    0  0.12506140569E+02  0.70415181405E+01 -0.61542166876E+01  0.15616046650E+02  0.51100000000E-03 0.  1.
         12    1    4    4    0    0  0.13547591049E+02 -0.92845890437E+01 -0.53108654899E+01  0.17261115525E+02  0.00000000000E+00 0. -1.
</event>
<event>
 8    1  0.2994958E-010  0.9118800E+02  0.7816164E-02  0.1184000E+00
        -11   -1    0    0    0    0  0.00000000000E+00  0.00000000000E+00  0.45593999997E+02  0.45594000000E+02  0.51100000000E-03 0. -1.
         11   -1    0    0    0    0 -0.00000000000E+00 -0.00000000000E+00 -0.45593999997E+02  0.45594000000E+02  0.51100000000E-03 0.  1.
         23    2    1    2    0    0  0.35527136788E-14  0.00000000000E+00  0.00000000000E+00  0.91188000000E+02  0.91188000000E+02 0.  0.
    9900012    2    3    3    0    0 -0.17828303557E+02  0.16124270543E+02 -0.36135611738E+02  0.47787274846E+02  0.20000017331E+02 0.  0.
         12    1    3    3    0    0  0.17828303557E+02 -0.16124270543E+02  0.36135611738E+02  0.43400725154E+02  0.00000000000E+00 0. -1.
         11    1    4    4    0    0 -0.55708043567E+01 -0.18957467242E+01 -0.14751995430E+02  0.15882351408E+02  0.51100000000E-03 0. -1.
        -11    1    4    4    0    0 -0.51040462974E+01  0.41683861804E+01 -0.12051356051E+02  0.13735425544E+02  0.51100000000E-03 0.  1.
        -12    1    4    4    0    0 -0.71534529029E+01  0.13851631087E+02 -0.93322602571E+01  0.18169497894E+02  0.00000000000E+00 0.  1.
</event>
<event>
 8    1  0.2994958E-010  0.9118800E+02  0.7816164E-02  0.1184000E+00
        -11   -1    0    0    0    0  0.00000000000E+00  0.00000000000E+00  0.45593999997E+02  0.45594000000E+02  0.51100000000E-03 0.  1.
         11   -1    0    0    0    0 -0.00000000000E+00 -0.00000000000E+00 -0.45593999997E+02  0.45594000000E+02  0.51100000000E-03 0. -1.
         23    2    1    2    0    0 -0.35527136788E-14  0.00000000000E+00  0.00000000000E+00  0.91188000000E+02  0.91188000000E+02 0.  0.
    9900012    2    3    3    0    0  0.27960056815E+02 -0.31074981368E+02 -0.11670646770E+02  0.47787271433E+02  0.20000001772E+02 0.  0.
        -12    1    3    3    0    0 -0.27960056815E+02  0.31074981368E+02  0.11670646770E+02  0.43400728567E+02  0.00000000000E+00 0.  1.
         11    1    4    4    0    0  0.17110811530E+02 -0.15239805471E+02 -0.96148771196E+00  0.22933730636E+02  0.51100000000E-03 0. -1.
        -11    1    4    4    0    0  0.75718173376E+01 -0.12382865331E+02 -0.16345139804E+01  0.14606142811E+02  0.51100000000E-03 0.  1.
        -12    1    4    4    0    0  0.32774279471E+01 -0.34523105657E+01 -0.90746450780E+01  0.10247397986E+02  0.00000000000E+00 0.  1.
</event>
<event>
 8    1  0.2994958E-010  0.9118800E+02  0.7816164E-02  0.1184000E+00
        -11   -1    0    0    0    0  0.00000000000E+00  0.00000000000E+00  0.45593999997E+02  0.45594000000E+02  0.51100000000E-03 0. -1.
         11   -1    0    0    0    0 -0.00000000000E+00 -0.00000000000E+00 -0.45593999997E+02  0.45594000000E+02  0.51100000000E-03 0.  1.
         23    2    1    2    0    0 -0.11102230246E-15  0.00000000000E+00 -0.35527136788E-14  0.91188000000E+02  0.91188000000E+02 0.  0.
    9900012    2    3    3    0    0  0.13384142583E+00 -0.40048110766E+02 -0.16725829816E+02  0.47787280277E+02  0.20000042094E+02 0.  0.
         12    1    3    3    0    0 -0.13384142583E+00  0.40048110766E+02  0.16725829816E+02  0.43400719723E+02  0.00000000000E+00 0. -1.
         11    1    4    4    0    0 -0.19167899428E+01 -0.27563126532E+02 -0.47731347059E+01  0.28038952246E+02  0.51100000000E-03 0. -1.
        -11    1    4    4    0    0 -0.81354334684E+00 -0.12738136877E+02 -0.89385195227E+01  0.15582654311E+02  0.51100000000E-03 0.  1.
        -12    1    4    4    0    0  0.28641747155E+01  0.25315264238E+00 -0.30141755874E+01  0.41656737190E+01  0.00000000000E+00 0.  1.
</event>
<event>
 8    1  0.2994958E-010  0.9118800E+02  0.7816164E-02  0.1184000E+00
        -11   -1    0    0    0    0  0.00000000000E+00  0.00000000000E+00  0.45593999997E+02  0.45594000000E+02  0.51100000000E-03 0. -1.
         11   -1    0    0    0    0 -0.00000000000E+00 -0.00000000000E+00 -0.45593999997E+02  0.45594000000E+02  0.51100000000E-03 0.  1.
         23    2    1    2    0    0  0.00000000000E+00 -0.88817841970E-15 -0.71054273576E-14  0.91188000000E+02  0.91188000000E+02 0.  0.
    9900012    2    3    3    0    0 -0.16310789374E+02  0.49920296490E+01  0.39908158202E+02  0.47787270731E+02  0.19999998570E+02 0.  0.
        -12    1    3    3    0    0  0.16310789374E+02 -0.49920296490E+01 -0.39908158202E+02  0.43400729269E+02  0.00000000000E+00 0.  1.
         11    1    4    4    0    0 -0.75152633026E+01  0.77224940861E+01  0.22793379708E+02  0.25212184677E+02  0.51100000000E-03 0. -1.
        -11    1    4    4    0    0 -0.19549263038E+01  0.44122799973E+01  0.53281947345E+01  0.71888532478E+01  0.51100000000E-03 0.  1.
        -12    1    4    4    0    0 -0.68405997679E+01 -0.71427444345E+01  0.11786583759E+02  0.15386232806E+02  0.00000000000E+00 0.  1.
</event>
<event>
 8    1  0.2994958E-010  0.9118800E+02  0.7816164E-02  0.1184000E+00
        -11   -1    0    0    0    0  0.00000000000E+00  0.00000000000E+00  0.45593999997E+02  0.45594000000E+02  0.51100000000E-03 0. -1.
         11   -1    0    0    0    0 -0.00000000000E+00 -0.00000000000E+00 -0.45593999997E+02  0.45594000000E+02  0.51100000000E-03 0.  1.
         23    2    1    2    0    0  0.00000000000E+00 -0.35527136788E-14 -0.71054273576E-14  0.91188000000E+02  0.91188000000E+02 0.  0.
    9900012    2    3    3    0    0  0.89411995768E+01 -0.20505767569E+02 -0.37191286909E+02  0.47787269875E+02  0.19999994667E+02 0.  0.
         12    1    3    3    0    0 -0.89411995768E+01  0.20505767569E+02  0.37191286909E+02  0.43400730125E+02  0.00000000000E+00 0. -1.
         11    1    4    4    0    0  0.23472258120E+01 -0.16948120298E+02 -0.14020833601E+02  0.22120850476E+02  0.51100000000E-03 0. -1.
        -11    1    4    4    0    0  0.71415648349E+00 -0.41036297658E+01 -0.47252651116E+01  0.62990417822E+01  0.51100000000E-03 0.  1.
        -12    1    4    4    0    0  0.58798172813E+01  0.54598249524E+00 -0.18445188196E+02  0.19367377617E+02  0.00000000000E+00 0.  1.
</event>
<event>
 8    1  0.2994958E-010  0.9118800E+02  0.7816164E-02  0.1184000E+00
        -11   -1    0    0    0    0  0.00000000000E+00  0.00000000000E+00  0.45593999997E+02  0.45594000000E+02  0.51100000000E-03 0. -1.
         11   -1    0    0    0    0 -0.00000000000E+00 -0.00000000000E+00 -0.45593999997E+02  0.45594000000E+02  0.51100000000E-03 0.  1.
         23    2    1    2    0    0 -0.88817841970E-15 -0.35527136788E-14  0.00000000000E+00  0.91188000000E+02  0.91188000000E+02 0.  0.
    9900012    2    3    3    0    0  0.30669240225E+01  0.30019570238E+02  0.31193663015E+02  0.47787248480E+02  0.19999897119E+02 0.  0.
        -12    1    3    3    0    0 -0.30669240225E+01 -0.30019570238E+02 -0.31193663015E+02  0.43400751520E+02  0.00000000000E+00 0.  1.
         11    1    4    4    0    0 -0.58912485256E+01  0.94309368801E+01  0.93905256886E+01  0.14554427251E+02  0.51100000000E-03 0. -1.
        -11    1    4    4    0    0 -0.10667258303E+00  0.34411405333E+00 -0.12145219526E+01  0.12668296477E+01  0.51100000000E-03 0.  1.
         12    1    4    4    0    0  0.90648451311E+01  0.20244519304E+02  0.23017659279E+02  0.31965991582E+02  0.00000000000E+00 0. -1.
</event>
<event>
 8    1  0.2994958E-010  0.9118800E+02  0.7816164E-02  0.1184000E+00
        -11   -1    0    0    0    0  0.00000000000E+00  0.00000000000E+00  0.45593999997E+02  0.45594000000E+02  0.51100000000E-03 0. -1.
         11   -1    0    0    0    0 -0.00000000000E+00 -0.00000000000E+00 -0.45593999997E+02  0.45594000000E+02  0.51100000000E-03 0.  1.
         23    2    1    2    0    0  0.17763568394E-14  0.00000000000E+00  0.71054273576E-14  0.91188000000E+02  0.91188000000E+02 0.  0.
    9900012    2    3    3    0    0 -0.11914404366E+02 -0.10953436350E+02 -0.40270242700E+02  0.47787271362E+02  0.20000001446E+02 0.  0.
         12    1    3    3    0    0  0.11914404366E+02  0.10953436350E+02  0.40270242700E+02  0.43400728638E+02  0.00000000000E+00 0. -1.
         11    1    4    4    0    0 -0.33264870604E+01  0.20963641628E+01 -0.13737988571E+02  0.14289597234E+02  0.51100000000E-03 0. -1.
        -11    1    4    4    0    0 -0.10959870096E+02 -0.49820468754E+01 -0.15596280966E+02  0.19702373558E+02  0.51100000000E-03 0.  1.
        -12    1    4    4    0    0  0.23719527905E+01 -0.80677536370E+01 -0.10935973162E+02  0.13795300569E+02  0.00000000000E+00 0.  1.
</event>
<event>
 8    1  0.2994958E-010  0.9118800E+02  0.7816164E-02  0.1184000E+00
        -11   -1    0    0    0    0  0.00000000000E+00  0.00000000000E+00  0.45593999997E+02  0.45594000000E+02  0.51100000000E-03 0. -1.
         11   -1    0    0    0    0 -0.00000000000E+00 -0.00000000000E+00 -0.45593999997E+02  0.45594000000E+02  0.51100000000E-03 0.  1.
         23    2    1    2    0    0  0.00000000000E+00  0.35527136788E-14  0.00000000000E+00  0.91188000000E+02  0.91188000000E+02 0.  0.
    9900012    2    3    3    0    0 -0.21985408391E+02 -0.31227294554E+02 -0.20618479921E+02  0.47787264735E+02  0.19999971233E+02 0.  0.
         12    1    3    3    0    0  0.21985408391E+02  0.31227294554E+02  0.20618479921E+02  0.43400735265E+02  0.00000000000E+00 0. -1.
         11    1    4    4    0    0 -0.11689701383E+02 -0.10384862064E+02 -0.68021760197E+01  0.17051805693E+02  0.51100000000E-03 0.  1.
        -11    1    4    4    0    0 -0.79745114499E+01 -0.17951523112E+02 -0.37362787438E+01  0.19995244285E+02  0.51100000000E-03 0. -1.
         12    1    4    4    0    0 -0.23211955578E+01 -0.28909093776E+01 -0.10080025158E+02  0.10740214757E+02  0.00000000000E+00 0. -1.
</event>
<event>
 8    1  0.2994958E-010  0.9118800E+02  0.7816164E-02  0.1184000E+00
        -11   -1    0    0    0    0  0.00000000000E+00  0.00000000000E+00  0.45593999997E+02  0.45594000000E+02  0.51100000000E-03 0. -1.
         11   -1    0    0    0    0 -0.00000000000E+00 -0.00000000000E+00 -0.45593999997E+02  0.45594000000E+02  0.51100000000E-03 0.  1.
         23    2    1    2    0    0  0.35527136788E-14 -0.35527136788E-14  0.35527136788E-14  0.91188000000E+02  0.91188000000E+02 0.  0.
    9900012    2    3    3    0    0 -0.19354231633E+02  0.22536537846E+02 -0.31640822358E+02  0.47787268904E+02  0.19999990242E+02 0.  0.
         12    1    3    3    0    0  0.19354231633E+02 -0.22536537846E+02  0.31640822358E+02  0.43400731096E+02  0.00000000000E+00 0. -1.
         11    1    4    4    0    0 -0.15701587705E+02  0.86549850433E+01 -0.12841146085E+02  0.22053200575E+02  0.51100000000E-03 0. -1.
        -11    1    4    4    0    0 -0.37472195185E+01  0.46744331769E+01 -0.15618583027E+01  0.61912342278E+01  0.51100000000E-03 0.  1.
        -12    1    4    4    0    0  0.94575590879E-01  0.92071196255E+01 -0.17237817970E+02  0.19542834101E+02  0.00000000000E+00 0.  1.
</event>
<event>
 8    1  0.2994958E-010  0.9118800E+02  0.7816164E-02  0.1184000E+00
        -11   -1    0    0    0    0  0.00000000000E+00  0.00000000000E+00  0.45593999997E+02  0.45594000000E+02  0.51100000000E-03 0. -1.
         11   -1    0    0    0    0 -0.00000000000E+00 -0.00000000000E+00 -0.45593999997E+02  0.45594000000E+02  0.51100000000E-03 0.  1.
         23    2    1    2    0    0  0.00000000000E+00  0.00000000000E+00 -0.35527136788E-14  0.91188000000E+02  0.91188000000E+02 0.  0.
    9900012    2    3    3    0    0  0.19402928481E+02 -0.28488676264E+02 -0.26373183766E+02  0.47787272692E+02  0.20000007513E+02 0.  0.
         12    1    3    3    0    0 -0.19402928481E+02  0.28488676264E+02  0.26373183766E+02  0.43400727308E+02  0.00000000000E+00 0. -1.
         11    1    4    4    0    0  0.71073894363E+01 -0.14285716517E+02 -0.76572303106E+01  0.17698300972E+02  0.51100000000E-03 0. -1.
        -11    1    4    4    0    0 -0.26191813284E+00 -0.10165237452E+02 -0.10109967082E+02  0.14339180180E+02  0.51100000000E-03 0.  1.
         12    1    4    4    0    0  0.12557457178E+02 -0.40377222937E+01 -0.86059863730E+01  0.15749791540E+02  0.00000000000E+00 0. -1.
</event>
<event>
 8    1  0.2994958E-010  0.9118800E+02  0.7816164E-02  0.1184000E+00
        -11   -1    0    0    0    0  0.00000000000E+00  0.00000000000E+00  0.45593999997E+02  0.45594000000E+02  0.51100000000E-03 0. -1.
         11   -1    0    0    0    0 -0.00000000000E+00 -0.00000000000E+00 -0.45593999997E+02  0.45594000000E+02  0.51100000000E-03 0.  1.
         23    2    1    2    0    0  0.00000000000E+00  0.00000000000E+00  0.35527136788E-14  0.91188000000E+02  0.91188000000E+02 0.  0.
    9900012    2    3    3    0    0 -0.15116042651E+01  0.36613960937E+02 -0.23254139294E+02  0.47787284830E+02  0.20000062853E+02 0.  0.
         12    1    3    3    0    0  0.15116042651E+01 -0.36613960937E+02  0.23254139294E+02  0.43400715170E+02  0.00000000000E+00 0. -1.
         11    1    4    4    0    0 -0.11269767359E+01  0.21409542654E+02 -0.84434900909E+01  0.23041942591E+02  0.51100000000E-03 0. -1.
        -11    1    4    4    0    0  0.14571553410E+00  0.17463080616E+02 -0.12544933470E+02  0.21502459711E+02  0.51100000000E-03 0.  1.
         12    1    4    4    0    0 -0.53034306335E+00 -0.22586623327E+01 -0.22657157335E+01  0.32428825268E+01  0.00000000000E+00 0. -1.
</event>
<event>
 8    1  0.2994958E-010  0.9118800E+02  0.7816164E-02  0.1184000E+00
        -11   -1    0    0    0    0  0.00000000000E+00  0.00000000000E+00  0.45593999997E+02  0.45594000000E+02  0.51100000000E-03 0. -1.
         11   -1    0    0    0    0 -0.00000000000E+00 -0.00000000000E+00 -0.45593999997E+02  0.45594000000E+02  0.51100000000E-03 0.  1.
         23    2    1    2    0    0  0.00000000000E+00 -0.71054273576E-14  0.00000000000E+00  0.91188000000E+02  0.91188000000E+02 0.  0.
    9900012    2    3    3    0    0 -0.16337054246E+02 -0.33329191531E+02  0.22491976154E+02  0.47787270273E+02  0.19999996483E+02 0.  0.
        -12    1    3    3    0    0  0.16337054246E+02  0.33329191531E+02 -0.22491976154E+02  0.43400729727E+02  0.00000000000E+00 0.  1.
         11    1    4    4    0    0 -0.25759278178E+01 -0.52000499656E+01 -0.17507919019E+01  0.60614516670E+01  0.51100000000E-03 0.  1.
        -11    1    4    4    0    0 -0.12582461320E+02 -0.23095464550E+02  0.12971332747E+02  0.29325318228E+02  0.51100000000E-03 0. -1.
         12    1    4    4    0    0 -0.11786651084E+01 -0.50336770149E+01  0.11271435308E+02  0.12400500378E+02  0.00000000000E+00 0. -1.
</event>
<event>
 8    1  0.2994958E-010  0.9118800E+02  0.7816164E-02  0.1184000E+00
        -11   -1    0    0    0    0  0.00000000000E+00  0.00000000000E+00  0.45593999997E+02  0.45594000000E+02  0.51100000000E-03 0. -1.
         11   -1    0    0    0    0 -0.00000000000E+00 -0.00000000000E+00 -0.45593999997E+02  0.45594000000E+02  0.51100000000E-03 0.  1.
         23    2    1    2    0    0  0.00000000000E+00 -0.17763568394E-14  0.71054273576E-14  0.91188000000E+02  0.91188000000E+02 0.  0.
    9900012    2    3    3    0    0 -0.14855472884E+02  0.12184447817E+02  0.38916279852E+02  0.47787277878E+02  0.20000031157E+02 0.  0.
        -12    1    3    3    0    0  0.14855472884E+02 -0.12184447817E+02 -0.38916279852E+02  0.43400722122E+02  0.00000000000E+00 0.  1.
         11    1    4    4    0    0  0.67030571767E+00 -0.76938193468E+00  0.14583643383E+01  0.17799115487E+01  0.51100000000E-03 0.  1.
        -11    1    4    4    0    0 -0.35001443287E+01 -0.32275660368E+01  0.15422937634E+02  0.16141102762E+02  0.51100000000E-03 0. -1.
         12    1    4    4    0    0 -0.12025634273E+02  0.16181395789E+02  0.22034977880E+02  0.29866263568E+02  0.00000000000E+00 0. -1.
</event>
<event>
 8    1  0.2994958E-010  0.9118800E+02  0.7816164E-02  0.1184000E+00
        -11   -1    0    0    0    0  0.00000000000E+00  0.00000000000E+00  0.45593999997E+02  0.45594000000E+02  0.51100000000E-03 0. -1.
         11   -1    0    0    0    0 -0.00000000000E+00 -0.00000000000E+00 -0.45593999997E+02  0.45594000000E+02  0.51100000000E-03 0.  1.
         23    2    1    2    0    0  0.00000000000E+00 -0.35527136788E-14  0.00000000000E+00  0.91188000000E+02  0.91188000000E+02 0.  0.
    9900012    2    3    3    0    0  0.25792543499E+02  0.23193920497E+02 -0.26084668446E+02  0.47787272171E+02  0.20000005135E+02 0.  0.
         12    1    3    3    0    0 -0.25792543499E+02 -0.23193920497E+02  0.26084668446E+02  0.43400727829E+02  0.00000000000E+00 0. -1.
         11    1    4    4    0    0  0.99609318362E+01  0.12943946210E+02 -0.97617050846E+01  0.19027790017E+02  0.51100000000E-03 0. -1.
        -11    1    4    4    0    0  0.30339393142E+01  0.90233924727E+01 -0.24184042331E+01  0.98221728133E+01  0.51100000000E-03 0.  1.
         12    1    4    4    0    0  0.12797672349E+02  0.12265818145E+01 -0.13904559128E+02  0.18937309340E+02  0.00000000000E+00 0. -1.
</event>
<event>
 8    1  0.2994958E-010  0.9118800E+02  0.7816164E-02  0.1184000E+00
        -11   -1    0    0    0    0  0.00000000000E+00  0.00000000000E+00  0.45593999997E+02  0.45594000000E+02  0.51100000000E-03 0. -1.
         11   -1    0    0    0    0 -0.00000000000E+00 -0.00000000000E+00 -0.45593999997E+02  0.45594000000E+02  0.51100000000E-03 0.  1.
         23    2    1    2    0    0  0.00000000000E+00  0.00000000000E+00  0.35527136788E-14  0.91188000000E+02  0.91188000000E+02 0.  0.
    9900012    2    3    3    0    0  0.22109597622E+01 -0.37369377707E+02 -0.21960524428E+02  0.47787269978E+02  0.19999995137E+02 0.  0.
         12    1    3    3    0    0 -0.22109597622E+01  0.37369377707E+02  0.21960524428E+02  0.43400730022E+02  0.00000000000E+00 0. -1.
         11    1    4    4    0    0 -0.24422490784E+01 -0.89613442651E+01 -0.10989984866E+02  0.14389233448E+02  0.51100000000E-03 0. -1.
        -11    1    4    4    0    0 -0.43424233001E+01 -0.61270606799E+01 -0.23221138902E+01  0.78606441130E+01  0.51100000000E-03 0.  1.
        -12    1    4    4    0    0  0.89956321407E+01 -0.22280972762E+02 -0.86484256718E+01  0.25537392417E+02  0.00000000000E+00 0.  1.
</event>
<event>
 8    1  0.2994958E-010  0.9118800E+02  0.7816164E-02  0.1184000E+00
        -11   -1    0    0    0    0  0.00000000000E+00  0.00000000000E+00  0.45593999997E+02  0.45594000000E+02  0.51100000000E-03 0. -1.
         11   -1    0    0    0    0 -0.00000000000E+00 -0.00000000000E+00 -0.45593999997E+02  0.45594000000E+02  0.51100000000E-03 0.  1.
         23    2    1    2    0    0  0.00000000000E+00  0.00000000000E+00  0.00000000000E+00  0.91188000000E+02  0.91188000000E+02 0.  0.
    9900012    2    3    3    0    0  0.31162601412E+02  0.10816261714E+02 -0.28205020117E+02  0.47787281066E+02  0.20000045691E+02 0.  0.
         12    1    3    3    0    0 -0.31162601412E+02 -0.10816261714E+02  0.28205020117E+02  0.43400718934E+02  0.00000000000E+00 0. -1.
         11    1    4    4    0    0  0.49635396462E+01 -0.39614942860E+00 -0.76426380480E+01  0.91215994641E+01  0.51100000000E-03 0. -1.
        -11    1    4    4    0    0  0.24110800931E+02  0.30322129631E+01 -0.15425279351E+02  0.28783055437E+02  0.51100000000E-03 0.  1.
        -12    1    4    4    0    0  0.20882608348E+01  0.81801981796E+01 -0.51371027181E+01  0.98826261646E+01  0.00000000000E+00 0.  1.
</event>
<event>
 8    1  0.2994958E-010  0.9118800E+02  0.7816164E-02  0.1184000E+00
        -11   -1    0    0    0    0  0.00000000000E+00  0.00000000000E+00  0.45593999997E+02  0.45594000000E+02  0.51100000000E-03 0.  1.
         11   -1    0    0    0    0 -0.00000000000E+00 -0.00000000000E+00 -0.45593999997E+02  0.45594000000E+02  0.51100000000E-03 0. -1.
         23    2    1    2    0    0  0.00000000000E+00  0.00000000000E+00  0.00000000000E+00  0.91188000000E+02  0.91188000000E+02 0.  0.
    9900012    2    3    3    0    0  0.33114950277E+02 -0.17160851565E+02 -0.22192983800E+02  0.47787270879E+02  0.19999999248E+02 0.  0.
         12    1    3    3    0    0 -0.33114950277E+02  0.17160851565E+02  0.22192983800E+02  0.43400729121E+02  0.00000000000E+00 0. -1.
         11    1    4    4    0    0  0.64598523730E+01  0.44622315400E+01 -0.54474763391E+01  0.95559511156E+01  0.51100000000E-03 0. -1.
        -11    1    4    4    0    0  0.39927021058E+01 -0.30694979580E+01 -0.31582914232E+01  0.59446019879E+01  0.51100000000E-03 0.  1.
         12    1    4    4    0    0  0.22662395798E+02 -0.18553585147E+02 -0.13587216037E+02  0.32286717776E+02  0.00000000000E+00 0. -1.
</event>
<event>
 8    1  0.2994958E-010  0.9118800E+02  0.7816164E-02  0.1184000E+00
        -11   -1    0    0    0    0  0.00000000000E+00  0.00000000000E+00  0.45593999997E+02  0.45594000000E+02  0.51100000000E-03 0. -1.
         11   -1    0    0    0    0 -0.00000000000E+00 -0.00000000000E+00 -0.45593999997E+02  0.45594000000E+02  0.51100000000E-03 0.  1.
         23    2    1    2    0    0  0.00000000000E+00 -0.71054273576E-14  0.35527136788E-14  0.91188000000E+02  0.91188000000E+02 0.  0.
    9900012    2    3    3    0    0  0.10271957539E+02 -0.34992449657E+02  0.23529522641E+02  0.47787273273E+02  0.20000010162E+02 0.  0.
        -12    1    3    3    0    0 -0.10271957539E+02  0.34992449657E+02 -0.23529522641E+02  0.43400726727E+02  0.00000000000E+00 0.  1.
         11    1    4    4    0    0  0.63645046042E+01 -0.22128370760E+02  0.13133726441E+02  0.26507856983E+02  0.51100000000E-03 0. -1.
        -11    1    4    4    0    0  0.27417144559E+01 -0.10679678272E+02  0.45550672031E+00  0.11035398170E+02  0.51100000000E-03 0.  1.
         12    1    4    4    0    0  0.11657384791E+01 -0.21844006255E+01  0.99402894798E+01  0.10244018120E+02  0.00000000000E+00 0. -1.
</event>
<event>
 8    1  0.2994958E-010  0.9118800E+02  0.7816164E-02  0.1184000E+00
        -11   -1    0    0    0    0  0.00000000000E+00  0.00000000000E+00  0.45593999997E+02  0.45594000000E+02  0.51100000000E-03 0. -1.
         11   -1    0    0    0    0 -0.00000000000E+00 -0.00000000000E+00 -0.45593999997E+02  0.45594000000E+02  0.51100000000E-03 0.  1.
         23    2    1    2    0    0  0.00000000000E+00  0.17763568394E-14  0.00000000000E+00  0.91188000000E+02  0.91188000000E+02 0.  0.
    9900012    2    3    3    0    0  0.15977036501E+02 -0.15794369522E+02 -0.37133491350E+02  0.47787262866E+02  0.19999962711E+02 0.  0.
         12    1    3    3    0    0 -0.15977036501E+02  0.15794369522E+02  0.37133491350E+02  0.43400737134E+02  0.00000000000E+00 0. -1.
         11    1    4    4    0    0  0.10527538240E+02  0.47871552096E+00 -0.16328146783E+02  0.19433646276E+02  0.51100000000E-03 0. -1.
        -11    1    4    4    0    0  0.21763738268E+01  0.59042337942E-01 -0.79504265687E+00  0.23177968244E+01  0.51100000000E-03 0.  1.
        -12    1    4    4    0    0  0.32731244342E+01 -0.16332127381E+02 -0.20010301910E+02  0.26035819766E+02  0.00000000000E+00 0.  1.
</event>
<event>
 8    1  0.2994958E-010  0.9118800E+02  0.7816164E-02  0.1184000E+00
        -11   -1    0    0    0    0  0.00000000000E+00  0.00000000000E+00  0.45593999997E+02  0.45594000000E+02  0.51100000000E-03 0. -1.
         11   -1    0    0    0    0 -0.00000000000E+00 -0.00000000000E+00 -0.45593999997E+02  0.45594000000E+02  0.51100000000E-03 0.  1.
         23    2    1    2    0    0  0.00000000000E+00  0.00000000000E+00  0.00000000000E+00  0.91188000000E+02  0.91188000000E+02 0.  0.
    9900012    2    3    3    0    0 -0.75040960947E+01  0.24695021865E+02 -0.34892228949E+02  0.47787271848E+02  0.20000003664E+02 0.  0.
         12    1    3    3    0    0  0.75040960947E+01 -0.24695021865E+02  0.34892228949E+02  0.43400728152E+02  0.00000000000E+00 0. -1.
         11    1    4    4    0    0 -0.34177654676E+01  0.16167161905E+02 -0.18681657691E+02  0.24941182393E+02  0.51100000000E-03 0. -1.
        -11    1    4    4    0    0 -0.27103898216E+01 -0.21461893934E+00 -0.13231639944E+02  0.13508092764E+02  0.51100000000E-03 0.  1.
         12    1    4    4    0    0 -0.13759408054E+01  0.87424788997E+01 -0.29789313144E+01  0.93379966903E+01  0.00000000000E+00 0. -1.
</event>
<event>
 8    1  0.2994958E-010  0.9118800E+02  0.7816164E-02  0.1184000E+00
        -11   -1    0    0    0    0  0.00000000000E+00  0.00000000000E+00  0.45593999997E+02  0.45594000000E+02  0.51100000000E-03 0. -1.
         11   -1    0    0    0    0 -0.00000000000E+00 -0.00000000000E+00 -0.45593999997E+02  0.45594000000E+02  0.51100000000E-03 0.  1.
         23    2    1    2    0    0  0.35527136788E-14  0.00000000000E+00  0.00000000000E+00  0.91188000000E+02  0.91188000000E+02 0.  0.
    9900012    2    3    3    0    0  0.21512855261E+02 -0.37375654786E+02  0.48868401590E+01  0.47787265917E+02  0.19999976623E+02 0.  0.
        -12    1    3    3    0    0 -0.21512855261E+02  0.37375654786E+02 -0.48868401590E+01  0.43400734083E+02  0.00000000000E+00 0.  1.
         11    1    4    4    0    0  0.94122704944E+01 -0.15944573263E+02  0.70725828659E+01  0.19820234132E+02  0.51100000000E-03 0. -1.
        -11    1    4    4    0    0  0.25980701678E+01 -0.17156692862E+02 -0.16384440264E+00  0.17353066697E+02  0.51100000000E-03 0.  1.
        -12    1    4    4    0    0  0.95025145989E+01 -0.42743886614E+01 -0.20218983043E+01  0.10613965088E+02  0.00000000000E+00 0.  1.
</event>
<event>
 8    1  0.2994958E-010  0.9118800E+02  0.7816164E-02  0.1184000E+00
        -11   -1    0    0    0    0  0.00000000000E+00  0.00000000000E+00  0.45593999997E+02  0.45594000000E+02  0.51100000000E-03 0. -1.
         11   -1    0    0    0    0 -0.00000000000E+00 -0.00000000000E+00 -0.45593999997E+02  0.45594000000E+02  0.51100000000E-03 0.  1.
         23    2    1    2    0    0  0.00000000000E+00  0.00000000000E+00  0.00000000000E+00  0.91188000000E+02  0.91188000000E+02 0.  0.
    9900012    2    3    3    0    0 -0.11593913724E+02  0.36707162454E+01 -0.41662092195E+02  0.47787275130E+02  0.20000018627E+02 0.  0.
         12    1    3    3    0    0  0.11593913724E+02 -0.36707162454E+01  0.41662092195E+02  0.43400724870E+02  0.00000000000E+00 0. -1.
         11    1    4    4    0    0 -0.80081690356E+01  0.98709298946E+00 -0.10510667823E+02  0.13250632522E+02  0.51100000000E-03 0. -1.
        -11    1    4    4    0    0 -0.30548553842E+01 -0.28706552131E+01 -0.16383551081E+01  0.45007788762E+01  0.51100000000E-03 0.  1.
        -12    1    4    4    0    0 -0.53088930457E+00  0.55542784691E+01 -0.29513069263E+02  0.30035863732E+02  0.00000000000E+00 0.  1.
</event>
<event>
 8    1  0.2994958E-010  0.9118800E+02  0.7816164E-02  0.1184000E+00
        -11   -1    0    0    0    0  0.00000000000E+00  0.00000000000E+00  0.45593999997E+02  0.45594000000E+02  0.51100000000E-03 0. -1.
         11   -1    0    0    0    0 -0.00000000000E+00 -0.00000000000E+00 -0.45593999997E+02  0.45594000000E+02  0.51100000000E-03 0.  1.
         23    2    1    2    0    0  0.00000000000E+00  0.00000000000E+00  0.35527136788E-14  0.91188000000E+02  0.91188000000E+02 0.  0.
    9900012    2    3    3    0    0  0.33768618277E+02  0.80594118713E+01 -0.26045137576E+02  0.47787275450E+02  0.20000020088E+02 0.  0.
         12    1    3    3    0    0 -0.33768618277E+02 -0.80594118713E+01  0.26045137576E+02  0.43400724550E+02  0.00000000000E+00 0. -1.
         11    1    4    4    0    0  0.64389669036E+01 -0.20981926420E+01 -0.74847596108E+01  0.10093776986E+02  0.51100000000E-03 0. -1.
        -11    1    4    4    0    0  0.26676335922E+02  0.64832371519E+01 -0.19701826491E+02  0.33790845351E+02  0.51100000000E-03 0.  1.
         12    1    4    4    0    0  0.65331545144E+00  0.36743673615E+01  0.11414485254E+01  0.39026531132E+01  0.00000000000E+00 0. -1.
</event>
<event>
 8    1  0.2994958E-010  0.9118800E+02  0.7816164E-02  0.1184000E+00
        -11   -1    0    0    0    0  0.00000000000E+00  0.00000000000E+00  0.45593999997E+02  0.45594000000E+02  0.51100000000E-03 0. -1.
         11   -1    0    0    0    0 -0.00000000000E+00 -0.00000000000E+00 -0.45593999997E+02  0.45594000000E+02  0.51100000000E-03 0.  1.
         23    2    1    2    0    0  0.00000000000E+00  0.00000000000E+00  0.00000000000E+00  0.91188000000E+02  0.91188000000E+02 0.  0.
    9900012    2    3    3    0    0  0.28391587489E+01 -0.59005588818E+01 -0.42903953256E+02  0.47787232467E+02  0.19999824108E+02 0.  0.
         12    1    3    3    0    0 -0.28391587489E+01  0.59005588818E+01  0.42903953256E+02  0.43400767533E+02  0.00000000000E+00 0. -1.
         11    1    4    4    0    0 -0.65378649327E+00 -0.97373572204E+01 -0.30233071866E+02  0.31769202022E+02  0.51100000000E-03 0. -1.
        -11    1    4    4    0    0  0.64146633765E+00  0.22360669723E+01 -0.12530881343E+02  0.12744977915E+02  0.51100000000E-03 0.  1.
         12    1    4    4    0    0  0.28514789046E+01  0.16007313663E+01 -0.14000004713E+00  0.32730525299E+01  0.00000000000E+00 0. -1.
</event>
<event>
 8    1  0.2994958E-010  0.9118800E+02  0.7816164E-02  0.1184000E+00
        -11   -1    0    0    0    0  0.00000000000E+00  0.00000000000E+00  0.45593999997E+02  0.45594000000E+02  0.51100000000E-03 0. -1.
         11   -1    0    0    0    0 -0.00000000000E+00 -0.00000000000E+00 -0.45593999997E+02  0.45594000000E+02  0.51100000000E-03 0.  1.
         23    2    1    2    0    0  0.35527136788E-14  0.71054273576E-14 -0.71054273576E-14  0.91188000000E+02  0.91188000000E+02 0.  0.
    9900012    2    3    3    0    0 -0.15464429509E+02 -0.16499315500E+02  0.37043855751E+02  0.47787271424E+02  0.20000001730E+02 0.  0.
        -12    1    3    3    0    0  0.15464429509E+02  0.16499315500E+02 -0.37043855751E+02  0.43400728576E+02  0.00000000000E+00 0.  1.
         11    1    4    4    0    0 -0.44309673715E+01 -0.67301068637E+01  0.16775978680E+02  0.18610783734E+02  0.51100000000E-03 0. -1.
        -11    1    4    4    0    0 -0.14318094802E+02 -0.10229429755E+02  0.16107460460E+02  0.23855803374E+02  0.51100000000E-03 0.  1.
        -12    1    4    4    0    0  0.32846326642E+01  0.46022111906E+00  0.41604166110E+01  0.53206843164E+01  0.00000000000E+00 0.  1.
</event>
<event>
 8    1  0.2994958E-010  0.9118800E+02  0.7816164E-02  0.1184000E+00
        -11   -1    0    0    0    0  0.00000000000E+00  0.00000000000E+00  0.45593999997E+02  0.45594000000E+02  0.51100000000E-03 0. -1.
         11   -1    0    0    0    0 -0.00000000000E+00 -0.00000000000E+00 -0.45593999997E+02  0.45594000000E+02  0.51100000000E-03 0.  1.
         23    2    1    2    0    0  0.44408920985E-15  0.88817841970E-15 -0.71054273576E-14  0.91188000000E+02  0.91188000000E+02 0.  0.
    9900012    2    3    3    0    0 -0.25570414495E+01 -0.42388780876E+01  0.43117448910E+02  0.47787297830E+02  0.20000122124E+02 0.  0.
        -12    1    3    3    0    0  0.25570414495E+01  0.42388780876E+01 -0.43117448910E+02  0.43400702170E+02  0.00000000000E+00 0.  1.
         11    1    4    4    0    0 -0.16319633397E+01  0.44043615066E+01  0.16931863253E+02  0.17571274800E+02  0.51100000000E-03 0. -1.
        -11    1    4    4    0    0  0.26557855221E+01  0.20447273331E+01  0.95517447912E+01  0.10122743473E+02  0.51100000000E-03 0.  1.
         12    1    4    4    0    0 -0.35808636319E+01 -0.10687966927E+02  0.16633840866E+02  0.20093279557E+02  0.00000000000E+00 0. -1.
</event>
<event>
 8    1  0.2994958E-010  0.9118800E+02  0.7816164E-02  0.1184000E+00
        -11   -1    0    0    0    0  0.00000000000E+00  0.00000000000E+00  0.45593999997E+02  0.45594000000E+02  0.51100000000E-03 0. -1.
         11   -1    0    0    0    0 -0.00000000000E+00 -0.00000000000E+00 -0.45593999997E+02  0.45594000000E+02  0.51100000000E-03 0.  1.
         23    2    1    2    0    0  0.17763568394E-14 -0.71054273576E-14  0.00000000000E+00  0.91188000000E+02  0.91188000000E+02 0.  0.
    9900012    2    3    3    0    0 -0.94896013026E+01  0.24212522359E+02 -0.34746574171E+02  0.47787272028E+02  0.20000004486E+02 0.  0.
         12    1    3    3    0    0  0.94896013026E+01 -0.24212522359E+02  0.34746574171E+02  0.43400727972E+02  0.00000000000E+00 0. -1.
         11    1    4    4    0    0  0.12765689376E+00  0.33478593687E+01 -0.44806746740E+00  0.33801217954E+01  0.51100000000E-03 0. -1.
        -11    1    4    4    0    0 -0.14278046372E+02  0.15993769029E+02 -0.25276718631E+02  0.33144769737E+02  0.51100000000E-03 0.  1.
        -12    1    4    4    0    0  0.46607881757E+01  0.48708939614E+01 -0.90217880727E+01  0.11262380496E+02  0.00000000000E+00 0.  1.
</event>
<event>
 8    1  0.3408173E-010  0.9118800E+02  0.7816164E-02  0.1184000E+00
        -11   -1    0    0    0    0  0.00000000000E+00  0.00000000000E+00  0.45593999997E+02  0.45594000000E+02  0.51100000000E-03 0. -1.
         11   -1    0    0    0    0 -0.00000000000E+00 -0.00000000000E+00 -0.45593999997E+02  0.45594000000E+02  0.51100000000E-03 0.  1.
         23    2    1    2    0    0  0.00000000000E+00 -0.35527136788E-14  0.00000000000E+00  0.91188000000E+02  0.91188000000E+02 0.  0.
    9900012    2    3    3    0    0 -0.96383797776E+01 -0.22703801086E+02  0.35710813101E+02  0.47787272807E+02  0.20000008038E+02 0.  0.
        -12    1    3    3    0    0  0.96383797776E+01  0.22703801086E+02 -0.35710813101E+02  0.43400727193E+02  0.00000000000E+00 0.  1.
         11    1    4    4    0    0 -0.37238382496E+01 -0.12352792971E+01  0.14410259981E+02  0.14934807639E+02  0.51100000000E-03 0. -1.
        -11    1    4    4    0    0  0.23572541739E+01 -0.23775665209E+01  0.41774095071E+00  0.33740150510E+01  0.51100000000E-03 0.  1.
         12    1    4    4    0    0 -0.82717957019E+01 -0.19090955268E+02  0.20882812170E+02  0.29478450117E+02  0.00000000000E+00 0. -1.
</event>
<event>
 8    1  0.2994958E-010  0.9118800E+02  0.7816164E-02  0.1184000E+00
        -11   -1    0    0    0    0  0.00000000000E+00  0.00000000000E+00  0.45593999997E+02  0.45594000000E+02  0.51100000000E-03 0. -1.
         11   -1    0    0    0    0 -0.00000000000E+00 -0.00000000000E+00 -0.45593999997E+02  0.45594000000E+02  0.51100000000E-03 0.  1.
         23    2    1    2    0    0  0.71054273576E-14 -0.17763568394E-14 -0.35527136788E-14  0.91188000000E+02  0.91188000000E+02 0.  0.
    9900012    2    3    3    0    0 -0.29613920900E+02  0.15755319576E+02  0.27539214036E+02  0.47787277474E+02  0.20000029314E+02 0.  0.
        -12    1    3    3    0    0  0.29613920900E+02 -0.15755319576E+02 -0.27539214036E+02  0.43400722526E+02  0.00000000000E+00 0.  1.
         11    1    4    4    0    0 -0.20910289313E+02  0.12940799473E+02  0.24200521552E+02  0.34501735229E+02  0.51100000000E-03 0. -1.
        -11    1    4    4    0    0 -0.93573627315E+01  0.39285962156E+01  0.48913243253E+01  0.11265840378E+02  0.51100000000E-03 0.  1.
        -12    1    4    4    0    0  0.65373114441E+00 -0.11140761125E+01 -0.15526318411E+01  0.20197018661E+01  0.00000000000E+00 0.  1.
</event>
<event>
 8    1  0.2994958E-010  0.9118800E+02  0.7816164E-02  0.1184000E+00
        -11   -1    0    0    0    0  0.00000000000E+00  0.00000000000E+00  0.45593999997E+02  0.45594000000E+02  0.51100000000E-03 0. -1.
         11   -1    0    0    0    0 -0.00000000000E+00 -0.00000000000E+00 -0.45593999997E+02  0.45594000000E+02  0.51100000000E-03 0.  1.
         23    2    1    2    0    0  0.11102230246E-14  0.00000000000E+00  0.00000000000E+00  0.91188000000E+02  0.91188000000E+02 0.  0.
    9900012    2    3    3    0    0  0.12642513181E+01  0.22217070190E+02  0.37261597098E+02  0.47787272385E+02  0.20000006111E+02 0.  0.
        -12    1    3    3    0    0 -0.12642513181E+01 -0.22217070190E+02 -0.37261597098E+02  0.43400727615E+02  0.00000000000E+00 0.  1.
         11    1    4    4    0    0 -0.16055821160E+01  0.40975411593E+01  0.32354689972E+01  0.54622337350E+01  0.51100000000E-03 0. -1.
        -11    1    4    4    0    0  0.86003599606E+01  0.10620901783E+02  0.11355408655E+02  0.17768372242E+02  0.51100000000E-03 0.  1.
         12    1    4    4    0    0 -0.57305265265E+01  0.74986272476E+01  0.22670719446E+02  0.24556666408E+02  0.00000000000E+00 0. -1.
</event>
<event>
 8    1  0.2994958E-010  0.9118800E+02  0.7816164E-02  0.1184000E+00
        -11   -1    0    0    0    0  0.00000000000E+00  0.00000000000E+00  0.45593999997E+02  0.45594000000E+02  0.51100000000E-03 0.  1.
         11   -1    0    0    0    0 -0.00000000000E+00 -0.00000000000E+00 -0.45593999997E+02  0.45594000000E+02  0.51100000000E-03 0. -1.
         23    2    1    2    0    0 -0.71054273576E-14  0.44408920985E-15 -0.71054273576E-14  0.91188000000E+02  0.91188000000E+02 0.  0.
    9900012    2    3    3    0    0  0.35445151953E+02 -0.35922757465E+01  0.24786285158E+02  0.47787272196E+02  0.20000005249E+02 0.  0.
        -12    1    3    3    0    0 -0.35445151953E+02  0.35922757465E+01 -0.24786285158E+02  0.43400727804E+02  0.00000000000E+00 0.  1.
         11    1    4    4    0    0  0.64239463518E+01 -0.38998490509E+01  0.43110192245E+01  0.86637634066E+01  0.51100000000E-03 0. -1.
        -11    1    4    4    0    0  0.26853357652E+02  0.26221219248E+01  0.22691556785E+02  0.35254575450E+02  0.51100000000E-03 0.  1.
        -12    1    4    4    0    0  0.21678479493E+01 -0.23145486204E+01 -0.22162908512E+01  0.38689333394E+01  0.00000000000E+00 0.  1.
</event>
<event>
 8    1  0.2994958E-010  0.9118800E+02  0.7816164E-02  0.1184000E+00
        -11   -1    0    0    0    0  0.00000000000E+00  0.00000000000E+00  0.45593999997E+02  0.45594000000E+02  0.51100000000E-03 0. -1.
         11   -1    0    0    0    0 -0.00000000000E+00 -0.00000000000E+00 -0.45593999997E+02  0.45594000000E+02  0.51100000000E-03 0.  1.
         23    2    1    2    0    0  0.35527136788E-14  0.35527136788E-14  0.00000000000E+00  0.91188000000E+02  0.91188000000E+02 0.  0.
    9900012    2    3    3    0    0  0.23005264255E+02  0.13558369342E+02 -0.34213319425E+02  0.47787276633E+02  0.20000025481E+02 0.  0.
         12    1    3    3    0    0 -0.23005264255E+02 -0.13558369342E+02  0.34213319425E+02  0.43400723367E+02  0.00000000000E+00 0. -1.
         11    1    4    4    0    0  0.20535852306E+01  0.74973975007E+01 -0.71383032534E+01  0.10553840779E+02  0.51100000000E-03 0. -1.
        -11    1    4    4    0    0  0.11131345706E+02  0.96986984032E+01 -0.18689702513E+02  0.23817568899E+02  0.51100000000E-03 0.  1.
         12    1    4    4    0    0  0.98203333183E+01 -0.36377265618E+01 -0.83853136586E+01  0.13415866956E+02  0.00000000000E+00 0. -1.
</event>
<event>
 8    1  0.2994958E-010  0.9118800E+02  0.7816164E-02  0.1184000E+00
        -11   -1    0    0    0    0  0.00000000000E+00  0.00000000000E+00  0.45593999997E+02  0.45594000000E+02  0.51100000000E-03 0. -1.
         11   -1    0    0    0    0 -0.00000000000E+00 -0.00000000000E+00 -0.45593999997E+02  0.45594000000E+02  0.51100000000E-03 0.  1.
         23    2    1    2    0    0  0.00000000000E+00  0.00000000000E+00 -0.88817841970E-15  0.91188000000E+02  0.91188000000E+02 0.  0.
    9900012    2    3    3    0    0 -0.16002600298E+02 -0.40312494083E+02  0.15630141413E+01  0.47787269491E+02  0.19999992919E+02 0.  0.
        -12    1    3    3    0    0  0.16002600298E+02  0.40312494083E+02 -0.15630141413E+01  0.43400730509E+02  0.00000000000E+00 0.  1.
         11    1    4    4    0    0  0.10710161698E+01 -0.45066510218E+01  0.30428885067E+00  0.46421515523E+01  0.51100000000E-03 0. -1.
        -11    1    4    4    0    0  0.54844685802E+00 -0.87177239843E+01  0.58384666593E+01  0.10506531236E+02  0.51100000000E-03 0.  1.
         12    1    4    4    0    0 -0.17622063326E+02 -0.27088119077E+02 -0.45797413687E+01  0.32638586703E+02  0.00000000000E+00 0. -1.
</event>
<event>
 8    1  0.2994958E-010  0.9118800E+02  0.7816164E-02  0.1184000E+00
        -11   -1    0    0    0    0  0.00000000000E+00  0.00000000000E+00  0.45593999997E+02  0.45594000000E+02  0.51100000000E-03 0.  1.
         11   -1    0    0    0    0 -0.00000000000E+00 -0.00000000000E+00 -0.45593999997E+02  0.45594000000E+02  0.51100000000E-03 0. -1.
         23    2    1    2    0    0  0.71054273576E-14 -0.17763568394E-14  0.00000000000E+00  0.91188000000E+02  0.91188000000E+02 0.  0.
    9900012    2    3    3    0    0 -0.37931312427E+02  0.12676922024E+02 -0.16856291444E+02  0.47787269871E+02  0.19999994652E+02 0.  0.
         12    1    3    3    0    0  0.37931312427E+02 -0.12676922024E+02  0.16856291444E+02  0.43400730129E+02  0.00000000000E+00 0. -1.
         11    1    4    4    0    0 -0.19247204396E+01  0.65311248054E+01 -0.14538498530E+01  0.69623142454E+01  0.51100000000E-03 0. -1.
        -11    1    4    4    0    0 -0.66577520422E+01  0.40817941961E+01 -0.45069888185E+00  0.78223932308E+01  0.51100000000E-03 0.  1.
        -12    1    4    4    0    0 -0.29348839945E+02  0.20640030227E+01 -0.14951742709E+02  0.33002562395E+02  0.00000000000E+00 0.  1.
</event>
<event>
 8    1  0.2994958E-010  0.9118800E+02  0.7816164E-02  0.1184000E+00
        -11   -1    0    0    0    0  0.00000000000E+00  0.00000000000E+00  0.45593999997E+02  0.45594000000E+02  0.51100000000E-03 0. -1.
         11   -1    0    0    0    0 -0.00000000000E+00 -0.00000000000E+00 -0.45593999997E+02  0.45594000000E+02  0.51100000000E-03 0.  1.
         23    2    1    2    0    0  0.00000000000E+00  0.00000000000E+00  0.71054273576E-14  0.91188000000E+02  0.91188000000E+02 0.  0.
    9900012    2    3    3    0    0  0.10007536331E+02  0.50449477351E+01 -0.41928760835E+02  0.47787271132E+02  0.20000000401E+02 0.  0.
         12    1    3    3    0    0 -0.10007536331E+02 -0.50449477351E+01  0.41928760835E+02  0.43400728868E+02  0.00000000000E+00 0. -1.
         11    1    4    4    0    0 -0.28619091637E+01  0.17305754767E+01 -0.52440730306E-01  0.33448715720E+01  0.51100000000E-03 0. -1.
        -11    1    4    4    0    0  0.49043701557E+01  0.25354868670E+01 -0.86186949439E+01  0.10235401461E+02  0.51100000000E-03 0.  1.
         12    1    4    4    0    0  0.79650753394E+01  0.77888539136E+00 -0.33257625161E+02  0.34206998099E+02  0.00000000000E+00 0. -1.
</event>
<event>
 8    1  0.2994958E-010  0.9118800E+02  0.7816164E-02  0.1184000E+00
        -11   -1    0    0    0    0  0.00000000000E+00  0.00000000000E+00  0.45593999997E+02  0.45594000000E+02  0.51100000000E-03 0. -1.
         11   -1    0    0    0    0 -0.00000000000E+00 -0.00000000000E+00 -0.45593999997E+02  0.45594000000E+02  0.51100000000E-03 0.  1.
         23    2    1    2    0    0 -0.44408920985E-15  0.00000000000E+00  0.00000000000E+00  0.91188000000E+02  0.91188000000E+02 0.  0.
    9900012    2    3    3    0    0  0.20652843899E+01 -0.41206630813E+02 -0.13467417324E+02  0.47787272449E+02  0.20000006402E+02 0.  0.
         12    1    3    3    0    0 -0.20652843899E+01  0.41206630813E+02  0.13467417324E+02  0.43400727551E+02  0.00000000000E+00 0. -1.
         11    1    4    4    0    0 -0.60813168033E+01 -0.12931547889E+02 -0.34504531833E+01  0.14700781350E+02  0.51100000000E-03 0. -1.
        -11    1    4    4    0    0 -0.17998640213E+01 -0.13359171498E+02 -0.28435212958E+01  0.13776523046E+02  0.51100000000E-03 0.  1.
         12    1    4    4    0    0  0.99464652145E+01 -0.14915911426E+02 -0.71734428452E+01  0.19309968053E+02  0.00000000000E+00 0. -1.
</event>
<event>
 8    1  0.2994958E-010  0.9118800E+02  0.7816164E-02  0.1184000E+00
        -11   -1    0    0    0    0  0.00000000000E+00  0.00000000000E+00  0.45593999997E+02  0.45594000000E+02  0.51100000000E-03 0.  1.
         11   -1    0    0    0    0 -0.00000000000E+00 -0.00000000000E+00 -0.45593999997E+02  0.45594000000E+02  0.51100000000E-03 0. -1.
         23    2    1    2    0    0 -0.44408920985E-15 -0.71054273576E-14  0.35527136788E-14  0.91188000000E+02  0.91188000000E+02 0.  0.
    9900012    2    3    3    0    0 -0.36191147455E+01  0.33278033278E+02  0.27624218904E+02  0.47787274655E+02  0.20000016463E+02 0.  0.
        -12    1    3    3    0    0  0.36191147455E+01 -0.33278033278E+02 -0.27624218904E+02  0.43400725345E+02  0.00000000000E+00 0.  1.
         11    1    4    4    0    0  0.50056171147E+01  0.10015848949E+02  0.77703863795E+01  0.13629098929E+02  0.51100000000E-03 0. -1.
        -11    1    4    4    0    0  0.27627588816E+00  0.76292473861E+01  0.37530357079E+00  0.76434676081E+01  0.51100000000E-03 0.  1.
         12    1    4    4    0    0 -0.89010077483E+01  0.15632936943E+02  0.19478528953E+02  0.26514708118E+02  0.00000000000E+00 0. -1.
</event>
<event>
 8    1  0.2994958E-010  0.9118800E+02  0.7816164E-02  0.1184000E+00
        -11   -1    0    0    0    0  0.00000000000E+00  0.00000000000E+00  0.45593999997E+02  0.45594000000E+02  0.51100000000E-03 0.  1.
         11   -1    0    0    0    0 -0.00000000000E+00 -0.00000000000E+00 -0.45593999997E+02  0.45594000000E+02  0.51100000000E-03 0. -1.
         23    2    1    2    0    0 -0.44408920985E-15  0.00000000000E+00 -0.17763568394E-14  0.91188000000E+02  0.91188000000E+02 0.  0.
    9900012    2    3    3    0    0  0.14646333344E+01 -0.43244952825E+02 -0.33692948584E+01  0.47787271395E+02  0.20000001599E+02 0.  0.
        -12    1    3    3    0    0 -0.14646333344E+01  0.43244952825E+02  0.33692948584E+01  0.43400728605E+02  0.00000000000E+00 0.  1.
         11    1    4    4    0    0 -0.26629408836E+01 -0.30612331945E+02 -0.97516847927E+01  0.32238199047E+02  0.51100000000E-03 0. -1.
        -11    1    4    4    0    0  0.19302334613E+00  0.30867464081E+00  0.86938160798E+00  0.94252993982E+00  0.51100000000E-03 0.  1.
         12    1    4    4    0    0  0.39345508719E+01 -0.12941295521E+02  0.55130083263E+01  0.14606542408E+02  0.00000000000E+00 0. -1.
</event>
<event>
 8    1  0.2994958E-010  0.9118800E+02  0.7816164E-02  0.1184000E+00
        -11   -1    0    0    0    0  0.00000000000E+00  0.00000000000E+00  0.45593999997E+02  0.45594000000E+02  0.51100000000E-03 0. -1.
         11   -1    0    0    0    0 -0.00000000000E+00 -0.00000000000E+00 -0.45593999997E+02  0.45594000000E+02  0.51100000000E-03 0.  1.
         23    2    1    2    0    0  0.00000000000E+00  0.00000000000E+00 -0.71054273576E-14  0.91188000000E+02  0.91188000000E+02 0.  0.
    9900012    2    3    3    0    0 -0.16121841804E+02  0.19947620193E+02 -0.35011452337E+02  0.47787272711E+02  0.20000007598E+02 0.  0.
         12    1    3    3    0    0  0.16121841804E+02 -0.19947620193E+02  0.35011452337E+02  0.43400727289E+02  0.00000000000E+00 0. -1.
         11    1    4    4    0    0  0.59352597404E+00  0.41699568751E+01 -0.29162836336E+01  0.51230385432E+01  0.51100000000E-03 0. -1.
        -11    1    4    4    0    0 -0.56857994767E+01  0.14371032294E+02 -0.11516924382E+02  0.19274190836E+02  0.51100000000E-03 0.  1.
        -12    1    4    4    0    0 -0.11029568302E+02  0.14066310235E+01 -0.20578244320E+02  0.23390043332E+02  0.00000000000E+00 0.  1.
</event>
<event>
 8    1  0.2994958E-010  0.9118800E+02  0.7816164E-02  0.1184000E+00
        -11   -1    0    0    0    0  0.00000000000E+00  0.00000000000E+00  0.45593999997E+02  0.45594000000E+02  0.51100000000E-03 0.  1.
         11   -1    0    0    0    0 -0.00000000000E+00 -0.00000000000E+00 -0.45593999997E+02  0.45594000000E+02  0.51100000000E-03 0. -1.
         23    2    1    2    0    0 -0.71054273576E-14 -0.44408920985E-15  0.00000000000E+00  0.91188000000E+02  0.91188000000E+02 0.  0.
    9900012    2    3    3    0    0 -0.37410718962E+02  0.37921439117E+01 -0.21672127254E+02  0.47787270185E+02  0.19999996082E+02 0.  0.
         12    1    3    3    0    0  0.37410718962E+02 -0.37921439117E+01  0.21672127254E+02  0.43400729815E+02  0.00000000000E+00 0. -1.
         11    1    4    4    0    0 -0.98092205250E+01  0.16708538177E+01 -0.57456026539E+01  0.11490191900E+02  0.51100000000E-03 0.  1.
        -11    1    4    4    0    0 -0.16787564331E+00  0.23639933416E+01  0.23456296409E+01  0.33344602897E+01  0.51100000000E-03 0. -1.
         12    1    4    4    0    0 -0.27433622794E+02 -0.24270324757E+00 -0.18272154241E+02  0.32962617995E+02  0.00000000000E+00 0. -1.
</event>
<event>
 8    1  0.2994958E-010  0.9118800E+02  0.7816164E-02  0.1184000E+00
        -11   -1    0    0    0    0  0.00000000000E+00  0.00000000000E+00  0.45593999997E+02  0.45594000000E+02  0.51100000000E-03 0. -1.
         11   -1    0    0    0    0 -0.00000000000E+00 -0.00000000000E+00 -0.45593999997E+02  0.45594000000E+02  0.51100000000E-03 0.  1.
         23    2    1    2    0    0  0.00000000000E+00  0.00000000000E+00  0.00000000000E+00  0.91188000000E+02  0.91188000000E+02 0.  0.
    9900012    2    3    3    0    0  0.19824880564E+02  0.28933533863E+02  0.25562626999E+02  0.47787272238E+02  0.20000005444E+02 0.  0.
        -12    1    3    3    0    0 -0.19824880564E+02 -0.28933533863E+02 -0.25562626999E+02  0.43400727762E+02  0.00000000000E+00 0.  1.
         11    1    4    4    0    0 -0.19870241699E+01  0.52405139522E+01 -0.43577737373E+00  0.56214903465E+01  0.51100000000E-03 0. -1.
        -11    1    4    4    0    0  0.30036624502E+01  0.50155949617E+01  0.14169290005E+01  0.60154691411E+01  0.51100000000E-03 0.  1.
        -12    1    4    4    0    0  0.18808242283E+02  0.18677424949E+02  0.24581475372E+02  0.36150312751E+02  0.00000000000E+00 0.  1.
</event>
<event>
 8    1  0.3215196E-010  0.9118800E+02  0.7816164E-02  0.1184000E+00
        -11   -1    0    0    0    0  0.00000000000E+00  0.00000000000E+00  0.45593999997E+02  0.45594000000E+02  0.51100000000E-03 0. -1.
         11   -1    0    0    0    0 -0.00000000000E+00 -0.00000000000E+00 -0.45593999997E+02  0.45594000000E+02  0.51100000000E-03 0.  1.
         23    2    1    2    0    0  0.00000000000E+00 -0.71054273576E-14  0.71054273576E-14  0.91188000000E+02  0.91188000000E+02 0.  0.
    9900012    2    3    3    0    0  0.95620154668E+01 -0.22617533387E+02  0.35786008810E+02  0.47787269789E+02  0.19999994277E+02 0.  0.
        -12    1    3    3    0    0 -0.95620154668E+01  0.22617533387E+02 -0.35786008810E+02  0.43400730211E+02  0.00000000000E+00 0.  1.
         11    1    4    4    0    0  0.11172313987E+01 -0.12811515820E+02  0.10981053672E+02  0.16910549477E+02  0.51100000000E-03 0. -1.
        -11    1    4    4    0    0  0.55398987762E+01 -0.56857813566E+01  0.29835901584E+01  0.84805895184E+01  0.51100000000E-03 0.  1.
         12    1    4    4    0    0  0.29048852919E+01 -0.41202362103E+01  0.21821364979E+02  0.22396130794E+02  0.00000000000E+00 0. -1.
</event>
<event>
 8    1  0.2994958E-010  0.9118800E+02  0.7816164E-02  0.1184000E+00
        -11   -1    0    0    0    0  0.00000000000E+00  0.00000000000E+00  0.45593999997E+02  0.45594000000E+02  0.51100000000E-03 0. -1.
         11   -1    0    0    0    0 -0.00000000000E+00 -0.00000000000E+00 -0.45593999997E+02  0.45594000000E+02  0.51100000000E-03 0.  1.
         23    2    1    2    0    0  0.17763568394E-14  0.00000000000E+00  0.71054273576E-14  0.91188000000E+02  0.91188000000E+02 0.  0.
    9900012    2    3    3    0    0 -0.13234386843E+02  0.16293525617E+02 -0.37986777504E+02  0.47787271466E+02  0.20000001924E+02 0.  0.
         12    1    3    3    0    0  0.13234386843E+02 -0.16293525617E+02  0.37986777504E+02  0.43400728534E+02  0.00000000000E+00 0. -1.
         11    1    4    4    0    0 -0.54503662404E+01  0.11889106840E+02 -0.21168770885E+02  0.24883211502E+02  0.51100000000E-03 0. -1.
        -11    1    4    4    0    0 -0.95306679648E+01  0.71543970793E+01 -0.15051722013E+02  0.19198264641E+02  0.51100000000E-03 0.  1.
         12    1    4    4    0    0  0.17466473624E+01 -0.27499783017E+01 -0.17662846052E+01  0.37057953229E+01  0.00000000000E+00 0. -1.
</event>
<event>
 8    1  0.2994958E-010  0.9118800E+02  0.7816164E-02  0.1184000E+00
        -11   -1    0    0    0    0  0.00000000000E+00  0.00000000000E+00  0.45593999997E+02  0.45594000000E+02  0.51100000000E-03 0. -1.
         11   -1    0    0    0    0 -0.00000000000E+00 -0.00000000000E+00 -0.45593999997E+02  0.45594000000E+02  0.51100000000E-03 0.  1.
         23    2    1    2    0    0  0.88817841970E-15  0.17763568394E-14  0.00000000000E+00  0.91188000000E+02  0.91188000000E+02 0.  0.
    9900012    2    3    3    0    0 -0.75707740022E+01 -0.12523929281E+02 -0.40859000034E+02  0.47787270658E+02  0.19999998237E+02 0.  0.
         12    1    3    3    0    0  0.75707740022E+01  0.12523929281E+02  0.40859000034E+02  0.43400729342E+02  0.00000000000E+00 0. -1.
         11    1    4    4    0    0  0.33264720719E+01 -0.78535660613E+01 -0.14728908757E+02  0.17020125433E+02  0.51100000000E-03 0. -1.
        -11    1    4    4    0    0  0.14361207830E+01 -0.35176895729E+01 -0.50948755130E+01  0.63556541432E+01  0.51100000000E-03 0.  1.
        -12    1    4    4    0    0 -0.12333366857E+02 -0.11526736471E+01 -0.21035215764E+02  0.24411491081E+02  0.00000000000E+00 0.  1.
</event>
<event>
 8    1  0.2994958E-010  0.9118800E+02  0.7816164E-02  0.1184000E+00
        -11   -1    0    0    0    0  0.00000000000E+00  0.00000000000E+00  0.45593999997E+02  0.45594000000E+02  0.51100000000E-03 0. -1.
         11   -1    0    0    0    0 -0.00000000000E+00 -0.00000000000E+00 -0.45593999997E+02  0.45594000000E+02  0.51100000000E-03 0.  1.
         23    2    1    2    0    0  0.00000000000E+00  0.00000000000E+00 -0.71054273576E-14  0.91188000000E+02  0.91188000000E+02 0.  0.
    9900012    2    3    3    0    0  0.60846875447E+01 -0.11043387003E+02 -0.41528827224E+02  0.47787270633E+02  0.19999998123E+02 0.  0.
         12    1    3    3    0    0 -0.60846875447E+01  0.11043387003E+02  0.41528827224E+02  0.43400729367E+02  0.00000000000E+00 0. -1.
         11    1    4    4    0    0  0.46984938737E+01 -0.35067234889E+01 -0.49826355947E+01  0.76941284133E+01  0.51100000000E-03 0.  1.
        -11    1    4    4    0    0  0.79618541194E+01 -0.32304491880E+01 -0.20386664992E+02  0.22123359435E+02  0.51100000000E-03 0. -1.
         12    1    4    4    0    0 -0.65756604484E+01 -0.43062143265E+01 -0.16159526637E+02  0.17969782784E+02  0.00000000000E+00 0. -1.
</event>
<event>
 8    1  0.2994958E-010  0.9118800E+02  0.7816164E-02  0.1184000E+00
        -11   -1    0    0    0    0  0.00000000000E+00  0.00000000000E+00  0.45593999997E+02  0.45594000000E+02  0.51100000000E-03 0. -1.
         11   -1    0    0    0    0 -0.00000000000E+00 -0.00000000000E+00 -0.45593999997E+02  0.45594000000E+02  0.51100000000E-03 0.  1.
         23    2    1    2    0    0  0.44408920985E-15  0.71054273576E-14  0.00000000000E+00  0.91188000000E+02  0.91188000000E+02 0.  0.
    9900012    2    3    3    0    0 -0.35766268829E+01 -0.35118577738E+02  0.25249091523E+02  0.47787269765E+02  0.19999994166E+02 0.  0.
        -12    1    3    3    0    0  0.35766268829E+01  0.35118577738E+02 -0.25249091523E+02  0.43400730235E+02  0.00000000000E+00 0.  1.
         11    1    4    4    0    0 -0.90237378155E+00 -0.14325491464E+02  0.12361628655E+02  0.18943174164E+02  0.51100000000E-03 0. -1.
        -11    1    4    4    0    0 -0.73415766010E+01 -0.18925160394E+02  0.79584019670E+01  0.21803591563E+02  0.51100000000E-03 0.  1.
         12    1    4    4    0    0  0.46673234996E+01 -0.18679258801E+01  0.49290609005E+01  0.70405040377E+01  0.00000000000E+00 0. -1.
</event>
<event>
 8    1  0.2994958E-010  0.9118800E+02  0.7816164E-02  0.1184000E+00
        -11   -1    0    0    0    0  0.00000000000E+00  0.00000000000E+00  0.45593999997E+02  0.45594000000E+02  0.51100000000E-03 0. -1.
         11   -1    0    0    0    0 -0.00000000000E+00 -0.00000000000E+00 -0.45593999997E+02  0.45594000000E+02  0.51100000000E-03 0.  1.
         23    2    1    2    0    0  0.00000000000E+00  0.00000000000E+00  0.00000000000E+00  0.91188000000E+02  0.91188000000E+02 0.  0.
    9900012    2    3    3    0    0 -0.38433688406E+02  0.63373252973E+01 -0.19139298640E+02  0.47787275941E+02  0.20000022326E+02 0.  0.
         12    1    3    3    0    0  0.38433688406E+02 -0.63373252973E+01  0.19139298640E+02  0.43400724059E+02  0.00000000000E+00 0. -1.
         11    1    4    4    0    0 -0.14281729057E+02  0.19320654935E+01 -0.32355016794E+01  0.14770549526E+02  0.51100000000E-03 0. -1.
        -11    1    4    4    0    0 -0.20071426128E+02 -0.10866002373E+01 -0.59958406272E+01  0.20976008962E+02  0.51100000000E-03 0.  1.
         12    1    4    4    0    0 -0.40805332214E+01  0.54918600410E+01 -0.99079563336E+01  0.12040717453E+02  0.00000000000E+00 0. -1.
</event>
<event>
 8    1  0.2994958E-010  0.9118800E+02  0.7816164E-02  0.1184000E+00
        -11   -1    0    0    0    0  0.00000000000E+00  0.00000000000E+00  0.45593999997E+02  0.45594000000E+02  0.51100000000E-03 0. -1.
         11   -1    0    0    0    0 -0.00000000000E+00 -0.00000000000E+00 -0.45593999997E+02  0.45594000000E+02  0.51100000000E-03 0.  1.
         23    2    1    2    0    0  0.00000000000E+00  0.00000000000E+00 -0.17763568394E-14  0.91188000000E+02  0.91188000000E+02 0.  0.
    9900012    2    3    3    0    0  0.37862049163E+02  0.15400864485E+02 -0.14591127561E+02  0.47787281144E+02  0.20000046049E+02 0.  0.
        -12    1    3    3    0    0 -0.37862049163E+02 -0.15400864485E+02  0.14591127561E+02  0.43400718856E+02  0.00000000000E+00 0.  1.
         11    1    4    4    0    0  0.30443641111E+01  0.72515322824E+01 -0.74181015188E+00  0.78995668138E+01  0.51100000000E-03 0. -1.
        -11    1    4    4    0    0  0.14528706977E+02  0.89564082652E+01 -0.71688037885E+01  0.18511950828E+02  0.51100000000E-03 0.  1.
        -12    1    4    4    0    0  0.20288978074E+02 -0.80707606223E+00 -0.66805136205E+01  0.21375763502E+02  0.00000000000E+00 0.  1.
</event>
<event>
 8    1  0.2994958E-010  0.9118800E+02  0.7816164E-02  0.1184000E+00
        -11   -1    0    0    0    0  0.00000000000E+00  0.00000000000E+00  0.45593999997E+02  0.45594000000E+02  0.51100000000E-03 0. -1.
         11   -1    0    0    0    0 -0.00000000000E+00 -0.00000000000E+00 -0.45593999997E+02  0.45594000000E+02  0.51100000000E-03 0.  1.
         23    2    1    2    0    0  0.44408920985E-15  0.00000000000E+00  0.00000000000E+00  0.91188000000E+02  0.91188000000E+02 0.  0.
    9900012    2    3    3    0    0  0.38244840976E+01 -0.17639448986E+01  0.43195896889E+02  0.47787266270E+02  0.19999978231E+02 0.  0.
        -12    1    3    3    0    0 -0.38244840976E+01  0.17639448986E+01 -0.43195896889E+02  0.43400733730E+02  0.00000000000E+00 0.  1.
         11    1    4    4    0    0  0.76956973152E+01  0.24603156511E+01  0.81565909417E+01  0.11480718023E+02  0.51100000000E-03 0.  1.
        -11    1    4    4    0    0 -0.24520343597E+01 -0.55544029644E+00  0.25536574053E+01  0.35835949588E+01  0.51100000000E-03 0. -1.
        -12    1    4    4    0    0 -0.14191788578E+01 -0.36688202532E+01  0.32485648542E+02  0.32722953288E+02  0.00000000000E+00 0.  1.
</event>
<event>
 8    1  0.2994958E-010  0.9118800E+02  0.7816164E-02  0.1184000E+00
        -11   -1    0    0    0    0  0.00000000000E+00  0.00000000000E+00  0.45593999997E+02  0.45594000000E+02  0.51100000000E-03 0. -1.
         11   -1    0    0    0    0 -0.00000000000E+00 -0.00000000000E+00 -0.45593999997E+02  0.45594000000E+02  0.51100000000E-03 0.  1.
         23    2    1    2    0    0  0.00000000000E+00  0.00000000000E+00  0.00000000000E+00  0.91188000000E+02  0.91188000000E+02 0.  0.
    9900012    2    3    3    0    0 -0.18253186496E+02  0.68586832982E+01 -0.38773741275E+02  0.47787269980E+02  0.19999995146E+02 0.  0.
         12    1    3    3    0    0  0.18253186496E+02 -0.68586832982E+01  0.38773741275E+02  0.43400730020E+02  0.00000000000E+00 0. -1.
         11    1    4    4    0    0 -0.33607917030E+01 -0.21935800863E+01 -0.91363781577E+01  0.99789839446E+01  0.51100000000E-03 0. -1.
        -11    1    4    4    0    0  0.21314937024E+01  0.37535384913E+01 -0.11899923382E+02  0.12658613406E+02  0.51100000000E-03 0.  1.
        -12    1    4    4    0    0 -0.17023888495E+02  0.52987248932E+01 -0.17737439736E+02  0.25149672629E+02  0.00000000000E+00 0.  1.
</event>
<event>
 8    1  0.2994958E-010  0.9118800E+02  0.7816164E-02  0.1184000E+00
        -11   -1    0    0    0    0  0.00000000000E+00  0.00000000000E+00  0.45593999997E+02  0.45594000000E+02  0.51100000000E-03 0.  1.
         11   -1    0    0    0    0 -0.00000000000E+00 -0.00000000000E+00 -0.45593999997E+02  0.45594000000E+02  0.51100000000E-03 0. -1.
         23    2    1    2    0    0 -0.71054273576E-14 -0.71054273576E-14 -0.11102230246E-15  0.91188000000E+02  0.91188000000E+02 0.  0.
    9900012    2    3    3    0    0 -0.27370355311E+02 -0.33667566328E+02 -0.99049026998E+00  0.47787280614E+02  0.20000043629E+02 0.  0.
         12    1    3    3    0    0  0.27370355311E+02  0.33667566328E+02  0.99049026998E+00  0.43400719386E+02  0.00000000000E+00 0. -1.
         11    1    4    4    0    0 -0.12811924803E+01 -0.76805608337E+01 -0.40171771899E+01  0.87618594903E+01  0.51100000000E-03 0. -1.
        -11    1    4    4    0    0 -0.13966863265E+02 -0.21994838370E+02  0.77935840854E+00  0.26066330470E+02  0.51100000000E-03 0.  1.
         12    1    4    4    0    0 -0.12122299566E+02 -0.39921671235E+01  0.22473285114E+01  0.12959090653E+02  0.00000000000E+00 0. -1.
</event>
<event>
 8    1  0.2994958E-010  0.9118800E+02  0.7816164E-02  0.1184000E+00
        -11   -1    0    0    0    0  0.00000000000E+00  0.00000000000E+00  0.45593999997E+02  0.45594000000E+02  0.51100000000E-03 0. -1.
         11   -1    0    0    0    0 -0.00000000000E+00 -0.00000000000E+00 -0.45593999997E+02  0.45594000000E+02  0.51100000000E-03 0.  1.
         23    2    1    2    0    0  0.00000000000E+00  0.44408920985E-15  0.00000000000E+00  0.91188000000E+02  0.91188000000E+02 0.  0.
    9900012    2    3    3    0    0  0.35938354848E+02  0.34310496915E+01  0.24089113393E+02  0.47787276098E+02  0.20000023041E+02 0.  0.
        -12    1    3    3    0    0 -0.35938354848E+02 -0.34310496915E+01 -0.24089113393E+02  0.43400723902E+02  0.00000000000E+00 0.  1.
         11    1    4    4    0    0  0.45075237145E+01  0.16426110173E+01 -0.10519876072E+01  0.49114783088E+01  0.51100000000E-03 0. -1.
        -11    1    4    4    0    0  0.23642763156E+01 -0.84890331019E+00 -0.18520005173E+01  0.31209526596E+01  0.51100000000E-03 0.  1.
        -12    1    4    4    0    0  0.29066554818E+02  0.26373419844E+01  0.26993101518E+02  0.39754845130E+02  0.00000000000E+00 0.  1.
</event>
<event>
 8    1  0.2994958E-010  0.9118800E+02  0.7816164E-02  0.1184000E+00
        -11   -1    0    0    0    0  0.00000000000E+00  0.00000000000E+00  0.45593999997E+02  0.45594000000E+02  0.51100000000E-03 0. -1.
         11   -1    0    0    0    0 -0.00000000000E+00 -0.00000000000E+00 -0.45593999997E+02  0.45594000000E+02  0.51100000000E-03 0.  1.
         23    2    1    2    0    0  0.00000000000E+00 -0.17763568394E-14  0.71054273576E-14  0.91188000000E+02  0.91188000000E+02 0.  0.
    9900012    2    3    3    0    0 -0.27240964036E+02  0.13834500416E+02 -0.30824660834E+02  0.47787271447E+02  0.20000001837E+02 0.  0.
         12    1    3    3    0    0  0.27240964036E+02 -0.13834500416E+02  0.30824660834E+02  0.43400728553E+02  0.00000000000E+00 0. -1.
         11    1    4    4    0    0 -0.18358098124E+02  0.15725194831E+01 -0.19376408514E+02  0.26738320654E+02  0.51100000000E-03 0. -1.
        -11    1    4    4    0    0  0.52910750955E+00 -0.11572575721E+01 -0.81341345567E+00  0.15102455283E+01  0.51100000000E-03 0.  1.
        -12    1    4    4    0    0 -0.94119734212E+01  0.13419238505E+02 -0.10634838865E+02  0.19538705265E+02  0.00000000000E+00 0.  1.
</event>
<event>
 8    1  0.2994958E-010  0.9118800E+02  0.7816164E-02  0.1184000E+00
        -11   -1    0    0    0    0  0.00000000000E+00  0.00000000000E+00  0.45593999997E+02  0.45594000000E+02  0.51100000000E-03 0. -1.
         11   -1    0    0    0    0 -0.00000000000E+00 -0.00000000000E+00 -0.45593999997E+02  0.45594000000E+02  0.51100000000E-03 0.  1.
         23    2    1    2    0    0 -0.17763568394E-14 -0.35527136788E-14  0.00000000000E+00  0.91188000000E+02  0.91188000000E+02 0.  0.
    9900012    2    3    3    0    0  0.64159714608E+01  0.22430936241E+02  0.36596606502E+02  0.47787271920E+02  0.20000003991E+02 0.  0.
        -12    1    3    3    0    0 -0.64159714608E+01 -0.22430936241E+02 -0.36596606502E+02  0.43400728080E+02  0.00000000000E+00 0.  1.
         11    1    4    4    0    0  0.22718875110E+01  0.36723651031E+01  0.15860525445E+02  0.16437883257E+02  0.51100000000E-03 0.  1.
        -11    1    4    4    0    0 -0.41279896219E+01  0.76783040212E+01  0.12549200344E+02  0.15280022267E+02  0.51100000000E-03 0. -1.
        -12    1    4    4    0    0  0.82720735717E+01  0.11080267116E+02  0.81868807135E+01  0.16069366396E+02  0.00000000000E+00 0.  1.
</event>
<event>
 8    1  0.2994958E-010  0.9118800E+02  0.7816164E-02  0.1184000E+00
        -11   -1    0    0    0    0  0.00000000000E+00  0.00000000000E+00  0.45593999997E+02  0.45594000000E+02  0.51100000000E-03 0. -1.
         11   -1    0    0    0    0 -0.00000000000E+00 -0.00000000000E+00 -0.45593999997E+02  0.45594000000E+02  0.51100000000E-03 0.  1.
         23    2    1    2    0    0  0.00000000000E+00  0.00000000000E+00  0.00000000000E+00  0.91188000000E+02  0.91188000000E+02 0.  0.
    9900012    2    3    3    0    0  0.14320132756E+01 -0.94318249633E+01  0.42339262364E+02  0.47787272797E+02  0.20000007992E+02 0.  0.
        -12    1    3    3    0    0 -0.14320132756E+01  0.94318249633E+01 -0.42339262364E+02  0.43400727203E+02  0.00000000000E+00 0.  1.
         11    1    4    4    0    0 -0.48635750301E+00 -0.44022158682E+01  0.95587715219E+01  0.10534996983E+02  0.51100000000E-03 0. -1.
        -11    1    4    4    0    0  0.42110263052E+00 -0.11111357890E+02  0.24166919651E+02  0.26602248162E+02  0.51100000000E-03 0.  1.
        -12    1    4    4    0    0  0.14972681481E+01  0.60817487951E+01  0.86135711919E+01  0.10650027652E+02  0.00000000000E+00 0.  1.
</event>
<event>
 8    1  0.2994958E-010  0.9118800E+02  0.7816164E-02  0.1184000E+00
        -11   -1    0    0    0    0  0.00000000000E+00  0.00000000000E+00  0.45593999997E+02  0.45594000000E+02  0.51100000000E-03 0. -1.
         11   -1    0    0    0    0 -0.00000000000E+00 -0.00000000000E+00 -0.45593999997E+02  0.45594000000E+02  0.51100000000E-03 0.  1.
         23    2    1    2    0    0 -0.35527136788E-14  0.00000000000E+00  0.35527136788E-14  0.91188000000E+02  0.91188000000E+02 0.  0.
    9900012    2    3    3    0    0 -0.23684965945E+02 -0.27865780729E+02 -0.23369723032E+02  0.47787270720E+02  0.19999998522E+02 0.  0.
         12    1    3    3    0    0  0.23684965945E+02  0.27865780729E+02  0.23369723032E+02  0.43400729280E+02  0.00000000000E+00 0. -1.
         11    1    4    4    0    0 -0.68035841292E+01 -0.82553848448E+01 -0.13910090046E+01  0.10787726464E+02  0.51100000000E-03 0.  1.
        -11    1    4    4    0    0 -0.16490851187E+02 -0.20676633062E+02 -0.15992997314E+02  0.30907075097E+02  0.51100000000E-03 0. -1.
         12    1    4    4    0    0 -0.39053062814E+00  0.10662371787E+01 -0.59857167133E+01  0.60924691599E+01  0.00000000000E+00 0. -1.
</event>
<event>
 8    1  0.2994958E-010  0.9118800E+02  0.7816164E-02  0.1184000E+00
        -11   -1    0    0    0    0  0.00000000000E+00  0.00000000000E+00  0.45593999997E+02  0.45594000000E+02  0.51100000000E-03 0. -1.
         11   -1    0    0    0    0 -0.00000000000E+00 -0.00000000000E+00 -0.45593999997E+02  0.45594000000E+02  0.51100000000E-03 0.  1.
         23    2    1    2    0    0  0.22204460493E-15 -0.35527136788E-14 -0.71054273576E-14  0.91188000000E+02  0.91188000000E+02 0.  0.
    9900012    2    3    3    0    0  0.87379318571E+00 -0.13490017130E+02  0.41241718858E+02  0.47787269003E+02  0.19999990691E+02 0.  0.
        -12    1    3    3    0    0 -0.87379318571E+00  0.13490017130E+02 -0.41241718858E+02  0.43400730997E+02  0.00000000000E+00 0.  1.
         11    1    4    4    0    0  0.35062708631E+01 -0.47661176151E+01  0.24014813939E+02  0.24732996205E+02  0.51100000000E-03 0. -1.
        -11    1    4    4    0    0  0.29728847666E+01 -0.92243298454E+01  0.10727946645E+02  0.14457356066E+02  0.51100000000E-03 0.  1.
        -12    1    4    4    0    0 -0.56053624440E+01  0.50043033079E+00  0.64989582745E+01  0.85969167321E+01  0.00000000000E+00 0.  1.
</event>
<event>
 8    1  0.2994958E-010  0.9118800E+02  0.7816164E-02  0.1184000E+00
        -11   -1    0    0    0    0  0.00000000000E+00  0.00000000000E+00  0.45593999997E+02  0.45594000000E+02  0.51100000000E-03 0. -1.
         11   -1    0    0    0    0 -0.00000000000E+00 -0.00000000000E+00 -0.45593999997E+02  0.45594000000E+02  0.51100000000E-03 0.  1.
         23    2    1    2    0    0 -0.88817841970E-15  0.00000000000E+00  0.00000000000E+00  0.91188000000E+02  0.91188000000E+02 0.  0.
    9900012    2    3    3    0    0 -0.55740292451E+01  0.12698747108E+02  0.41125361988E+02  0.47787269836E+02  0.19999994490E+02 0.  0.
        -12    1    3    3    0    0  0.55740292451E+01 -0.12698747108E+02 -0.41125361988E+02  0.43400730164E+02  0.00000000000E+00 0.  1.
         11    1    4    4    0    0 -0.64449729584E+01  0.29783360614E+01  0.78082388857E+01  0.10553518697E+02  0.51100000000E-03 0. -1.
        -11    1    4    4    0    0 -0.87793117766E+00  0.90756970793E+01  0.88867434384E+01  0.12732370158E+02  0.51100000000E-03 0.  1.
        -12    1    4    4    0    0  0.17488748910E+01  0.64471396763E+00  0.24430379664E+02  0.24501380981E+02  0.00000000000E+00 0.  1.
</event>
<event>
 8    1  0.2994958E-010  0.9118800E+02  0.7816164E-02  0.1184000E+00
        -11   -1    0    0    0    0  0.00000000000E+00  0.00000000000E+00  0.45593999997E+02  0.45594000000E+02  0.51100000000E-03 0. -1.
         11   -1    0    0    0    0 -0.00000000000E+00 -0.00000000000E+00 -0.45593999997E+02  0.45594000000E+02  0.51100000000E-03 0.  1.
         23    2    1    2    0    0  0.17763568394E-14 -0.88817841970E-15  0.00000000000E+00  0.91188000000E+02  0.91188000000E+02 0.  0.
    9900012    2    3    3    0    0  0.15046650750E+02  0.76213485760E+01 -0.39989207044E+02  0.47787270364E+02  0.19999996898E+02 0.  0.
         12    1    3    3    0    0 -0.15046650750E+02 -0.76213485760E+01  0.39989207044E+02  0.43400729636E+02  0.00000000000E+00 0. -1.
         11    1    4    4    0    0  0.49024275290E+01  0.81644299592E+01 -0.15327690931E+02  0.18045216036E+02  0.51100000000E-03 0. -1.
        -11    1    4    4    0    0 -0.29090076015E+01  0.12946672390E+01 -0.29411812284E+01  0.43346321372E+01  0.51100000000E-03 0.  1.
        -12    1    4    4    0    0  0.13053230822E+02 -0.18377486222E+01 -0.21720334884E+02  0.25407422191E+02  0.00000000000E+00 0.  1.
</event>
<event>
 8    1  0.2994958E-010  0.9118800E+02  0.7816164E-02  0.1184000E+00
        -11   -1    0    0    0    0  0.00000000000E+00  0.00000000000E+00  0.45593999997E+02  0.45594000000E+02  0.51100000000E-03 0. -1.
         11   -1    0    0    0    0 -0.00000000000E+00 -0.00000000000E+00 -0.45593999997E+02  0.45594000000E+02  0.51100000000E-03 0.  1.
         23    2    1    2    0    0 -0.66613381478E-15  0.00000000000E+00  0.00000000000E+00  0.91188000000E+02  0.91188000000E+02 0.  0.
    9900012    2    3    3    0    0 -0.12357997533E+01  0.33185016287E+02 -0.27943712952E+02  0.47787267281E+02  0.19999982840E+02 0.  0.
         12    1    3    3    0    0  0.12357997533E+01 -0.33185016287E+02  0.27943712952E+02  0.43400732719E+02  0.00000000000E+00 0. -1.
         11    1    4    4    0    0  0.45289543097E+01  0.97389417297E+01 -0.11330018721E+02  0.15611782013E+02  0.51100000000E-03 0. -1.
        -11    1    4    4    0    0 -0.73162311671E+00  0.17198834643E+02 -0.16932958306E+02  0.24146640817E+02  0.51100000000E-03 0.  1.
         12    1    4    4    0    0 -0.50331309462E+01  0.62472399141E+01  0.31926407455E+00  0.80288444508E+01  0.00000000000E+00 0. -1.
</event>
<event>
 8    1  0.2994958E-010  0.9118800E+02  0.7816164E-02  0.1184000E+00
        -11   -1    0    0    0    0  0.00000000000E+00  0.00000000000E+00  0.45593999997E+02  0.45594000000E+02  0.51100000000E-03 0. -1.
         11   -1    0    0    0    0 -0.00000000000E+00 -0.00000000000E+00 -0.45593999997E+02  0.45594000000E+02  0.51100000000E-03 0.  1.
         23    2    1    2    0    0  0.00000000000E+00  0.00000000000E+00  0.00000000000E+00  0.91188000000E+02  0.91188000000E+02 0.  0.
    9900012    2    3    3    0    0 -0.10559783916E+02 -0.30668452435E+02 -0.28836784462E+02  0.47787272480E+02  0.20000006547E+02 0.  0.
         12    1    3    3    0    0  0.10559783916E+02  0.30668452435E+02  0.28836784462E+02  0.43400727520E+02  0.00000000000E+00 0. -1.
         11    1    4    4    0    0  0.23767956663E+01 -0.50226454543E+01 -0.24819039961E+00  0.55621689776E+01  0.51100000000E-03 0. -1.
        -11    1    4    4    0    0 -0.46235331179E+01 -0.14414322195E+02 -0.74146779343E+01  0.16856072851E+02  0.51100000000E-03 0.  1.
        -12    1    4    4    0    0 -0.83130464649E+01 -0.11231484786E+02 -0.21173916128E+02  0.25369030652E+02  0.00000000000E+00 0.  1.
</event>
<event>
 8    1  0.2994958E-010  0.9118800E+02  0.7816164E-02  0.1184000E+00
        -11   -1    0    0    0    0  0.00000000000E+00  0.00000000000E+00  0.45593999997E+02  0.45594000000E+02  0.51100000000E-03 0. -1.
         11   -1    0    0    0    0 -0.00000000000E+00 -0.00000000000E+00 -0.45593999997E+02  0.45594000000E+02  0.51100000000E-03 0.  1.
         23    2    1    2    0    0 -0.88817841970E-15  0.44408920985E-15  0.00000000000E+00  0.91188000000E+02  0.91188000000E+02 0.  0.
    9900012    2    3    3    0    0  0.67523353695E+01  0.18756938325E+01  0.42831193524E+02  0.47787269603E+02  0.19999993428E+02 0.  0.
        -12    1    3    3    0    0 -0.67523353695E+01 -0.18756938325E+01 -0.42831193524E+02  0.43400730397E+02  0.00000000000E+00 0.  1.
         11    1    4    4    0    0  0.86305190712E+01 -0.26365850198E+01  0.18218923574E+02  0.20331419440E+02  0.51100000000E-03 0. -1.
        -11    1    4    4    0    0 -0.78135863338E+00  0.42915475291E+01  0.25596622242E+02  0.25965649847E+02  0.51100000000E-03 0.  1.
        -12    1    4    4    0    0 -0.10968250683E+01  0.22073132322E+00 -0.98435229170E+00  0.14902003159E+01  0.00000000000E+00 0.  1.
</event>
<event>
 8    1  0.2994958E-010  0.9118800E+02  0.7816164E-02  0.1184000E+00
        -11   -1    0    0    0    0  0.00000000000E+00  0.00000000000E+00  0.45593999997E+02  0.45594000000E+02  0.51100000000E-03 0. -1.
         11   -1    0    0    0    0 -0.00000000000E+00 -0.00000000000E+00 -0.45593999997E+02  0.45594000000E+02  0.51100000000E-03 0.  1.
         23    2    1    2    0    0  0.00000000000E+00 -0.35527136788E-14 -0.35527136788E-14  0.91188000000E+02  0.91188000000E+02 0.  0.
    9900012    2    3    3    0    0  0.24847245924E+02 -0.20810214231E+02 -0.28864722212E+02  0.47787276104E+02  0.20000023068E+02 0.  0.
         12    1    3    3    0    0 -0.24847245924E+02  0.20810214231E+02  0.28864722212E+02  0.43400723896E+02  0.00000000000E+00 0. -1.
         11    1    4    4    0    0  0.48752154027E+01 -0.71815711739E+01 -0.96568519289E+01  0.12984509201E+02  0.51100000000E-03 0. -1.
        -11    1    4    4    0    0  0.46122194099E+01 -0.12173580707E+02 -0.53853385602E+01  0.14087956090E+02  0.51100000000E-03 0.  1.
         12    1    4    4    0    0  0.15359811111E+02 -0.14550623501E+01 -0.13822531723E+02  0.20714810814E+02  0.00000000000E+00 0. -1.
</event>
<event>
 8    1  0.2994958E-010  0.9118800E+02  0.7816164E-02  0.1184000E+00
        -11   -1    0    0    0    0  0.00000000000E+00  0.00000000000E+00  0.45593999997E+02  0.45594000000E+02  0.51100000000E-03 0. -1.
         11   -1    0    0    0    0 -0.00000000000E+00 -0.00000000000E+00 -0.45593999997E+02  0.45594000000E+02  0.51100000000E-03 0.  1.
         23    2    1    2    0    0  0.00000000000E+00  0.00000000000E+00  0.00000000000E+00  0.91188000000E+02  0.91188000000E+02 0.  0.
    9900012    2    3    3    0    0 -0.21717273425E+02  0.19299613214E+02 -0.32241408158E+02  0.47787269185E+02  0.19999991521E+02 0.  0.
         12    1    3    3    0    0  0.21717273425E+02 -0.19299613214E+02  0.32241408158E+02  0.43400730815E+02  0.00000000000E+00 0. -1.
         11    1    4    4    0    0 -0.55396874549E+01  0.81824890570E+01 -0.35323066275E+01  0.10493734066E+02  0.51100000000E-03 0. -1.
        -11    1    4    4    0    0 -0.12190059997E+02  0.12697951855E+02 -0.15668554476E+02  0.23565634803E+02  0.51100000000E-03 0.  1.
         12    1    4    4    0    0 -0.39875259733E+01 -0.15808276974E+01 -0.13040547055E+02  0.13727900316E+02  0.00000000000E+00 0. -1.
</event>
<event>
 8    1  0.2994958E-010  0.9118800E+02  0.7816164E-02  0.1184000E+00
        -11   -1    0    0    0    0  0.00000000000E+00  0.00000000000E+00  0.45593999997E+02  0.45594000000E+02  0.51100000000E-03 0. -1.
         11   -1    0    0    0    0 -0.00000000000E+00 -0.00000000000E+00 -0.45593999997E+02  0.45594000000E+02  0.51100000000E-03 0.  1.
         23    2    1    2    0    0  0.00000000000E+00 -0.17763568394E-14  0.00000000000E+00  0.91188000000E+02  0.91188000000E+02 0.  0.
    9900012    2    3    3    0    0 -0.16223480664E+02 -0.91623959529E+01 -0.39197864291E+02  0.47787269713E+02  0.19999993931E+02 0.  0.
         12    1    3    3    0    0  0.16223480664E+02  0.91623959529E+01  0.39197864291E+02  0.43400730287E+02  0.00000000000E+00 0. -1.
         11    1    4    4    0    0  0.16331513774E+01 -0.12772568997E+01 -0.22248838492E+01  0.30411637596E+01  0.51100000000E-03 0. -1.
        -11    1    4    4    0    0 -0.11076202552E+02 -0.10737457550E+02 -0.32901718400E+02  0.36338661664E+02  0.51100000000E-03 0.  1.
        -12    1    4    4    0    0 -0.67804294896E+01  0.28523184966E+01 -0.40712620418E+01  0.84074442896E+01  0.00000000000E+00 0.  1.
</event>
<event>
 8    1  0.2994958E-010  0.9118800E+02  0.7816164E-02  0.1184000E+00
        -11   -1    0    0    0    0  0.00000000000E+00  0.00000000000E+00  0.45593999997E+02  0.45594000000E+02  0.51100000000E-03 0.  1.
         11   -1    0    0    0    0 -0.00000000000E+00 -0.00000000000E+00 -0.45593999997E+02  0.45594000000E+02  0.51100000000E-03 0. -1.
         23    2    1    2    0    0  0.00000000000E+00  0.00000000000E+00  0.17763568394E-14  0.91188000000E+02  0.91188000000E+02 0.  0.
    9900012    2    3    3    0    0  0.34406544870E+02 -0.21134709110E+02  0.15910266821E+02  0.47787275935E+02  0.20000022297E+02 0.  0.
        -12    1    3    3    0    0 -0.34406544870E+02  0.21134709110E+02 -0.15910266821E+02  0.43400724065E+02  0.00000000000E+00 0.  1.
         11    1    4    4    0    0  0.19105778150E+02 -0.12973289274E+02  0.90379742490E+01  0.24799636532E+02  0.51100000000E-03 0. -1.
        -11    1    4    4    0    0  0.16739247320E+02 -0.47525184020E+01  0.30467386348E+01  0.17665544106E+02  0.51100000000E-03 0.  1.
        -12    1    4    4    0    0 -0.14384806002E+01 -0.34089014334E+01  0.38255539373E+01  0.53220952967E+01  0.00000000000E+00 0.  1.
</event>
<event>
 8    1  0.2994958E-010  0.9118800E+02  0.7816164E-02  0.1184000E+00
        -11   -1    0    0    0    0  0.00000000000E+00  0.00000000000E+00  0.45593999997E+02  0.45594000000E+02  0.51100000000E-03 0. -1.
         11   -1    0    0    0    0 -0.00000000000E+00 -0.00000000000E+00 -0.45593999997E+02  0.45594000000E+02  0.51100000000E-03 0.  1.
         23    2    1    2    0    0  0.00000000000E+00  0.00000000000E+00  0.71054273576E-14  0.91188000000E+02  0.91188000000E+02 0.  0.
    9900012    2    3    3    0    0 -0.10223140091E+02 -0.19340603372E+02 -0.37484015548E+02  0.47787274733E+02  0.20000016818E+02 0.  0.
         12    1    3    3    0    0  0.10223140091E+02  0.19340603372E+02  0.37484015548E+02  0.43400725267E+02  0.00000000000E+00 0. -1.
         11    1    4    4    0    0 -0.58906732779E+01 -0.43444270669E+01 -0.11445295809E+02  0.13585612781E+02  0.51100000000E-03 0. -1.
        -11    1    4    4    0    0 -0.53113445446E+01 -0.30961187726E+00 -0.14664742819E+02  0.15600029570E+02  0.51100000000E-03 0.  1.
        -12    1    4    4    0    0  0.97887773127E+00 -0.14686564428E+02 -0.11373976920E+02  0.18601632382E+02  0.00000000000E+00 0.  1.
</event>
<event>
 8    1  0.2994958E-010  0.9118800E+02  0.7816164E-02  0.1184000E+00
        -11   -1    0    0    0    0  0.00000000000E+00  0.00000000000E+00  0.45593999997E+02  0.45594000000E+02  0.51100000000E-03 0. -1.
         11   -1    0    0    0    0 -0.00000000000E+00 -0.00000000000E+00 -0.45593999997E+02  0.45594000000E+02  0.51100000000E-03 0.  1.
         23    2    1    2    0    0  0.00000000000E+00  0.00000000000E+00  0.00000000000E+00  0.91188000000E+02  0.91188000000E+02 0.  0.
    9900012    2    3    3    0    0 -0.50539706477E+01  0.41512322470E+02 -0.11610663704E+02  0.47787273649E+02  0.20000011875E+02 0.  0.
         12    1    3    3    0    0  0.50539706477E+01 -0.41512322470E+02  0.11610663704E+02  0.43400726351E+02  0.00000000000E+00 0. -1.
         11    1    4    4    0    0  0.11848435283E+01  0.55795881361E+00 -0.21507443524E+01  0.25181091625E+01  0.51100000000E-03 0. -1.
        -11    1    4    4    0    0  0.32334733311E+01  0.27977003797E+02 -0.69449420514E+01  0.29006901103E+02  0.51100000000E-03 0.  1.
         12    1    4    4    0    0 -0.94722875071E+01  0.12977359859E+02 -0.25149773004E+01  0.16262263384E+02  0.00000000000E+00 0. -1.
</event>
<event>
 8    1  0.2994958E-010  0.9118800E+02  0.7816164E-02  0.1184000E+00
        -11   -1    0    0    0    0  0.00000000000E+00  0.00000000000E+00  0.45593999997E+02  0.45594000000E+02  0.51100000000E-03 0. -1.
         11   -1    0    0    0    0 -0.00000000000E+00 -0.00000000000E+00 -0.45593999997E+02  0.45594000000E+02  0.51100000000E-03 0.  1.
         23    2    1    2    0    0  0.00000000000E+00  0.00000000000E+00  0.00000000000E+00  0.91188000000E+02  0.91188000000E+02 0.  0.
    9900012    2    3    3    0    0  0.25969993694E+02 -0.86432546734E+01  0.33681996929E+02  0.47787270272E+02  0.19999996477E+02 0.  0.
        -12    1    3    3    0    0 -0.25969993694E+02  0.86432546734E+01 -0.33681996929E+02  0.43400729728E+02  0.00000000000E+00 0.  1.
         11    1    4    4    0    0  0.13372030952E+02 -0.11055478464E+02  0.19857876731E+02  0.26369870769E+02  0.51100000000E-03 0. -1.
        -11    1    4    4    0    0  0.58058487066E+01 -0.39249247678E+01  0.68667789255E+01  0.98115017561E+01  0.51100000000E-03 0.  1.
        -12    1    4    4    0    0  0.67921140358E+01  0.63371485583E+01  0.69573412726E+01  0.11605897747E+02  0.00000000000E+00 0.  1.
</event>
<event>
 8    1  0.2994958E-010  0.9118800E+02  0.7816164E-02  0.1184000E+00
        -11   -1    0    0    0    0  0.00000000000E+00  0.00000000000E+00  0.45593999997E+02  0.45594000000E+02  0.51100000000E-03 0. -1.
         11   -1    0    0    0    0 -0.00000000000E+00 -0.00000000000E+00 -0.45593999997E+02  0.45594000000E+02  0.51100000000E-03 0.  1.
         23    2    1    2    0    0  0.00000000000E+00 -0.44408920985E-15  0.00000000000E+00  0.91188000000E+02  0.91188000000E+02 0.  0.
    9900012    2    3    3    0    0  0.37895529040E+02  0.29562909295E+01  0.20947854139E+02  0.47787269933E+02  0.19999994935E+02 0.  0.
        -12    1    3    3    0    0 -0.37895529040E+02 -0.29562909295E+01 -0.20947854139E+02  0.43400730067E+02  0.00000000000E+00 0.  1.
         11    1    4    4    0    0  0.37071164135E+01  0.49049076701E+00 -0.25115186239E+00  0.37478488249E+01  0.51100000000E-03 0. -1.
        -11    1    4    4    0    0 -0.13581965532E+01 -0.19117402250E+01  0.31679741723E+01  0.39415110278E+01  0.51100000000E-03 0.  1.
         12    1    4    4    0    0  0.35546609180E+02  0.43775403875E+01  0.18031031829E+02  0.40097910081E+02  0.00000000000E+00 0. -1.
</event>
<event>
 8    1  0.2994958E-010  0.9118800E+02  0.7816164E-02  0.1184000E+00
        -11   -1    0    0    0    0  0.00000000000E+00  0.00000000000E+00  0.45593999997E+02  0.45594000000E+02  0.51100000000E-03 0. -1.
         11   -1    0    0    0    0 -0.00000000000E+00 -0.00000000000E+00 -0.45593999997E+02  0.45594000000E+02  0.51100000000E-03 0.  1.
         23    2    1    2    0    0 -0.71054273576E-14  0.35527136788E-14  0.35527136788E-14  0.91188000000E+02  0.91188000000E+02 0.  0.
    9900012    2    3    3    0    0  0.36283595739E+02 -0.12130302728E+02 -0.20493410231E+02  0.47787269281E+02  0.19999991960E+02 0.  0.
         12    1    3    3    0    0 -0.36283595739E+02  0.12130302728E+02  0.20493410231E+02  0.43400730719E+02  0.00000000000E+00 0. -1.
         11    1    4    4    0    0  0.36366527497E+01 -0.67577035625E+00 -0.20856016309E+01  0.42463682389E+01  0.51100000000E-03 0. -1.
        -11    1    4    4    0    0  0.30021170553E+02 -0.15626981083E+02 -0.13086115968E+02  0.36286631843E+02  0.51100000000E-03 0.  1.
        -12    1    4    4    0    0  0.26257724363E+01  0.41724487113E+01 -0.53216926329E+01  0.72542691992E+01  0.00000000000E+00 0.  1.
</event>
<event>
 8    1  0.2994958E-010  0.9118800E+02  0.7816164E-02  0.1184000E+00
        -11   -1    0    0    0    0  0.00000000000E+00  0.00000000000E+00  0.45593999997E+02  0.45594000000E+02  0.51100000000E-03 0.  1.
         11   -1    0    0    0    0 -0.00000000000E+00 -0.00000000000E+00 -0.45593999997E+02  0.45594000000E+02  0.51100000000E-03 0. -1.
         23    2    1    2    0    0  0.00000000000E+00  0.00000000000E+00  0.00000000000E+00  0.91188000000E+02  0.91188000000E+02 0.  0.
    9900012    2    3    3    0    0  0.17749580229E+02  0.39176531741E+02 -0.58115217542E+01  0.47787285459E+02  0.20000065721E+02 0.  0.
         12    1    3    3    0    0 -0.17749580229E+02 -0.39176531741E+02  0.58115217542E+01  0.43400714541E+02  0.00000000000E+00 0. -1.
         11    1    4    4    0    0  0.54797451336E+01  0.60232571085E+01 -0.39436299785E+00  0.81524692799E+01  0.51100000000E-03 0. -1.
        -11    1    4    4    0    0  0.12761413594E+02  0.34333813376E+02 -0.28166289682E+01  0.36736872715E+02  0.51100000000E-03 0.  1.
         12    1    4    4    0    0 -0.49157849883E+00 -0.11805387428E+01 -0.26005297881E+01  0.28979434643E+01  0.00000000000E+00 0. -1.
</event>
<event>
 8    1  0.2994958E-010  0.9118800E+02  0.7816164E-02  0.1184000E+00
        -11   -1    0    0    0    0  0.00000000000E+00  0.00000000000E+00  0.45593999997E+02  0.45594000000E+02  0.51100000000E-03 0. -1.
         11   -1    0    0    0    0 -0.00000000000E+00 -0.00000000000E+00 -0.45593999997E+02  0.45594000000E+02  0.51100000000E-03 0.  1.
         23    2    1    2    0    0  0.00000000000E+00  0.00000000000E+00  0.71054273576E-14  0.91188000000E+02  0.91188000000E+02 0.  0.
    9900012    2    3    3    0    0 -0.83506398628E+01  0.25977718150E+02 -0.33749793678E+02  0.47787267291E+02  0.19999982885E+02 0.  0.
         12    1    3    3    0    0  0.83506398628E+01 -0.25977718150E+02  0.33749793678E+02  0.43400732709E+02  0.00000000000E+00 0. -1.
         11    1    4    4    0    0 -0.95198387661E+00 -0.87761962111E-01 -0.91701744962E+01  0.92198739696E+01  0.51100000000E-03 0. -1.
        -11    1    4    4    0    0  0.22924961592E+00  0.16197367471E+01 -0.77576045047E+01  0.79282110485E+01  0.51100000000E-03 0.  1.
        -12    1    4    4    0    0 -0.76279056021E+01  0.24445743365E+02 -0.16822014677E+02  0.30639182273E+02  0.00000000000E+00 0.  1.
</event>
<event>
 8    1  0.2994958E-010  0.9118800E+02  0.7816164E-02  0.1184000E+00
        -11   -1    0    0    0    0  0.00000000000E+00  0.00000000000E+00  0.45593999997E+02  0.45594000000E+02  0.51100000000E-03 0. -1.
         11   -1    0    0    0    0 -0.00000000000E+00 -0.00000000000E+00 -0.45593999997E+02  0.45594000000E+02  0.51100000000E-03 0.  1.
         23    2    1    2    0    0 -0.17763568394E-14 -0.88817841970E-15 -0.71054273576E-14  0.91188000000E+02  0.91188000000E+02 0.  0.
    9900012    2    3    3    0    0  0.13921931770E+02  0.26561302246E+01 -0.41021310594E+02  0.47787272646E+02  0.20000007304E+02 0.  0.
         12    1    3    3    0    0 -0.13921931770E+02 -0.26561302246E+01  0.41021310594E+02  0.43400727354E+02  0.00000000000E+00 0. -1.
         11    1    4    4    0    0  0.23358810331E+01 -0.69818332670E+01 -0.11575162536E+02  0.13718116633E+02  0.51100000000E-03 0. -1.
        -11    1    4    4    0    0  0.17887647156E+01  0.19978452156E+01 -0.13959939427E+02  0.14215167033E+02  0.51100000000E-03 0.  1.
        -12    1    4    4    0    0  0.97972860214E+01  0.76401182760E+01 -0.15486208631E+02  0.19853988980E+02  0.00000000000E+00 0.  1.
</event>
<event>
 8    1  0.2994958E-010  0.9118800E+02  0.7816164E-02  0.1184000E+00
        -11   -1    0    0    0    0  0.00000000000E+00  0.00000000000E+00  0.45593999997E+02  0.45594000000E+02  0.51100000000E-03 0. -1.
         11   -1    0    0    0    0 -0.00000000000E+00 -0.00000000000E+00 -0.45593999997E+02  0.45594000000E+02  0.51100000000E-03 0.  1.
         23    2    1    2    0    0  0.00000000000E+00  0.00000000000E+00  0.00000000000E+00  0.91188000000E+02  0.91188000000E+02 0.  0.
    9900012    2    3    3    0    0 -0.17661327889E+02 -0.16307919356E+02 -0.36135197472E+02  0.47787271517E+02  0.20000002155E+02 0.  0.
         12    1    3    3    0    0  0.17661327889E+02  0.16307919356E+02  0.36135197472E+02  0.43400728483E+02  0.00000000000E+00 0. -1.
         11    1    4    4    0    0 -0.33216640830E+01 -0.62013574234E+01 -0.51669005629E+01  0.87285249533E+01  0.51100000000E-03 0. -1.
        -11    1    4    4    0    0 -0.63728191244E+01 -0.10940532075E+02 -0.86169426281E+01  0.15315344142E+02  0.51100000000E-03 0.  1.
        -12    1    4    4    0    0 -0.79668446811E+01  0.83397014217E+00 -0.22351354281E+02  0.23743402422E+02  0.00000000000E+00 0.  1.
</event>
<event>
 8    1  0.2994958E-010  0.9118800E+02  0.7816164E-02  0.1184000E+00
        -11   -1    0    0    0    0  0.00000000000E+00  0.00000000000E+00  0.45593999997E+02  0.45594000000E+02  0.51100000000E-03 0. -1.
         11   -1    0    0    0    0 -0.00000000000E+00 -0.00000000000E+00 -0.45593999997E+02  0.45594000000E+02  0.51100000000E-03 0.  1.
         23    2    1    2    0    0  0.00000000000E+00  0.00000000000E+00  0.00000000000E+00  0.91188000000E+02  0.91188000000E+02 0.  0.
    9900012    2    3    3    0    0  0.17395969655E+02  0.74686951609E+01  0.39054089274E+02  0.47787273547E+02  0.20000011410E+02 0.  0.
        -12    1    3    3    0    0 -0.17395969655E+02 -0.74686951609E+01 -0.39054089274E+02  0.43400726453E+02  0.00000000000E+00 0.  1.
         11    1    4    4    0    0  0.25814476244E+01 -0.39643850970E+01  0.17549720833E+02  0.18176163583E+02  0.51100000000E-03 0. -1.
        -11    1    4    4    0    0 -0.76343741712E+00  0.55210500407E+00  0.27744759318E+01  0.29300808151E+01  0.51100000000E-03 0.  1.
        -12    1    4    4    0    0  0.15577959447E+02  0.10880975254E+02  0.18729892510E+02  0.26681029149E+02  0.00000000000E+00 0.  1.
</event>
<event>
 8    1  0.2994958E-010  0.9118800E+02  0.7816164E-02  0.1184000E+00
        -11   -1    0    0    0    0  0.00000000000E+00  0.00000000000E+00  0.45593999997E+02  0.45594000000E+02  0.51100000000E-03 0. -1.
         11   -1    0    0    0    0 -0.00000000000E+00 -0.00000000000E+00 -0.45593999997E+02  0.45594000000E+02  0.51100000000E-03 0.  1.
         23    2    1    2    0    0  0.00000000000E+00 -0.71054273576E-14  0.00000000000E+00  0.91188000000E+02  0.91188000000E+02 0.  0.
    9900012    2    3    3    0    0  0.20470353126E+02  0.20015254558E+02 -0.32618665566E+02  0.47787272870E+02  0.20000008321E+02 0.  0.
         12    1    3    3    0    0 -0.20470353126E+02 -0.20015254558E+02  0.32618665566E+02  0.43400727130E+02  0.00000000000E+00 0. -1.
         11    1    4    4    0    0  0.29690588705E+00  0.59843342748E+01 -0.59141019518E+01  0.84188486134E+01  0.51100000000E-03 0. -1.
        -11    1    4    4    0    0  0.91380767845E+01  0.15221103529E+02 -0.17781499781E+02  0.25127040707E+02  0.51100000000E-03 0.  1.
         12    1    4    4    0    0  0.11035370454E+02 -0.11901832455E+01 -0.89230638334E+01  0.14241383549E+02  0.00000000000E+00 0. -1.
</event>
<event>
 8    1  0.2994958E-010  0.9118800E+02  0.7816164E-02  0.1184000E+00
        -11   -1    0    0    0    0  0.00000000000E+00  0.00000000000E+00  0.45593999997E+02  0.45594000000E+02  0.51100000000E-03 0. -1.
         11   -1    0    0    0    0 -0.00000000000E+00 -0.00000000000E+00 -0.45593999997E+02  0.45594000000E+02  0.51100000000E-03 0.  1.
         23    2    1    2    0    0  0.00000000000E+00  0.35527136788E-14 -0.35527136788E-14  0.91188000000E+02  0.91188000000E+02 0.  0.
    9900012    2    3    3    0    0  0.34362165458E+02  0.22268360416E+02 -0.14386982463E+02  0.47787267806E+02  0.19999985237E+02 0.  0.
         12    1    3    3    0    0 -0.34362165458E+02 -0.22268360416E+02  0.14386982463E+02  0.43400732194E+02  0.00000000000E+00 0. -1.
         11    1    4    4    0    0 -0.17803975895E+01  0.16644622803E+01 -0.15977134311E+01  0.29142646977E+01  0.51100000000E-03 0. -1.
        -11    1    4    4    0    0  0.11596321437E+02  0.72933782615E+01  0.99074254346E+00  0.13734977553E+02  0.51100000000E-03 0.  1.
        -12    1    4    4    0    0  0.24546241610E+02  0.13310519874E+02 -0.13780011575E+02  0.31138025556E+02  0.00000000000E+00 0.  1.
</event>
<event>
 8    1  0.2994958E-010  0.9118800E+02  0.7816164E-02  0.1184000E+00
        -11   -1    0    0    0    0  0.00000000000E+00  0.00000000000E+00  0.45593999997E+02  0.45594000000E+02  0.51100000000E-03 0. -1.
         11   -1    0    0    0    0 -0.00000000000E+00 -0.00000000000E+00 -0.45593999997E+02  0.45594000000E+02  0.51100000000E-03 0.  1.
         23    2    1    2    0    0  0.00000000000E+00  0.00000000000E+00  0.00000000000E+00  0.91188000000E+02  0.91188000000E+02 0.  0.
    9900012    2    3    3    0    0 -0.76841749180E+01  0.14666810547E+02  0.40118095159E+02  0.47787269189E+02  0.19999991539E+02 0.  0.
        -12    1    3    3    0    0  0.76841749180E+01 -0.14666810547E+02 -0.40118095159E+02  0.43400730811E+02  0.00000000000E+00 0.  1.
         11    1    4    4    0    0  0.47462145597E+01  0.98463427278E+00  0.15963291884E+02  0.16683007683E+02  0.51100000000E-03 0. -1.
        -11    1    4    4    0    0 -0.48505207693E+01  0.28002903206E+01  0.11413970892E+02  0.12714083113E+02  0.51100000000E-03 0.  1.
         12    1    4    4    0    0 -0.75798687084E+01  0.10881885954E+02  0.12740832382E+02  0.18390178393E+02  0.00000000000E+00 0. -1.
</event>
<event>
 8    1  0.2994958E-010  0.9118800E+02  0.7816164E-02  0.1184000E+00
        -11   -1    0    0    0    0  0.00000000000E+00  0.00000000000E+00  0.45593999997E+02  0.45594000000E+02  0.51100000000E-03 0. -1.
         11   -1    0    0    0    0 -0.00000000000E+00 -0.00000000000E+00 -0.45593999997E+02  0.45594000000E+02  0.51100000000E-03 0.  1.
         23    2    1    2    0    0  0.71054273576E-14 -0.10269562978E-14 -0.35527136788E-14  0.91188000000E+02  0.91188000000E+02 0.  0.
    9900012    2    3    3    0    0  0.38326584845E+02 -0.18475276721E+00 -0.20363279868E+02  0.47787257997E+02  0.19999940511E+02 0.  0.
         12    1    3    3    0    0 -0.38326584845E+02  0.18475276721E+00  0.20363279868E+02  0.43400742003E+02  0.00000000000E+00 0. -1.
         11    1    4    4    0    0  0.24929552453E+02  0.24072202647E+01 -0.63346934821E+01  0.25834195104E+02  0.51100000000E-03 0. -1.
        -11    1    4    4    0    0  0.31127483406E+01  0.31863498490E+01 -0.13937671141E+01  0.46673991282E+01  0.51100000000E-03 0.  1.
        -12    1    4    4    0    0  0.10284284051E+02 -0.57783228810E+01 -0.12634819271E+02  0.17285663765E+02  0.00000000000E+00 0.  1.
</event>
<event>
 8    1  0.2994958E-010  0.9118800E+02  0.7816164E-02  0.1184000E+00
        -11   -1    0    0    0    0  0.00000000000E+00  0.00000000000E+00  0.45593999997E+02  0.45594000000E+02  0.51100000000E-03 0. -1.
         11   -1    0    0    0    0 -0.00000000000E+00 -0.00000000000E+00 -0.45593999997E+02  0.45594000000E+02  0.51100000000E-03 0.  1.
         23    2    1    2    0    0  0.00000000000E+00  0.00000000000E+00  0.00000000000E+00  0.91188000000E+02  0.91188000000E+02 0.  0.
    9900012    2    3    3    0    0 -0.27589072928E+02  0.47242301207E+01 -0.33168478539E+02  0.47787271160E+02  0.20000000525E+02 0.  0.
         12    1    3    3    0    0  0.27589072928E+02 -0.47242301207E+01  0.33168478539E+02  0.43400728840E+02  0.00000000000E+00 0. -1.
         11    1    4    4    0    0 -0.86140520658E+01  0.22696806485E+01 -0.64227132019E+01  0.10982012037E+02  0.51100000000E-03 0. -1.
        -11    1    4    4    0    0 -0.14533429881E+02  0.44500839267E+00 -0.28191531608E+02  0.31720357364E+02  0.51100000000E-03 0.  1.
         12    1    4    4    0    0 -0.44415909810E+01  0.20095410795E+01  0.14457662711E+01  0.50849017594E+01  0.00000000000E+00 0. -1.
</event>
<event>
 8    1  0.2994958E-010  0.9118800E+02  0.7816164E-02  0.1184000E+00
        -11   -1    0    0    0    0  0.00000000000E+00  0.00000000000E+00  0.45593999997E+02  0.45594000000E+02  0.51100000000E-03 0. -1.
         11   -1    0    0    0    0 -0.00000000000E+00 -0.00000000000E+00 -0.45593999997E+02  0.45594000000E+02  0.51100000000E-03 0.  1.
         23    2    1    2    0    0  0.00000000000E+00  0.88817841970E-15  0.00000000000E+00  0.91188000000E+02  0.91188000000E+02 0.  0.
    9900012    2    3    3    0    0 -0.11109249504E+02  0.45119488232E+01 -0.41711513134E+02  0.47787269193E+02  0.19999991557E+02 0.  0.
         12    1    3    3    0    0  0.11109249504E+02 -0.45119488232E+01  0.41711513134E+02  0.43400730807E+02  0.00000000000E+00 0. -1.
         11    1    4    4    0    0  0.30334360141E+01  0.24329612872E+01 -0.35414062410E+01  0.52595240375E+01  0.51100000000E-03 0. -1.
        -11    1    4    4    0    0 -0.25399547277E+01  0.44761511913E+01 -0.21299935397E+02  0.21912885426E+02  0.51100000000E-03 0.  1.
        -12    1    4    4    0    0 -0.11602730790E+02 -0.23971636553E+01 -0.16870171496E+02  0.20614859729E+02  0.00000000000E+00 0.  1.
</event>
<event>
 8    1  0.2994958E-010  0.9118800E+02  0.7816164E-02  0.1184000E+00
        -11   -1    0    0    0    0  0.00000000000E+00  0.00000000000E+00  0.45593999997E+02  0.45594000000E+02  0.51100000000E-03 0. -1.
         11   -1    0    0    0    0 -0.00000000000E+00 -0.00000000000E+00 -0.45593999997E+02  0.45594000000E+02  0.51100000000E-03 0.  1.
         23    2    1    2    0    0 -0.71054273576E-14  0.00000000000E+00 -0.35527136788E-14  0.91188000000E+02  0.91188000000E+02 0.  0.
    9900012    2    3    3    0    0  0.36655766109E+02  0.15878969221E+02  0.16965738811E+02  0.47787272518E+02  0.20000006718E+02 0.  0.
        -12    1    3    3    0    0 -0.36655766109E+02 -0.15878969221E+02 -0.16965738811E+02  0.43400727482E+02  0.00000000000E+00 0.  1.
         11    1    4    4    0    0  0.13871428888E+02  0.40294250052E+01  0.69036687638E+01  0.16009792252E+02  0.51100000000E-03 0. -1.
        -11    1    4    4    0    0  0.23149124303E+02  0.14053683797E+02  0.69717117411E+01  0.27964133263E+02  0.51100000000E-03 0.  1.
        -12    1    4    4    0    0 -0.36478708233E+00 -0.22041395812E+01  0.30903583064E+01  0.38133470037E+01  0.00000000000E+00 0.  1.
</event>
<event>
 8    1  0.2994958E-010  0.9118800E+02  0.7816164E-02  0.1184000E+00
        -11   -1    0    0    0    0  0.00000000000E+00  0.00000000000E+00  0.45593999997E+02  0.45594000000E+02  0.51100000000E-03 0. -1.
         11   -1    0    0    0    0 -0.00000000000E+00 -0.00000000000E+00 -0.45593999997E+02  0.45594000000E+02  0.51100000000E-03 0.  1.
         23    2    1    2    0    0  0.00000000000E+00 -0.44408920985E-15  0.00000000000E+00  0.91188000000E+02  0.91188000000E+02 0.  0.
    9900012    2    3    3    0    0 -0.10919911137E+02  0.14873664068E+01  0.41978167185E+02  0.47787271454E+02  0.20000001869E+02 0.  0.
        -12    1    3    3    0    0  0.10919911137E+02 -0.14873664068E+01 -0.41978167185E+02  0.43400728546E+02  0.00000000000E+00 0.  1.
         11    1    4    4    0    0 -0.18084855830E+01  0.23331616980E+01  0.22522501862E+02  0.22715134910E+02  0.51100000000E-03 0. -1.
        -11    1    4    4    0    0  0.81298084782E+00  0.19537746432E+01  0.12395981043E+02  0.12575313893E+02  0.51100000000E-03 0.  1.
        -12    1    4    4    0    0 -0.99244064020E+01 -0.27995699345E+01  0.70596842799E+01  0.12496822651E+02  0.00000000000E+00 0.  1.
</event>
<event>
 8    1  0.2994958E-010  0.9118800E+02  0.7816164E-02  0.1184000E+00
        -11   -1    0    0    0    0  0.00000000000E+00  0.00000000000E+00  0.45593999997E+02  0.45594000000E+02  0.51100000000E-03 0. -1.
         11   -1    0    0    0    0 -0.00000000000E+00 -0.00000000000E+00 -0.45593999997E+02  0.45594000000E+02  0.51100000000E-03 0.  1.
         23    2    1    2    0    0  0.00000000000E+00  0.00000000000E+00  0.00000000000E+00  0.91188000000E+02  0.91188000000E+02 0.  0.
    9900012    2    3    3    0    0 -0.14214164477E+02  0.23261530071E+02 -0.33771028638E+02  0.47787266961E+02  0.19999981384E+02 0.  0.
         12    1    3    3    0    0  0.14214164477E+02 -0.23261530071E+02  0.33771028638E+02  0.43400733039E+02  0.00000000000E+00 0. -1.
         11    1    4    4    0    0  0.30933193311E+01  0.80344295044E+01 -0.43940683456E+01  0.96658428931E+01  0.51100000000E-03 0. -1.
        -11    1    4    4    0    0 -0.25332700464E+01  0.57073184047E+01 -0.11288794790E+02  0.12900691011E+02  0.51100000000E-03 0.  1.
         12    1    4    4    0    0 -0.14774213762E+02  0.95197821615E+01 -0.18088165503E+02  0.25220733057E+02  0.00000000000E+00 0. -1.
</event>
<event>
 8    1  0.2994958E-010  0.9118800E+02  0.7816164E-02  0.1184000E+00
        -11   -1    0    0    0    0  0.00000000000E+00  0.00000000000E+00  0.45593999997E+02  0.45594000000E+02  0.51100000000E-03 0. -1.
         11   -1    0    0    0    0 -0.00000000000E+00 -0.00000000000E+00 -0.45593999997E+02  0.45594000000E+02  0.51100000000E-03 0.  1.
         23    2    1    2    0    0  0.00000000000E+00 -0.35527136788E-14  0.00000000000E+00  0.91188000000E+02  0.91188000000E+02 0.  0.
    9900012    2    3    3    0    0  0.29244491161E+02 -0.24094141581E+02 -0.21162592497E+02  0.47787271400E+02  0.20000001621E+02 0.  0.
         12    1    3    3    0    0 -0.29244491161E+02  0.24094141581E+02  0.21162592497E+02  0.43400728600E+02  0.00000000000E+00 0. -1.
         11    1    4    4    0    0  0.15669652969E+02 -0.25619503925E+01 -0.28339462386E+01  0.16128634956E+02  0.51100000000E-03 0. -1.
        -11    1    4    4    0    0  0.55379373046E+01 -0.66633334078E+01 -0.41964803684E+01  0.96270041777E+01  0.51100000000E-03 0.  1.
        -12    1    4    4    0    0  0.80369008873E+01 -0.14868857781E+02 -0.14132165890E+02  0.22031632267E+02  0.00000000000E+00 0.  1.
</event>
<event>
 8    1  0.2994958E-010  0.9118800E+02  0.7816164E-02  0.1184000E+00
        -11   -1    0    0    0    0  0.00000000000E+00  0.00000000000E+00  0.45593999997E+02  0.45594000000E+02  0.51100000000E-03 0. -1.
         11   -1    0    0    0    0 -0.00000000000E+00 -0.00000000000E+00 -0.45593999997E+02  0.45594000000E+02  0.51100000000E-03 0.  1.
         23    2    1    2    0    0 -0.35527136788E-14 -0.88817841970E-15  0.00000000000E+00  0.91188000000E+02  0.91188000000E+02 0.  0.
    9900012    2    3    3    0    0  0.16096284192E+02 -0.13885914726E+01 -0.40281568629E+02  0.47787270487E+02  0.19999997457E+02 0.  0.
         12    1    3    3    0    0 -0.16096284192E+02  0.13885914726E+01  0.40281568629E+02  0.43400729513E+02  0.00000000000E+00 0. -1.
         11    1    4    4    0    0  0.22872690415E+00  0.85200398350E+00 -0.10898778113E+01  0.14021628611E+01  0.51100000000E-03 0. -1.
        -11    1    4    4    0    0  0.17990032813E+02  0.37414254721E+01 -0.27347467075E+02  0.32947283665E+02  0.51100000000E-03 0.  1.
        -12    1    4    4    0    0 -0.21224755252E+01 -0.59820209282E+01 -0.11844223742E+02  0.13437823961E+02  0.00000000000E+00 0.  1.
</event>
<event>
 8    1  0.2994958E-010  0.9118800E+02  0.7816164E-02  0.1184000E+00
        -11   -1    0    0    0    0  0.00000000000E+00  0.00000000000E+00  0.45593999997E+02  0.45594000000E+02  0.51100000000E-03 0. -1.
         11   -1    0    0    0    0 -0.00000000000E+00 -0.00000000000E+00 -0.45593999997E+02  0.45594000000E+02  0.51100000000E-03 0.  1.
         23    2    1    2    0    0  0.00000000000E+00  0.00000000000E+00  0.17763568394E-14  0.91188000000E+02  0.91188000000E+02 0.  0.
    9900012    2    3    3    0    0  0.15508113885E+02  0.38716179059E+02  0.12007469637E+02  0.47787269081E+02  0.19999991049E+02 0.  0.
        -12    1    3    3    0    0 -0.15508113885E+02 -0.38716179059E+02 -0.12007469637E+02  0.43400730919E+02  0.00000000000E+00 0.  1.
         11    1    4    4    0    0  0.73535407264E+01  0.27718818541E+02  0.13694621443E+02  0.31779712384E+02  0.51100000000E-03 0. -1.
        -11    1    4    4    0    0  0.77674156823E+01  0.12015378862E+02 -0.38856600475E+00  0.14312688754E+02  0.51100000000E-03 0.  1.
        -12    1    4    4    0    0  0.38715747604E+00 -0.10180183436E+01 -0.12985858012E+01  0.16948679425E+01  0.00000000000E+00 0.  1.
</event>
<event>
 8    1  0.2994958E-010  0.9118800E+02  0.7816164E-02  0.1184000E+00
        -11   -1    0    0    0    0  0.00000000000E+00  0.00000000000E+00  0.45593999997E+02  0.45594000000E+02  0.51100000000E-03 0. -1.
         11   -1    0    0    0    0 -0.00000000000E+00 -0.00000000000E+00 -0.45593999997E+02  0.45594000000E+02  0.51100000000E-03 0.  1.
         23    2    1    2    0    0  0.00000000000E+00  0.88817841970E-15  0.71054273576E-14  0.91188000000E+02  0.91188000000E+02 0.  0.
    9900012    2    3    3    0    0  0.94209818484E+01  0.51929093247E+01 -0.42046428700E+02  0.47787269906E+02  0.19999994810E+02 0.  0.
         12    1    3    3    0    0 -0.94209818484E+01 -0.51929093247E+01  0.42046428700E+02  0.43400730094E+02  0.00000000000E+00 0. -1.
         11    1    4    4    0    0  0.51579643689E+01 -0.17902747378E+01 -0.45429284569E+01  0.71026670549E+01  0.51100000000E-03 0.  1.
        -11    1    4    4    0    0  0.28307384186E+01  0.30898946836E+00 -0.30371332358E+00  0.28637032894E+01  0.51100000000E-03 0. -1.
        -12    1    4    4    0    0  0.14322790610E+01  0.66741945941E+01 -0.37199786920E+02  0.37820899562E+02  0.00000000000E+00 0.  1.
</event>
<event>
 8    1  0.2994958E-010  0.9118800E+02  0.7816164E-02  0.1184000E+00
        -11   -1    0    0    0    0  0.00000000000E+00  0.00000000000E+00  0.45593999997E+02  0.45594000000E+02  0.51100000000E-03 0. -1.
         11   -1    0    0    0    0 -0.00000000000E+00 -0.00000000000E+00 -0.45593999997E+02  0.45594000000E+02  0.51100000000E-03 0.  1.
         23    2    1    2    0    0  0.00000000000E+00  0.71054273576E-14  0.00000000000E+00  0.91188000000E+02  0.91188000000E+02 0.  0.
    9900012    2    3    3    0    0  0.24861853308E+02  0.35264777473E+02  0.46804771071E+01  0.47787272516E+02  0.20000006711E+02 0.  0.
        -12    1    3    3    0    0 -0.24861853308E+02 -0.35264777473E+02 -0.46804771071E+01  0.43400727484E+02  0.00000000000E+00 0.  1.
         11    1    4    4    0    0  0.15999715804E+02  0.30589474002E+02  0.86096253151E+01  0.35578539513E+02  0.51100000000E-03 0. -1.
        -11    1    4    4    0    0  0.90316972589E+01  0.39928132438E+01 -0.18932167778E+01  0.10054769167E+02  0.51100000000E-03 0.  1.
         12    1    4    4    0    0 -0.16955975455E+00  0.68249022745E+00 -0.20359314303E+01  0.21539638367E+01  0.00000000000E+00 0. -1.
</event>
<event>
 8    1  0.2994958E-010  0.9118800E+02  0.7816164E-02  0.1184000E+00
        -11   -1    0    0    0    0  0.00000000000E+00  0.00000000000E+00  0.45593999997E+02  0.45594000000E+02  0.51100000000E-03 0. -1.
         11   -1    0    0    0    0 -0.00000000000E+00 -0.00000000000E+00 -0.45593999997E+02  0.45594000000E+02  0.51100000000E-03 0.  1.
         23    2    1    2    0    0 -0.17763568394E-14 -0.35527136788E-14  0.00000000000E+00  0.91188000000E+02  0.91188000000E+02 0.  0.
    9900012    2    3    3    0    0 -0.80993512257E+01 -0.16555358097E+02  0.39293047367E+02  0.47787274852E+02  0.20000017361E+02 0.  0.
        -12    1    3    3    0    0  0.80993512257E+01  0.16555358097E+02 -0.39293047367E+02  0.43400725148E+02  0.00000000000E+00 0.  1.
         11    1    4    4    0    0 -0.49127720794E+01  0.66548164038E+00  0.56123475603E+01  0.74884337960E+01  0.51100000000E-03 0. -1.
        -11    1    4    4    0    0 -0.44935859212E+01 -0.12090052332E+02  0.10827490929E+02  0.16840315909E+02  0.51100000000E-03 0.  1.
        -12    1    4    4    0    0  0.13070067749E+01 -0.51307874054E+01  0.22853208877E+02  0.23458525148E+02  0.00000000000E+00 0.  1.
</event>
<event>
 8    1  0.2994958E-010  0.9118800E+02  0.7816164E-02  0.1184000E+00
        -11   -1    0    0    0    0  0.00000000000E+00  0.00000000000E+00  0.45593999997E+02  0.45594000000E+02  0.51100000000E-03 0. -1.
         11   -1    0    0    0    0 -0.00000000000E+00 -0.00000000000E+00 -0.45593999997E+02  0.45594000000E+02  0.51100000000E-03 0.  1.
         23    2    1    2    0    0  0.00000000000E+00  0.44408920985E-15  0.35527136788E-14  0.91188000000E+02  0.91188000000E+02 0.  0.
    9900012    2    3    3    0    0 -0.36701861069E+02  0.31855283567E+01 -0.22944483342E+02  0.47787268293E+02  0.19999987457E+02 0.  0.
         12    1    3    3    0    0  0.36701861069E+02 -0.31855283567E+01  0.22944483342E+02  0.43400731707E+02  0.00000000000E+00 0. -1.
         11    1    4    4    0    0 -0.12086481575E+02  0.59162053743E+01 -0.92241728041E+01  0.16314713821E+02  0.51100000000E-03 0. -1.
        -11    1    4    4    0    0 -0.16415000028E+02  0.30183747512E+01 -0.13481344876E+02  0.21454823979E+02  0.51100000000E-03 0.  1.
         12    1    4    4    0    0 -0.82003794665E+01 -0.57490517688E+01 -0.23896566142E+00  0.10017730493E+02  0.00000000000E+00 0. -1.
</event>
<event>
 8    1  0.2994958E-010  0.9118800E+02  0.7816164E-02  0.1184000E+00
        -11   -1    0    0    0    0  0.00000000000E+00  0.00000000000E+00  0.45593999997E+02  0.45594000000E+02  0.51100000000E-03 0. -1.
         11   -1    0    0    0    0 -0.00000000000E+00 -0.00000000000E+00 -0.45593999997E+02  0.45594000000E+02  0.51100000000E-03 0.  1.
         23    2    1    2    0    0  0.00000000000E+00  0.00000000000E+00  0.35527136788E-14  0.91188000000E+02  0.91188000000E+02 0.  0.
    9900012    2    3    3    0    0 -0.16602232180E+02  0.32358811486E+02  0.23683274259E+02  0.47787259525E+02  0.19999947478E+02 0.  0.
        -12    1    3    3    0    0  0.16602232180E+02 -0.32358811486E+02 -0.23683274259E+02  0.43400740475E+02  0.00000000000E+00 0.  1.
         11    1    4    4    0    0 -0.96081095887E+00  0.11087012533E+02  0.13086747087E+02  0.17178706418E+02  0.51100000000E-03 0. -1.
        -11    1    4    4    0    0 -0.89614255177E+00  0.10284941764E+02  0.40385784091E+01  0.11085721194E+02  0.51100000000E-03 0.  1.
         12    1    4    4    0    0 -0.14745278669E+02  0.10986857189E+02  0.65579487622E+01  0.19522831913E+02  0.00000000000E+00 0. -1.
</event>
<event>
 8    1  0.2994958E-010  0.9118800E+02  0.7816164E-02  0.1184000E+00
        -11   -1    0    0    0    0  0.00000000000E+00  0.00000000000E+00  0.45593999997E+02  0.45594000000E+02  0.51100000000E-03 0. -1.
         11   -1    0    0    0    0 -0.00000000000E+00 -0.00000000000E+00 -0.45593999997E+02  0.45594000000E+02  0.51100000000E-03 0.  1.
         23    2    1    2    0    0  0.00000000000E+00  0.00000000000E+00  0.00000000000E+00  0.91188000000E+02  0.91188000000E+02 0.  0.
    9900012    2    3    3    0    0 -0.10402359398E+02  0.24344414195E+01 -0.42065266882E+02  0.47787282680E+02  0.20000053052E+02 0.  0.
         12    1    3    3    0    0  0.10402359398E+02 -0.24344414195E+01  0.42065266882E+02  0.43400717320E+02  0.00000000000E+00 0. -1.
         11    1    4    4    0    0  0.15901087162E+01 -0.18611229470E+01 -0.56664689964E+01  0.61726084843E+01  0.51100000000E-03 0. -1.
        -11    1    4    4    0    0  0.11321252193E+01 -0.36174607138E+01 -0.28866397674E+01  0.47644956644E+01  0.51100000000E-03 0.  1.
        -12    1    4    4    0    0 -0.13124593333E+02  0.79130250803E+01 -0.33512158118E+02  0.36850178531E+02  0.00000000000E+00 0.  1.
</event>
<event>
 8    1  0.2994958E-010  0.9118800E+02  0.7816164E-02  0.1184000E+00
        -11   -1    0    0    0    0  0.00000000000E+00  0.00000000000E+00  0.45593999997E+02  0.45594000000E+02  0.51100000000E-03 0. -1.
         11   -1    0    0    0    0 -0.00000000000E+00 -0.00000000000E+00 -0.45593999997E+02  0.45594000000E+02  0.51100000000E-03 0.  1.
         23    2    1    2    0    0  0.00000000000E+00  0.00000000000E+00  0.00000000000E+00  0.91188000000E+02  0.91188000000E+02 0.  0.
    9900012    2    3    3    0    0 -0.22382589250E+02  0.17840992307E+02 -0.32624253583E+02  0.47787271551E+02  0.20000002309E+02 0.  0.
         12    1    3    3    0    0  0.22382589250E+02 -0.17840992307E+02  0.32624253583E+02  0.43400728449E+02  0.00000000000E+00 0. -1.
         11    1    4    4    0    0 -0.11535136089E+02  0.36306083237E+01 -0.10451879778E+02  0.15983819085E+02  0.51100000000E-03 0. -1.
        -11    1    4    4    0    0  0.28765599974E+01  0.14349360787E+01 -0.68714760994E+00  0.32872193518E+01  0.51100000000E-03 0.  1.
        -12    1    4    4    0    0 -0.13724013159E+02  0.12775447905E+02 -0.21485226195E+02  0.28516233114E+02  0.00000000000E+00 0.  1.
</event>
<event>
 8    1  0.2994958E-010  0.9118800E+02  0.7816164E-02  0.1184000E+00
        -11   -1    0    0    0    0  0.00000000000E+00  0.00000000000E+00  0.45593999997E+02  0.45594000000E+02  0.51100000000E-03 0. -1.
         11   -1    0    0    0    0 -0.00000000000E+00 -0.00000000000E+00 -0.45593999997E+02  0.45594000000E+02  0.51100000000E-03 0.  1.
         23    2    1    2    0    0  0.00000000000E+00  0.00000000000E+00 -0.71054273576E-14  0.91188000000E+02  0.91188000000E+02 0.  0.
    9900012    2    3    3    0    0  0.12208491402E+02 -0.23286679850E+02 -0.34529794455E+02  0.47787269293E+02  0.19999992016E+02 0.  0.
         12    1    3    3    0    0 -0.12208491402E+02  0.23286679850E+02  0.34529794455E+02  0.43400730707E+02  0.00000000000E+00 0. -1.
         11    1    4    4    0    0  0.11435173102E+01 -0.36272200774E+01 -0.18751892964E+02  0.19133683580E+02  0.51100000000E-03 0. -1.
        -11    1    4    4    0    0  0.57643138088E+01 -0.56073570934E+01 -0.93077273840E+01  0.12300551068E+02  0.51100000000E-03 0.  1.
        -12    1    4    4    0    0  0.53006602827E+01 -0.14052102679E+02 -0.64701741068E+01  0.16353034646E+02  0.00000000000E+00 0.  1.
</event>
<event>
 8    1  0.2994958E-010  0.9118800E+02  0.7816164E-02  0.1184000E+00
        -11   -1    0    0    0    0  0.00000000000E+00  0.00000000000E+00  0.45593999997E+02  0.45594000000E+02  0.51100000000E-03 0. -1.
         11   -1    0    0    0    0 -0.00000000000E+00 -0.00000000000E+00 -0.45593999997E+02  0.45594000000E+02  0.51100000000E-03 0.  1.
         23    2    1    2    0    0 -0.35527136788E-14  0.00000000000E+00  0.00000000000E+00  0.91188000000E+02  0.91188000000E+02 0.  0.
    9900012    2    3    3    0    0  0.21199030720E+02  0.44825351072E+01  0.37604937079E+02  0.47787270545E+02  0.19999997724E+02 0.  0.
        -12    1    3    3    0    0 -0.21199030720E+02 -0.44825351072E+01 -0.37604937079E+02  0.43400729455E+02  0.00000000000E+00 0.  1.
         11    1    4    4    0    0  0.24415304551E+01  0.13520138331E+01  0.18476322691E+01  0.33470520807E+01  0.51100000000E-03 0. -1.
        -11    1    4    4    0    0  0.16083742686E+01  0.43553194892E+00 -0.21658414693E+01  0.27326590342E+01  0.51100000000E-03 0.  1.
         12    1    4    4    0    0  0.17149125997E+02  0.26949893252E+01  0.37923146279E+02  0.41707559430E+02  0.00000000000E+00 0. -1.
</event>
<event>
 8    1  0.2994958E-010  0.9118800E+02  0.7816164E-02  0.1184000E+00
        -11   -1    0    0    0    0  0.00000000000E+00  0.00000000000E+00  0.45593999997E+02  0.45594000000E+02  0.51100000000E-03 0. -1.
         11   -1    0    0    0    0 -0.00000000000E+00 -0.00000000000E+00 -0.45593999997E+02  0.45594000000E+02  0.51100000000E-03 0.  1.
         23    2    1    2    0    0  0.00000000000E+00  0.71054273576E-14 -0.35527136788E-14  0.91188000000E+02  0.91188000000E+02 0.  0.
    9900012    2    3    3    0    0 -0.11846029589E+02  0.33325902233E+02 -0.25153107751E+02  0.47787274128E+02  0.20000014060E+02 0.  0.
         12    1    3    3    0    0  0.11846029589E+02 -0.33325902233E+02  0.25153107751E+02  0.43400725872E+02  0.00000000000E+00 0. -1.
         11    1    4    4    0    0 -0.37163502440E+01  0.85993182278E+01 -0.64383195872E+01  0.11367123316E+02  0.51100000000E-03 0. -1.
        -11    1    4    4    0    0 -0.10341901219E+02  0.26275935591E+02 -0.18393812230E+02  0.33700327011E+02  0.51100000000E-03 0.  1.
         12    1    4    4    0    0  0.22122218742E+01 -0.15493515862E+01 -0.32097593386E+00  0.27198238010E+01  0.00000000000E+00 0. -1.
</event>
<event>
 8    1  0.2994958E-010  0.9118800E+02  0.7816164E-02  0.1184000E+00
        -11   -1    0    0    0    0  0.00000000000E+00  0.00000000000E+00  0.45593999997E+02  0.45594000000E+02  0.51100000000E-03 0. -1.
         11   -1    0    0    0    0 -0.00000000000E+00 -0.00000000000E+00 -0.45593999997E+02  0.45594000000E+02  0.51100000000E-03 0.  1.
         23    2    1    2    0    0  0.00000000000E+00  0.00000000000E+00  0.35527136788E-14  0.91188000000E+02  0.91188000000E+02 0.  0.
    9900012    2    3    3    0    0  0.31565125453E+02  0.17265137099E+02 -0.24273053996E+02  0.47787271271E+02  0.20000001033E+02 0.  0.
         12    1    3    3    0    0 -0.31565125453E+02 -0.17265137099E+02  0.24273053996E+02  0.43400728729E+02  0.00000000000E+00 0. -1.
         11    1    4    4    0    0  0.58992725551E+01 -0.34540470055E+01 -0.67510383128E+01  0.96077248065E+01  0.51100000000E-03 0. -1.
        -11    1    4    4    0    0  0.79050558020E+01  0.25572685169E+01 -0.25407741864E+01  0.86882140413E+01  0.51100000000E-03 0.  1.
         12    1    4    4    0    0  0.17760797096E+02  0.18161915588E+02 -0.14981241496E+02  0.29491332423E+02  0.00000000000E+00 0. -1.
</event>
<event>
 8    1  0.2994958E-010  0.9118800E+02  0.7816164E-02  0.1184000E+00
        -11   -1    0    0    0    0  0.00000000000E+00  0.00000000000E+00  0.45593999997E+02  0.45594000000E+02  0.51100000000E-03 0. -1.
         11   -1    0    0    0    0 -0.00000000000E+00 -0.00000000000E+00 -0.45593999997E+02  0.45594000000E+02  0.51100000000E-03 0.  1.
         23    2    1    2    0    0  0.35527136788E-14  0.00000000000E+00  0.00000000000E+00  0.91188000000E+02  0.91188000000E+02 0.  0.
    9900012    2    3    3    0    0  0.28588011622E+02 -0.21214007034E+01 -0.32585998854E+02  0.47787284905E+02  0.20000063197E+02 0.  0.
         12    1    3    3    0    0 -0.28588011622E+02  0.21214007034E+01  0.32585998854E+02  0.43400715095E+02  0.00000000000E+00 0. -1.
         11    1    4    4    0    0  0.85000151508E-01 -0.87887120275E+00 -0.59679495022E+01  0.60329148128E+01  0.51100000000E-03 0. -1.
        -11    1    4    4    0    0  0.16509273805E+02 -0.10368589263E+01 -0.24518041875E+02  0.29576436155E+02  0.51100000000E-03 0.  1.
         12    1    4    4    0    0  0.11993737665E+02 -0.20567057435E+00 -0.21000074762E+01  0.12177933937E+02  0.00000000000E+00 0. -1.
</event>
<event>
 8    1  0.2994958E-010  0.9118800E+02  0.7816164E-02  0.1184000E+00
        -11   -1    0    0    0    0  0.00000000000E+00  0.00000000000E+00  0.45593999997E+02  0.45594000000E+02  0.51100000000E-03 0. -1.
         11   -1    0    0    0    0 -0.00000000000E+00 -0.00000000000E+00 -0.45593999997E+02  0.45594000000E+02  0.51100000000E-03 0.  1.
         23    2    1    2    0    0  0.88817841970E-15  0.00000000000E+00  0.00000000000E+00  0.91188000000E+02  0.91188000000E+02 0.  0.
    9900012    2    3    3    0    0  0.65297669522E+01  0.41790310338E+02  0.97239730746E+01  0.47787267898E+02  0.19999985656E+02 0.  0.
        -12    1    3    3    0    0 -0.65297669522E+01 -0.41790310338E+02 -0.97239730746E+01  0.43400732102E+02  0.00000000000E+00 0.  1.
         11    1    4    4    0    0  0.10113719689E+02  0.13557991324E+02  0.35236734733E+01  0.17277810327E+02  0.51100000000E-03 0. -1.
        -11    1    4    4    0    0  0.16277651570E+01  0.17501587674E+02  0.13405645639E+01  0.17628167918E+02  0.51100000000E-03 0.  1.
        -12    1    4    4    0    0 -0.52117178943E+01  0.10730731340E+02  0.48597350374E+01  0.12881289653E+02  0.00000000000E+00 0.  1.
</event>
<event>
 8    1  0.2994958E-010  0.9118800E+02  0.7816164E-02  0.1184000E+00
        -11   -1    0    0    0    0  0.00000000000E+00  0.00000000000E+00  0.45593999997E+02  0.45594000000E+02  0.51100000000E-03 0. -1.
         11   -1    0    0    0    0 -0.00000000000E+00 -0.00000000000E+00 -0.45593999997E+02  0.45594000000E+02  0.51100000000E-03 0.  1.
         23    2    1    2    0    0  0.35527136788E-14  0.00000000000E+00  0.00000000000E+00  0.91188000000E+02  0.91188000000E+02 0.  0.
    9900012    2    3    3    0    0 -0.22219481696E+02 -0.92547537598E+01  0.36114648836E+02  0.47787266198E+02  0.19999977904E+02 0.  0.
        -12    1    3    3    0    0  0.22219481696E+02  0.92547537598E+01 -0.36114648836E+02  0.43400733802E+02  0.00000000000E+00 0.  1.
         11    1    4    4    0    0 -0.14558526492E+02 -0.86429276118E-01  0.21542635542E+02  0.26000832872E+02  0.51100000000E-03 0. -1.
        -11    1    4    4    0    0 -0.27047331473E+01  0.21732350223E+01  0.14867114964E+01  0.37747639920E+01  0.51100000000E-03 0.  1.
         12    1    4    4    0    0 -0.49562220568E+01 -0.11341559506E+02  0.13085301797E+02  0.18011669335E+02  0.00000000000E+00 0. -1.
</event>
<event>
 8    1  0.2994958E-010  0.9118800E+02  0.7816164E-02  0.1184000E+00
        -11   -1    0    0    0    0  0.00000000000E+00  0.00000000000E+00  0.45593999997E+02  0.45594000000E+02  0.51100000000E-03 0. -1.
         11   -1    0    0    0    0 -0.00000000000E+00 -0.00000000000E+00 -0.45593999997E+02  0.45594000000E+02  0.51100000000E-03 0.  1.
         23    2    1    2    0    0 -0.35527136788E-14  0.11102230246E-14 -0.71054273576E-14  0.91188000000E+02  0.91188000000E+02 0.  0.
    9900012    2    3    3    0    0  0.28924460660E+02 -0.15442679729E+01  0.32320490598E+02  0.47787270737E+02  0.19999998600E+02 0.  0.
        -12    1    3    3    0    0 -0.28924460660E+02  0.15442679729E+01 -0.32320490598E+02  0.43400729263E+02  0.00000000000E+00 0.  1.
         11    1    4    4    0    0  0.27658953704E+01 -0.55718981933E+01  0.83571990008E+01  0.10418205319E+02  0.51100000000E-03 0. -1.
        -11    1    4    4    0    0  0.13867296929E+02 -0.34395076350E+01  0.11594135920E+02  0.18399894698E+02  0.51100000000E-03 0.  1.
         12    1    4    4    0    0  0.12291268360E+02  0.74671378554E+01  0.12369155677E+02  0.18969170720E+02  0.00000000000E+00 0. -1.
</event>
<event>
 8    1  0.2994958E-010  0.9118800E+02  0.7816164E-02  0.1184000E+00
        -11   -1    0    0    0    0  0.00000000000E+00  0.00000000000E+00  0.45593999997E+02  0.45594000000E+02  0.51100000000E-03 0.  1.
         11   -1    0    0    0    0 -0.00000000000E+00 -0.00000000000E+00 -0.45593999997E+02  0.45594000000E+02  0.51100000000E-03 0. -1.
         23    2    1    2    0    0 -0.71054273576E-14  0.35527136788E-14  0.00000000000E+00  0.91188000000E+02  0.91188000000E+02 0.  0.
    9900012    2    3    3    0    0 -0.36498604489E+02  0.23185779068E+02 -0.37275519354E+01  0.47787272770E+02  0.20000007870E+02 0.  0.
         12    1    3    3    0    0  0.36498604489E+02 -0.23185779068E+02  0.37275519354E+01  0.43400727230E+02  0.00000000000E+00 0. -1.
         11    1    4    4    0    0 -0.30978910505E+01  0.43263066729E+01 -0.29902020555E+01  0.61037010889E+01  0.51100000000E-03 0. -1.
        -11    1    4    4    0    0 -0.12201816977E+02 -0.13721682604E+01  0.10620947647E+01  0.12324578242E+02  0.51100000000E-03 0.  1.
        -12    1    4    4    0    0 -0.21198896461E+02  0.20231640655E+02 -0.17994446447E+01  0.29358993440E+02  0.00000000000E+00 0.  1.
</event>
<event>
 8    1  0.2994958E-010  0.9118800E+02  0.7816164E-02  0.1184000E+00
        -11   -1    0    0    0    0  0.00000000000E+00  0.00000000000E+00  0.45593999997E+02  0.45594000000E+02  0.51100000000E-03 0.  1.
         11   -1    0    0    0    0 -0.00000000000E+00 -0.00000000000E+00 -0.45593999997E+02  0.45594000000E+02  0.51100000000E-03 0. -1.
         23    2    1    2    0    0  0.66613381478E-15  0.00000000000E+00  0.00000000000E+00  0.91188000000E+02  0.91188000000E+02 0.  0.
    9900012    2    3    3    0    0  0.15751938350E+01 -0.41898147687E+02 -0.11211021455E+02  0.47787274000E+02  0.20000013476E+02 0.  0.
         12    1    3    3    0    0 -0.15751938350E+01  0.41898147687E+02  0.11211021455E+02  0.43400726000E+02  0.00000000000E+00 0. -1.
         11    1    4    4    0    0 -0.38147931752E+01 -0.15846216539E+02 -0.79984473845E+01  0.18155725995E+02  0.51100000000E-03 0. -1.
        -11    1    4    4    0    0 -0.27379410224E+01 -0.74834492250E+00 -0.77944146759E+00  0.29434453329E+01  0.51100000000E-03 0.  1.
        -12    1    4    4    0    0  0.81279280326E+01 -0.25303586226E+02 -0.24331326028E+01  0.26688102672E+02  0.00000000000E+00 0.  1.
</event>
<event>
 8    1  0.3924922E-010  0.9118800E+02  0.7816164E-02  0.1184000E+00
        -11   -1    0    0    0    0  0.00000000000E+00  0.00000000000E+00  0.45593999997E+02  0.45594000000E+02  0.51100000000E-03 0. -1.
         11   -1    0    0    0    0 -0.00000000000E+00 -0.00000000000E+00 -0.45593999997E+02  0.45594000000E+02  0.51100000000E-03 0.  1.
         23    2    1    2    0    0  0.00000000000E+00  0.00000000000E+00  0.00000000000E+00  0.91188000000E+02  0.91188000000E+02 0.  0.
    9900012    2    3    3    0    0  0.21471310586E+02 -0.20866864443E+01  0.37659692489E+02  0.47787264096E+02  0.19999968321E+02 0.  0.
        -12    1    3    3    0    0 -0.21471310586E+02  0.20866864443E+01 -0.37659692489E+02  0.43400735904E+02  0.00000000000E+00 0.  1.
         11    1    4    4    0    0  0.34935121093E+01 -0.45665853609E+01  0.15407048787E+02  0.16444922661E+02  0.51100000000E-03 0. -1.
        -11    1    4    4    0    0 -0.46084918862E+00  0.97678436827E+00 -0.11055541559E+01  0.15455548937E+01  0.51100000000E-03 0.  1.
         12    1    4    4    0    0  0.18438647665E+02  0.15031145484E+01  0.23358197858E+02  0.29796786542E+02  0.00000000000E+00 0. -1.
</event>
<event>
 8    1  0.2994958E-010  0.9118800E+02  0.7816164E-02  0.1184000E+00
        -11   -1    0    0    0    0  0.00000000000E+00  0.00000000000E+00  0.45593999997E+02  0.45594000000E+02  0.51100000000E-03 0. -1.
         11   -1    0    0    0    0 -0.00000000000E+00 -0.00000000000E+00 -0.45593999997E+02  0.45594000000E+02  0.51100000000E-03 0.  1.
         23    2    1    2    0    0  0.00000000000E+00  0.00000000000E+00  0.00000000000E+00  0.91188000000E+02  0.91188000000E+02 0.  0.
    9900012    2    3    3    0    0 -0.23277567586E+02 -0.20867454058E+02 -0.30105274941E+02  0.47787269927E+02  0.19999994906E+02 0.  0.
         12    1    3    3    0    0  0.23277567586E+02  0.20867454058E+02  0.30105274941E+02  0.43400730073E+02  0.00000000000E+00 0. -1.
         11    1    4    4    0    0 -0.76071793139E+01 -0.17618159593E+02 -0.10779099451E+02  0.22010400037E+02  0.51100000000E-03 0. -1.
        -11    1    4    4    0    0 -0.67311184699E+01 -0.42356881909E+01 -0.10540570400E+02  0.13204265785E+02  0.51100000000E-03 0.  1.
         12    1    4    4    0    0 -0.89392698018E+01  0.98639372643E+00 -0.87856050904E+01  0.12572604105E+02  0.00000000000E+00 0. -1.
</event>
<event>
 8    1  0.2994958E-010  0.9118800E+02  0.7816164E-02  0.1184000E+00
        -11   -1    0    0    0    0  0.00000000000E+00  0.00000000000E+00  0.45593999997E+02  0.45594000000E+02  0.51100000000E-03 0. -1.
         11   -1    0    0    0    0 -0.00000000000E+00 -0.00000000000E+00 -0.45593999997E+02  0.45594000000E+02  0.51100000000E-03 0.  1.
         23    2    1    2    0    0  0.00000000000E+00  0.44408920985E-15  0.71054273576E-14  0.91188000000E+02  0.91188000000E+02 0.  0.
    9900012    2    3    3    0    0 -0.56034638297E+01 -0.28389907117E+01  0.42943739930E+02  0.47787268735E+02  0.19999989472E+02 0.  0.
        -12    1    3    3    0    0  0.56034638297E+01  0.28389907117E+01 -0.42943739930E+02  0.43400731265E+02  0.00000000000E+00 0.  1.
         11    1    4    4    0    0 -0.24825304167E+01  0.38650573015E+01  0.26450318575E+02  0.26846247003E+02  0.51100000000E-03 0. -1.
        -11    1    4    4    0    0 -0.27324524535E+01  0.19180507466E+01  0.15421621903E+01  0.36774283894E+01  0.51100000000E-03 0.  1.
        -12    1    4    4    0    0 -0.38848095954E+00 -0.86220987599E+01  0.14951259165E+02  0.17263593343E+02  0.00000000000E+00 0.  1.
</event>
<event>
 8    1  0.2994958E-010  0.9118800E+02  0.7816164E-02  0.1184000E+00
        -11   -1    0    0    0    0  0.00000000000E+00  0.00000000000E+00  0.45593999997E+02  0.45594000000E+02  0.51100000000E-03 0. -1.
         11   -1    0    0    0    0 -0.00000000000E+00 -0.00000000000E+00 -0.45593999997E+02  0.45594000000E+02  0.51100000000E-03 0.  1.
         23    2    1    2    0    0  0.35527136788E-14  0.00000000000E+00  0.00000000000E+00  0.91188000000E+02  0.91188000000E+02 0.  0.
    9900012    2    3    3    0    0 -0.27340497007E+02  0.56023668995E+01  0.33237537871E+02  0.47787271721E+02  0.20000003083E+02 0.  0.
        -12    1    3    3    0    0  0.27340497007E+02 -0.56023668995E+01 -0.33237537871E+02  0.43400728279E+02  0.00000000000E+00 0.  1.
         11    1    4    4    0    0 -0.18725588946E+02  0.33574329302E+01  0.18682224042E+02  0.26663561890E+02  0.51100000000E-03 0. -1.
        -11    1    4    4    0    0 -0.90893608868E+01  0.18374545019E+01  0.16584128441E+02  0.19000685166E+02  0.51100000000E-03 0.  1.
        -12    1    4    4    0    0  0.47445282547E+00  0.40747946737E+00 -0.20288146117E+01  0.21230246650E+01  0.00000000000E+00 0.  1.
</event>
<event>
 8    1  0.2994958E-010  0.9118800E+02  0.7816164E-02  0.1184000E+00
        -11   -1    0    0    0    0  0.00000000000E+00  0.00000000000E+00  0.45593999997E+02  0.45594000000E+02  0.51100000000E-03 0. -1.
         11   -1    0    0    0    0 -0.00000000000E+00 -0.00000000000E+00 -0.45593999997E+02  0.45594000000E+02  0.51100000000E-03 0.  1.
         23    2    1    2    0    0 -0.88817841970E-15 -0.17763568394E-14  0.00000000000E+00  0.91188000000E+02  0.91188000000E+02 0.  0.
    9900012    2    3    3    0    0 -0.76371764502E+01 -0.13813647216E+02 -0.40428701860E+02  0.47787271347E+02  0.20000001380E+02 0.  0.
         12    1    3    3    0    0  0.76371764502E+01  0.13813647216E+02  0.40428701860E+02  0.43400728653E+02  0.00000000000E+00 0. -1.
         11    1    4    4    0    0 -0.21028933601E+01 -0.18485929257E+01 -0.14672020402E+00  0.28037445262E+01  0.51100000000E-03 0. -1.
        -11    1    4    4    0    0  0.15874289989E+01 -0.72218305819E+01 -0.32780782599E+02  0.33604381795E+02  0.51100000000E-03 0.  1.
         12    1    4    4    0    0 -0.71217120890E+01 -0.47432237082E+01 -0.75011990571E+01  0.11379145026E+02  0.00000000000E+00 0. -1.
</event>
<event>
 8    1  0.2994958E-010  0.9118800E+02  0.7816164E-02  0.1184000E+00
        -11   -1    0    0    0    0  0.00000000000E+00  0.00000000000E+00  0.45593999997E+02  0.45594000000E+02  0.51100000000E-03 0. -1.
         11   -1    0    0    0    0 -0.00000000000E+00 -0.00000000000E+00 -0.45593999997E+02  0.45594000000E+02  0.51100000000E-03 0.  1.
         23    2    1    2    0    0  0.00000000000E+00  0.00000000000E+00  0.00000000000E+00  0.91188000000E+02  0.91188000000E+02 0.  0.
    9900012    2    3    3    0    0 -0.23254889577E+02 -0.25977805773E+02  0.25845445467E+02  0.47787270358E+02  0.19999996871E+02 0.  0.
        -12    1    3    3    0    0  0.23254889577E+02  0.25977805773E+02 -0.25845445467E+02  0.43400729642E+02  0.00000000000E+00 0.  1.
         11    1    4    4    0    0 -0.13241172455E+02 -0.24289344788E+02  0.19055937124E+02  0.33592107081E+02  0.51100000000E-03 0. -1.
        -11    1    4    4    0    0 -0.93482326200E+00 -0.16167623749E+01 -0.10996506887E+01  0.21672671747E+01  0.51100000000E-03 0.  1.
         12    1    4    4    0    0 -0.90788938600E+01 -0.71698610096E-01  0.78891590324E+01  0.12027896102E+02  0.00000000000E+00 0. -1.
</event>
<event>
 8    1  0.2994958E-010  0.9118800E+02  0.7816164E-02  0.1184000E+00
        -11   -1    0    0    0    0  0.00000000000E+00  0.00000000000E+00  0.45593999997E+02  0.45594000000E+02  0.51100000000E-03 0. -1.
         11   -1    0    0    0    0 -0.00000000000E+00 -0.00000000000E+00 -0.45593999997E+02  0.45594000000E+02  0.51100000000E-03 0.  1.
         23    2    1    2    0    0  0.61062266354E-15  0.71054273576E-14  0.35527136788E-14  0.91188000000E+02  0.91188000000E+02 0.  0.
    9900012    2    3    3    0    0 -0.47006225039E+00 -0.32125796201E+02 -0.29177654938E+02  0.47787270885E+02  0.19999999272E+02 0.  0.
         12    1    3    3    0    0  0.47006225039E+00  0.32125796201E+02  0.29177654938E+02  0.43400729115E+02  0.00000000000E+00 0. -1.
         11    1    4    4    0    0  0.20103766840E+01 -0.16862105261E+02 -0.11067659605E+02  0.20269812471E+02  0.51100000000E-03 0. -1.
        -11    1    4    4    0    0  0.28053851925E+01 -0.13158911704E+02 -0.17067817477E+02  0.21733327794E+02  0.51100000000E-03 0.  1.
         12    1    4    4    0    0 -0.52858241269E+01 -0.21047792367E+01 -0.10421778551E+01  0.57841306190E+01  0.00000000000E+00 0. -1.
</event>
<event>
 8    1  0.2994958E-010  0.9118800E+02  0.7816164E-02  0.1184000E+00
        -11   -1    0    0    0    0  0.00000000000E+00  0.00000000000E+00  0.45593999997E+02  0.45594000000E+02  0.51100000000E-03 0. -1.
         11   -1    0    0    0    0 -0.00000000000E+00 -0.00000000000E+00 -0.45593999997E+02  0.45594000000E+02  0.51100000000E-03 0.  1.
         23    2    1    2    0    0  0.00000000000E+00 -0.35527136788E-14  0.35527136788E-14  0.91188000000E+02  0.91188000000E+02 0.  0.
    9900012    2    3    3    0    0 -0.20842290081E+02  0.21655733534E+02  0.31308961576E+02  0.47787275055E+02  0.20000018287E+02 0.  0.
        -12    1    3    3    0    0  0.20842290081E+02 -0.21655733534E+02 -0.31308961576E+02  0.43400724945E+02  0.00000000000E+00 0.  1.
         11    1    4    4    0    0 -0.17766053648E+02  0.10174130122E+02  0.20294136725E+02  0.28827028491E+02  0.51100000000E-03 0. -1.
        -11    1    4    4    0    0 -0.56154331610E+01  0.70047930111E+01  0.30586613699E+01  0.94844938901E+01  0.51100000000E-03 0.  1.
         12    1    4    4    0    0  0.25391967277E+01  0.44768104006E+01  0.79561634821E+01  0.94757526740E+01  0.00000000000E+00 0. -1.
</event>
<event>
 8    1  0.2994958E-010  0.9118800E+02  0.7816164E-02  0.1184000E+00
        -11   -1    0    0    0    0  0.00000000000E+00  0.00000000000E+00  0.45593999997E+02  0.45594000000E+02  0.51100000000E-03 0.  1.
         11   -1    0    0    0    0 -0.00000000000E+00 -0.00000000000E+00 -0.45593999997E+02  0.45594000000E+02  0.51100000000E-03 0. -1.
         23    2    1    2    0    0  0.35527136788E-14  0.00000000000E+00  0.00000000000E+00  0.91188000000E+02  0.91188000000E+02 0.  0.
    9900012    2    3    3    0    0 -0.29714428880E+02  0.26085185041E+02  0.17895227789E+02  0.47787270283E+02  0.19999996529E+02 0.  0.
        -12    1    3    3    0    0  0.29714428880E+02 -0.26085185041E+02 -0.17895227789E+02  0.43400729717E+02  0.00000000000E+00 0.  1.
         11    1    4    4    0    0 -0.10484312676E+02  0.14474399839E+02  0.55800587078E+01  0.18723410972E+02  0.51100000000E-03 0. -1.
        -11    1    4    4    0    0 -0.14884736873E+01 -0.28336976825E+01  0.29168958511E+01  0.43305517132E+01  0.51100000000E-03 0.  1.
         12    1    4    4    0    0 -0.17741642517E+02  0.14444482885E+02  0.93982732304E+01  0.24733307598E+02  0.00000000000E+00 0. -1.
</event>
<event>
 8    1  0.2994958E-010  0.9118800E+02  0.7816164E-02  0.1184000E+00
        -11   -1    0    0    0    0  0.00000000000E+00  0.00000000000E+00  0.45593999997E+02  0.45594000000E+02  0.51100000000E-03 0. -1.
         11   -1    0    0    0    0 -0.00000000000E+00 -0.00000000000E+00 -0.45593999997E+02  0.45594000000E+02  0.51100000000E-03 0.  1.
         23    2    1    2    0    0 -0.35527136788E-14  0.00000000000E+00  0.00000000000E+00  0.91188000000E+02  0.91188000000E+02 0.  0.
    9900012    2    3    3    0    0 -0.23796009337E+02  0.96476261057E+01  0.34989946684E+02  0.47787272831E+02  0.20000008147E+02 0.  0.
        -12    1    3    3    0    0  0.23796009337E+02 -0.96476261057E+01 -0.34989946684E+02  0.43400727169E+02  0.00000000000E+00 0.  1.
         11    1    4    4    0    0 -0.10861833632E+02  0.79522508325E+01  0.11804804425E+02  0.17904500298E+02  0.51100000000E-03 0. -1.
        -11    1    4    4    0    0 -0.15485017728E+02 -0.49076925473E+00  0.18964061205E+02  0.24488002085E+02  0.51100000000E-03 0.  1.
        -12    1    4    4    0    0  0.25508420226E+01  0.21861445279E+01  0.42210810542E+01  0.53947704481E+01  0.00000000000E+00 0.  1.
</event>
<event>
 8    1  0.2994958E-010  0.9118800E+02  0.7816164E-02  0.1184000E+00
        -11   -1    0    0    0    0  0.00000000000E+00  0.00000000000E+00  0.45593999997E+02  0.45594000000E+02  0.51100000000E-03 0. -1.
         11   -1    0    0    0    0 -0.00000000000E+00 -0.00000000000E+00 -0.45593999997E+02  0.45594000000E+02  0.51100000000E-03 0.  1.
         23    2    1    2    0    0  0.00000000000E+00  0.17763568394E-14  0.00000000000E+00  0.91188000000E+02  0.91188000000E+02 0.  0.
    9900012    2    3    3    0    0  0.32533620863E+02 -0.15956353293E+02  0.23886854442E+02  0.47787268301E+02  0.19999987491E+02 0.  0.
        -12    1    3    3    0    0 -0.32533620863E+02  0.15956353293E+02 -0.23886854442E+02  0.43400731699E+02  0.00000000000E+00 0.  1.
         11    1    4    4    0    0  0.17549427068E+02 -0.13119157804E+02  0.73179079133E+01  0.23100789346E+02  0.51100000000E-03 0. -1.
        -11    1    4    4    0    0  0.27470212015E+01  0.18561391093E+01 -0.29494819605E+00  0.33284189300E+01  0.51100000000E-03 0.  1.
         12    1    4    4    0    0  0.12237172594E+02 -0.46933345986E+01  0.16863894725E+02  0.21358060025E+02  0.00000000000E+00 0. -1.
</event>
<event>
 8    1  0.2994958E-010  0.9118800E+02  0.7816164E-02  0.1184000E+00
        -11   -1    0    0    0    0  0.00000000000E+00  0.00000000000E+00  0.45593999997E+02  0.45594000000E+02  0.51100000000E-03 0.  1.
         11   -1    0    0    0    0 -0.00000000000E+00 -0.00000000000E+00 -0.45593999997E+02  0.45594000000E+02  0.51100000000E-03 0. -1.
         23    2    1    2    0    0  0.88817841970E-15  0.00000000000E+00  0.00000000000E+00  0.91188000000E+02  0.91188000000E+02 0.  0.
    9900012    2    3    3    0    0 -0.68907049860E+01  0.40417816686E+02 -0.14231709791E+02  0.47787270923E+02  0.19999999447E+02 0.  0.
        -12    1    3    3    0    0  0.68907049860E+01 -0.40417816686E+02  0.14231709791E+02  0.43400729077E+02  0.00000000000E+00 0.  1.
         11    1    4    4    0    0 -0.76753202583E+01  0.15857338607E+02 -0.38434375360E+00  0.17621391805E+02  0.51100000000E-03 0. -1.
        -11    1    4    4    0    0  0.23582831350E+01  0.17979878095E+01  0.77571778227E+00  0.30652891946E+01  0.51100000000E-03 0.  1.
         12    1    4    4    0    0 -0.15736678627E+01  0.22762490269E+02 -0.14623083820E+02  0.27100589923E+02  0.00000000000E+00 0. -1.
</event>
<event>
 8    1  0.2994958E-010  0.9118800E+02  0.7816164E-02  0.1184000E+00
        -11   -1    0    0    0    0  0.00000000000E+00  0.00000000000E+00  0.45593999997E+02  0.45594000000E+02  0.51100000000E-03 0. -1.
         11   -1    0    0    0    0 -0.00000000000E+00 -0.00000000000E+00 -0.45593999997E+02  0.45594000000E+02  0.51100000000E-03 0.  1.
         23    2    1    2    0    0 -0.35527136788E-14  0.35527136788E-14  0.00000000000E+00  0.91188000000E+02  0.91188000000E+02 0.  0.
    9900012    2    3    3    0    0  0.22512598977E+02  0.17453467925E+02  0.32744203580E+02  0.47787268170E+02  0.19999986894E+02 0.  0.
        -12    1    3    3    0    0 -0.22512598977E+02 -0.17453467925E+02 -0.32744203580E+02  0.43400731830E+02  0.00000000000E+00 0.  1.
         11    1    4    4    0    0  0.57081040609E+01  0.38894704732E+01  0.20540873039E+01  0.72062269910E+01  0.51100000000E-03 0. -1.
        -11    1    4    4    0    0  0.60468924916E+01  0.28159080262E+01  0.39327430593E+00  0.66819841184E+01  0.51100000000E-03 0.  1.
         12    1    4    4    0    0  0.10757602424E+02  0.10748089425E+02  0.30296841971E+02  0.33899057060E+02  0.00000000000E+00 0. -1.
</event>
<event>
 8    1  0.2994958E-010  0.9118800E+02  0.7816164E-02  0.1184000E+00
        -11   -1    0    0    0    0  0.00000000000E+00  0.00000000000E+00  0.45593999997E+02  0.45594000000E+02  0.51100000000E-03 0. -1.
         11   -1    0    0    0    0 -0.00000000000E+00 -0.00000000000E+00 -0.45593999997E+02  0.45594000000E+02  0.51100000000E-03 0.  1.
         23    2    1    2    0    0  0.17763568394E-14  0.00000000000E+00  0.71054273576E-14  0.91188000000E+02  0.91188000000E+02 0.  0.
    9900012    2    3    3    0    0 -0.15759566260E+02 -0.83108478747E+01 -0.39575108829E+02  0.47787270053E+02  0.19999995480E+02 0.  0.
         12    1    3    3    0    0  0.15759566260E+02  0.83108478747E+01  0.39575108829E+02  0.43400729947E+02  0.00000000000E+00 0. -1.
         11    1    4    4    0    0  0.15625664837E+01 -0.44012150295E+00 -0.49664006178E+01  0.52249838575E+01  0.51100000000E-03 0. -1.
        -11    1    4    4    0    0 -0.36407778016E+01 -0.10221992213E+02 -0.16416723781E+02  0.19678750157E+02  0.51100000000E-03 0.  1.
         12    1    4    4    0    0 -0.13681354942E+02  0.23512658407E+01 -0.18191984430E+02  0.22883536038E+02  0.00000000000E+00 0. -1.
</event>
<event>
 8    1  0.2994958E-010  0.9118800E+02  0.7816164E-02  0.1184000E+00
        -11   -1    0    0    0    0  0.00000000000E+00  0.00000000000E+00  0.45593999997E+02  0.45594000000E+02  0.51100000000E-03 0. -1.
         11   -1    0    0    0    0 -0.00000000000E+00 -0.00000000000E+00 -0.45593999997E+02  0.45594000000E+02  0.51100000000E-03 0.  1.
         23    2    1    2    0    0  0.44408920985E-15  0.35527136788E-14  0.00000000000E+00  0.91188000000E+02  0.91188000000E+02 0.  0.
    9900012    2    3    3    0    0  0.36525131378E+01  0.28490317365E+02 -0.32535892883E+02  0.47787270036E+02  0.19999995400E+02 0.  0.
         12    1    3    3    0    0 -0.36525131378E+01 -0.28490317365E+02  0.32535892883E+02  0.43400729964E+02  0.00000000000E+00 0. -1.
         11    1    4    4    0    0 -0.25158997389E+01  0.19325448261E+02 -0.22635354430E+02  0.29869080542E+02  0.51100000000E-03 0. -1.
        -11    1    4    4    0    0  0.18707240735E+01  0.64503356631E+01 -0.10837063954E+02  0.12749446817E+02  0.51100000000E-03 0.  1.
         12    1    4    4    0    0  0.42976888031E+01  0.27145334400E+01  0.93652550093E+00  0.51687426768E+01  0.00000000000E+00 0. -1.
</event>
<event>
 8    1  0.2994958E-010  0.9118800E+02  0.7816164E-02  0.1184000E+00
        -11   -1    0    0    0    0  0.00000000000E+00  0.00000000000E+00  0.45593999997E+02  0.45594000000E+02  0.51100000000E-03 0. -1.
         11   -1    0    0    0    0 -0.00000000000E+00 -0.00000000000E+00 -0.45593999997E+02  0.45594000000E+02  0.51100000000E-03 0.  1.
         23    2    1    2    0    0  0.17763568394E-14  0.00000000000E+00  0.00000000000E+00  0.91188000000E+02  0.91188000000E+02 0.  0.
    9900012    2    3    3    0    0 -0.13378634041E+02 -0.32817969647E+02 -0.25052275663E+02  0.47787268480E+02  0.19999988308E+02 0.  0.
         12    1    3    3    0    0  0.13378634041E+02  0.32817969647E+02  0.25052275663E+02  0.43400731520E+02  0.00000000000E+00 0. -1.
         11    1    4    4    0    0  0.30619474637E-01 -0.50932161049E+01 -0.13263106911E+01  0.52631633219E+01  0.51100000000E-03 0.  1.
        -11    1    4    4    0    0 -0.13027334692E+02 -0.75453139507E+01 -0.89979636499E+01  0.17538716084E+02  0.51100000000E-03 0. -1.
         12    1    4    4    0    0 -0.38191882394E+00 -0.20179439591E+02 -0.14728001322E+02  0.24985389074E+02  0.00000000000E+00 0. -1.
</event>
<event>
 8    1  0.2994958E-010  0.9118800E+02  0.7816164E-02  0.1184000E+00
        -11   -1    0    0    0    0  0.00000000000E+00  0.00000000000E+00  0.45593999997E+02  0.45594000000E+02  0.51100000000E-03 0. -1.
         11   -1    0    0    0    0 -0.00000000000E+00 -0.00000000000E+00 -0.45593999997E+02  0.45594000000E+02  0.51100000000E-03 0.  1.
         23    2    1    2    0    0  0.00000000000E+00  0.00000000000E+00  0.71054273576E-14  0.91188000000E+02  0.91188000000E+02 0.  0.
    9900012    2    3    3    0    0  0.18392747104E+02 -0.86593305900E+01  0.38345092818E+02  0.47787270795E+02  0.19999998863E+02 0.  0.
        -12    1    3    3    0    0 -0.18392747104E+02  0.86593305900E+01 -0.38345092818E+02  0.43400729205E+02  0.00000000000E+00 0.  1.
         11    1    4    4    0    0  0.15241174841E+02 -0.47001029458E+01  0.24478841134E+02  0.29216400219E+02  0.51100000000E-03 0. -1.
        -11    1    4    4    0    0  0.38719519347E+01 -0.74890487162E+01  0.11505323580E+02  0.14263601698E+02  0.51100000000E-03 0.  1.
         12    1    4    4    0    0 -0.72037967202E+00  0.35298210721E+01  0.23609281041E+01  0.43072688778E+01  0.00000000000E+00 0. -1.
</event>
<event>
 8    1  0.2994958E-010  0.9118800E+02  0.7816164E-02  0.1184000E+00
        -11   -1    0    0    0    0  0.00000000000E+00  0.00000000000E+00  0.45593999997E+02  0.45594000000E+02  0.51100000000E-03 0. -1.
         11   -1    0    0    0    0 -0.00000000000E+00 -0.00000000000E+00 -0.45593999997E+02  0.45594000000E+02  0.51100000000E-03 0.  1.
         23    2    1    2    0    0  0.00000000000E+00  0.88817841970E-15  0.00000000000E+00  0.91188000000E+02  0.91188000000E+02 0.  0.
    9900012    2    3    3    0    0 -0.21849636459E+02 -0.52151164481E+01  0.37135151472E+02  0.47787268119E+02  0.19999986660E+02 0.  0.
        -12    1    3    3    0    0  0.21849636459E+02  0.52151164481E+01 -0.37135151472E+02  0.43400731881E+02  0.00000000000E+00 0.  1.
         11    1    4    4    0    0 -0.13241920989E+02  0.30327946110E+01  0.15207459311E+02  0.20391496601E+02  0.51100000000E-03 0. -1.
        -11    1    4    4    0    0 -0.84888217881E+00 -0.11084538076E+01 -0.12869952290E+01  0.18988490666E+01  0.51100000000E-03 0.  1.
        -12    1    4    4    0    0 -0.77588332907E+01 -0.71394572515E+01  0.23214687390E+02  0.25496922451E+02  0.00000000000E+00 0.  1.
</event>
<event>
 8    1  0.2994958E-010  0.9118800E+02  0.7816164E-02  0.1184000E+00
        -11   -1    0    0    0    0  0.00000000000E+00  0.00000000000E+00  0.45593999997E+02  0.45594000000E+02  0.51100000000E-03 0. -1.
         11   -1    0    0    0    0 -0.00000000000E+00 -0.00000000000E+00 -0.45593999997E+02  0.45594000000E+02  0.51100000000E-03 0.  1.
         23    2    1    2    0    0  0.00000000000E+00  0.00000000000E+00 -0.71054273576E-14  0.91188000000E+02  0.91188000000E+02 0.  0.
    9900012    2    3    3    0    0  0.14579623696E+02 -0.10422518736E+02 -0.39527567236E+02  0.47787275403E+02  0.20000019872E+02 0.  0.
         12    1    3    3    0    0 -0.14579623696E+02  0.10422518736E+02  0.39527567236E+02  0.43400724597E+02  0.00000000000E+00 0. -1.
         11    1    4    4    0    0  0.84194200034E+00 -0.19326088008E+01 -0.90048044049E+01  0.92482617686E+01  0.51100000000E-03 0. -1.
        -11    1    4    4    0    0  0.14340286106E+02  0.25353785840E-01 -0.23287707306E+02  0.27348889562E+02  0.51100000000E-03 0.  1.
         12    1    4    4    0    0 -0.60260440990E+00 -0.85152637209E+01 -0.72350555251E+01  0.11190124073E+02  0.00000000000E+00 0. -1.
</event>
<event>
 8    1  0.2994958E-010  0.9118800E+02  0.7816164E-02  0.1184000E+00
        -11   -1    0    0    0    0  0.00000000000E+00  0.00000000000E+00  0.45593999997E+02  0.45594000000E+02  0.51100000000E-03 0. -1.
         11   -1    0    0    0    0 -0.00000000000E+00 -0.00000000000E+00 -0.45593999997E+02  0.45594000000E+02  0.51100000000E-03 0.  1.
         23    2    1    2    0    0  0.00000000000E+00  0.00000000000E+00  0.00000000000E+00  0.91188000000E+02  0.91188000000E+02 0.  0.
    9900012    2    3    3    0    0 -0.14322969764E+02  0.18647127824E+02  0.36479577618E+02  0.47787280857E+02  0.20000044740E+02 0.  0.
        -12    1    3    3    0    0  0.14322969764E+02 -0.18647127824E+02 -0.36479577618E+02  0.43400719143E+02  0.00000000000E+00 0.  1.
         11    1    4    4    0    0 -0.94606586140E+01  0.56580087038E+01  0.29242414830E+02  0.31251175166E+02  0.51100000000E-03 0. -1.
        -11    1    4    4    0    0  0.11278058610E+01  0.13601730745E+01  0.11491453881E+01  0.21077362826E+01  0.51100000000E-03 0.  1.
         12    1    4    4    0    0 -0.59901170112E+01  0.11628946046E+02  0.60880174000E+01  0.14428369409E+02  0.00000000000E+00 0. -1.
</event>
<event>
 8    1  0.2994958E-010  0.9118800E+02  0.7816164E-02  0.1184000E+00
        -11   -1    0    0    0    0  0.00000000000E+00  0.00000000000E+00  0.45593999997E+02  0.45594000000E+02  0.51100000000E-03 0. -1.
         11   -1    0    0    0    0 -0.00000000000E+00 -0.00000000000E+00 -0.45593999997E+02  0.45594000000E+02  0.51100000000E-03 0.  1.
         23    2    1    2    0    0 -0.17763568394E-14  0.00000000000E+00  0.00000000000E+00  0.91188000000E+02  0.91188000000E+02 0.  0.
    9900012    2    3    3    0    0 -0.10687653442E+02  0.61813609359E+01 -0.41607551035E+02  0.47787268874E+02  0.19999990106E+02 0.  0.
         12    1    3    3    0    0  0.10687653442E+02 -0.61813609359E+01  0.41607551035E+02  0.43400731126E+02  0.00000000000E+00 0. -1.
         11    1    4    4    0    0 -0.10360434811E+02  0.44719108571E+00 -0.11930889941E+02  0.15807742545E+02  0.51100000000E-03 0. -1.
        -11    1    4    4    0    0 -0.43885673675E+01  0.54168512821E+01 -0.12363824482E+02  0.14193870417E+02  0.51100000000E-03 0.  1.
        -12    1    4    4    0    0  0.40613487367E+01  0.31731856809E+00 -0.17312836612E+02  0.17785655912E+02  0.00000000000E+00 0.  1.
</event>
<event>
 8    1  0.2994958E-010  0.9118800E+02  0.7816164E-02  0.1184000E+00
        -11   -1    0    0    0    0  0.00000000000E+00  0.00000000000E+00  0.45593999997E+02  0.45594000000E+02  0.51100000000E-03 0. -1.
         11   -1    0    0    0    0 -0.00000000000E+00 -0.00000000000E+00 -0.45593999997E+02  0.45594000000E+02  0.51100000000E-03 0.  1.
         23    2    1    2    0    0 -0.17763568394E-14 -0.88817841970E-15 -0.71054273576E-14  0.91188000000E+02  0.91188000000E+02 0.  0.
    9900012    2    3    3    0    0 -0.15085160795E+02 -0.63951857978E+00  0.40689710124E+02  0.47787267631E+02  0.19999984436E+02 0.  0.
        -12    1    3    3    0    0  0.15085160795E+02  0.63951857978E+00 -0.40689710124E+02  0.43400732369E+02  0.00000000000E+00 0.  1.
         11    1    4    4    0    0 -0.34595869051E+01 -0.16258278259E+01  0.75382973521E+01  0.84520994376E+01  0.51100000000E-03 0. -1.
        -11    1    4    4    0    0  0.14216811998E+01 -0.44508981535E+01  0.18074173372E+02  0.18668353306E+02  0.51100000000E-03 0.  1.
         12    1    4    4    0    0 -0.13047255090E+02  0.54372073997E+01  0.15077239400E+02  0.20666814888E+02  0.00000000000E+00 0. -1.
</event>
<event>
 8    1  0.2994958E-010  0.9118800E+02  0.7816164E-02  0.1184000E+00
        -11   -1    0    0    0    0  0.00000000000E+00  0.00000000000E+00  0.45593999997E+02  0.45594000000E+02  0.51100000000E-03 0. -1.
         11   -1    0    0    0    0 -0.00000000000E+00 -0.00000000000E+00 -0.45593999997E+02  0.45594000000E+02  0.51100000000E-03 0.  1.
         23    2    1    2    0    0  0.00000000000E+00  0.00000000000E+00  0.00000000000E+00  0.91188000000E+02  0.91188000000E+02 0.  0.
    9900012    2    3    3    0    0 -0.11685565011E+02  0.55641463200E+00  0.41794266355E+02  0.47787277345E+02  0.20000028726E+02 0.  0.
        -12    1    3    3    0    0  0.11685565011E+02 -0.55641463200E+00 -0.41794266355E+02  0.43400722655E+02  0.00000000000E+00 0.  1.
         11    1    4    4    0    0 -0.10044026235E+02 -0.16547793623E+00  0.70179828183E+01  0.12254057657E+02  0.51100000000E-03 0.  1.
        -11    1    4    4    0    0 -0.40860293196E+01 -0.24842306032E+00  0.13849452992E+02  0.14441769215E+02  0.51100000000E-03 0. -1.
        -12    1    4    4    0    0  0.24444905436E+01  0.97031562856E+00  0.20926830544E+02  0.21091450473E+02  0.00000000000E+00 0.  1.
</event>
<event>
 8    1  0.2994958E-010  0.9118800E+02  0.7816164E-02  0.1184000E+00
        -11   -1    0    0    0    0  0.00000000000E+00  0.00000000000E+00  0.45593999997E+02  0.45594000000E+02  0.51100000000E-03 0. -1.
         11   -1    0    0    0    0 -0.00000000000E+00 -0.00000000000E+00 -0.45593999997E+02  0.45594000000E+02  0.51100000000E-03 0.  1.
         23    2    1    2    0    0  0.00000000000E+00  0.00000000000E+00  0.00000000000E+00  0.91188000000E+02  0.91188000000E+02 0.  0.
    9900012    2    3    3    0    0  0.17187110218E+02 -0.25878026261E+02 -0.30307658693E+02  0.47787272169E+02  0.20000005126E+02 0.  0.
         12    1    3    3    0    0 -0.17187110218E+02  0.25878026261E+02  0.30307658693E+02  0.43400727831E+02  0.00000000000E+00 0. -1.
         11    1    4    4    0    0  0.81603782514E+01 -0.18476767234E+02 -0.13418121778E+02  0.24249302937E+02  0.51100000000E-03 0. -1.
        -11    1    4    4    0    0  0.51528437915E+00 -0.69870377323E+01 -0.11465719246E+02  0.13436775371E+02  0.51100000000E-03 0.  1.
        -12    1    4    4    0    0  0.85114475877E+01 -0.41422129535E+00 -0.54238176686E+01  0.10101193861E+02  0.00000000000E+00 0.  1.
</event>
<event>
 8    1  0.2994958E-010  0.9118800E+02  0.7816164E-02  0.1184000E+00
        -11   -1    0    0    0    0  0.00000000000E+00  0.00000000000E+00  0.45593999997E+02  0.45594000000E+02  0.51100000000E-03 0.  1.
         11   -1    0    0    0    0 -0.00000000000E+00 -0.00000000000E+00 -0.45593999997E+02  0.45594000000E+02  0.51100000000E-03 0. -1.
         23    2    1    2    0    0  0.00000000000E+00  0.00000000000E+00 -0.17763568394E-14  0.91188000000E+02  0.91188000000E+02 0.  0.
    9900012    2    3    3    0    0  0.20569339934E+02 -0.37102954674E+02 -0.91594796677E+01  0.47787273523E+02  0.20000011303E+02 0.  0.
         12    1    3    3    0    0 -0.20569339934E+02  0.37102954674E+02  0.91594796677E+01  0.43400726477E+02  0.00000000000E+00 0. -1.
         11    1    4    4    0    0  0.57133705182E+01 -0.18503266930E+01 -0.52200995422E+00  0.60281677318E+01  0.51100000000E-03 0. -1.
        -11    1    4    4    0    0 -0.19538654438E+01 -0.37384725024E+01  0.17429020106E+01  0.45641510167E+01  0.51100000000E-03 0.  1.
        -12    1    4    4    0    0  0.16809834860E+02 -0.31514155479E+02 -0.10380371724E+02  0.37194954775E+02  0.00000000000E+00 0.  1.
</event>
<event>
 8    1 -0.2994958E-010  0.9118800E+02  0.7816164E-02  0.1184000E+00
        -11   -1    0    0    0    0  0.00000000000E+00  0.00000000000E+00  0.45593999997E+02  0.45594000000E+02  0.51100000000E-03 0.  1.
         11   -1    0    0    0    0 -0.00000000000E+00 -0.00000000000E+00 -0.45593999997E+02  0.45594000000E+02  0.51100000000E-03 0. -1.
         23    2    1    2    0    0 -0.22204460493E-15  0.00000000000E+00 -0.35527136788E-14  0.91188000000E+02  0.91188000000E+02 0.  0.
    9900012    2    3    3    0    0  0.13968891015E+01 -0.29791908784E+02 -0.31529571478E+02  0.47787274133E+02  0.20000014083E+02 0.  0.
         12    1    3    3    0    0 -0.13968891015E+01  0.29791908784E+02  0.31529571478E+02  0.43400725867E+02  0.00000000000E+00 0. -1.
         11    1    4    4    0    0 -0.64373196501E+01 -0.13916319144E+02 -0.95177371287E+01  0.18046892893E+02  0.51100000000E-03 0. -1.
        -11    1    4    4    0    0  0.57329743917E+00  0.12289542257E+01 -0.21461840713E+01  0.25387210898E+01  0.51100000000E-03 0.  1.
         12    1    4    4    0    0  0.72609113125E+01 -0.17104543866E+02 -0.19865650278E+02  0.27201660150E+02  0.00000000000E+00 0. -1.
</event>
<event>
 8    1  0.2994958E-010  0.9118800E+02  0.7816164E-02  0.1184000E+00
        -11   -1    0    0    0    0  0.00000000000E+00  0.00000000000E+00  0.45593999997E+02  0.45594000000E+02  0.51100000000E-03 0. -1.
         11   -1    0    0    0    0 -0.00000000000E+00 -0.00000000000E+00 -0.45593999997E+02  0.45594000000E+02  0.51100000000E-03 0.  1.
         23    2    1    2    0    0 -0.35527136788E-14  0.00000000000E+00  0.00000000000E+00  0.91188000000E+02  0.91188000000E+02 0.  0.
    9900012    2    3    3    0    0 -0.22383678716E+02 -0.25081821616E+02  0.27449889481E+02  0.47787270963E+02  0.19999999630E+02 0.  0.
        -12    1    3    3    0    0  0.22383678716E+02  0.25081821616E+02 -0.27449889481E+02  0.43400729037E+02  0.00000000000E+00 0.  1.
         11    1    4    4    0    0 -0.24227071422E+01 -0.72111340000E+01  0.55475465986E+01  0.94151599555E+01  0.51100000000E-03 0. -1.
        -11    1    4    4    0    0  0.26823611890E+01 -0.36264509187E+01  0.15879330691E+01  0.47820225331E+01  0.51100000000E-03 0.  1.
         12    1    4    4    0    0 -0.22643332762E+02 -0.14244236697E+02  0.20314409813E+02  0.33590088475E+02  0.00000000000E+00 0. -1.
</event>
<event>
 8    1  0.2994958E-010  0.9118800E+02  0.7816164E-02  0.1184000E+00
        -11   -1    0    0    0    0  0.00000000000E+00  0.00000000000E+00  0.45593999997E+02  0.45594000000E+02  0.51100000000E-03 0. -1.
         11   -1    0    0    0    0 -0.00000000000E+00 -0.00000000000E+00 -0.45593999997E+02  0.45594000000E+02  0.51100000000E-03 0.  1.
         23    2    1    2    0    0  0.00000000000E+00 -0.44408920985E-15  0.71054273576E-14  0.91188000000E+02  0.91188000000E+02 0.  0.
    9900012    2    3    3    0    0 -0.10473226233E+02  0.35822797565E+01  0.41965475784E+02  0.47787281645E+02  0.20000048331E+02 0.  0.
        -12    1    3    3    0    0  0.10473226233E+02 -0.35822797565E+01 -0.41965475784E+02  0.43400718355E+02  0.00000000000E+00 0.  1.
         11    1    4    4    0    0 -0.43635562017E+01  0.49744196511E+01  0.96719597159E+01  0.11718885553E+02  0.51100000000E-03 0. -1.
        -11    1    4    4    0    0 -0.18680589260E+01  0.52088567749E+01  0.24087024077E+02  0.24714501051E+02  0.51100000000E-03 0.  1.
         12    1    4    4    0    0 -0.42416111058E+01 -0.66009966695E+01  0.82064919909E+01  0.11353895041E+02  0.00000000000E+00 0. -1.
</event>
<event>
 8    1  0.2994958E-010  0.9118800E+02  0.7816164E-02  0.1184000E+00
        -11   -1    0    0    0    0  0.00000000000E+00  0.00000000000E+00  0.45593999997E+02  0.45594000000E+02  0.51100000000E-03 0. -1.
         11   -1    0    0    0    0 -0.00000000000E+00 -0.00000000000E+00 -0.45593999997E+02  0.45594000000E+02  0.51100000000E-03 0.  1.
         23    2    1    2    0    0 -0.35527136788E-14 -0.66613381478E-15  0.00000000000E+00  0.91188000000E+02  0.91188000000E+02 0.  0.
    9900012    2    3    3    0    0 -0.27649005525E+02 -0.79511043016E+00 -0.33444323550E+02  0.47787280134E+02  0.20000041444E+02 0.  0.
         12    1    3    3    0    0  0.27649005525E+02  0.79511043016E+00  0.33444323550E+02  0.43400719866E+02  0.00000000000E+00 0. -1.
         11    1    4    4    0    0 -0.57712347849E+01  0.48718599272E+01 -0.19600672025E+02  0.21005440110E+02  0.51100000000E-03 0. -1.
        -11    1    4    4    0    0 -0.69564131892E+01 -0.18576655279E+01 -0.65837414521E+01  0.97564469681E+01  0.51100000000E-03 0.  1.
         12    1    4    4    0    0 -0.14921357551E+02 -0.38093048295E+01 -0.72599100726E+01  0.17025393056E+02  0.00000000000E+00 0. -1.
</event>
<event>
 8    1  0.2994958E-010  0.9118800E+02  0.7816164E-02  0.1184000E+00
        -11   -1    0    0    0    0  0.00000000000E+00  0.00000000000E+00  0.45593999997E+02  0.45594000000E+02  0.51100000000E-03 0. -1.
         11   -1    0    0    0    0 -0.00000000000E+00 -0.00000000000E+00 -0.45593999997E+02  0.45594000000E+02  0.51100000000E-03 0.  1.
         23    2    1    2    0    0  0.00000000000E+00  0.00000000000E+00  0.00000000000E+00  0.91188000000E+02  0.91188000000E+02 0.  0.
    9900012    2    3    3    0    0 -0.10501871641E+02 -0.22759184708E+02 -0.35430965355E+02  0.47787273018E+02  0.20000008999E+02 0.  0.
         12    1    3    3    0    0  0.10501871641E+02  0.22759184708E+02  0.35430965355E+02  0.43400726982E+02  0.00000000000E+00 0. -1.
         11    1    4    4    0    0  0.43164573796E+01 -0.16123180868E+01 -0.37283075643E+01  0.59271959203E+01  0.51100000000E-03 0. -1.
        -11    1    4    4    0    0 -0.21639676005E+01 -0.78320236835E+01 -0.53184597797E+01  0.97113009141E+01  0.51100000000E-03 0.  1.
        -12    1    4    4    0    0 -0.12654361420E+02 -0.13314842938E+02 -0.26384198011E+02  0.32148776184E+02  0.00000000000E+00 0.  1.
</event>
<event>
 8    1  0.2994958E-010  0.9118800E+02  0.7816164E-02  0.1184000E+00
        -11   -1    0    0    0    0  0.00000000000E+00  0.00000000000E+00  0.45593999997E+02  0.45594000000E+02  0.51100000000E-03 0. -1.
         11   -1    0    0    0    0 -0.00000000000E+00 -0.00000000000E+00 -0.45593999997E+02  0.45594000000E+02  0.51100000000E-03 0.  1.
         23    2    1    2    0    0  0.00000000000E+00  0.00000000000E+00  0.00000000000E+00  0.91188000000E+02  0.91188000000E+02 0.  0.
    9900012    2    3    3    0    0 -0.18922582257E+02 -0.16203606111E+02  0.35538746016E+02  0.47787269146E+02  0.19999991346E+02 0.  0.
        -12    1    3    3    0    0  0.18922582257E+02  0.16203606111E+02 -0.35538746016E+02  0.43400730854E+02  0.00000000000E+00 0.  1.
         11    1    4    4    0    0 -0.81707627909E+01 -0.11036451210E+02  0.15028302536E+02  0.20357173116E+02  0.51100000000E-03 0. -1.
        -11    1    4    4    0    0 -0.54369217733E+01  0.17694245064E+01  0.67787461051E+00  0.57576467156E+01  0.51100000000E-03 0.  1.
        -12    1    4    4    0    0 -0.53148976926E+01 -0.69365794072E+01  0.19832568869E+02  0.21672449315E+02  0.00000000000E+00 0.  1.
</event>
<event>
 8    1  0.2994958E-010  0.9118800E+02  0.7816164E-02  0.1184000E+00
        -11   -1    0    0    0    0  0.00000000000E+00  0.00000000000E+00  0.45593999997E+02  0.45594000000E+02  0.51100000000E-03 0. -1.
         11   -1    0    0    0    0 -0.00000000000E+00 -0.00000000000E+00 -0.45593999997E+02  0.45594000000E+02  0.51100000000E-03 0.  1.
         23    2    1    2    0    0 -0.11102230246E-15  0.00000000000E+00  0.00000000000E+00  0.91188000000E+02  0.91188000000E+02 0.  0.
    9900012    2    3    3    0    0 -0.60013447299E+00  0.16892656653E+02  0.39973720818E+02  0.47787304542E+02  0.20000152729E+02 0.  0.
        -12    1    3    3    0    0  0.60013447299E+00 -0.16892656653E+02 -0.39973720818E+02  0.43400695458E+02  0.00000000000E+00 0.  1.
         11    1    4    4    0    0 -0.20494287717E+01 -0.20833222931E+01  0.11703505103E+02  0.12062852981E+02  0.51100000000E-03 0. -1.
        -11    1    4    4    0    0 -0.19992273476E+00  0.77158127028E+01  0.20605637197E+02  0.22003772842E+02  0.51100000000E-03 0.  1.
        -12    1    4    4    0    0  0.16492170334E+01  0.11260166243E+02  0.76645785183E+01  0.13720678719E+02  0.00000000000E+00 0.  1.
</event>
<event>
 8    1  0.2994958E-010  0.9118800E+02  0.7816164E-02  0.1184000E+00
        -11   -1    0    0    0    0  0.00000000000E+00  0.00000000000E+00  0.45593999997E+02  0.45594000000E+02  0.51100000000E-03 0. -1.
         11   -1    0    0    0    0 -0.00000000000E+00 -0.00000000000E+00 -0.45593999997E+02  0.45594000000E+02  0.51100000000E-03 0.  1.
         23    2    1    2    0    0  0.17763568394E-14  0.00000000000E+00  0.00000000000E+00  0.91188000000E+02  0.91188000000E+02 0.  0.
    9900012    2    3    3    0    0  0.80819388168E+01 -0.12665793117E+02  0.40717118011E+02  0.47787265566E+02  0.19999975021E+02 0.  0.
        -12    1    3    3    0    0 -0.80819388168E+01  0.12665793117E+02 -0.40717118011E+02  0.43400734434E+02  0.00000000000E+00 0.  1.
         11    1    4    4    0    0  0.53842576591E+01 -0.20374263865E+00  0.21097724094E+02  0.21774886999E+02  0.51100000000E-03 0. -1.
        -11    1    4    4    0    0  0.55266257282E+01 -0.55766157842E+01  0.15805898557E+02  0.17648474864E+02  0.51100000000E-03 0.  1.
        -12    1    4    4    0    0 -0.28289445705E+01 -0.68854346940E+01  0.38134953594E+01  0.83639037037E+01  0.00000000000E+00 0.  1.
</event>
<event>
 8    1  0.2994958E-010  0.9118800E+02  0.7816164E-02  0.1184000E+00
        -11   -1    0    0    0    0  0.00000000000E+00  0.00000000000E+00  0.45593999997E+02  0.45594000000E+02  0.51100000000E-03 0. -1.
         11   -1    0    0    0    0 -0.00000000000E+00 -0.00000000000E+00 -0.45593999997E+02  0.45594000000E+02  0.51100000000E-03 0.  1.
         23    2    1    2    0    0  0.35527136788E-14  0.00000000000E+00  0.71054273576E-14  0.91188000000E+02  0.91188000000E+02 0.  0.
    9900012    2    3    3    0    0 -0.21766267095E+02  0.13900348079E+02 -0.34880268217E+02  0.47787272231E+02  0.20000005410E+02 0.  0.
         12    1    3    3    0    0  0.21766267095E+02 -0.13900348079E+02  0.34880268217E+02  0.43400727769E+02  0.00000000000E+00 0. -1.
         11    1    4    4    0    0 -0.22978922370E+01  0.24612333191E+00 -0.10193003630E+02  0.10451708410E+02  0.51100000000E-03 0. -1.
        -11    1    4    4    0    0 -0.90146509191E+01  0.14071786592E+02 -0.19425731760E+02  0.25624951976E+02  0.51100000000E-03 0.  1.
         12    1    4    4    0    0 -0.10453723939E+02 -0.41756184552E+00 -0.52615328272E+01  0.11710611845E+02  0.00000000000E+00 0. -1.
</event>
<event>
 8    1  0.2994958E-010  0.9118800E+02  0.7816164E-02  0.1184000E+00
        -11   -1    0    0    0    0  0.00000000000E+00  0.00000000000E+00  0.45593999997E+02  0.45594000000E+02  0.51100000000E-03 0. -1.
         11   -1    0    0    0    0 -0.00000000000E+00 -0.00000000000E+00 -0.45593999997E+02  0.45594000000E+02  0.51100000000E-03 0.  1.
         23    2    1    2    0    0  0.00000000000E+00  0.35527136788E-14  0.00000000000E+00  0.91188000000E+02  0.91188000000E+02 0.  0.
    9900012    2    3    3    0    0  0.22837714603E+02  0.23841695505E+02 -0.28171532136E+02  0.47787275632E+02  0.20000020915E+02 0.  0.
         12    1    3    3    0    0 -0.22837714603E+02 -0.23841695505E+02  0.28171532136E+02  0.43400724368E+02  0.00000000000E+00 0. -1.
         11    1    4    4    0    0 -0.31042397957E+00  0.53081025008E+01 -0.57989212288E+00  0.53486998739E+01  0.51100000000E-03 0. -1.
        -11    1    4    4    0    0  0.14951705804E+02  0.98681174731E+01 -0.82689607855E+01  0.19730913857E+02  0.51100000000E-03 0.  1.
         12    1    4    4    0    0  0.81964327786E+01  0.86654755309E+01 -0.19322679227E+02  0.22707661900E+02  0.00000000000E+00 0. -1.
</event>
<event>
 8    1  0.2994958E-010  0.9118800E+02  0.7816164E-02  0.1184000E+00
        -11   -1    0    0    0    0  0.00000000000E+00  0.00000000000E+00  0.45593999997E+02  0.45594000000E+02  0.51100000000E-03 0. -1.
         11   -1    0    0    0    0 -0.00000000000E+00 -0.00000000000E+00 -0.45593999997E+02  0.45594000000E+02  0.51100000000E-03 0.  1.
         23    2    1    2    0    0  0.00000000000E+00  0.00000000000E+00  0.17763568394E-14  0.91188000000E+02  0.91188000000E+02 0.  0.
    9900012    2    3    3    0    0  0.26354782098E+02  0.30588633122E+02 -0.15918051532E+02  0.47787269819E+02  0.19999994414E+02 0.  0.
         12    1    3    3    0    0 -0.26354782098E+02 -0.30588633122E+02  0.15918051532E+02  0.43400730181E+02  0.00000000000E+00 0. -1.
         11    1    4    4    0    0  0.16352974280E+02  0.23900376858E+02 -0.13784261249E+02  0.32072630703E+02  0.51100000000E-03 0.  1.
        -11    1    4    4    0    0  0.68509645060E+01  0.67428240108E+01  0.26636224538E+01  0.99747819595E+01  0.51100000000E-03 0. -1.
        -12    1    4    4    0    0  0.31508433120E+01 -0.54567747488E-01 -0.47974127367E+01  0.57398571570E+01  0.00000000000E+00 0.  1.
</event>
<event>
 8    1  0.2994958E-010  0.9118800E+02  0.7816164E-02  0.1184000E+00
        -11   -1    0    0    0    0  0.00000000000E+00  0.00000000000E+00  0.45593999997E+02  0.45594000000E+02  0.51100000000E-03 0.  1.
         11   -1    0    0    0    0 -0.00000000000E+00 -0.00000000000E+00 -0.45593999997E+02  0.45594000000E+02  0.51100000000E-03 0. -1.
         23    2    1    2    0    0 -0.71054273576E-14 -0.17763568394E-14  0.00000000000E+00  0.91188000000E+02  0.91188000000E+02 0.  0.
    9900012    2    3    3    0    0  0.36611368910E+02  0.11421042316E+02 -0.20317252500E+02  0.47787270856E+02  0.19999999143E+02 0.  0.
         12    1    3    3    0    0 -0.36611368910E+02 -0.11421042316E+02  0.20317252500E+02  0.43400729144E+02  0.00000000000E+00 0. -1.
         11    1    4    4    0    0  0.16158762629E+02  0.22972799346E+01 -0.35409353875E+01  0.16700937952E+02  0.51100000000E-03 0. -1.
        -11    1    4    4    0    0  0.21961286760E+02  0.96303506768E+01 -0.13686908359E+02  0.27611107023E+02  0.51100000000E-03 0.  1.
         12    1    4    4    0    0 -0.15086804788E+01 -0.50658829504E+00 -0.30894087528E+01  0.34752258818E+01  0.00000000000E+00 0. -1.
</event>
<event>
 8    1  0.2994958E-010  0.9118800E+02  0.7816164E-02  0.1184000E+00
        -11   -1    0    0    0    0  0.00000000000E+00  0.00000000000E+00  0.45593999997E+02  0.45594000000E+02  0.51100000000E-03 0. -1.
         11   -1    0    0    0    0 -0.00000000000E+00 -0.00000000000E+00 -0.45593999997E+02  0.45594000000E+02  0.51100000000E-03 0.  1.
         23    2    1    2    0    0  0.00000000000E+00  0.71054273576E-14  0.00000000000E+00  0.91188000000E+02  0.91188000000E+02 0.  0.
    9900012    2    3    3    0    0  0.98366324555E+01  0.40445260095E+02  0.12290014618E+02  0.47787275794E+02  0.20000021657E+02 0.  0.
        -12    1    3    3    0    0 -0.98366324555E+01 -0.40445260095E+02 -0.12290014618E+02  0.43400724206E+02  0.00000000000E+00 0.  1.
         11    1    4    4    0    0  0.50481617378E+01  0.16180843958E+02  0.88043131038E+01  0.19100250721E+02  0.51100000000E-03 0. -1.
        -11    1    4    4    0    0  0.52380407940E+01  0.13752774399E+02  0.85397891006E+01  0.17014813345E+02  0.51100000000E-03 0.  1.
        -12    1    4    4    0    0 -0.44957007627E+00  0.10511641738E+02 -0.50540875860E+01  0.11672211728E+02  0.00000000000E+00 0.  1.
</event>
<event>
 8    1  0.2994958E-010  0.9118800E+02  0.7816164E-02  0.1184000E+00
        -11   -1    0    0    0    0  0.00000000000E+00  0.00000000000E+00  0.45593999997E+02  0.45594000000E+02  0.51100000000E-03 0. -1.
         11   -1    0    0    0    0 -0.00000000000E+00 -0.00000000000E+00 -0.45593999997E+02  0.45594000000E+02  0.51100000000E-03 0.  1.
         23    2    1    2    0    0  0.00000000000E+00  0.00000000000E+00  0.00000000000E+00  0.91188000000E+02  0.91188000000E+02 0.  0.
    9900012    2    3    3    0    0 -0.16614650569E+02  0.34737549592E+02  0.20021971758E+02  0.47787270533E+02  0.19999997669E+02 0.  0.
        -12    1    3    3    0    0  0.16614650569E+02 -0.34737549592E+02 -0.20021971758E+02  0.43400729467E+02  0.00000000000E+00 0.  1.
         11    1    4    4    0    0 -0.14161221102E+02  0.19323215348E+02  0.17083696855E+02  0.29424131813E+02  0.51100000000E-03 0. -1.
        -11    1    4    4    0    0 -0.51378954852E+01  0.13035263564E+02  0.40896110330E+01  0.14595923570E+02  0.51100000000E-03 0.  1.
        -12    1    4    4    0    0  0.26844660177E+01  0.23790706801E+01 -0.11513361301E+01  0.37672151499E+01  0.00000000000E+00 0.  1.
</event>
<event>
 8    1  0.2994958E-010  0.9118800E+02  0.7816164E-02  0.1184000E+00
        -11   -1    0    0    0    0  0.00000000000E+00  0.00000000000E+00  0.45593999997E+02  0.45594000000E+02  0.51100000000E-03 0. -1.
         11   -1    0    0    0    0 -0.00000000000E+00 -0.00000000000E+00 -0.45593999997E+02  0.45594000000E+02  0.51100000000E-03 0.  1.
         23    2    1    2    0    0  0.00000000000E+00  0.00000000000E+00  0.35527136788E-14  0.91188000000E+02  0.91188000000E+02 0.  0.
    9900012    2    3    3    0    0 -0.34513723005E+02  0.60534967018E+01  0.25608236411E+02  0.47787266480E+02  0.19999979190E+02 0.  0.
        -12    1    3    3    0    0  0.34513723005E+02 -0.60534967018E+01 -0.25608236411E+02  0.43400733520E+02  0.00000000000E+00 0.  1.
         11    1    4    4    0    0 -0.28568238833E+02  0.11312668886E+01  0.18275979026E+02  0.33932807789E+02  0.51100000000E-03 0. -1.
        -11    1    4    4    0    0 -0.54614637016E+01  0.21289388637E+01 -0.13905326954E+00  0.58633866086E+01  0.51100000000E-03 0.  1.
        -12    1    4    4    0    0 -0.48402047036E+00  0.27932909495E+01  0.74713106544E+01  0.79910720832E+01  0.00000000000E+00 0.  1.
</event>
<event>
 8    1  0.2994958E-010  0.9118800E+02  0.7816164E-02  0.1184000E+00
        -11   -1    0    0    0    0  0.00000000000E+00  0.00000000000E+00  0.45593999997E+02  0.45594000000E+02  0.51100000000E-03 0. -1.
         11   -1    0    0    0    0 -0.00000000000E+00 -0.00000000000E+00 -0.45593999997E+02  0.45594000000E+02  0.51100000000E-03 0.  1.
         23    2    1    2    0    0 -0.11102230246E-15  0.00000000000E+00  0.00000000000E+00  0.91188000000E+02  0.91188000000E+02 0.  0.
    9900012    2    3    3    0    0  0.77058782130E+00  0.17264993984E+01 -0.43359525601E+02  0.47787273438E+02  0.20000010912E+02 0.  0.
         12    1    3    3    0    0 -0.77058782130E+00 -0.17264993984E+01  0.43359525601E+02  0.43400726562E+02  0.00000000000E+00 0. -1.
         11    1    4    4    0    0  0.73054820087E+01  0.19437179334E+00 -0.16119808423E+02  0.17699041545E+02  0.51100000000E-03 0. -1.
        -11    1    4    4    0    0 -0.66720054129E+00 -0.25776710224E+01 -0.18932102435E+02  0.19118421675E+02  0.51100000000E-03 0.  1.
         12    1    4    4    0    0 -0.58676936461E+01  0.41097986274E+01 -0.83076147432E+01  0.10969810217E+02  0.00000000000E+00 0. -1.
</event>
<event>
 8    1  0.2994958E-010  0.9118800E+02  0.7816164E-02  0.1184000E+00
        -11   -1    0    0    0    0  0.00000000000E+00  0.00000000000E+00  0.45593999997E+02  0.45594000000E+02  0.51100000000E-03 0. -1.
         11   -1    0    0    0    0 -0.00000000000E+00 -0.00000000000E+00 -0.45593999997E+02  0.45594000000E+02  0.51100000000E-03 0.  1.
         23    2    1    2    0    0  0.00000000000E+00  0.00000000000E+00  0.00000000000E+00  0.91188000000E+02  0.91188000000E+02 0.  0.
    9900012    2    3    3    0    0  0.21724107682E+02 -0.20578453025E+02  0.31435875355E+02  0.47787264490E+02  0.19999970114E+02 0.  0.
        -12    1    3    3    0    0 -0.21724107682E+02  0.20578453025E+02 -0.31435875355E+02  0.43400735510E+02  0.00000000000E+00 0.  1.
         11    1    4    4    0    0 -0.34584246178E+01 -0.31555077222E+01  0.40161290564E+01  0.61682430789E+01  0.51100000000E-03 0. -1.
        -11    1    4    4    0    0  0.13676509108E+01  0.50798063961E+00  0.86348477366E+00  0.16953228481E+01  0.51100000000E-03 0.  1.
        -12    1    4    4    0    0  0.23814881389E+02 -0.17930925943E+02  0.26556261525E+02  0.39923698563E+02  0.00000000000E+00 0.  1.
</event>
<event>
 8    1  0.2994958E-010  0.9118800E+02  0.7816164E-02  0.1184000E+00
        -11   -1    0    0    0    0  0.00000000000E+00  0.00000000000E+00  0.45593999997E+02  0.45594000000E+02  0.51100000000E-03 0. -1.
         11   -1    0    0    0    0 -0.00000000000E+00 -0.00000000000E+00 -0.45593999997E+02  0.45594000000E+02  0.51100000000E-03 0.  1.
         23    2    1    2    0    0  0.00000000000E+00  0.00000000000E+00  0.00000000000E+00  0.91188000000E+02  0.91188000000E+02 0.  0.
    9900012    2    3    3    0    0  0.13162245516E+02 -0.38816598840E+02  0.14270608629E+02  0.47787270476E+02  0.19999997410E+02 0.  0.
        -12    1    3    3    0    0 -0.13162245516E+02  0.38816598840E+02 -0.14270608629E+02  0.43400729524E+02  0.00000000000E+00 0.  1.
         11    1    4    4    0    0  0.41193852329E+01 -0.15596461628E+02 -0.15964996657E+01  0.16210112938E+02  0.51100000000E-03 0. -1.
        -11    1    4    4    0    0  0.20012788624E+00  0.11508684400E+01  0.16123837010E+01  0.19910627307E+01  0.51100000000E-03 0.  1.
         12    1    4    4    0    0  0.88427323965E+01 -0.24371005652E+02  0.14254724594E+02  0.29586094808E+02  0.00000000000E+00 0. -1.
</event>
<event>
 8    1  0.2994958E-010  0.9118800E+02  0.7816164E-02  0.1184000E+00
        -11   -1    0    0    0    0  0.00000000000E+00  0.00000000000E+00  0.45593999997E+02  0.45594000000E+02  0.51100000000E-03 0. -1.
         11   -1    0    0    0    0 -0.00000000000E+00 -0.00000000000E+00 -0.45593999997E+02  0.45594000000E+02  0.51100000000E-03 0.  1.
         23    2    1    2    0    0 -0.88817841970E-15  0.00000000000E+00  0.00000000000E+00  0.91188000000E+02  0.91188000000E+02 0.  0.
    9900012    2    3    3    0    0  0.41099178734E+01 -0.33278773865E+02  0.27554573103E+02  0.47787277497E+02  0.20000029420E+02 0.  0.
        -12    1    3    3    0    0 -0.41099178734E+01  0.33278773865E+02 -0.27554573103E+02  0.43400722503E+02  0.00000000000E+00 0.  1.
         11    1    4    4    0    0  0.45460312769E+01 -0.68414528516E+01  0.58378252450E+01  0.10077305262E+02  0.51100000000E-03 0. -1.
        -11    1    4    4    0    0  0.63009324036E+01 -0.89277687590E+01  0.32866523921E+01  0.11410910935E+02  0.51100000000E-03 0.  1.
         12    1    4    4    0    0 -0.67370458070E+01 -0.17509552255E+02  0.18430095466E+02  0.26299061300E+02  0.00000000000E+00 0. -1.
</event>
<event>
 8    1  0.2994958E-010  0.9118800E+02  0.7816164E-02  0.1184000E+00
        -11   -1    0    0    0    0  0.00000000000E+00  0.00000000000E+00  0.45593999997E+02  0.45594000000E+02  0.51100000000E-03 0. -1.
         11   -1    0    0    0    0 -0.00000000000E+00 -0.00000000000E+00 -0.45593999997E+02  0.45594000000E+02  0.51100000000E-03 0.  1.
         23    2    1    2    0    0  0.35527136788E-14  0.00000000000E+00 -0.35527136788E-14  0.91188000000E+02  0.91188000000E+02 0.  0.
    9900012    2    3    3    0    0  0.25473041916E+02 -0.28447273437E+02 -0.20627649044E+02  0.47787272638E+02  0.20000007265E+02 0.  0.
         12    1    3    3    0    0 -0.25473041916E+02  0.28447273437E+02  0.20627649044E+02  0.43400727362E+02  0.00000000000E+00 0. -1.
         11    1    4    4    0    0  0.11358626411E+02 -0.24997664283E+02 -0.91668444626E+01  0.28947066366E+02  0.51100000000E-03 0. -1.
        -11    1    4    4    0    0  0.58956231139E+00 -0.34960320083E+00 -0.18182415353E+01  0.19431440139E+01  0.51100000000E-03 0.  1.
        -12    1    4    4    0    0  0.13524853194E+02 -0.31000059532E+01 -0.96425630462E+01  0.16897062257E+02  0.00000000000E+00 0.  1.
</event>
<event>
 8    1  0.2994958E-010  0.9118800E+02  0.7816164E-02  0.1184000E+00
        -11   -1    0    0    0    0  0.00000000000E+00  0.00000000000E+00  0.45593999997E+02  0.45594000000E+02  0.51100000000E-03 0. -1.
         11   -1    0    0    0    0 -0.00000000000E+00 -0.00000000000E+00 -0.45593999997E+02  0.45594000000E+02  0.51100000000E-03 0.  1.
         23    2    1    2    0    0 -0.35527136788E-14 -0.35527136788E-14  0.00000000000E+00  0.91188000000E+02  0.91188000000E+02 0.  0.
    9900012    2    3    3    0    0 -0.26224621554E+02 -0.25572946961E+02 -0.23279073778E+02  0.47787289546E+02  0.20000084357E+02 0.  0.
         12    1    3    3    0    0  0.26224621554E+02  0.25572946961E+02  0.23279073778E+02  0.43400710454E+02  0.00000000000E+00 0. -1.
         11    1    4    4    0    0 -0.26303449236E+02 -0.16910043577E+02 -0.19227287718E+02  0.36708440565E+02  0.51100000000E-03 0. -1.
        -11    1    4    4    0    0  0.16380376443E+01 -0.11063630675E+01  0.60445768789E+00  0.20670210253E+01  0.51100000000E-03 0.  1.
        -12    1    4    4    0    0 -0.15592099627E+01 -0.75565403165E+01 -0.46562437486E+01  0.90118279561E+01  0.00000000000E+00 0.  1.
</event>
<event>
 8    1  0.2994958E-010  0.9118800E+02  0.7816164E-02  0.1184000E+00
        -11   -1    0    0    0    0  0.00000000000E+00  0.00000000000E+00  0.45593999997E+02  0.45594000000E+02  0.51100000000E-03 0. -1.
         11   -1    0    0    0    0 -0.00000000000E+00 -0.00000000000E+00 -0.45593999997E+02  0.45594000000E+02  0.51100000000E-03 0.  1.
         23    2    1    2    0    0  0.00000000000E+00  0.00000000000E+00 -0.17763568394E-14  0.91188000000E+02  0.91188000000E+02 0.  0.
    9900012    2    3    3    0    0  0.41926183099E+02  0.26996526191E+01  0.10887172886E+02  0.47787268590E+02  0.19999988808E+02 0.  0.
        -12    1    3    3    0    0 -0.41926183099E+02 -0.26996526191E+01 -0.10887172886E+02  0.43400731410E+02  0.00000000000E+00 0.  1.
         11    1    4    4    0    0  0.22228708931E+02  0.20033975400E+01  0.12364199482E+02  0.25514751254E+02  0.51100000000E-03 0. -1.
        -11    1    4    4    0    0  0.10709144176E+02  0.43438339499E+01  0.24398169201E+01  0.11811323772E+02  0.51100000000E-03 0.  1.
        -12    1    4    4    0    0  0.89883299913E+01 -0.36475788708E+01 -0.39168435166E+01  0.10461193564E+02  0.00000000000E+00 0.  1.
</event>
<event>
 8    1  0.2994958E-010  0.9118800E+02  0.7816164E-02  0.1184000E+00
        -11   -1    0    0    0    0  0.00000000000E+00  0.00000000000E+00  0.45593999997E+02  0.45594000000E+02  0.51100000000E-03 0. -1.
         11   -1    0    0    0    0 -0.00000000000E+00 -0.00000000000E+00 -0.45593999997E+02  0.45594000000E+02  0.51100000000E-03 0.  1.
         23    2    1    2    0    0 -0.71054273576E-14  0.00000000000E+00  0.00000000000E+00  0.91188000000E+02  0.91188000000E+02 0.  0.
    9900012    2    3    3    0    0 -0.40389746735E+02  0.64360434796E+01 -0.14521324872E+02  0.47787272206E+02  0.20000005297E+02 0.  0.
         12    1    3    3    0    0  0.40389746735E+02 -0.64360434796E+01  0.14521324872E+02  0.43400727794E+02  0.00000000000E+00 0. -1.
         11    1    4    4    0    0 -0.33833656925E+02  0.12477294125E+01 -0.44690663827E+01  0.34150340031E+02  0.51100000000E-03 0. -1.
        -11    1    4    4    0    0 -0.14842609078E+01 -0.48477768649E+00 -0.22450139374E+01  0.27346165523E+01  0.51100000000E-03 0.  1.
         12    1    4    4    0    0 -0.50718289020E+01  0.56730917535E+01 -0.78072445521E+01  0.10902315623E+02  0.00000000000E+00 0. -1.
</event>
<event>
 8    1  0.2994958E-010  0.9118800E+02  0.7816164E-02  0.1184000E+00
        -11   -1    0    0    0    0  0.00000000000E+00  0.00000000000E+00  0.45593999997E+02  0.45594000000E+02  0.51100000000E-03 0. -1.
         11   -1    0    0    0    0 -0.00000000000E+00 -0.00000000000E+00 -0.45593999997E+02  0.45594000000E+02  0.51100000000E-03 0.  1.
         23    2    1    2    0    0  0.00000000000E+00  0.00000000000E+00 -0.35527136788E-14  0.91188000000E+02  0.91188000000E+02 0.  0.
    9900012    2    3    3    0    0 -0.37084392910E+02  0.87719886198E+01  0.20770752480E+02  0.47787261062E+02  0.19999954484E+02 0.  0.
        -12    1    3    3    0    0  0.37084392910E+02 -0.87719886198E+01 -0.20770752480E+02  0.43400738938E+02  0.00000000000E+00 0.  1.
         11    1    4    4    0    0 -0.21523167796E+02  0.11916914341E+02  0.12128829367E+02  0.27429329220E+02  0.51100000000E-03 0. -1.
        -11    1    4    4    0    0 -0.25511507029E+01  0.11445823334E+01  0.56966966787E+01  0.63459271928E+01  0.51100000000E-03 0.  1.
        -12    1    4    4    0    0 -0.13010074410E+02 -0.42895080549E+01  0.29452264347E+01  0.14012004648E+02  0.00000000000E+00 0.  1.
</event>
<event>
 8    1  0.2994958E-010  0.9118800E+02  0.7816164E-02  0.1184000E+00
        -11   -1    0    0    0    0  0.00000000000E+00  0.00000000000E+00  0.45593999997E+02  0.45594000000E+02  0.51100000000E-03 0.  1.
         11   -1    0    0    0    0 -0.00000000000E+00 -0.00000000000E+00 -0.45593999997E+02  0.45594000000E+02  0.51100000000E-03 0. -1.
         23    2    1    2    0    0  0.00000000000E+00  0.00000000000E+00 -0.88817841970E-15  0.91188000000E+02  0.91188000000E+02 0.  0.
    9900012    2    3    3    0    0 -0.39799898502E+02  0.16240677609E+02 -0.59859892066E+01  0.47787267324E+02  0.19999983039E+02 0.  0.
         12    1    3    3    0    0  0.39799898502E+02 -0.16240677609E+02  0.59859892066E+01  0.43400732676E+02  0.00000000000E+00 0. -1.
         11    1    4    4    0    0 -0.18371241497E+02  0.16654021376E+01 -0.71170133570E+01  0.19771898184E+02  0.51100000000E-03 0. -1.
        -11    1    4    4    0    0 -0.46000181018E+01 -0.13024424513E+01 -0.57806699018E+00  0.48156707302E+01  0.51100000000E-03 0.  1.
        -12    1    4    4    0    0 -0.16828638903E+02  0.15877717923E+02  0.17090911406E+01  0.23199698410E+02  0.00000000000E+00 0.  1.
</event>
<event>
 8    1  0.2994958E-010  0.9118800E+02  0.7816164E-02  0.1184000E+00
        -11   -1    0    0    0    0  0.00000000000E+00  0.00000000000E+00  0.45593999997E+02  0.45594000000E+02  0.51100000000E-03 0. -1.
         11   -1    0    0    0    0 -0.00000000000E+00 -0.00000000000E+00 -0.45593999997E+02  0.45594000000E+02  0.51100000000E-03 0.  1.
         23    2    1    2    0    0 -0.35527136788E-14  0.00000000000E+00  0.00000000000E+00  0.91188000000E+02  0.91188000000E+02 0.  0.
    9900012    2    3    3    0    0 -0.29749389925E+02 -0.26852985008E+02 -0.16658779837E+02  0.47787263251E+02  0.19999964466E+02 0.  0.
         12    1    3    3    0    0  0.29749389925E+02  0.26852985008E+02  0.16658779837E+02  0.43400736749E+02  0.00000000000E+00 0. -1.
         11    1    4    4    0    0  0.79546996367E+00  0.13841442374E+00 -0.99855737502E+00  0.12841526810E+01  0.51100000000E-03 0. -1.
        -11    1    4    4    0    0  0.45975018846E+00 -0.44121726060E+01 -0.50208097967E+01  0.66997886994E+01  0.51100000000E-03 0.  1.
        -12    1    4    4    0    0 -0.31004610077E+02 -0.22579226825E+02 -0.10639412665E+02  0.39803321870E+02  0.00000000000E+00 0.  1.
</event>
<event>
 8    1  0.2994958E-010  0.9118800E+02  0.7816164E-02  0.1184000E+00
        -11   -1    0    0    0    0  0.00000000000E+00  0.00000000000E+00  0.45593999997E+02  0.45594000000E+02  0.51100000000E-03 0. -1.
         11   -1    0    0    0    0 -0.00000000000E+00 -0.00000000000E+00 -0.45593999997E+02  0.45594000000E+02  0.51100000000E-03 0.  1.
         23    2    1    2    0    0  0.00000000000E+00  0.00000000000E+00 -0.35527136788E-14  0.91188000000E+02  0.91188000000E+02 0.  0.
    9900012    2    3    3    0    0 -0.18980737401E+02 -0.27403171002E+02  0.27792460689E+02  0.47787273688E+02  0.20000012055E+02 0.  0.
        -12    1    3    3    0    0  0.18980737401E+02  0.27403171002E+02 -0.27792460689E+02  0.43400726312E+02  0.00000000000E+00 0.  1.
         11    1    4    4    0    0 -0.14627406067E+02 -0.17481052651E+02  0.17389935660E+02  0.28669811170E+02  0.51100000000E-03 0. -1.
        -11    1    4    4    0    0  0.12977950934E+01 -0.10151544176E+02  0.79201000627E+01  0.12940869620E+02  0.51100000000E-03 0.  1.
         12    1    4    4    0    0 -0.56511264281E+01  0.22942582535E+00  0.24824249662E+01  0.61765928981E+01  0.00000000000E+00 0. -1.
</event>
<event>
 8    1  0.2994958E-010  0.9118800E+02  0.7816164E-02  0.1184000E+00
        -11   -1    0    0    0    0  0.00000000000E+00  0.00000000000E+00  0.45593999997E+02  0.45594000000E+02  0.51100000000E-03 0. -1.
         11   -1    0    0    0    0 -0.00000000000E+00 -0.00000000000E+00 -0.45593999997E+02  0.45594000000E+02  0.51100000000E-03 0.  1.
         23    2    1    2    0    0 -0.35527136788E-14 -0.35527136788E-14  0.35527136788E-14  0.91188000000E+02  0.91188000000E+02 0.  0.
    9900012    2    3    3    0    0 -0.23449496931E+02 -0.22269794065E+02  0.28944804248E+02  0.47787258912E+02  0.19999944685E+02 0.  0.
        -12    1    3    3    0    0  0.23449496931E+02  0.22269794065E+02 -0.28944804248E+02  0.43400741088E+02  0.00000000000E+00 0.  1.
         11    1    4    4    0    0 -0.53937831922E+01 -0.56776393870E+01  0.12020956129E+02  0.14346841905E+02  0.51100000000E-03 0. -1.
        -11    1    4    4    0    0 -0.13015766945E+02 -0.19085311904E+02  0.12368263647E+02  0.26203688014E+02  0.51100000000E-03 0.  1.
        -12    1    4    4    0    0 -0.50399467941E+01  0.24931572261E+01  0.45555844721E+01  0.72367289933E+01  0.00000000000E+00 0.  1.
</event>
<event>
 8    1  0.2994958E-010  0.9118800E+02  0.7816164E-02  0.1184000E+00
        -11   -1    0    0    0    0  0.00000000000E+00  0.00000000000E+00  0.45593999997E+02  0.45594000000E+02  0.51100000000E-03 0. -1.
         11   -1    0    0    0    0 -0.00000000000E+00 -0.00000000000E+00 -0.45593999997E+02  0.45594000000E+02  0.51100000000E-03 0.  1.
         23    2    1    2    0    0  0.00000000000E+00  0.00000000000E+00  0.00000000000E+00  0.91188000000E+02  0.91188000000E+02 0.  0.
    9900012    2    3    3    0    0 -0.14528481750E+01 -0.36907006152E+02  0.22790027539E+02  0.47787271594E+02  0.20000002505E+02 0.  0.
        -12    1    3    3    0    0  0.14528481750E+01  0.36907006152E+02 -0.22790027539E+02  0.43400728406E+02  0.00000000000E+00 0.  1.
         11    1    4    4    0    0 -0.72391131081E+00 -0.13997204003E+02  0.91551250902E+00  0.14045779825E+02  0.51100000000E-03 0. -1.
        -11    1    4    4    0    0  0.18396917957E+01 -0.20534958832E+02  0.13441939464E+02  0.24612085181E+02  0.51100000000E-03 0.  1.
        -12    1    4    4    0    0 -0.25686286599E+01 -0.23748433179E+01  0.84325755660E+01  0.91294065882E+01  0.00000000000E+00 0.  1.
</event>
<event>
 8    1  0.2994958E-010  0.9118800E+02  0.7816164E-02  0.1184000E+00
        -11   -1    0    0    0    0  0.00000000000E+00  0.00000000000E+00  0.45593999997E+02  0.45594000000E+02  0.51100000000E-03 0. -1.
         11   -1    0    0    0    0 -0.00000000000E+00 -0.00000000000E+00 -0.45593999997E+02  0.45594000000E+02  0.51100000000E-03 0.  1.
         23    2    1    2    0    0  0.00000000000E+00  0.17763568394E-14 -0.71054273576E-14  0.91188000000E+02  0.91188000000E+02 0.  0.
    9900012    2    3    3    0    0 -0.85130949518E+00  0.10516112208E+02 -0.42098807495E+02  0.47787274933E+02  0.20000017730E+02 0.  0.
         12    1    3    3    0    0  0.85130949518E+00 -0.10516112208E+02  0.42098807495E+02  0.43400725067E+02  0.00000000000E+00 0. -1.
         11    1    4    4    0    0 -0.19184169951E+01  0.18697660776E+01 -0.17383426309E+01  0.31934596154E+01  0.51100000000E-03 0.  1.
        -11    1    4    4    0    0 -0.20601760817E+00  0.13503482789E+02 -0.24738842298E+02  0.28185045843E+02  0.51100000000E-03 0. -1.
         12    1    4    4    0    0  0.12731251081E+01 -0.48571366587E+01 -0.15621622566E+02  0.16408769475E+02  0.00000000000E+00 0. -1.
</event>
<event>
 8    1  0.2994958E-010  0.9118800E+02  0.7816164E-02  0.1184000E+00
        -11   -1    0    0    0    0  0.00000000000E+00  0.00000000000E+00  0.45593999997E+02  0.45594000000E+02  0.51100000000E-03 0.  1.
         11   -1    0    0    0    0 -0.00000000000E+00 -0.00000000000E+00 -0.45593999997E+02  0.45594000000E+02  0.51100000000E-03 0. -1.
         23    2    1    2    0    0 -0.71054273576E-14 -0.17763568394E-14 -0.17763568394E-14  0.91188000000E+02  0.91188000000E+02 0.  0.
    9900012    2    3    3    0    0 -0.39864457383E+02 -0.93761099892E+01 -0.14371393025E+02  0.47787270301E+02  0.19999996610E+02 0.  0.
        -12    1    3    3    0    0  0.39864457383E+02  0.93761099892E+01  0.14371393025E+02  0.43400729699E+02  0.00000000000E+00 0.  1.
         11    1    4    4    0    0 -0.32055078186E+01 -0.33949201556E+01 -0.55936538402E+01  0.72862697440E+01  0.51100000000E-03 0. -1.
        -11    1    4    4    0    0 -0.27354840543E+02 -0.96012208046E+01 -0.94570690645E+01  0.30494374852E+02  0.51100000000E-03 0.  1.
        -12    1    4    4    0    0 -0.93041090208E+01  0.36200309710E+01  0.67932987993E+00  0.10006625704E+02  0.00000000000E+00 0.  1.
</event>
<event>
 8    1  0.2994958E-010  0.9118800E+02  0.7816164E-02  0.1184000E+00
        -11   -1    0    0    0    0  0.00000000000E+00  0.00000000000E+00  0.45593999997E+02  0.45594000000E+02  0.51100000000E-03 0. -1.
         11   -1    0    0    0    0 -0.00000000000E+00 -0.00000000000E+00 -0.45593999997E+02  0.45594000000E+02  0.51100000000E-03 0.  1.
         23    2    1    2    0    0  0.17763568394E-14 -0.71054273576E-14  0.00000000000E+00  0.91188000000E+02  0.91188000000E+02 0.  0.
    9900012    2    3    3    0    0  0.12216651287E+02 -0.35549530899E+02 -0.21693496389E+02  0.47787268423E+02  0.19999988048E+02 0.  0.
         12    1    3    3    0    0 -0.12216651287E+02  0.35549530899E+02  0.21693496389E+02  0.43400731577E+02  0.00000000000E+00 0. -1.
         11    1    4    4    0    0  0.32335927848E+01 -0.87983574219E+01 -0.41543409217E+01  0.10253085603E+02  0.51100000000E-03 0. -1.
        -11    1    4    4    0    0  0.85958670054E+01 -0.27578397475E+01 -0.31883506441E+01  0.95739328250E+01  0.51100000000E-03 0.  1.
        -12    1    4    4    0    0  0.38719149709E+00 -0.23993333730E+02 -0.14350804823E+02  0.27960249995E+02  0.00000000000E+00 0.  1.
</event>
<event>
 8    1  0.4310603E-010  0.9118800E+02  0.7816164E-02  0.1184000E+00
        -11   -1    0    0    0    0  0.00000000000E+00  0.00000000000E+00  0.45593999997E+02  0.45594000000E+02  0.51100000000E-03 0. -1.
         11   -1    0    0    0    0 -0.00000000000E+00 -0.00000000000E+00 -0.45593999997E+02  0.45594000000E+02  0.51100000000E-03 0.  1.
         23    2    1    2    0    0  0.00000000000E+00  0.00000000000E+00  0.00000000000E+00  0.91188000000E+02  0.91188000000E+02 0.  0.
    9900012    2    3    3    0    0  0.17146945636E+02  0.32568268085E+02  0.22998093666E+02  0.47787284073E+02  0.20000059403E+02 0.  0.
        -12    1    3    3    0    0 -0.17146945636E+02 -0.32568268085E+02 -0.22998093666E+02  0.43400715927E+02  0.00000000000E+00 0.  1.
         11    1    4    4    0    0  0.14982373205E+01  0.62063579799E+00 -0.16351439446E+01  0.23029545899E+01  0.51100000000E-03 0. -1.
        -11    1    4    4    0    0  0.13657665880E+01  0.81731061031E-01  0.54961781540E+01  0.56639185112E+01  0.51100000000E-03 0.  1.
         12    1    4    4    0    0  0.14282941727E+02  0.31865901226E+02  0.19137059457E+02  0.39820410972E+02  0.00000000000E+00 0. -1.
</event>
<event>
 8    1  0.2994958E-010  0.9118800E+02  0.7816164E-02  0.1184000E+00
        -11   -1    0    0    0    0  0.00000000000E+00  0.00000000000E+00  0.45593999997E+02  0.45594000000E+02  0.51100000000E-03 0. -1.
         11   -1    0    0    0    0 -0.00000000000E+00 -0.00000000000E+00 -0.45593999997E+02  0.45594000000E+02  0.51100000000E-03 0.  1.
         23    2    1    2    0    0 -0.35527136788E-14  0.17763568394E-14  0.00000000000E+00  0.91188000000E+02  0.91188000000E+02 0.  0.
    9900012    2    3    3    0    0  0.23368702034E+02  0.11752008113E+02  0.34632608916E+02  0.47787268096E+02  0.19999986557E+02 0.  0.
        -12    1    3    3    0    0 -0.23368702034E+02 -0.11752008113E+02 -0.34632608916E+02  0.43400731904E+02  0.00000000000E+00 0.  1.
         11    1    4    4    0    0  0.51201760100E+01  0.86248561614E+01  0.83326023294E+01  0.13039808588E+02  0.51100000000E-03 0. -1.
        -11    1    4    4    0    0  0.18789000843E+02  0.60466565559E+01  0.22711137400E+02  0.30089605688E+02  0.51100000000E-03 0.  1.
        -12    1    4    4    0    0 -0.54047481932E+00 -0.29195046042E+01  0.35888691868E+01  0.46578538195E+01  0.00000000000E+00 0.  1.
</event>
<event>
 8    1  0.2994958E-010  0.9118800E+02  0.7816164E-02  0.1184000E+00
        -11   -1    0    0    0    0  0.00000000000E+00  0.00000000000E+00  0.45593999997E+02  0.45594000000E+02  0.51100000000E-03 0. -1.
         11   -1    0    0    0    0 -0.00000000000E+00 -0.00000000000E+00 -0.45593999997E+02  0.45594000000E+02  0.51100000000E-03 0.  1.
         23    2    1    2    0    0  0.00000000000E+00  0.00000000000E+00  0.00000000000E+00  0.91188000000E+02  0.91188000000E+02 0.  0.
    9900012    2    3    3    0    0  0.18510729511E+02 -0.29042871822E+02 -0.26410000448E+02  0.47787266891E+02  0.19999981063E+02 0.  0.
         12    1    3    3    0    0 -0.18510729511E+02  0.29042871822E+02  0.26410000448E+02  0.43400733109E+02  0.00000000000E+00 0. -1.
         11    1    4    4    0    0 -0.10975044092E+01 -0.82837884246E+01 -0.44238430578E+01  0.94549486647E+01  0.51100000000E-03 0. -1.
        -11    1    4    4    0    0  0.88191944511E+00 -0.94412556861E+01 -0.75135508336E+01  0.12098286541E+02  0.51100000000E-03 0.  1.
        -12    1    4    4    0    0  0.18726314475E+02 -0.11317827712E+02 -0.14472606557E+02  0.26234031685E+02  0.00000000000E+00 0.  1.
</event>
<event>
 8    1  0.2994958E-010  0.9118800E+02  0.7816164E-02  0.1184000E+00
        -11   -1    0    0    0    0  0.00000000000E+00  0.00000000000E+00  0.45593999997E+02  0.45594000000E+02  0.51100000000E-03 0. -1.
         11   -1    0    0    0    0 -0.00000000000E+00 -0.00000000000E+00 -0.45593999997E+02  0.45594000000E+02  0.51100000000E-03 0.  1.
         23    2    1    2    0    0 -0.17763568394E-14  0.00000000000E+00 -0.71054273576E-14  0.91188000000E+02  0.91188000000E+02 0.  0.
    9900012    2    3    3    0    0  0.35091733260E+01 -0.20314985943E+02  0.38191759861E+02  0.47787268755E+02  0.19999989562E+02 0.  0.
        -12    1    3    3    0    0 -0.35091733260E+01  0.20314985943E+02 -0.38191759861E+02  0.43400731245E+02  0.00000000000E+00 0.  1.
         11    1    4    4    0    0  0.52654060702E+01 -0.77671104381E+01  0.26755047772E+02  0.28352867353E+02  0.51100000000E-03 0. -1.
        -11    1    4    4    0    0  0.17995949304E+01 -0.87381580141E+01  0.11059594721E+02  0.14209454002E+02  0.51100000000E-03 0.  1.
        -12    1    4    4    0    0 -0.35558276746E+01 -0.38097174912E+01  0.37711736852E+00  0.52249473991E+01  0.00000000000E+00 0.  1.
</event>
<event>
 8    1  0.2994958E-010  0.9118800E+02  0.7816164E-02  0.1184000E+00
        -11   -1    0    0    0    0  0.00000000000E+00  0.00000000000E+00  0.45593999997E+02  0.45594000000E+02  0.51100000000E-03 0. -1.
         11   -1    0    0    0    0 -0.00000000000E+00 -0.00000000000E+00 -0.45593999997E+02  0.45594000000E+02  0.51100000000E-03 0.  1.
         23    2    1    2    0    0 -0.88817841970E-15 -0.88817841970E-15  0.00000000000E+00  0.91188000000E+02  0.91188000000E+02 0.  0.
    9900012    2    3    3    0    0  0.56994117907E+01 -0.79733152927E+01 -0.42279620033E+02  0.47787270494E+02  0.19999997489E+02 0.  0.
         12    1    3    3    0    0 -0.56994117907E+01  0.79733152927E+01  0.42279620033E+02  0.43400729506E+02  0.00000000000E+00 0. -1.
         11    1    4    4    0    0  0.52017999119E+01  0.20991557313E+01 -0.11092963630E+02  0.12430567946E+02  0.51100000000E-03 0. -1.
        -11    1    4    4    0    0 -0.32684012079E+01  0.21203922857E+01 -0.74431606184E+01  0.84011398128E+01  0.51100000000E-03 0.  1.
        -12    1    4    4    0    0  0.37660130867E+01 -0.12192863310E+02 -0.23743495785E+02  0.26955562735E+02  0.00000000000E+00 0.  1.
</event>
<event>
 8    1  0.2994958E-010  0.9118800E+02  0.7816164E-02  0.1184000E+00
        -11   -1    0    0    0    0  0.00000000000E+00  0.00000000000E+00  0.45593999997E+02  0.45594000000E+02  0.51100000000E-03 0.  1.
         11   -1    0    0    0    0 -0.00000000000E+00 -0.00000000000E+00 -0.45593999997E+02  0.45594000000E+02  0.51100000000E-03 0. -1.
         23    2    1    2    0    0  0.00000000000E+00  0.00000000000E+00  0.00000000000E+00  0.91188000000E+02  0.91188000000E+02 0.  0.
    9900012    2    3    3    0    0  0.42024565686E+02 -0.89303258896E+01  0.61488542036E+01  0.47787271324E+02  0.20000001273E+02 0.  0.
        -12    1    3    3    0    0 -0.42024565686E+02  0.89303258896E+01 -0.61488542036E+01  0.43400728676E+02  0.00000000000E+00 0.  1.
         11    1    4    4    0    0  0.65546797408E+01  0.10104290951E+01  0.22976923457E+01  0.70188449076E+01  0.51100000000E-03 0. -1.
        -11    1    4    4    0    0  0.24922920625E+01 -0.60120213885E+01  0.38421233330E+01  0.75576340787E+01  0.51100000000E-03 0.  1.
         12    1    4    4    0    0  0.32977593883E+02 -0.39287335963E+01  0.90385249748E-02  0.33210792337E+02  0.00000000000E+00 0. -1.
</event>
<event>
 8    1  0.2994958E-010  0.9118800E+02  0.7816164E-02  0.1184000E+00
        -11   -1    0    0    0    0  0.00000000000E+00  0.00000000000E+00  0.45593999997E+02  0.45594000000E+02  0.51100000000E-03 0. -1.
         11   -1    0    0    0    0 -0.00000000000E+00 -0.00000000000E+00 -0.45593999997E+02  0.45594000000E+02  0.51100000000E-03 0.  1.
         23    2    1    2    0    0 -0.88817841970E-15  0.00000000000E+00  0.00000000000E+00  0.91188000000E+02  0.91188000000E+02 0.  0.
    9900012    2    3    3    0    0 -0.77339587940E+01  0.21780919226E+02 -0.36734193031E+02  0.47787268455E+02  0.19999988194E+02 0.  0.
         12    1    3    3    0    0  0.77339587940E+01 -0.21780919226E+02  0.36734193031E+02  0.43400731545E+02  0.00000000000E+00 0. -1.
         11    1    4    4    0    0 -0.52804586736E+00 -0.15569167016E+01  0.14058984246E+01  0.21631857746E+01  0.51100000000E-03 0. -1.
        -11    1    4    4    0    0  0.71398593827E+00  0.64710413116E+00 -0.10207291415E+01  0.14037121920E+01  0.51100000000E-03 0.  1.
        -12    1    4    4    0    0 -0.79198988650E+01  0.22690731797E+02 -0.37119362314E+02  0.44220370488E+02  0.00000000000E+00 0.  1.
</event>
<event>
 8    1  0.2994958E-010  0.9118800E+02  0.7816164E-02  0.1184000E+00
        -11   -1    0    0    0    0  0.00000000000E+00  0.00000000000E+00  0.45593999997E+02  0.45594000000E+02  0.51100000000E-03 0. -1.
         11   -1    0    0    0    0 -0.00000000000E+00 -0.00000000000E+00 -0.45593999997E+02  0.45594000000E+02  0.51100000000E-03 0.  1.
         23    2    1    2    0    0  0.00000000000E+00  0.00000000000E+00  0.00000000000E+00  0.91188000000E+02  0.91188000000E+02 0.  0.
    9900012    2    3    3    0    0  0.10251903919E+02  0.22541991137E+02  0.35642403215E+02  0.47787264921E+02  0.19999972083E+02 0.  0.
        -12    1    3    3    0    0 -0.10251903919E+02 -0.22541991137E+02 -0.35642403215E+02  0.43400735079E+02  0.00000000000E+00 0.  1.
         11    1    4    4    0    0 -0.40290808314E+01  0.11252355523E+02  0.13707514962E+02  0.18186395021E+02  0.51100000000E-03 0. -1.
        -11    1    4    4    0    0  0.23033596037E+01  0.44359910051E+01  0.20630733818E+01  0.54073795596E+01  0.51100000000E-03 0.  1.
        -12    1    4    4    0    0  0.11977625147E+02  0.68536446086E+01  0.19871814872E+02  0.24193490341E+02  0.00000000000E+00 0.  1.
</event>
<event>
 8    1  0.2994958E-010  0.9118800E+02  0.7816164E-02  0.1184000E+00
        -11   -1    0    0    0    0  0.00000000000E+00  0.00000000000E+00  0.45593999997E+02  0.45594000000E+02  0.51100000000E-03 0. -1.
         11   -1    0    0    0    0 -0.00000000000E+00 -0.00000000000E+00 -0.45593999997E+02  0.45594000000E+02  0.51100000000E-03 0.  1.
         23    2    1    2    0    0 -0.17763568394E-14 -0.35527136788E-14  0.35527136788E-14  0.91188000000E+02  0.91188000000E+02 0.  0.
    9900012    2    3    3    0    0 -0.10385931016E+02 -0.28301494165E+02  0.31221460200E+02  0.47787289038E+02  0.20000082037E+02 0.  0.
        -12    1    3    3    0    0  0.10385931016E+02  0.28301494165E+02 -0.31221460200E+02  0.43400710962E+02  0.00000000000E+00 0.  1.
         11    1    4    4    0    0  0.49180341873E+00 -0.22840991306E+02  0.17164686038E+02  0.28575849970E+02  0.51100000000E-03 0. -1.
        -11    1    4    4    0    0  0.18303965823E+00 -0.89276391887E+00  0.21267923582E+01  0.23138230113E+01  0.51100000000E-03 0.  1.
         12    1    4    4    0    0 -0.11060774093E+02 -0.45677389396E+01  0.11929981804E+02  0.16897616056E+02  0.00000000000E+00 0. -1.
</event>
<event>
 8    1  0.2994958E-010  0.9118800E+02  0.7816164E-02  0.1184000E+00
        -11   -1    0    0    0    0  0.00000000000E+00  0.00000000000E+00  0.45593999997E+02  0.45594000000E+02  0.51100000000E-03 0.  1.
         11   -1    0    0    0    0 -0.00000000000E+00 -0.00000000000E+00 -0.45593999997E+02  0.45594000000E+02  0.51100000000E-03 0. -1.
         23    2    1    2    0    0  0.00000000000E+00  0.00000000000E+00  0.35527136788E-14  0.91188000000E+02  0.91188000000E+02 0.  0.
    9900012    2    3    3    0    0 -0.21666062440E+02 -0.25623963512E+02 -0.27524846047E+02  0.47787275149E+02  0.20000018712E+02 0.  0.
         12    1    3    3    0    0  0.21666062440E+02  0.25623963512E+02  0.27524846047E+02  0.43400724851E+02  0.00000000000E+00 0. -1.
         11    1    4    4    0    0 -0.17115801540E+01 -0.12495026696E+02 -0.13524437815E+02  0.18492312382E+02  0.51100000000E-03 0. -1.
        -11    1    4    4    0    0 -0.94194564139E+01 -0.11738861047E+02 -0.91506801201E+01  0.17614254589E+02  0.51100000000E-03 0.  1.
         12    1    4    4    0    0 -0.10535025872E+02 -0.13900757689E+01 -0.48497281122E+01  0.11680708178E+02  0.00000000000E+00 0. -1.
</event>
<event>
 8    1  0.2994958E-010  0.9118800E+02  0.7816164E-02  0.1184000E+00
        -11   -1    0    0    0    0  0.00000000000E+00  0.00000000000E+00  0.45593999997E+02  0.45594000000E+02  0.51100000000E-03 0. -1.
         11   -1    0    0    0    0 -0.00000000000E+00 -0.00000000000E+00 -0.45593999997E+02  0.45594000000E+02  0.51100000000E-03 0.  1.
         23    2    1    2    0    0 -0.11102230246E-15  0.00000000000E+00 -0.71054273576E-14  0.91188000000E+02  0.91188000000E+02 0.  0.
    9900012    2    3    3    0    0  0.54631480155E+00  0.18386701819E+02  0.39309717011E+02  0.47787272873E+02  0.20000008336E+02 0.  0.
        -12    1    3    3    0    0 -0.54631480155E+00 -0.18386701819E+02 -0.39309717011E+02  0.43400727127E+02  0.00000000000E+00 0.  1.
         11    1    4    4    0    0 -0.23547439941E+01  0.12654485269E+02  0.24683132944E+02  0.27837705884E+02  0.51100000000E-03 0. -1.
        -11    1    4    4    0    0  0.40777060211E+01 -0.27114310349E+01  0.67763230747E+01  0.83605083174E+01  0.51100000000E-03 0.  1.
        -12    1    4    4    0    0 -0.11766472254E+01  0.84436475848E+01  0.78502609926E+01  0.11589058671E+02  0.00000000000E+00 0.  1.
</event>
<event>
 8    1  0.2994958E-010  0.9118800E+02  0.7816164E-02  0.1184000E+00
        -11   -1    0    0    0    0  0.00000000000E+00  0.00000000000E+00  0.45593999997E+02  0.45594000000E+02  0.51100000000E-03 0. -1.
         11   -1    0    0    0    0 -0.00000000000E+00 -0.00000000000E+00 -0.45593999997E+02  0.45594000000E+02  0.51100000000E-03 0.  1.
         23    2    1    2    0    0  0.00000000000E+00 -0.17763568394E-14  0.00000000000E+00  0.91188000000E+02  0.91188000000E+02 0.  0.
    9900012    2    3    3    0    0  0.41199162662E+02  0.10032937351E+02 -0.92516149162E+01  0.47787271729E+02  0.20000003121E+02 0.  0.
         12    1    3    3    0    0 -0.41199162662E+02 -0.10032937351E+02  0.92516149162E+01  0.43400728271E+02  0.00000000000E+00 0. -1.
         11    1    4    4    0    0  0.12262182459E+01  0.45637385962E+01 -0.55029776960E+00  0.47575360280E+01  0.51100000000E-03 0. -1.
        -11    1    4    4    0    0  0.63230786391E+01 -0.20144571648E+01  0.20065959202E+01  0.69329494873E+01  0.51100000000E-03 0.  1.
        -12    1    4    4    0    0  0.33649865777E+02  0.74836559197E+01 -0.10707913067E+02  0.36096786214E+02  0.00000000000E+00 0.  1.
</event>
<event>
 8    1  0.2994958E-010  0.9118800E+02  0.7816164E-02  0.1184000E+00
        -11   -1    0    0    0    0  0.00000000000E+00  0.00000000000E+00  0.45593999997E+02  0.45594000000E+02  0.51100000000E-03 0. -1.
         11   -1    0    0    0    0 -0.00000000000E+00 -0.00000000000E+00 -0.45593999997E+02  0.45594000000E+02  0.51100000000E-03 0.  1.
         23    2    1    2    0    0  0.00000000000E+00  0.00000000000E+00  0.71054273576E-14  0.91188000000E+02  0.91188000000E+02 0.  0.
    9900012    2    3    3    0    0  0.12401623291E+02  0.48409178868E+01  0.41308445694E+02  0.47787280744E+02  0.20000044226E+02 0.  0.
        -12    1    3    3    0    0 -0.12401623291E+02 -0.48409178868E+01 -0.41308445694E+02  0.43400719256E+02  0.00000000000E+00 0.  1.
         11    1    4    4    0    0  0.11825155280E+02  0.50829896319E+01  0.14434585914E+02  0.19339812610E+02  0.51100000000E-03 0. -1.
        -11    1    4    4    0    0  0.43508405665E+01 -0.19941640539E+01  0.10275529803E+02  0.11335476034E+02  0.51100000000E-03 0.  1.
        -12    1    4    4    0    0 -0.37743725561E+01  0.17520923087E+01  0.16598329976E+02  0.17111992101E+02  0.00000000000E+00 0.  1.
</event>
<event>
 8    1  0.2994958E-010  0.9118800E+02  0.7816164E-02  0.1184000E+00
        -11   -1    0    0    0    0  0.00000000000E+00  0.00000000000E+00  0.45593999997E+02  0.45594000000E+02  0.51100000000E-03 0. -1.
         11   -1    0    0    0    0 -0.00000000000E+00 -0.00000000000E+00 -0.45593999997E+02  0.45594000000E+02  0.51100000000E-03 0.  1.
         23    2    1    2    0    0  0.17763568394E-14  0.35527136788E-14  0.00000000000E+00  0.91188000000E+02  0.91188000000E+02 0.  0.
    9900012    2    3    3    0    0  0.87356860394E+01  0.16420410555E+02 -0.39213274934E+02  0.47787273919E+02  0.20000013105E+02 0.  0.
         12    1    3    3    0    0 -0.87356860394E+01 -0.16420410555E+02  0.39213274934E+02  0.43400726081E+02  0.00000000000E+00 0. -1.
         11    1    4    4    0    0 -0.57048229324E+00 -0.18479667232E+00  0.90879767592E+00  0.10888128094E+01  0.51100000000E-03 0. -1.
        -11    1    4    4    0    0  0.39130976743E+01  0.13587419755E+02 -0.14159665792E+02  0.20010658275E+02  0.51100000000E-03 0.  1.
         12    1    4    4    0    0  0.53930706584E+01  0.30177874725E+01 -0.25962406818E+02  0.26687802834E+02  0.00000000000E+00 0. -1.
</event>
<event>
 8    1  0.2994958E-010  0.9118800E+02  0.7816164E-02  0.1184000E+00
        -11   -1    0    0    0    0  0.00000000000E+00  0.00000000000E+00  0.45593999997E+02  0.45594000000E+02  0.51100000000E-03 0.  1.
         11   -1    0    0    0    0 -0.00000000000E+00 -0.00000000000E+00 -0.45593999997E+02  0.45594000000E+02  0.51100000000E-03 0. -1.
         23    2    1    2    0    0  0.00000000000E+00 -0.35527136788E-14  0.00000000000E+00  0.91188000000E+02  0.91188000000E+02 0.  0.
    9900012    2    3    3    0    0 -0.26448772730E+02 -0.30180176730E+02 -0.16530051373E+02  0.47787271380E+02  0.20000001529E+02 0.  0.
         12    1    3    3    0    0  0.26448772730E+02  0.30180176730E+02  0.16530051373E+02  0.43400728620E+02  0.00000000000E+00 0. -1.
         11    1    4    4    0    0 -0.19155177786E+02 -0.14794010351E+02 -0.46810951953E+01  0.24651495508E+02  0.51100000000E-03 0. -1.
        -11    1    4    4    0    0 -0.88626450158E+01 -0.15411772888E+02 -0.91036793907E+01  0.19973637599E+02  0.51100000000E-03 0.  1.
         12    1    4    4    0    0  0.15690500717E+01  0.25606508943E-01 -0.27452767871E+01  0.31621382732E+01  0.00000000000E+00 0. -1.
</event>
<event>
 8    1  0.2994958E-010  0.9118800E+02  0.7816164E-02  0.1184000E+00
        -11   -1    0    0    0    0  0.00000000000E+00  0.00000000000E+00  0.45593999997E+02  0.45594000000E+02  0.51100000000E-03 0. -1.
         11   -1    0    0    0    0 -0.00000000000E+00 -0.00000000000E+00 -0.45593999997E+02  0.45594000000E+02  0.51100000000E-03 0.  1.
         23    2    1    2    0    0  0.00000000000E+00 -0.44408920985E-15  0.71054273576E-14  0.91188000000E+02  0.91188000000E+02 0.  0.
    9900012    2    3    3    0    0  0.14824287400E+02  0.22105163314E+00 -0.40789883846E+02  0.47787274374E+02  0.20000015179E+02 0.  0.
         12    1    3    3    0    0 -0.14824287400E+02 -0.22105163314E+00  0.40789883846E+02  0.43400725626E+02  0.00000000000E+00 0. -1.
         11    1    4    4    0    0  0.14956492149E+01 -0.40005451812E+01 -0.89516561694E+01  0.99183404236E+01  0.51100000000E-03 0. -1.
        -11    1    4    4    0    0  0.11375294750E+02 -0.29642283106E+01 -0.25542374328E+02  0.28117554423E+02  0.51100000000E-03 0.  1.
         12    1    4    4    0    0  0.19533434348E+01  0.71858251249E+01 -0.62958533483E+01  0.97513795272E+01  0.00000000000E+00 0. -1.
</event>
<event>
 8    1  0.2994958E-010  0.9118800E+02  0.7816164E-02  0.1184000E+00
        -11   -1    0    0    0    0  0.00000000000E+00  0.00000000000E+00  0.45593999997E+02  0.45594000000E+02  0.51100000000E-03 0. -1.
         11   -1    0    0    0    0 -0.00000000000E+00 -0.00000000000E+00 -0.45593999997E+02  0.45594000000E+02  0.51100000000E-03 0.  1.
         23    2    1    2    0    0  0.00000000000E+00 -0.88817841970E-15  0.71054273576E-14  0.91188000000E+02  0.91188000000E+02 0.  0.
    9900012    2    3    3    0    0 -0.24546187124E+02  0.48050988197E+01 -0.35468559258E+02  0.47787274512E+02  0.20000015811E+02 0.  0.
         12    1    3    3    0    0  0.24546187124E+02 -0.48050988197E+01  0.35468559258E+02  0.43400725488E+02  0.00000000000E+00 0. -1.
         11    1    4    4    0    0 -0.85014072565E+01  0.24316119928E+01 -0.21135748639E+02  0.22910838768E+02  0.51100000000E-03 0. -1.
        -11    1    4    4    0    0 -0.73721967352E+00 -0.30174413595E+01 -0.57066630807E+01  0.64972647308E+01  0.51100000000E-03 0.  1.
         12    1    4    4    0    0 -0.15307560194E+02  0.53909281864E+01 -0.86261475381E+01  0.18379171014E+02  0.00000000000E+00 0. -1.
</event>
<event>
 8    1  0.2994958E-010  0.9118800E+02  0.7816164E-02  0.1184000E+00
        -11   -1    0    0    0    0  0.00000000000E+00  0.00000000000E+00  0.45593999997E+02  0.45594000000E+02  0.51100000000E-03 0. -1.
         11   -1    0    0    0    0 -0.00000000000E+00 -0.00000000000E+00 -0.45593999997E+02  0.45594000000E+02  0.51100000000E-03 0.  1.
         23    2    1    2    0    0  0.00000000000E+00  0.00000000000E+00  0.00000000000E+00  0.91188000000E+02  0.91188000000E+02 0.  0.
    9900012    2    3    3    0    0 -0.84729850223E+01  0.16830944079E+02 -0.39096687481E+02  0.47787272751E+02  0.20000007779E+02 0.  0.
         12    1    3    3    0    0  0.84729850223E+01 -0.16830944079E+02  0.39096687481E+02  0.43400727249E+02  0.00000000000E+00 0. -1.
         11    1    4    4    0    0 -0.73372088341E+01  0.47791595764E+01 -0.89128337790E+01  0.12494543047E+02  0.51100000000E-03 0. -1.
        -11    1    4    4    0    0 -0.64675949497E+01  0.18355044782E+01 -0.12302991225E+02  0.14020073269E+02  0.51100000000E-03 0.  1.
        -12    1    4    4    0    0  0.53318187615E+01  0.10216280025E+02 -0.17880862477E+02  0.21272656435E+02  0.00000000000E+00 0.  1.
</event>
<event>
 8    1  0.2994958E-010  0.9118800E+02  0.7816164E-02  0.1184000E+00
        -11   -1    0    0    0    0  0.00000000000E+00  0.00000000000E+00  0.45593999997E+02  0.45594000000E+02  0.51100000000E-03 0. -1.
         11   -1    0    0    0    0 -0.00000000000E+00 -0.00000000000E+00 -0.45593999997E+02  0.45594000000E+02  0.51100000000E-03 0.  1.
         23    2    1    2    0    0  0.00000000000E+00 -0.17763568394E-14  0.00000000000E+00  0.91188000000E+02  0.91188000000E+02 0.  0.
    9900012    2    3    3    0    0 -0.52928211193E+01 -0.14736865400E+02 -0.40477574208E+02  0.47787272229E+02  0.20000005403E+02 0.  0.
         12    1    3    3    0    0  0.52928211193E+01  0.14736865400E+02  0.40477574208E+02  0.43400727771E+02  0.00000000000E+00 0. -1.
         11    1    4    4    0    0  0.25020639941E+01  0.17530666664E+01 -0.20261456100E+01  0.36659014255E+01  0.51100000000E-03 0. -1.
        -11    1    4    4    0    0 -0.39442330169E+01 -0.48829137994E+01 -0.37121102276E+01  0.72924333296E+01  0.51100000000E-03 0.  1.
        -12    1    4    4    0    0 -0.38506520965E+01 -0.11607018267E+02 -0.34739318371E+02  0.36828937474E+02  0.00000000000E+00 0.  1.
</event>
<event>
 8    1  0.2994958E-010  0.9118800E+02  0.7816164E-02  0.1184000E+00
        -11   -1    0    0    0    0  0.00000000000E+00  0.00000000000E+00  0.45593999997E+02  0.45594000000E+02  0.51100000000E-03 0. -1.
         11   -1    0    0    0    0 -0.00000000000E+00 -0.00000000000E+00 -0.45593999997E+02  0.45594000000E+02  0.51100000000E-03 0.  1.
         23    2    1    2    0    0 -0.17763568394E-14  0.35527136788E-14  0.71054273576E-14  0.91188000000E+02  0.91188000000E+02 0.  0.
    9900012    2    3    3    0    0  0.15965377845E+02 -0.21731578221E+02 -0.34006884052E+02  0.47787274837E+02  0.20000017294E+02 0.  0.
         12    1    3    3    0    0 -0.15965377845E+02  0.21731578221E+02  0.34006884052E+02  0.43400725163E+02  0.00000000000E+00 0. -1.
         11    1    4    4    0    0  0.85867995599E+01 -0.14000661536E+02 -0.28982379402E+02  0.33312609717E+02  0.51100000000E-03 0. -1.
        -11    1    4    4    0    0  0.22321302271E+01 -0.75727140504E+01 -0.49633773134E+01  0.93254232106E+01  0.51100000000E-03 0.  1.
         12    1    4    4    0    0  0.51464480583E+01 -0.15820263511E+00 -0.61127336390E-01  0.51492419095E+01  0.00000000000E+00 0. -1.
</event>
<event>
 8    1  0.2994958E-010  0.9118800E+02  0.7816164E-02  0.1184000E+00
        -11   -1    0    0    0    0  0.00000000000E+00  0.00000000000E+00  0.45593999997E+02  0.45594000000E+02  0.51100000000E-03 0. -1.
         11   -1    0    0    0    0 -0.00000000000E+00 -0.00000000000E+00 -0.45593999997E+02  0.45594000000E+02  0.51100000000E-03 0.  1.
         23    2    1    2    0    0  0.00000000000E+00  0.44408920985E-15  0.00000000000E+00  0.91188000000E+02  0.91188000000E+02 0.  0.
    9900012    2    3    3    0    0 -0.20661215076E+02 -0.28777084613E+01  0.38058593966E+02  0.47787267414E+02  0.19999983446E+02 0.  0.
        -12    1    3    3    0    0  0.20661215076E+02  0.28777084613E+01 -0.38058593966E+02  0.43400732586E+02  0.00000000000E+00 0.  1.
         11    1    4    4    0    0 -0.81330279560E+01 -0.61357250543E+01  0.14148365859E+02  0.17434721748E+02  0.51100000000E-03 0. -1.
        -11    1    4    4    0    0 -0.21273434375E+01  0.14524306664E+00 -0.15752025724E+01  0.26510279241E+01  0.51100000000E-03 0.  1.
         12    1    4    4    0    0 -0.10400843682E+02  0.31127735264E+01  0.25485430679E+02  0.27701517742E+02  0.00000000000E+00 0. -1.
</event>
<event>
 8    1  0.2994958E-010  0.9118800E+02  0.7816164E-02  0.1184000E+00
        -11   -1    0    0    0    0  0.00000000000E+00  0.00000000000E+00  0.45593999997E+02  0.45594000000E+02  0.51100000000E-03 0. -1.
         11   -1    0    0    0    0 -0.00000000000E+00 -0.00000000000E+00 -0.45593999997E+02  0.45594000000E+02  0.51100000000E-03 0.  1.
         23    2    1    2    0    0  0.35527136788E-14  0.88817841970E-15  0.00000000000E+00  0.91188000000E+02  0.91188000000E+02 0.  0.
    9900012    2    3    3    0    0 -0.22120829857E+02 -0.30326932791E+01  0.37216859983E+02  0.47787274095E+02  0.20000013907E+02 0.  0.
        -12    1    3    3    0    0  0.22120829857E+02  0.30326932791E+01 -0.37216859983E+02  0.43400725905E+02  0.00000000000E+00 0.  1.
         11    1    4    4    0    0 -0.10848166562E+02  0.55179202475E+01  0.26474058692E+02  0.29137706593E+02  0.51100000000E-03 0. -1.
        -11    1    4    4    0    0 -0.63374848700E+00 -0.53299937936E+00 -0.70289433995E+00  0.10861796341E+01  0.51100000000E-03 0.  1.
         12    1    4    4    0    0 -0.10638914808E+02 -0.80176141472E+01  0.11445695631E+02  0.17563387867E+02  0.00000000000E+00 0. -1.
</event>
<event>
 8    1  0.2994958E-010  0.9118800E+02  0.7816164E-02  0.1184000E+00
        -11   -1    0    0    0    0  0.00000000000E+00  0.00000000000E+00  0.45593999997E+02  0.45594000000E+02  0.51100000000E-03 0. -1.
         11   -1    0    0    0    0 -0.00000000000E+00 -0.00000000000E+00 -0.45593999997E+02  0.45594000000E+02  0.51100000000E-03 0.  1.
         23    2    1    2    0    0  0.00000000000E+00  0.00000000000E+00  0.00000000000E+00  0.91188000000E+02  0.91188000000E+02 0.  0.
    9900012    2    3    3    0    0 -0.16634585098E+02  0.31394481535E+02  0.24925890734E+02  0.47787275109E+02  0.20000018531E+02 0.  0.
        -12    1    3    3    0    0  0.16634585098E+02 -0.31394481535E+02 -0.24925890734E+02  0.43400724891E+02  0.00000000000E+00 0.  1.
         11    1    4    4    0    0  0.16479654778E+01  0.57683944759E+01  0.63051797398E+01  0.87031865921E+01  0.51100000000E-03 0. -1.
        -11    1    4    4    0    0  0.21448904009E+01  0.11233632306E+01  0.18241999052E+01  0.30315351449E+01  0.51100000000E-03 0.  1.
        -12    1    4    4    0    0 -0.20427440977E+02  0.24502723828E+02  0.16796511089E+02  0.36052553372E+02  0.00000000000E+00 0.  1.
</event>
<event>
 8    1  0.2994958E-010  0.9118800E+02  0.7816164E-02  0.1184000E+00
        -11   -1    0    0    0    0  0.00000000000E+00  0.00000000000E+00  0.45593999997E+02  0.45594000000E+02  0.51100000000E-03 0. -1.
         11   -1    0    0    0    0 -0.00000000000E+00 -0.00000000000E+00 -0.45593999997E+02  0.45594000000E+02  0.51100000000E-03 0.  1.
         23    2    1    2    0    0  0.00000000000E+00  0.00000000000E+00 -0.71054273576E-14  0.91188000000E+02  0.91188000000E+02 0.  0.
    9900012    2    3    3    0    0 -0.10289864135E+02 -0.10277673944E+02  0.40891426806E+02  0.47787301021E+02  0.20000136675E+02 0.  0.
        -12    1    3    3    0    0  0.10289864135E+02  0.10277673944E+02 -0.40891426806E+02  0.43400698979E+02  0.00000000000E+00 0.  1.
         11    1    4    4    0    0 -0.78222571644E+01  0.20618736902E+01  0.13061268689E+02  0.15363455675E+02  0.51100000000E-03 0. -1.
        -11    1    4    4    0    0 -0.29167088182E+01  0.78833531042E+00  0.26299614329E+01  0.40056660234E+01  0.51100000000E-03 0.  1.
        -12    1    4    4    0    0  0.44910184741E+00 -0.13127882945E+02  0.25200196684E+02  0.28418179322E+02  0.00000000000E+00 0.  1.
</event>
<event>
 8    1  0.2994958E-010  0.9118800E+02  0.7816164E-02  0.1184000E+00
        -11   -1    0    0    0    0  0.00000000000E+00  0.00000000000E+00  0.45593999997E+02  0.45594000000E+02  0.51100000000E-03 0. -1.
         11   -1    0    0    0    0 -0.00000000000E+00 -0.00000000000E+00 -0.45593999997E+02  0.45594000000E+02  0.51100000000E-03 0.  1.
         23    2    1    2    0    0  0.00000000000E+00  0.35527136788E-14  0.17763568394E-14  0.91188000000E+02  0.91188000000E+02 0.  0.
    9900012    2    3    3    0    0  0.33098054866E+02 -0.23343445078E+02 -0.15595675749E+02  0.47787276894E+02  0.20000026672E+02 0.  0.
         12    1    3    3    0    0 -0.33098054866E+02  0.23343445078E+02  0.15595675749E+02  0.43400723106E+02  0.00000000000E+00 0. -1.
         11    1    4    4    0    0 -0.24651072149E+01 -0.30042154679E+01 -0.12699133247E+01  0.40883669444E+01  0.51100000000E-03 0. -1.
        -11    1    4    4    0    0  0.63479590307E+01 -0.20574809829E+01 -0.37213600831E+01  0.76405715087E+01  0.51100000000E-03 0.  1.
        -12    1    4    4    0    0  0.29215203050E+02 -0.18281748627E+02 -0.10604402341E+02  0.36058338441E+02  0.00000000000E+00 0.  1.
</event>
<event>
 8    1  0.2994958E-010  0.9118800E+02  0.7816164E-02  0.1184000E+00
        -11   -1    0    0    0    0  0.00000000000E+00  0.00000000000E+00  0.45593999997E+02  0.45594000000E+02  0.51100000000E-03 0. -1.
         11   -1    0    0    0    0 -0.00000000000E+00 -0.00000000000E+00 -0.45593999997E+02  0.45594000000E+02  0.51100000000E-03 0.  1.
         23    2    1    2    0    0  0.00000000000E+00 -0.35527136788E-14  0.00000000000E+00  0.91188000000E+02  0.91188000000E+02 0.  0.
    9900012    2    3    3    0    0 -0.27887566741E+02  0.29660594352E+02 -0.15038469859E+02  0.47787276368E+02  0.20000024273E+02 0.  0.
         12    1    3    3    0    0  0.27887566741E+02 -0.29660594352E+02  0.15038469859E+02  0.43400723632E+02  0.00000000000E+00 0. -1.
         11    1    4    4    0    0 -0.13874961184E+02  0.17329945854E+02 -0.15305451656E+01  0.22252733313E+02  0.51100000000E-03 0. -1.
        -11    1    4    4    0    0 -0.93077418058E+01  0.35578730863E+01 -0.17306641695E+01  0.10113739029E+02  0.51100000000E-03 0.  1.
         12    1    4    4    0    0 -0.47048637518E+01  0.87727754120E+01 -0.11777260524E+02  0.15420804026E+02  0.00000000000E+00 0. -1.
</event>
<event>
 8    1  0.2994958E-010  0.9118800E+02  0.7816164E-02  0.1184000E+00
        -11   -1    0    0    0    0  0.00000000000E+00  0.00000000000E+00  0.45593999997E+02  0.45594000000E+02  0.51100000000E-03 0. -1.
         11   -1    0    0    0    0 -0.00000000000E+00 -0.00000000000E+00 -0.45593999997E+02  0.45594000000E+02  0.51100000000E-03 0.  1.
         23    2    1    2    0    0  0.00000000000E+00  0.00000000000E+00  0.88817841970E-15  0.91188000000E+02  0.91188000000E+02 0.  0.
    9900012    2    3    3    0    0  0.36891732883E+02  0.22168365224E+02 -0.55845149229E+01  0.47787272140E+02  0.20000004997E+02 0.  0.
         12    1    3    3    0    0 -0.36891732883E+02 -0.22168365224E+02  0.55845149229E+01  0.43400727860E+02  0.00000000000E+00 0. -1.
         11    1    4    4    0    0  0.59786851873E+01  0.54382904245E+01  0.36502330437E+01  0.88681385219E+01  0.51100000000E-03 0. -1.
        -11    1    4    4    0    0  0.60790121673E+01  0.23187225745E+01  0.36364871208E+01  0.74535160930E+01  0.51100000000E-03 0.  1.
        -12    1    4    4    0    0  0.24834035529E+02  0.14411352225E+02 -0.12871235087E+02  0.31465617525E+02  0.00000000000E+00 0.  1.
</event>
<event>
 8    1  0.2994958E-010  0.9118800E+02  0.7816164E-02  0.1184000E+00
        -11   -1    0    0    0    0  0.00000000000E+00  0.00000000000E+00  0.45593999997E+02  0.45594000000E+02  0.51100000000E-03 0. -1.
         11   -1    0    0    0    0 -0.00000000000E+00 -0.00000000000E+00 -0.45593999997E+02  0.45594000000E+02  0.51100000000E-03 0.  1.
         23    2    1    2    0    0  0.00000000000E+00  0.35527136788E-14  0.00000000000E+00  0.91188000000E+02  0.91188000000E+02 0.  0.
    9900012    2    3    3    0    0  0.21240652298E+02 -0.19326593361E+02 -0.32541369432E+02  0.47787271372E+02  0.20000001492E+02 0.  0.
         12    1    3    3    0    0 -0.21240652298E+02  0.19326593361E+02  0.32541369432E+02  0.43400728628E+02  0.00000000000E+00 0. -1.
         11    1    4    4    0    0  0.49471147854E+00  0.14347516285E+01 -0.32767611053E+01  0.36111515178E+01  0.51100000000E-03 0. -1.
        -11    1    4    4    0    0  0.13286048822E+02 -0.43724011323E+01 -0.18516108286E+02  0.23205241892E+02  0.51100000000E-03 0.  1.
         12    1    4    4    0    0  0.74598919971E+01 -0.16388943857E+02 -0.10748500041E+02  0.20970877961E+02  0.00000000000E+00 0. -1.
</event>
<event>
 8    1  0.2994958E-010  0.9118800E+02  0.7816164E-02  0.1184000E+00
        -11   -1    0    0    0    0  0.00000000000E+00  0.00000000000E+00  0.45593999997E+02  0.45594000000E+02  0.51100000000E-03 0. -1.
         11   -1    0    0    0    0 -0.00000000000E+00 -0.00000000000E+00 -0.45593999997E+02  0.45594000000E+02  0.51100000000E-03 0.  1.
         23    2    1    2    0    0  0.00000000000E+00 -0.44408920985E-15  0.00000000000E+00  0.91188000000E+02  0.91188000000E+02 0.  0.
    9900012    2    3    3    0    0  0.27451306900E+02 -0.29957417532E+01 -0.33482448849E+02  0.47787273047E+02  0.20000009130E+02 0.  0.
         12    1    3    3    0    0 -0.27451306900E+02  0.29957417532E+01  0.33482448849E+02  0.43400726953E+02  0.00000000000E+00 0. -1.
         11    1    4    4    0    0  0.21407170190E+01  0.26053200469E+01 -0.77004000934E+00  0.34588038076E+01  0.51100000000E-03 0. -1.
        -11    1    4    4    0    0  0.86146499680E+01 -0.79343708405E+01 -0.71954888886E+01  0.13745599125E+02  0.51100000000E-03 0.  1.
        -12    1    4    4    0    0  0.16695939913E+02  0.23333090404E+01 -0.25516919951E+02  0.30582870114E+02  0.00000000000E+00 0.  1.
</event>
<event>
 8    1  0.2994958E-010  0.9118800E+02  0.7816164E-02  0.1184000E+00
        -11   -1    0    0    0    0  0.00000000000E+00  0.00000000000E+00  0.45593999997E+02  0.45594000000E+02  0.51100000000E-03 0. -1.
         11   -1    0    0    0    0 -0.00000000000E+00 -0.00000000000E+00 -0.45593999997E+02  0.45594000000E+02  0.51100000000E-03 0.  1.
         23    2    1    2    0    0  0.00000000000E+00  0.00000000000E+00  0.00000000000E+00  0.91188000000E+02  0.91188000000E+02 0.  0.
    9900012    2    3    3    0    0  0.33237592534E+02  0.18876891081E+02 -0.20555990672E+02  0.47787270434E+02  0.19999997217E+02 0.  0.
         12    1    3    3    0    0 -0.33237592534E+02 -0.18876891081E+02  0.20555990672E+02  0.43400729566E+02  0.00000000000E+00 0. -1.
         11    1    4    4    0    0  0.13073744413E+02  0.23618741834E+01 -0.12712389845E+01  0.13346059024E+02  0.51100000000E-03 0. -1.
        -11    1    4    4    0    0  0.96950064721E+01  0.79198584338E+01 -0.23192050920E+01  0.12731693549E+02  0.51100000000E-03 0.  1.
        -12    1    4    4    0    0  0.10468841648E+02  0.85951584641E+01 -0.16965546596E+02  0.21709517862E+02  0.00000000000E+00 0.  1.
</event>
<event>
 8    1  0.2994958E-010  0.9118800E+02  0.7816164E-02  0.1184000E+00
        -11   -1    0    0    0    0  0.00000000000E+00  0.00000000000E+00  0.45593999997E+02  0.45594000000E+02  0.51100000000E-03 0. -1.
         11   -1    0    0    0    0 -0.00000000000E+00 -0.00000000000E+00 -0.45593999997E+02  0.45594000000E+02  0.51100000000E-03 0.  1.
         23    2    1    2    0    0  0.17763568394E-14  0.00000000000E+00  0.35527136788E-14  0.91188000000E+02  0.91188000000E+02 0.  0.
    9900012    2    3    3    0    0  0.13995742199E+02 -0.29302545246E+02  0.28794151838E+02  0.47787272614E+02  0.20000007154E+02 0.  0.
        -12    1    3    3    0    0 -0.13995742199E+02  0.29302545246E+02 -0.28794151838E+02  0.43400727386E+02  0.00000000000E+00 0.  1.
         11    1    4    4    0    0 -0.22481020392E+01 -0.32707448092E+01  0.10743575729E+02  0.11453215885E+02  0.51100000000E-03 0. -1.
        -11    1    4    4    0    0  0.79727809077E-01  0.35740348167E+00  0.85767998298E+00  0.93258189269E+00  0.51100000000E-03 0.  1.
        -12    1    4    4    0    0  0.16164116429E+02 -0.26389203919E+02  0.17192896125E+02  0.35401474836E+02  0.00000000000E+00 0.  1.
</event>
<event>
 8    1  0.2994958E-010  0.9118800E+02  0.7816164E-02  0.1184000E+00
        -11   -1    0    0    0    0  0.00000000000E+00  0.00000000000E+00  0.45593999997E+02  0.45594000000E+02  0.51100000000E-03 0. -1.
         11   -1    0    0    0    0 -0.00000000000E+00 -0.00000000000E+00 -0.45593999997E+02  0.45594000000E+02  0.51100000000E-03 0.  1.
         23    2    1    2    0    0  0.00000000000E+00 -0.17763568394E-14  0.00000000000E+00  0.91188000000E+02  0.91188000000E+02 0.  0.
    9900012    2    3    3    0    0  0.35081766124E+02 -0.14352860010E+02  0.21139733482E+02  0.47787271474E+02  0.20000001960E+02 0.  0.
        -12    1    3    3    0    0 -0.35081766124E+02  0.14352860010E+02 -0.21139733482E+02  0.43400728526E+02  0.00000000000E+00 0.  1.
         11    1    4    4    0    0  0.13966966466E+02 -0.67357197200E+01  0.77465041685E+01  0.17333620496E+02  0.51100000000E-03 0. -1.
        -11    1    4    4    0    0  0.75462653499E+01 -0.10995021846E+02  0.72770236163E+01  0.15191830011E+02  0.51100000000E-03 0.  1.
         12    1    4    4    0    0  0.13568534308E+02  0.33778815561E+01  0.61162056974E+01  0.15261820966E+02  0.00000000000E+00 0. -1.
</event>
<event>
 8    1  0.2994958E-010  0.9118800E+02  0.7816164E-02  0.1184000E+00
        -11   -1    0    0    0    0  0.00000000000E+00  0.00000000000E+00  0.45593999997E+02  0.45594000000E+02  0.51100000000E-03 0. -1.
         11   -1    0    0    0    0 -0.00000000000E+00 -0.00000000000E+00 -0.45593999997E+02  0.45594000000E+02  0.51100000000E-03 0.  1.
         23    2    1    2    0    0  0.17763568394E-14  0.00000000000E+00  0.00000000000E+00  0.91188000000E+02  0.91188000000E+02 0.  0.
    9900012    2    3    3    0    0 -0.15319556395E+02 -0.20543418786E+02  0.35027168727E+02  0.47787269446E+02  0.19999992713E+02 0.  0.
        -12    1    3    3    0    0  0.15319556395E+02  0.20543418786E+02 -0.35027168727E+02  0.43400730554E+02  0.00000000000E+00 0.  1.
         11    1    4    4    0    0  0.23428062912E+01 -0.11041873375E+02  0.95188387525E+01  0.14765500344E+02  0.51100000000E-03 0. -1.
        -11    1    4    4    0    0 -0.88135542845E+00 -0.17083555602E+01  0.64116329366E+00  0.20264147507E+01  0.51100000000E-03 0.  1.
        -12    1    4    4    0    0 -0.16781007258E+02 -0.77931898500E+01  0.24867166681E+02  0.30995354351E+02  0.00000000000E+00 0.  1.
</event>
<event>
 8    1  0.2994958E-010  0.9118800E+02  0.7816164E-02  0.1184000E+00
        -11   -1    0    0    0    0  0.00000000000E+00  0.00000000000E+00  0.45593999997E+02  0.45594000000E+02  0.51100000000E-03 0.  1.
         11   -1    0    0    0    0 -0.00000000000E+00 -0.00000000000E+00 -0.45593999997E+02  0.45594000000E+02  0.51100000000E-03 0. -1.
         23    2    1    2    0    0  0.00000000000E+00  0.00000000000E+00  0.00000000000E+00  0.91188000000E+02  0.91188000000E+02 0.  0.
    9900012    2    3    3    0    0 -0.32226978801E+02  0.12012916986E+02 -0.26471401862E+02  0.47787268973E+02  0.19999990554E+02 0.  0.
         12    1    3    3    0    0  0.32226978801E+02 -0.12012916986E+02  0.26471401862E+02  0.43400731027E+02  0.00000000000E+00 0. -1.
         11    1    4    4    0    0 -0.15626472351E+02 -0.26413803408E+01 -0.46908183686E+01  0.16527773760E+02  0.51100000000E-03 0.  1.
        -11    1    4    4    0    0 -0.98923055037E+00  0.85311129002E+00 -0.27297343192E+01  0.30261899592E+01  0.51100000000E-03 0. -1.
         12    1    4    4    0    0 -0.15611275900E+02  0.13801186037E+02 -0.19050849175E+02  0.28233305253E+02  0.00000000000E+00 0. -1.
</event>
<event>
 8    1  0.2994958E-010  0.9118800E+02  0.7816164E-02  0.1184000E+00
        -11   -1    0    0    0    0  0.00000000000E+00  0.00000000000E+00  0.45593999997E+02  0.45594000000E+02  0.51100000000E-03 0. -1.
         11   -1    0    0    0    0 -0.00000000000E+00 -0.00000000000E+00 -0.45593999997E+02  0.45594000000E+02  0.51100000000E-03 0.  1.
         23    2    1    2    0    0  0.35527136788E-14  0.00000000000E+00 -0.35527136788E-14  0.91188000000E+02  0.91188000000E+02 0.  0.
    9900012    2    3    3    0    0 -0.11364805722E+02  0.36177832396E+02  0.21109921137E+02  0.47787272628E+02  0.20000007222E+02 0.  0.
        -12    1    3    3    0    0  0.11364805722E+02 -0.36177832396E+02 -0.21109921137E+02  0.43400727372E+02  0.00000000000E+00 0.  1.
         11    1    4    4    0    0 -0.51907391537E+01  0.85196965001E+01  0.10158274140E+02  0.14237961061E+02  0.51100000000E-03 0. -1.
        -11    1    4    4    0    0 -0.61132429875E+01  0.30907205129E+01  0.43343813324E+01  0.81062417253E+01  0.51100000000E-03 0.  1.
         12    1    4    4    0    0 -0.60823581122E-01  0.24567415383E+02  0.66172656647E+01  0.25443069842E+02  0.00000000000E+00 0. -1.
</event>
<event>
 8    1  0.2994958E-010  0.9118800E+02  0.7816164E-02  0.1184000E+00
        -11   -1    0    0    0    0  0.00000000000E+00  0.00000000000E+00  0.45593999997E+02  0.45594000000E+02  0.51100000000E-03 0. -1.
         11   -1    0    0    0    0 -0.00000000000E+00 -0.00000000000E+00 -0.45593999997E+02  0.45594000000E+02  0.51100000000E-03 0.  1.
         23    2    1    2    0    0  0.88817841970E-15  0.44408920985E-15  0.00000000000E+00  0.91188000000E+02  0.91188000000E+02 0.  0.
    9900012    2    3    3    0    0  0.39014137263E+01 -0.22206360493E+01  0.43167938520E+02  0.47787272246E+02  0.20000005478E+02 0.  0.
        -12    1    3    3    0    0 -0.39014137263E+01  0.22206360493E+01 -0.43167938520E+02  0.43400727754E+02  0.00000000000E+00 0.  1.
         11    1    4    4    0    0 -0.20985672771E+01 -0.13546802389E+01  0.23358053852E+02  0.23491228643E+02  0.51100000000E-03 0. -1.
        -11    1    4    4    0    0 -0.29858164864E+01  0.30448637864E+01  0.58193836041E+01  0.72146740301E+01  0.51100000000E-03 0.  1.
        -12    1    4    4    0    0  0.89857974898E+01 -0.39108195968E+01  0.13990501064E+02  0.17081369573E+02  0.00000000000E+00 0.  1.
</event>
<event>
 8    1  0.2994958E-010  0.9118800E+02  0.7816164E-02  0.1184000E+00
        -11   -1    0    0    0    0  0.00000000000E+00  0.00000000000E+00  0.45593999997E+02  0.45594000000E+02  0.51100000000E-03 0. -1.
         11   -1    0    0    0    0 -0.00000000000E+00 -0.00000000000E+00 -0.45593999997E+02  0.45594000000E+02  0.51100000000E-03 0.  1.
         23    2    1    2    0    0  0.00000000000E+00  0.00000000000E+00  0.00000000000E+00  0.91188000000E+02  0.91188000000E+02 0.  0.
    9900012    2    3    3    0    0  0.15330177545E+02  0.19097463017E+02 -0.35831492787E+02  0.47787270599E+02  0.19999997967E+02 0.  0.
         12    1    3    3    0    0 -0.15330177545E+02 -0.19097463017E+02  0.35831492787E+02  0.43400729401E+02  0.00000000000E+00 0. -1.
         11    1    4    4    0    0 -0.15092816364E+01  0.10811112544E+01 -0.15296219836E+01  0.24055095669E+01  0.51100000000E-03 0. -1.
        -11    1    4    4    0    0  0.14947762841E+02  0.11098202124E+02 -0.12484609458E+02  0.22415868885E+02  0.51100000000E-03 0.  1.
         12    1    4    4    0    0  0.18916963414E+01  0.69181496391E+01 -0.21817261345E+02  0.22965892146E+02  0.00000000000E+00 0. -1.
</event>
<event>
 8    1  0.3213397E-010  0.9118800E+02  0.7816164E-02  0.1184000E+00
        -11   -1    0    0    0    0  0.00000000000E+00  0.00000000000E+00  0.45593999997E+02  0.45594000000E+02  0.51100000000E-03 0. -1.
         11   -1    0    0    0    0 -0.00000000000E+00 -0.00000000000E+00 -0.45593999997E+02  0.45594000000E+02  0.51100000000E-03 0.  1.
         23    2    1    2    0    0 -0.44408920985E-15  0.00000000000E+00  0.00000000000E+00  0.91188000000E+02  0.91188000000E+02 0.  0.
    9900012    2    3    3    0    0 -0.33183976342E+01 -0.16918674006E+02  0.39829259948E+02  0.47787271424E+02  0.20000001728E+02 0.  0.
        -12    1    3    3    0    0  0.33183976342E+01  0.16918674006E+02 -0.39829259948E+02  0.43400728576E+02  0.00000000000E+00 0.  1.
         11    1    4    4    0    0 -0.15429418421E+00  0.27201794910E+01  0.45379539938E+01  0.52930340892E+01  0.51100000000E-03 0. -1.
        -11    1    4    4    0    0  0.38307343674E+01 -0.25501034234E+01  0.37105504662E+01  0.59114920525E+01  0.51100000000E-03 0.  1.
         12    1    4    4    0    0 -0.69948378174E+01 -0.17088750074E+02  0.31580755488E+02  0.36582745282E+02  0.00000000000E+00 0. -1.
</event>
<event>
 8    1  0.2994958E-010  0.9118800E+02  0.7816164E-02  0.1184000E+00
        -11   -1    0    0    0    0  0.00000000000E+00  0.00000000000E+00  0.45593999997E+02  0.45594000000E+02  0.51100000000E-03 0. -1.
         11   -1    0    0    0    0 -0.00000000000E+00 -0.00000000000E+00 -0.45593999997E+02  0.45594000000E+02  0.51100000000E-03 0.  1.
         23    2    1    2    0    0  0.00000000000E+00  0.88817841970E-15  0.35527136788E-14  0.91188000000E+02  0.91188000000E+02 0.  0.
    9900012    2    3    3    0    0  0.29547890814E+02  0.31136932360E+01 -0.31636217163E+02  0.47787272200E+02  0.20000005271E+02 0.  0.
         12    1    3    3    0    0 -0.29547890814E+02 -0.31136932360E+01  0.31636217163E+02  0.43400727800E+02  0.00000000000E+00 0. -1.
         11    1    4    4    0    0  0.31178918631E+01 -0.15008998465E+01  0.34376142577E+00  0.34773728874E+01  0.51100000000E-03 0. -1.
        -11    1    4    4    0    0  0.92597802499E+01 -0.44813481265E+01 -0.16599241748E+02  0.19528462259E+02  0.51100000000E-03 0.  1.
         12    1    4    4    0    0  0.17170218702E+02  0.90959412089E+01 -0.15380736840E+02  0.24781437054E+02  0.00000000000E+00 0. -1.
</event>
<event>
 8    1  0.2994958E-010  0.9118800E+02  0.7816164E-02  0.1184000E+00
        -11   -1    0    0    0    0  0.00000000000E+00  0.00000000000E+00  0.45593999997E+02  0.45594000000E+02  0.51100000000E-03 0. -1.
         11   -1    0    0    0    0 -0.00000000000E+00 -0.00000000000E+00 -0.45593999997E+02  0.45594000000E+02  0.51100000000E-03 0.  1.
         23    2    1    2    0    0  0.00000000000E+00  0.35527136788E-14  0.00000000000E+00  0.91188000000E+02  0.91188000000E+02 0.  0.
    9900012    2    3    3    0    0 -0.16881199185E+02  0.22524042935E+02  0.33035071562E+02  0.47787270177E+02  0.19999996045E+02 0.  0.
        -12    1    3    3    0    0  0.16881199185E+02 -0.22524042935E+02 -0.33035071562E+02  0.43400729823E+02  0.00000000000E+00 0.  1.
         11    1    4    4    0    0 -0.60483770383E+01  0.13956410093E+02  0.20162419451E+02  0.25256432960E+02  0.51100000000E-03 0. -1.
        -11    1    4    4    0    0 -0.40528332889E+01  0.31134337470E+01  0.12850297880E+02  0.13829283540E+02  0.51100000000E-03 0.  1.
        -12    1    4    4    0    0 -0.67799888581E+01  0.54541990946E+01  0.22354230710E-01  0.87015536769E+01  0.00000000000E+00 0.  1.
</event>
<event>
 8    1  0.2994958E-010  0.9118800E+02  0.7816164E-02  0.1184000E+00
        -11   -1    0    0    0    0  0.00000000000E+00  0.00000000000E+00  0.45593999997E+02  0.45594000000E+02  0.51100000000E-03 0. -1.
         11   -1    0    0    0    0 -0.00000000000E+00 -0.00000000000E+00 -0.45593999997E+02  0.45594000000E+02  0.51100000000E-03 0.  1.
         23    2    1    2    0    0  0.00000000000E+00  0.35527136788E-14  0.00000000000E+00  0.91188000000E+02  0.91188000000E+02 0.  0.
    9900012    2    3    3    0    0 -0.25189462234E+02 -0.25881168961E+02 -0.24068225871E+02  0.47787269464E+02  0.19999992796E+02 0.  0.
         12    1    3    3    0    0  0.25189462234E+02  0.25881168961E+02  0.24068225871E+02  0.43400730536E+02  0.00000000000E+00 0. -1.
         11    1    4    4    0    0 -0.85002938384E+01 -0.87803885760E+01 -0.76594968066E+00  0.12244872317E+02  0.51100000000E-03 0. -1.
        -11    1    4    4    0    0 -0.35601215935E+01  0.13915900818E+01 -0.15718971607E+01  0.41330194364E+01  0.51100000000E-03 0.  1.
        -12    1    4    4    0    0 -0.13129046803E+02 -0.18492370466E+02 -0.21730379030E+02  0.31409377711E+02  0.00000000000E+00 0.  1.
</event>
<event>
 8    1  0.2994958E-010  0.9118800E+02  0.7816164E-02  0.1184000E+00
        -11   -1    0    0    0    0  0.00000000000E+00  0.00000000000E+00  0.45593999997E+02  0.45594000000E+02  0.51100000000E-03 0. -1.
         11   -1    0    0    0    0 -0.00000000000E+00 -0.00000000000E+00 -0.45593999997E+02  0.45594000000E+02  0.51100000000E-03 0.  1.
         23    2    1    2    0    0  0.00000000000E+00  0.00000000000E+00 -0.17763568394E-14  0.91188000000E+02  0.91188000000E+02 0.  0.
    9900012    2    3    3    0    0 -0.40052026222E+02 -0.49298167176E+01  0.15973572979E+02  0.47787274994E+02  0.20000018006E+02 0.  0.
        -12    1    3    3    0    0  0.40052026222E+02  0.49298167176E+01 -0.15973572979E+02  0.43400725006E+02  0.00000000000E+00 0.  1.
         11    1    4    4    0    0 -0.62597603002E+01  0.30059295822E+01  0.51910580812E+01  0.86699074927E+01  0.51100000000E-03 0. -1.
        -11    1    4    4    0    0  0.93500338563E+00 -0.35405669997E+00 -0.12410051940E+01  0.15936378605E+01  0.51100000000E-03 0.  1.
        -12    1    4    4    0    0 -0.34727269307E+02 -0.75816895998E+01  0.12023520092E+02  0.37523729640E+02  0.00000000000E+00 0.  1.
</event>
<event>
 8    1 -0.6916290E-010  0.9118800E+02  0.7816164E-02  0.1184000E+00
        -11   -1    0    0    0    0  0.00000000000E+00  0.00000000000E+00  0.45593999997E+02  0.45594000000E+02  0.51100000000E-03 0. -1.
         11   -1    0    0    0    0 -0.00000000000E+00 -0.00000000000E+00 -0.45593999997E+02  0.45594000000E+02  0.51100000000E-03 0.  1.
         23    2    1    2    0    0  0.88817841970E-15 -0.13322676296E-14  0.00000000000E+00  0.91188000000E+02  0.91188000000E+02 0.  0.
    9900012    2    3    3    0    0  0.32789038645E+01  0.36545119035E+01 -0.43122110426E+02  0.47787273331E+02  0.20000010425E+02 0.  0.
         12    1    3    3    0    0 -0.32789038645E+01 -0.36545119035E+01  0.43122110426E+02  0.43400726669E+02  0.00000000000E+00 0. -1.
         11    1    4    4    0    0 -0.23542280632E+01  0.20952714547E+01 -0.22887990681E+01  0.38950165183E+01  0.51100000000E-03 0. -1.
        -11    1    4    4    0    0  0.80283003987E+01  0.61045158062E+01 -0.19557233828E+02  0.22004638506E+02  0.51100000000E-03 0.  1.
        -12    1    4    4    0    0 -0.23951684711E+01 -0.45452753574E+01 -0.21276077529E+02  0.21887618306E+02  0.00000000000E+00 0.  1.
</event>
<event>
 8    1  0.2994958E-010  0.9118800E+02  0.7816164E-02  0.1184000E+00
        -11   -1    0    0    0    0  0.00000000000E+00  0.00000000000E+00  0.45593999997E+02  0.45594000000E+02  0.51100000000E-03 0. -1.
         11   -1    0    0    0    0 -0.00000000000E+00 -0.00000000000E+00 -0.45593999997E+02  0.45594000000E+02  0.51100000000E-03 0.  1.
         23    2    1    2    0    0  0.17763568394E-14  0.00000000000E+00 -0.71054273576E-14  0.91188000000E+02  0.91188000000E+02 0.  0.
    9900012    2    3    3    0    0 -0.15124890956E+02  0.10429796708E+02  0.39320227832E+02  0.47787270714E+02  0.19999998492E+02 0.  0.
        -12    1    3    3    0    0  0.15124890956E+02 -0.10429796708E+02 -0.39320227832E+02  0.43400729286E+02  0.00000000000E+00 0.  1.
         11    1    4    4    0    0 -0.12151573700E+02  0.83979525818E+01  0.16798458744E+02  0.22369053788E+02  0.51100000000E-03 0.  1.
        -11    1    4    4    0    0 -0.48642161189E+01 -0.24173113290E+01  0.55272500036E+01  0.77494829102E+01  0.51100000000E-03 0. -1.
         12    1    4    4    0    0  0.18908988628E+01  0.44491554556E+01  0.16994519085E+02  0.17668734015E+02  0.00000000000E+00 0. -1.
</event>
<event>
 8    1  0.2994958E-010  0.9118800E+02  0.7816164E-02  0.1184000E+00
        -11   -1    0    0    0    0  0.00000000000E+00  0.00000000000E+00  0.45593999997E+02  0.45594000000E+02  0.51100000000E-03 0. -1.
         11   -1    0    0    0    0 -0.00000000000E+00 -0.00000000000E+00 -0.45593999997E+02  0.45594000000E+02  0.51100000000E-03 0.  1.
         23    2    1    2    0    0  0.00000000000E+00  0.00000000000E+00  0.00000000000E+00  0.91188000000E+02  0.91188000000E+02 0.  0.
    9900012    2    3    3    0    0 -0.59089587276E+01 -0.39952587340E+01 -0.42810513823E+02  0.47787332040E+02  0.20000278103E+02 0.  0.
         12    1    3    3    0    0  0.59089587276E+01  0.39952587340E+01  0.42810513823E+02  0.43400667960E+02  0.00000000000E+00 0. -1.
         11    1    4    4    0    0  0.23429287848E+01 -0.65140491388E-01 -0.14271750532E+02  0.14462932693E+02  0.51100000000E-03 0. -1.
        -11    1    4    4    0    0 -0.52758008687E+01 -0.52931184173E+01 -0.29063750254E+02  0.30009211193E+02  0.51100000000E-03 0.  1.
         12    1    4    4    0    0 -0.29760866437E+01  0.13630001746E+01  0.52498696275E+00  0.33151881542E+01  0.00000000000E+00 0. -1.
</event>
<event>
 8    1  0.2994958E-010  0.9118800E+02  0.7816164E-02  0.1184000E+00
        -11   -1    0    0    0    0  0.00000000000E+00  0.00000000000E+00  0.45593999997E+02  0.45594000000E+02  0.51100000000E-03 0.  1.
         11   -1    0    0    0    0 -0.00000000000E+00 -0.00000000000E+00 -0.45593999997E+02  0.45594000000E+02  0.51100000000E-03 0. -1.
         23    2    1    2    0    0  0.00000000000E+00  0.71054273576E-14  0.17763568394E-14  0.91188000000E+02  0.91188000000E+02 0.  0.
    9900012    2    3    3    0    0  0.22710414825E+01 -0.41573083731E+02 -0.12253333180E+02  0.47787273113E+02  0.20000009431E+02 0.  0.
        -12    1    3    3    0    0 -0.22710414825E+01  0.41573083731E+02  0.12253333180E+02  0.43400726887E+02  0.00000000000E+00 0.  1.
         11    1    4    4    0    0  0.42698971037E+01 -0.37184550615E+01 -0.52087139786E+01  0.76934797649E+01  0.51100000000E-03 0. -1.
        -11    1    4    4    0    0  0.62701215977E+00 -0.67854685688E+01  0.28430038966E+01  0.73836575872E+01  0.51100000000E-03 0.  1.
        -12    1    4    4    0    0 -0.26258677809E+01 -0.31069160101E+02 -0.98876230977E+01  0.32710135761E+02  0.00000000000E+00 0.  1.
</event>
<event>
 8    1  0.2994958E-010  0.9118800E+02  0.7816164E-02  0.1184000E+00
        -11   -1    0    0    0    0  0.00000000000E+00  0.00000000000E+00  0.45593999997E+02  0.45594000000E+02  0.51100000000E-03 0. -1.
         11   -1    0    0    0    0 -0.00000000000E+00 -0.00000000000E+00 -0.45593999997E+02  0.45594000000E+02  0.51100000000E-03 0.  1.
         23    2    1    2    0    0  0.00000000000E+00  0.88817841970E-15 -0.35527136788E-14  0.91188000000E+02  0.91188000000E+02 0.  0.
    9900012    2    3    3    0    0 -0.32476129083E+02 -0.53239458083E+01 -0.28294512881E+02  0.47787276292E+02  0.20000023926E+02 0.  0.
         12    1    3    3    0    0  0.32476129083E+02  0.53239458083E+01  0.28294512881E+02  0.43400723708E+02  0.00000000000E+00 0. -1.
         11    1    4    4    0    0 -0.54759501967E+01  0.54596348844E+01 -0.35489073304E+01  0.85081365251E+01  0.51100000000E-03 0. -1.
        -11    1    4    4    0    0 -0.27933014907E+01  0.34740080387E-02  0.30738971532E+00  0.28101661846E+01  0.51100000000E-03 0.  1.
        -12    1    4    4    0    0 -0.24206877396E+02 -0.10787054701E+02 -0.25052995266E+02  0.36468973583E+02  0.00000000000E+00 0.  1.
</event>
<event>
 8    1  0.2994958E-010  0.9118800E+02  0.7816164E-02  0.1184000E+00
        -11   -1    0    0    0    0  0.00000000000E+00  0.00000000000E+00  0.45593999997E+02  0.45594000000E+02  0.51100000000E-03 0. -1.
         11   -1    0    0    0    0 -0.00000000000E+00 -0.00000000000E+00 -0.45593999997E+02  0.45594000000E+02  0.51100000000E-03 0.  1.
         23    2    1    2    0    0 -0.35527136788E-14  0.00000000000E+00  0.00000000000E+00  0.91188000000E+02  0.91188000000E+02 0.  0.
    9900012    2    3    3    0    0  0.25752140520E+02 -0.13205535859E+02  0.32342915923E+02  0.47787272713E+02  0.20000007606E+02 0.  0.
        -12    1    3    3    0    0 -0.25752140520E+02  0.13205535859E+02 -0.32342915923E+02  0.43400727287E+02  0.00000000000E+00 0.  1.
         11    1    4    4    0    0  0.71164834258E+01 -0.66841785092E+01  0.60294226009E+01  0.11475038817E+02  0.51100000000E-03 0. -1.
        -11    1    4    4    0    0 -0.21429900191E+01 -0.28494399648E+01  0.62508937015E+01  0.71962064078E+01  0.51100000000E-03 0.  1.
         12    1    4    4    0    0  0.20778647113E+02 -0.36719173848E+01  0.20062599620E+02  0.29116027488E+02  0.00000000000E+00 0. -1.
</event>
<event>
 8    1  0.2994958E-010  0.9118800E+02  0.7816164E-02  0.1184000E+00
        -11   -1    0    0    0    0  0.00000000000E+00  0.00000000000E+00  0.45593999997E+02  0.45594000000E+02  0.51100000000E-03 0. -1.
         11   -1    0    0    0    0 -0.00000000000E+00 -0.00000000000E+00 -0.45593999997E+02  0.45594000000E+02  0.51100000000E-03 0.  1.
         23    2    1    2    0    0  0.00000000000E+00  0.00000000000E+00  0.00000000000E+00  0.91188000000E+02  0.91188000000E+02 0.  0.
    9900012    2    3    3    0    0  0.33630658686E+02  0.20727783333E+02  0.17971114296E+02  0.47787272419E+02  0.20000006265E+02 0.  0.
        -12    1    3    3    0    0 -0.33630658686E+02 -0.20727783333E+02 -0.17971114296E+02  0.43400727581E+02  0.00000000000E+00 0.  1.
         11    1    4    4    0    0 -0.22770925146E+00  0.32211119497E+01  0.16888521241E+01  0.36441234136E+01  0.51100000000E-03 0. -1.
        -11    1    4    4    0    0  0.16290197444E+02  0.40844585433E+01  0.18570599992E+00  0.16795470262E+02  0.51100000000E-03 0.  1.
         12    1    4    4    0    0  0.17568170494E+02  0.13422212840E+02  0.16096556172E+02  0.27347678743E+02  0.00000000000E+00 0. -1.
</event>
<event>
 8    1  0.2994958E-010  0.9118800E+02  0.7816164E-02  0.1184000E+00
        -11   -1    0    0    0    0  0.00000000000E+00  0.00000000000E+00  0.45593999997E+02  0.45594000000E+02  0.51100000000E-03 0. -1.
         11   -1    0    0    0    0 -0.00000000000E+00 -0.00000000000E+00 -0.45593999997E+02  0.45594000000E+02  0.51100000000E-03 0.  1.
         23    2    1    2    0    0  0.00000000000E+00  0.00000000000E+00  0.00000000000E+00  0.91188000000E+02  0.91188000000E+02 0.  0.
    9900012    2    3    3    0    0  0.75402815301E+01 -0.38060560889E+02  0.19446372267E+02  0.47787268035E+02  0.19999986279E+02 0.  0.
        -12    1    3    3    0    0 -0.75402815301E+01  0.38060560889E+02 -0.19446372267E+02  0.43400731965E+02  0.00000000000E+00 0.  1.
         11    1    4    4    0    0 -0.14162131127E+01  0.91873697321E+00  0.22382340065E+01  0.28034673060E+01  0.51100000000E-03 0.  1.
        -11    1    4    4    0    0  0.30157506373E+00 -0.10849812803E+02  0.98264779767E+01  0.14641347447E+02  0.51100000000E-03 0. -1.
         12    1    4    4    0    0  0.86549195791E+01 -0.28129485060E+02  0.73816602837E+01  0.30342453282E+02  0.00000000000E+00 0. -1.
</event>
<event>
 8    1  0.2994958E-010  0.9118800E+02  0.7816164E-02  0.1184000E+00
        -11   -1    0    0    0    0  0.00000000000E+00  0.00000000000E+00  0.45593999997E+02  0.45594000000E+02  0.51100000000E-03 0. -1.
         11   -1    0    0    0    0 -0.00000000000E+00 -0.00000000000E+00 -0.45593999997E+02  0.45594000000E+02  0.51100000000E-03 0.  1.
         23    2    1    2    0    0  0.00000000000E+00  0.00000000000E+00 -0.35527136788E-14  0.91188000000E+02  0.91188000000E+02 0.  0.
    9900012    2    3    3    0    0  0.11021158882E+02  0.28042772990E+02 -0.31237161068E+02  0.47787270840E+02  0.19999999067E+02 0.  0.
         12    1    3    3    0    0 -0.11021158882E+02 -0.28042772990E+02  0.31237161068E+02  0.43400729160E+02  0.00000000000E+00 0. -1.
         11    1    4    4    0    0  0.89978071737E+01  0.65455466501E+01 -0.66912090841E+01  0.12983720351E+02  0.51100000000E-03 0. -1.
        -11    1    4    4    0    0  0.65181286123E+01  0.15805199083E+02 -0.19683673805E+02  0.26071772732E+02  0.51100000000E-03 0.  1.
        -12    1    4    4    0    0 -0.44947769044E+01  0.56920272564E+01 -0.48622781791E+01  0.87317777571E+01  0.00000000000E+00 0.  1.
</event>
<event>
 8    1  0.2994958E-010  0.9118800E+02  0.7816164E-02  0.1184000E+00
        -11   -1    0    0    0    0  0.00000000000E+00  0.00000000000E+00  0.45593999997E+02  0.45594000000E+02  0.51100000000E-03 0. -1.
         11   -1    0    0    0    0 -0.00000000000E+00 -0.00000000000E+00 -0.45593999997E+02  0.45594000000E+02  0.51100000000E-03 0.  1.
         23    2    1    2    0    0 -0.35527136788E-14  0.00000000000E+00  0.00000000000E+00  0.91188000000E+02  0.91188000000E+02 0.  0.
    9900012    2    3    3    0    0 -0.23262396572E+02  0.16807620176E+02  0.32557458482E+02  0.47787270823E+02  0.19999998992E+02 0.  0.
        -12    1    3    3    0    0  0.23262396572E+02 -0.16807620176E+02 -0.32557458482E+02  0.43400729177E+02  0.00000000000E+00 0.  1.
         11    1    4    4    0    0 -0.12835058107E+02  0.11953505464E+02  0.18745053470E+02  0.25671035027E+02  0.51100000000E-03 0. -1.
        -11    1    4    4    0    0 -0.13447529565E+02  0.31931305077E+01  0.10852815047E+02  0.17573153631E+02  0.51100000000E-03 0.  1.
         12    1    4    4    0    0  0.30201910993E+01  0.16609842040E+01  0.29595899646E+01  0.45430821654E+01  0.00000000000E+00 0. -1.
</event>
<event>
 8    1  0.2994958E-010  0.9118800E+02  0.7816164E-02  0.1184000E+00
        -11   -1    0    0    0    0  0.00000000000E+00  0.00000000000E+00  0.45593999997E+02  0.45594000000E+02  0.51100000000E-03 0. -1.
         11   -1    0    0    0    0 -0.00000000000E+00 -0.00000000000E+00 -0.45593999997E+02  0.45594000000E+02  0.51100000000E-03 0.  1.
         23    2    1    2    0    0 -0.17763568394E-14 -0.35527136788E-14  0.00000000000E+00  0.91188000000E+02  0.91188000000E+02 0.  0.
    9900012    2    3    3    0    0  0.10963962490E+02 -0.30383952735E+02 -0.28986705769E+02  0.47787283778E+02  0.20000058058E+02 0.  0.
         12    1    3    3    0    0 -0.10963962490E+02  0.30383952735E+02  0.28986705769E+02  0.43400716222E+02  0.00000000000E+00 0. -1.
         11    1    4    4    0    0  0.55566790430E+01  0.26815854327E+00 -0.18330560069E+01  0.58573616566E+01  0.51100000000E-03 0. -1.
        -11    1    4    4    0    0 -0.17870488423E+01 -0.64472526994E+01 -0.60775935307E+01  0.90386810056E+01  0.51100000000E-03 0.  1.
        -12    1    4    4    0    0  0.71943322892E+01 -0.24204858578E+02 -0.21076056231E+02  0.32891241116E+02  0.00000000000E+00 0.  1.
</event>
<event>
 8    1  0.2994958E-010  0.9118800E+02  0.7816164E-02  0.1184000E+00
        -11   -1    0    0    0    0  0.00000000000E+00  0.00000000000E+00  0.45593999997E+02  0.45594000000E+02  0.51100000000E-03 0. -1.
         11   -1    0    0    0    0 -0.00000000000E+00 -0.00000000000E+00 -0.45593999997E+02  0.45594000000E+02  0.51100000000E-03 0.  1.
         23    2    1    2    0    0  0.00000000000E+00 -0.35527136788E-14  0.00000000000E+00  0.91188000000E+02  0.91188000000E+02 0.  0.
    9900012    2    3    3    0    0  0.12221870965E+02  0.16539777563E+02  0.38218912116E+02  0.47787267114E+02  0.19999982079E+02 0.  0.
        -12    1    3    3    0    0 -0.12221870965E+02 -0.16539777563E+02 -0.38218912116E+02  0.43400732886E+02  0.00000000000E+00 0.  1.
         11    1    4    4    0    0  0.22483337199E+01 -0.30451813469E+01  0.11942240497E+02  0.12527778826E+02  0.51100000000E-03 0. -1.
        -11    1    4    4    0    0  0.97945964130E+01  0.10260916013E+02  0.15884907532E+02  0.21296732235E+02  0.51100000000E-03 0.  1.
        -12    1    4    4    0    0  0.17894083233E+00  0.93240428970E+01  0.10391764087E+02  0.13962756053E+02  0.00000000000E+00 0.  1.
</event>
<event>
 8    1  0.2994958E-010  0.9118800E+02  0.7816164E-02  0.1184000E+00
        -11   -1    0    0    0    0  0.00000000000E+00  0.00000000000E+00  0.45593999997E+02  0.45594000000E+02  0.51100000000E-03 0. -1.
         11   -1    0    0    0    0 -0.00000000000E+00 -0.00000000000E+00 -0.45593999997E+02  0.45594000000E+02  0.51100000000E-03 0.  1.
         23    2    1    2    0    0 -0.17763568394E-14  0.00000000000E+00  0.00000000000E+00  0.91188000000E+02  0.91188000000E+02 0.  0.
    9900012    2    3    3    0    0  0.12025675305E+02 -0.69504016064E+01  0.41118105414E+02  0.47787267957E+02  0.19999985923E+02 0.  0.
        -12    1    3    3    0    0 -0.12025675305E+02  0.69504016064E+01 -0.41118105414E+02  0.43400732043E+02  0.00000000000E+00 0.  1.
         11    1    4    4    0    0  0.11169389155E+01  0.19249726163E+01  0.43712545005E+01  0.49051950302E+01  0.51100000000E-03 0. -1.
        -11    1    4    4    0    0  0.10327275679E+02 -0.55390721667E+01  0.86093133949E+01  0.14541465566E+02  0.51100000000E-03 0.  1.
        -12    1    4    4    0    0  0.58146071054E+00 -0.33363020560E+01  0.28137537519E+02  0.28340607361E+02  0.00000000000E+00 0.  1.
</event>
<event>
 8    1  0.2994958E-010  0.9118800E+02  0.7816164E-02  0.1184000E+00
        -11   -1    0    0    0    0  0.00000000000E+00  0.00000000000E+00  0.45593999997E+02  0.45594000000E+02  0.51100000000E-03 0. -1.
         11   -1    0    0    0    0 -0.00000000000E+00 -0.00000000000E+00 -0.45593999997E+02  0.45594000000E+02  0.51100000000E-03 0.  1.
         23    2    1    2    0    0  0.35527136788E-14  0.71054273576E-14 -0.17763568394E-14  0.91188000000E+02  0.91188000000E+02 0.  0.
    9900012    2    3    3    0    0 -0.26133071485E+02 -0.32504551763E+02  0.12005860992E+02  0.47787262579E+02  0.19999961400E+02 0.  0.
        -12    1    3    3    0    0  0.26133071485E+02  0.32504551763E+02 -0.12005860992E+02  0.43400737421E+02  0.00000000000E+00 0.  1.
         11    1    4    4    0    0  0.11826115968E+01 -0.10613440823E+02  0.15476990910E+01  0.10790693630E+02  0.51100000000E-03 0. -1.
        -11    1    4    4    0    0 -0.59655923360E+01 -0.68677653037E+01  0.47949539623E+01  0.10283291105E+02  0.51100000000E-03 0.  1.
        -12    1    4    4    0    0 -0.21350090746E+02 -0.15023345637E+02  0.56632079385E+01  0.26713277843E+02  0.00000000000E+00 0.  1.
</event>
<event>
 8    1  0.2994958E-010  0.9118800E+02  0.7816164E-02  0.1184000E+00
        -11   -1    0    0    0    0  0.00000000000E+00  0.00000000000E+00  0.45593999997E+02  0.45594000000E+02  0.51100000000E-03 0. -1.
         11   -1    0    0    0    0 -0.00000000000E+00 -0.00000000000E+00 -0.45593999997E+02  0.45594000000E+02  0.51100000000E-03 0.  1.
         23    2    1    2    0    0  0.00000000000E+00  0.88817841970E-15 -0.35527136788E-14  0.91188000000E+02  0.91188000000E+02 0.  0.
    9900012    2    3    3    0    0 -0.36843757254E+02 -0.57387194593E+01  0.22208735501E+02  0.47787270948E+02  0.19999999562E+02 0.  0.
        -12    1    3    3    0    0  0.36843757254E+02  0.57387194593E+01 -0.22208735501E+02  0.43400729052E+02  0.00000000000E+00 0.  1.
         11    1    4    4    0    0 -0.43083432229E+01 -0.50515625156E+01  0.40141234733E+01  0.77584336496E+01  0.51100000000E-03 0. -1.
        -11    1    4    4    0    0 -0.19053613414E+02 -0.71496923213E+01  0.76837188260E+01  0.21753110575E+02  0.51100000000E-03 0.  1.
         12    1    4    4    0    0 -0.13481800617E+02  0.64625353777E+01  0.10510893201E+02  0.18275726724E+02  0.00000000000E+00 0. -1.
</event>
<event>
 8    1  0.2994958E-010  0.9118800E+02  0.7816164E-02  0.1184000E+00
        -11   -1    0    0    0    0  0.00000000000E+00  0.00000000000E+00  0.45593999997E+02  0.45594000000E+02  0.51100000000E-03 0. -1.
         11   -1    0    0    0    0 -0.00000000000E+00 -0.00000000000E+00 -0.45593999997E+02  0.45594000000E+02  0.51100000000E-03 0.  1.
         23    2    1    2    0    0 -0.22204460493E-15 -0.35527136788E-14 -0.71054273576E-14  0.91188000000E+02  0.91188000000E+02 0.  0.
    9900012    2    3    3    0    0  0.67551707710E+00  0.16296100902E+02  0.40219448120E+02  0.47787271492E+02  0.20000002042E+02 0.  0.
        -12    1    3    3    0    0 -0.67551707710E+00 -0.16296100902E+02 -0.40219448120E+02  0.43400728508E+02  0.00000000000E+00 0.  1.
         11    1    4    4    0    0 -0.35831648320E+01  0.12398940207E+02  0.21695599566E+02  0.25244243487E+02  0.51100000000E-03 0. -1.
        -11    1    4    4    0    0 -0.18492229874E+01  0.60005609146E+01  0.10593591637E+02  0.12314647416E+02  0.51100000000E-03 0.  1.
        -12    1    4    4    0    0  0.61079048965E+01 -0.21034002192E+01  0.79302569166E+01  0.10228380589E+02  0.00000000000E+00 0.  1.
</event>
<event>
 8    1  0.2994958E-010  0.9118800E+02  0.7816164E-02  0.1184000E+00
        -11   -1    0    0    0    0  0.00000000000E+00  0.00000000000E+00  0.45593999997E+02  0.45594000000E+02  0.51100000000E-03 0. -1.
         11   -1    0    0    0    0 -0.00000000000E+00 -0.00000000000E+00 -0.45593999997E+02  0.45594000000E+02  0.51100000000E-03 0.  1.
         23    2    1    2    0    0  0.00000000000E+00  0.00000000000E+00  0.00000000000E+00  0.91188000000E+02  0.91188000000E+02 0.  0.
    9900012    2    3    3    0    0  0.83268019141E+01 -0.39025095129E+02 -0.17068381401E+02  0.47787270471E+02  0.19999997387E+02 0.  0.
         12    1    3    3    0    0 -0.83268019141E+01  0.39025095129E+02  0.17068381401E+02  0.43400729529E+02  0.00000000000E+00 0. -1.
         11    1    4    4    0    0 -0.27168470156E+01 -0.23619478728E+01 -0.64760148452E+00  0.36577921488E+01  0.51100000000E-03 0. -1.
        -11    1    4    4    0    0  0.13619633546E+02 -0.22539216944E+02 -0.81809483242E+01  0.27576051823E+02  0.51100000000E-03 0.  1.
        -12    1    4    4    0    0 -0.25759846167E+01 -0.14123930312E+02 -0.82398315923E+01  0.16553426500E+02  0.00000000000E+00 0.  1.
</event>
<event>
 8    1  0.2994958E-010  0.9118800E+02  0.7816164E-02  0.1184000E+00
        -11   -1    0    0    0    0  0.00000000000E+00  0.00000000000E+00  0.45593999997E+02  0.45594000000E+02  0.51100000000E-03 0.  1.
         11   -1    0    0    0    0 -0.00000000000E+00 -0.00000000000E+00 -0.45593999997E+02  0.45594000000E+02  0.51100000000E-03 0. -1.
         23    2    1    2    0    0 -0.15543122345E-14  0.00000000000E+00  0.00000000000E+00  0.91188000000E+02  0.91188000000E+02 0.  0.
    9900012    2    3    3    0    0  0.12488478147E+01 -0.43006653607E+02  0.57001356521E+01  0.47787269340E+02  0.19999992230E+02 0.  0.
         12    1    3    3    0    0 -0.12488478147E+01  0.43006653607E+02 -0.57001356521E+01  0.43400730660E+02  0.00000000000E+00 0. -1.
         11    1    4    4    0    0  0.84446799302E+00 -0.56758208695E+01  0.71547678088E+00  0.57827308444E+01  0.51100000000E-03 0. -1.
        -11    1    4    4    0    0 -0.84663651445E+01 -0.14990369979E+02 -0.96144938347E+00  0.17242822160E+02  0.51100000000E-03 0.  1.
        -12    1    4    4    0    0  0.88707449662E+01 -0.22340462758E+02  0.59461082547E+01  0.24761716336E+02  0.00000000000E+00 0.  1.
</event>
<event>
 8    1  0.2994958E-010  0.9118800E+02  0.7816164E-02  0.1184000E+00
        -11   -1    0    0    0    0  0.00000000000E+00  0.00000000000E+00  0.45593999997E+02  0.45594000000E+02  0.51100000000E-03 0. -1.
         11   -1    0    0    0    0 -0.00000000000E+00 -0.00000000000E+00 -0.45593999997E+02  0.45594000000E+02  0.51100000000E-03 0.  1.
         23    2    1    2    0    0  0.88817841970E-15  0.00000000000E+00  0.35527136788E-14  0.91188000000E+02  0.91188000000E+02 0.  0.
    9900012    2    3    3    0    0  0.43771247415E+01 -0.33792918138E+02 -0.26879418160E+02  0.47787266620E+02  0.19999979829E+02 0.  0.
         12    1    3    3    0    0 -0.43771247415E+01  0.33792918138E+02  0.26879418160E+02  0.43400733380E+02  0.00000000000E+00 0. -1.
         11    1    4    4    0    0 -0.61390599191E+01 -0.83866643577E+01 -0.65296323793E+01  0.12274375545E+02  0.51100000000E-03 0. -1.
        -11    1    4    4    0    0  0.13570303915E+01 -0.13728764934E+02 -0.12983194942E+02  0.18944230500E+02  0.51100000000E-03 0.  1.
        -12    1    4    4    0    0  0.91591542690E+01 -0.11677488847E+02 -0.73665908389E+01  0.16568660576E+02  0.00000000000E+00 0.  1.
</event>
<event>
 8    1  0.2994958E-010  0.9118800E+02  0.7816164E-02  0.1184000E+00
        -11   -1    0    0    0    0  0.00000000000E+00  0.00000000000E+00  0.45593999997E+02  0.45594000000E+02  0.51100000000E-03 0. -1.
         11   -1    0    0    0    0 -0.00000000000E+00 -0.00000000000E+00 -0.45593999997E+02  0.45594000000E+02  0.51100000000E-03 0.  1.
         23    2    1    2    0    0  0.00000000000E+00  0.66613381478E-15  0.00000000000E+00  0.91188000000E+02  0.91188000000E+02 0.  0.
    9900012    2    3    3    0    0  0.13590625329E+02  0.13406500544E+01 -0.41196125418E+02  0.47787272023E+02  0.20000004464E+02 0.  0.
         12    1    3    3    0    0 -0.13590625329E+02 -0.13406500544E+01  0.41196125418E+02  0.43400727977E+02  0.00000000000E+00 0. -1.
         11    1    4    4    0    0  0.58203835887E+01  0.12873432647E+01 -0.22814817464E+02  0.23580712754E+02  0.51100000000E-03 0. -1.
        -11    1    4    4    0    0  0.51134659054E+01 -0.63526640355E+01 -0.13330857749E+02  0.15627400376E+02  0.51100000000E-03 0.  1.
         12    1    4    4    0    0  0.26567758350E+01  0.64059708252E+01 -0.50504502051E+01  0.85791588938E+01  0.00000000000E+00 0. -1.
</event>
<event>
 8    1  0.2994958E-010  0.9118800E+02  0.7816164E-02  0.1184000E+00
        -11   -1    0    0    0    0  0.00000000000E+00  0.00000000000E+00  0.45593999997E+02  0.45594000000E+02  0.51100000000E-03 0. -1.
         11   -1    0    0    0    0 -0.00000000000E+00 -0.00000000000E+00 -0.45593999997E+02  0.45594000000E+02  0.51100000000E-03 0.  1.
         23    2    1    2    0    0  0.00000000000E+00 -0.13322676296E-14  0.00000000000E+00  0.91188000000E+02  0.91188000000E+02 0.  0.
    9900012    2    3    3    0    0  0.57791747673E+01  0.29304995613E+01 -0.42914297992E+02  0.47787266587E+02  0.19999979676E+02 0.  0.
         12    1    3    3    0    0 -0.57791747673E+01 -0.29304995613E+01  0.42914297992E+02  0.43400733413E+02  0.00000000000E+00 0. -1.
         11    1    4    4    0    0  0.24784287776E+01 -0.63980734863E+01 -0.16733260181E+02  0.18085351810E+02  0.51100000000E-03 0. -1.
        -11    1    4    4    0    0 -0.20027580836E+01  0.62304114091E+00 -0.12313253436E+02  0.12490613701E+02  0.51100000000E-03 0.  1.
         12    1    4    4    0    0  0.53035040734E+01  0.87055319067E+01 -0.13867784375E+02  0.17211301075E+02  0.00000000000E+00 0. -1.
</event>
<event>
 8    1  0.2994958E-010  0.9118800E+02  0.7816164E-02  0.1184000E+00
        -11   -1    0    0    0    0  0.00000000000E+00  0.00000000000E+00  0.45593999997E+02  0.45594000000E+02  0.51100000000E-03 0. -1.
         11   -1    0    0    0    0 -0.00000000000E+00 -0.00000000000E+00 -0.45593999997E+02  0.45594000000E+02  0.51100000000E-03 0.  1.
         23    2    1    2    0    0  0.35527136788E-14 -0.35527136788E-14  0.35527136788E-14  0.91188000000E+02  0.91188000000E+02 0.  0.
    9900012    2    3    3    0    0  0.27923305411E+02 -0.25708328469E+02 -0.21047415785E+02  0.47787275939E+02  0.20000022318E+02 0.  0.
         12    1    3    3    0    0 -0.27923305411E+02  0.25708328469E+02  0.21047415785E+02  0.43400724061E+02  0.00000000000E+00 0. -1.
         11    1    4    4    0    0  0.12487447049E+02 -0.81902339887E+01 -0.53187387851E+01  0.15852610168E+02  0.51100000000E-03 0. -1.
        -11    1    4    4    0    0  0.10474656111E+02 -0.19508149146E+02 -0.10686322728E+02  0.24586252205E+02  0.51100000000E-03 0.  1.
        -12    1    4    4    0    0  0.49612022508E+01  0.19900546663E+01 -0.50423542718E+01  0.73484135669E+01  0.00000000000E+00 0.  1.
</event>
<event>
 8    1  0.2994958E-010  0.9118800E+02  0.7816164E-02  0.1184000E+00
        -11   -1    0    0    0    0  0.00000000000E+00  0.00000000000E+00  0.45593999997E+02  0.45594000000E+02  0.51100000000E-03 0. -1.
         11   -1    0    0    0    0 -0.00000000000E+00 -0.00000000000E+00 -0.45593999997E+02  0.45594000000E+02  0.51100000000E-03 0.  1.
         23    2    1    2    0    0  0.00000000000E+00  0.00000000000E+00  0.00000000000E+00  0.91188000000E+02  0.91188000000E+02 0.  0.
    9900012    2    3    3    0    0  0.93013756560E+01  0.56587476599E+01 -0.42012902008E+02  0.47787297825E+02  0.20000122102E+02 0.  0.
         12    1    3    3    0    0 -0.93013756560E+01 -0.56587476599E+01  0.42012902008E+02  0.43400702175E+02  0.00000000000E+00 0. -1.
         11    1    4    4    0    0  0.14180326360E+02  0.65923162053E+00 -0.27421682535E+02  0.30878227205E+02  0.51100000000E-03 0. -1.
        -11    1    4    4    0    0  0.39588687276E+00  0.23081195534E+01 -0.23865313912E+01  0.33436020444E+01  0.51100000000E-03 0.  1.
         12    1    4    4    0    0 -0.52748375765E+01  0.26913964859E+01 -0.12204688082E+02  0.13565468575E+02  0.00000000000E+00 0. -1.
</event>
<event>
 8    1  0.2994958E-010  0.9118800E+02  0.7816164E-02  0.1184000E+00
        -11   -1    0    0    0    0  0.00000000000E+00  0.00000000000E+00  0.45593999997E+02  0.45594000000E+02  0.51100000000E-03 0. -1.
         11   -1    0    0    0    0 -0.00000000000E+00 -0.00000000000E+00 -0.45593999997E+02  0.45594000000E+02  0.51100000000E-03 0.  1.
         23    2    1    2    0    0  0.35527136788E-14  0.00000000000E+00  0.00000000000E+00  0.91188000000E+02  0.91188000000E+02 0.  0.
    9900012    2    3    3    0    0  0.29592643727E+02 -0.26466489864E+02  0.17533500913E+02  0.47787270712E+02  0.19999998485E+02 0.  0.
        -12    1    3    3    0    0 -0.29592643727E+02  0.26466489864E+02 -0.17533500913E+02  0.43400729288E+02  0.00000000000E+00 0.  1.
         11    1    4    4    0    0  0.11346172233E+01 -0.48959152526E+00 -0.16522188460E+01  0.20632216268E+01  0.51100000000E-03 0.  1.
        -11    1    4    4    0    0  0.25540626651E+02 -0.18784585744E+02  0.90751628058E+01  0.32977914602E+02  0.51100000000E-03 0. -1.
        -12    1    4    4    0    0  0.29173998526E+01 -0.71923125943E+01  0.10110556954E+02  0.12746134483E+02  0.00000000000E+00 0.  1.
</event>
<event>
 8    1  0.2994958E-010  0.9118800E+02  0.7816164E-02  0.1184000E+00
        -11   -1    0    0    0    0  0.00000000000E+00  0.00000000000E+00  0.45593999997E+02  0.45594000000E+02  0.51100000000E-03 0. -1.
         11   -1    0    0    0    0 -0.00000000000E+00 -0.00000000000E+00 -0.45593999997E+02  0.45594000000E+02  0.51100000000E-03 0.  1.
         23    2    1    2    0    0  0.35527136788E-14  0.17763568394E-14 -0.10658141036E-13  0.91188000000E+02  0.91188000000E+02 0.  0.
    9900012    2    3    3    0    0  0.29354999348E+02  0.14510720201E+02 -0.28484109889E+02  0.47787291438E+02  0.20000092984E+02 0.  0.
         12    1    3    3    0    0 -0.29354999348E+02 -0.14510720201E+02  0.28484109889E+02  0.43400708562E+02  0.00000000000E+00 0. -1.
         11    1    4    4    0    0  0.11775962447E+02  0.82471806371E+01 -0.11681336052E+02  0.18524116503E+02  0.51100000000E-03 0. -1.
        -11    1    4    4    0    0 -0.86409167710E+00 -0.12282020108E+01 -0.68394648427E+01  0.70023863219E+01  0.51100000000E-03 0.  1.
         12    1    4    4    0    0  0.18443128578E+02  0.74917415749E+01 -0.99633089949E+01  0.22260788613E+02  0.00000000000E+00 0. -1.
</event>
<event>
 8    1  0.2994958E-010  0.9118800E+02  0.7816164E-02  0.1184000E+00
        -11   -1    0    0    0    0  0.00000000000E+00  0.00000000000E+00  0.45593999997E+02  0.45594000000E+02  0.51100000000E-03 0.  1.
         11   -1    0    0    0    0 -0.00000000000E+00 -0.00000000000E+00 -0.45593999997E+02  0.45594000000E+02  0.51100000000E-03 0. -1.
         23    2    1    2    0    0  0.00000000000E+00 -0.44408920985E-15  0.00000000000E+00  0.91188000000E+02  0.91188000000E+02 0.  0.
    9900012    2    3    3    0    0  0.37951640145E+02  0.61892749594E+00 -0.21045498650E+02  0.47787273343E+02  0.20000010479E+02 0.  0.
        -12    1    3    3    0    0 -0.37951640145E+02 -0.61892749594E+00  0.21045498650E+02  0.43400726657E+02  0.00000000000E+00 0.  1.
         11    1    4    4    0    0  0.58029014208E+01 -0.26045104279E+01 -0.77918808621E+00  0.64081412129E+01  0.51100000000E-03 0. -1.
        -11    1    4    4    0    0  0.22043285059E+01 -0.75946765580E+00  0.26001560993E+01  0.34923727298E+01  0.51100000000E-03 0.  1.
         12    1    4    4    0    0  0.29944410218E+02  0.39829055797E+01 -0.22866466663E+02  0.37886759400E+02  0.00000000000E+00 0. -1.
</event>
<event>
 8    1  0.2994958E-010  0.9118800E+02  0.7816164E-02  0.1184000E+00
        -11   -1    0    0    0    0  0.00000000000E+00  0.00000000000E+00  0.45593999997E+02  0.45594000000E+02  0.51100000000E-03 0.  1.
         11   -1    0    0    0    0 -0.00000000000E+00 -0.00000000000E+00 -0.45593999997E+02  0.45594000000E+02  0.51100000000E-03 0. -1.
         23    2    1    2    0    0  0.35527136788E-14  0.71054273576E-14 -0.35527136788E-14  0.91188000000E+02  0.91188000000E+02 0.  0.
    9900012    2    3    3    0    0 -0.21183633278E+02 -0.27391880605E+02  0.26164137483E+02  0.47787268069E+02  0.19999986433E+02 0.  0.
        -12    1    3    3    0    0  0.21183633278E+02  0.27391880605E+02 -0.26164137483E+02  0.43400731931E+02  0.00000000000E+00 0.  1.
         11    1    4    4    0    0 -0.14104593942E+01 -0.66510034085E+01  0.58346457854E+01  0.89592596650E+01  0.51100000000E-03 0. -1.
        -11    1    4    4    0    0 -0.80891161759E+01 -0.19550648235E+02  0.14970105472E+02  0.25918443337E+02  0.51100000000E-03 0.  1.
        -12    1    4    4    0    0 -0.11684057708E+02 -0.11902289612E+01  0.53593862263E+01  0.12909565067E+02  0.00000000000E+00 0.  1.
</event>
<event>
 8    1  0.2994958E-010  0.9118800E+02  0.7816164E-02  0.1184000E+00
        -11   -1    0    0    0    0  0.00000000000E+00  0.00000000000E+00  0.45593999997E+02  0.45594000000E+02  0.51100000000E-03 0. -1.
         11   -1    0    0    0    0 -0.00000000000E+00 -0.00000000000E+00 -0.45593999997E+02  0.45594000000E+02  0.51100000000E-03 0.  1.
         23    2    1    2    0    0  0.00000000000E+00  0.88817841970E-15  0.00000000000E+00  0.91188000000E+02  0.91188000000E+02 0.  0.
    9900012    2    3    3    0    0 -0.27378480044E+02  0.64377645923E+01 -0.33054455117E+02  0.47787274366E+02  0.20000015144E+02 0.  0.
         12    1    3    3    0    0  0.27378480044E+02 -0.64377645923E+01  0.33054455117E+02  0.43400725634E+02  0.00000000000E+00 0. -1.
         11    1    4    4    0    0 -0.57409278084E+01  0.54565585933E+01 -0.63105103317E+01  0.10126935602E+02  0.51100000000E-03 0. -1.
        -11    1    4    4    0    0 -0.10847950279E+02  0.68702091064E+01 -0.76339530452E+01  0.14938374670E+02  0.51100000000E-03 0.  1.
         12    1    4    4    0    0 -0.10789601957E+02 -0.58890031074E+01 -0.19109991740E+02  0.22721964094E+02  0.00000000000E+00 0. -1.
</event>
<event>
 8    1  0.2994958E-010  0.9118800E+02  0.7816164E-02  0.1184000E+00
        -11   -1    0    0    0    0  0.00000000000E+00  0.00000000000E+00  0.45593999997E+02  0.45594000000E+02  0.51100000000E-03 0. -1.
         11   -1    0    0    0    0 -0.00000000000E+00 -0.00000000000E+00 -0.45593999997E+02  0.45594000000E+02  0.51100000000E-03 0.  1.
         23    2    1    2    0    0  0.00000000000E+00  0.00000000000E+00  0.71054273576E-14  0.91188000000E+02  0.91188000000E+02 0.  0.
    9900012    2    3    3    0    0 -0.16713751802E+02 -0.47858767576E+01  0.39766434645E+02  0.47787269130E+02  0.19999991273E+02 0.  0.
        -12    1    3    3    0    0  0.16713751802E+02  0.47858767576E+01 -0.39766434645E+02  0.43400730870E+02  0.00000000000E+00 0.  1.
         11    1    4    4    0    0  0.98735150057E+00 -0.25187965419E+00  0.68051287430E+00  0.12253180726E+01  0.51100000000E-03 0. -1.
        -11    1    4    4    0    0 -0.57495186492E+01 -0.21301810194E+00  0.31590507488E+00  0.57621296138E+01  0.51100000000E-03 0.  1.
         12    1    4    4    0    0 -0.11951584654E+02 -0.43209790015E+01  0.38770016696E+02  0.40799821444E+02  0.00000000000E+00 0. -1.
</event>
<event>
 8    1  0.2994958E-010  0.9118800E+02  0.7816164E-02  0.1184000E+00
        -11   -1    0    0    0    0  0.00000000000E+00  0.00000000000E+00  0.45593999997E+02  0.45594000000E+02  0.51100000000E-03 0. -1.
         11   -1    0    0    0    0 -0.00000000000E+00 -0.00000000000E+00 -0.45593999997E+02  0.45594000000E+02  0.51100000000E-03 0.  1.
         23    2    1    2    0    0  0.00000000000E+00  0.17763568394E-14  0.00000000000E+00  0.91188000000E+02  0.91188000000E+02 0.  0.
    9900012    2    3    3    0    0 -0.19255289183E+02 -0.14974222561E+02  0.35897449741E+02  0.47787304145E+02  0.20000150918E+02 0.  0.
        -12    1    3    3    0    0  0.19255289183E+02  0.14974222561E+02 -0.35897449741E+02  0.43400695855E+02  0.00000000000E+00 0.  1.
         11    1    4    4    0    0 -0.77334401039E+01 -0.72081658528E+00  0.12477461283E+02  0.14697370946E+02  0.51100000000E-03 0. -1.
        -11    1    4    4    0    0 -0.12931953254E+02 -0.90149586023E+01  0.22671776177E+02  0.27613661997E+02  0.51100000000E-03 0.  1.
        -12    1    4    4    0    0  0.14101041749E+01 -0.52384473732E+01  0.74821228013E+00  0.54762712024E+01  0.00000000000E+00 0.  1.
</event>
<event>
 8    1  0.2994958E-010  0.9118800E+02  0.7816164E-02  0.1184000E+00
        -11   -1    0    0    0    0  0.00000000000E+00  0.00000000000E+00  0.45593999997E+02  0.45594000000E+02  0.51100000000E-03 0. -1.
         11   -1    0    0    0    0 -0.00000000000E+00 -0.00000000000E+00 -0.45593999997E+02  0.45594000000E+02  0.51100000000E-03 0.  1.
         23    2    1    2    0    0  0.35527136788E-14  0.00000000000E+00  0.35527136788E-14  0.91188000000E+02  0.91188000000E+02 0.  0.
    9900012    2    3    3    0    0  0.31669952702E+02  0.12543726170E+02  0.26894096137E+02  0.47787269852E+02  0.19999994562E+02 0.  0.
        -12    1    3    3    0    0 -0.31669952702E+02 -0.12543726170E+02 -0.26894096137E+02  0.43400730148E+02  0.00000000000E+00 0.  1.
         11    1    4    4    0    0  0.11745916743E+02  0.45747640138E+01  0.13717216184E+02  0.18629467142E+02  0.51100000000E-03 0. -1.
        -11    1    4    4    0    0  0.19916603954E+02  0.84763913948E+01  0.15600655777E+02  0.26681468945E+02  0.51100000000E-03 0.  1.
        -12    1    4    4    0    0  0.74320053750E-02 -0.50742923882E+00 -0.24237758239E+01  0.24763337642E+01  0.00000000000E+00 0.  1.
</event>
<event>
 8    1  0.2994958E-010  0.9118800E+02  0.7816164E-02  0.1184000E+00
        -11   -1    0    0    0    0  0.00000000000E+00  0.00000000000E+00  0.45593999997E+02  0.45594000000E+02  0.51100000000E-03 0. -1.
         11   -1    0    0    0    0 -0.00000000000E+00 -0.00000000000E+00 -0.45593999997E+02  0.45594000000E+02  0.51100000000E-03 0.  1.
         23    2    1    2    0    0 -0.44408920985E-15  0.00000000000E+00  0.00000000000E+00  0.91188000000E+02  0.91188000000E+02 0.  0.
    9900012    2    3    3    0    0  0.24704872975E+01 -0.38041604724E+02  0.20745029389E+02  0.47787271414E+02  0.20000001684E+02 0.  0.
        -12    1    3    3    0    0 -0.24704872975E+01  0.38041604724E+02 -0.20745029389E+02  0.43400728586E+02  0.00000000000E+00 0.  1.
         11    1    4    4    0    0  0.44408163378E+01 -0.77203216536E+01  0.24874204934E+01  0.92472415970E+01  0.51100000000E-03 0. -1.
        -11    1    4    4    0    0 -0.28444536025E+01 -0.26665012392E+01  0.82363427587E+01  0.91125456079E+01  0.51100000000E-03 0.  1.
         12    1    4    4    0    0  0.87412456225E+00 -0.27654781831E+02  0.10021266137E+02  0.29427484209E+02  0.00000000000E+00 0. -1.
</event>
<event>
 8    1  0.2994958E-010  0.9118800E+02  0.7816164E-02  0.1184000E+00
        -11   -1    0    0    0    0  0.00000000000E+00  0.00000000000E+00  0.45593999997E+02  0.45594000000E+02  0.51100000000E-03 0. -1.
         11   -1    0    0    0    0 -0.00000000000E+00 -0.00000000000E+00 -0.45593999997E+02  0.45594000000E+02  0.51100000000E-03 0.  1.
         23    2    1    2    0    0  0.88817841970E-15  0.00000000000E+00 -0.35527136788E-14  0.91188000000E+02  0.91188000000E+02 0.  0.
    9900012    2    3    3    0    0  0.47924282650E+01  0.39192597176E+02 -0.18016555553E+02  0.47787270558E+02  0.19999997784E+02 0.  0.
         12    1    3    3    0    0 -0.47924282650E+01 -0.39192597176E+02  0.18016555553E+02  0.43400729442E+02  0.00000000000E+00 0. -1.
         11    1    4    4    0    0  0.40974558142E+00  0.74307595006E+01 -0.48404617527E+01  0.88777332939E+01  0.51100000000E-03 0.  1.
        -11    1    4    4    0    0  0.20549751136E-01  0.25390351590E+00  0.31470141085E+01  0.31573069771E+01  0.51100000000E-03 0. -1.
         12    1    4    4    0    0  0.43621329325E+01  0.31507934160E+02 -0.16323107908E+02  0.35752230287E+02  0.00000000000E+00 0. -1.
</event>
<event>
 8    1  0.2994958E-010  0.9118800E+02  0.7816164E-02  0.1184000E+00
        -11   -1    0    0    0    0  0.00000000000E+00  0.00000000000E+00  0.45593999997E+02  0.45594000000E+02  0.51100000000E-03 0. -1.
         11   -1    0    0    0    0 -0.00000000000E+00 -0.00000000000E+00 -0.45593999997E+02  0.45594000000E+02  0.51100000000E-03 0.  1.
         23    2    1    2    0    0 -0.35527136788E-14  0.00000000000E+00  0.00000000000E+00  0.91188000000E+02  0.91188000000E+02 0.  0.
    9900012    2    3    3    0    0  0.31183984745E+02 -0.92067294828E+01 -0.28747495687E+02  0.47787270967E+02  0.19999999646E+02 0.  0.
         12    1    3    3    0    0 -0.31183984745E+02  0.92067294828E+01  0.28747495687E+02  0.43400729033E+02  0.00000000000E+00 0. -1.
         11    1    4    4    0    0  0.19461297209E+02 -0.92389283223E+01 -0.22100100779E+02  0.30862831048E+02  0.51100000000E-03 0. -1.
        -11    1    4    4    0    0  0.22300506081E+01 -0.45100746829E+01 -0.18731112455E+01  0.53686539616E+01  0.51100000000E-03 0.  1.
        -12    1    4    4    0    0  0.94926369278E+01  0.45422735225E+01 -0.47742836626E+01  0.11555785957E+02  0.00000000000E+00 0.  1.
</event>
<event>
 8    1  0.2994958E-010  0.9118800E+02  0.7816164E-02  0.1184000E+00
        -11   -1    0    0    0    0  0.00000000000E+00  0.00000000000E+00  0.45593999997E+02  0.45594000000E+02  0.51100000000E-03 0. -1.
         11   -1    0    0    0    0 -0.00000000000E+00 -0.00000000000E+00 -0.45593999997E+02  0.45594000000E+02  0.51100000000E-03 0.  1.
         23    2    1    2    0    0  0.00000000000E+00 -0.19984014443E-14  0.00000000000E+00  0.91188000000E+02  0.91188000000E+02 0.  0.
    9900012    2    3    3    0    0 -0.32369945386E+02 -0.16366246100E+01  0.28864013996E+02  0.47787271799E+02  0.20000003442E+02 0.  0.
        -12    1    3    3    0    0  0.32369945386E+02  0.16366246100E+01 -0.28864013996E+02  0.43400728201E+02  0.00000000000E+00 0.  1.
         11    1    4    4    0    0 -0.35964687843E+01 -0.25399086550E+01  0.34556277134E+01  0.55970605541E+01  0.51100000000E-03 0. -1.
        -11    1    4    4    0    0 -0.18839659129E+02  0.85000992464E+01  0.12198554130E+02  0.23999774300E+02  0.51100000000E-03 0.  1.
        -12    1    4    4    0    0 -0.99338174720E+01 -0.75968152014E+01  0.13209832153E+02  0.18190436946E+02  0.00000000000E+00 0.  1.
</event>
<event>
 8    1  0.2994958E-010  0.9118800E+02  0.7816164E-02  0.1184000E+00
        -11   -1    0    0    0    0  0.00000000000E+00  0.00000000000E+00  0.45593999997E+02  0.45594000000E+02  0.51100000000E-03 0.  1.
         11   -1    0    0    0    0 -0.00000000000E+00 -0.00000000000E+00 -0.45593999997E+02  0.45594000000E+02  0.51100000000E-03 0. -1.
         23    2    1    2    0    0  0.00000000000E+00 -0.88817841970E-15  0.00000000000E+00  0.91188000000E+02  0.91188000000E+02 0.  0.
    9900012    2    3    3    0    0  0.41406916925E+02  0.45820650257E+01  0.12169417651E+02  0.47787276329E+02  0.20000024096E+02 0.  0.
        -12    1    3    3    0    0 -0.41406916925E+02 -0.45820650257E+01 -0.12169417651E+02  0.43400723671E+02  0.00000000000E+00 0.  1.
         11    1    4    4    0    0  0.18369644542E+02  0.18857256600E+01 -0.14453311069E+01  0.18522655969E+02  0.51100000000E-03 0. -1.
        -11    1    4    4    0    0  0.14721984270E+02 -0.37415296548E+01  0.62475243736E+01  0.16424598201E+02  0.51100000000E-03 0.  1.
         12    1    4    4    0    0  0.83152881136E+01  0.64378690205E+01  0.73672243844E+01  0.12840022160E+02  0.00000000000E+00 0. -1.
</event>
<event>
 8    1  0.2994958E-010  0.9118800E+02  0.7816164E-02  0.1184000E+00
        -11   -1    0    0    0    0  0.00000000000E+00  0.00000000000E+00  0.45593999997E+02  0.45594000000E+02  0.51100000000E-03 0. -1.
         11   -1    0    0    0    0 -0.00000000000E+00 -0.00000000000E+00 -0.45593999997E+02  0.45594000000E+02  0.51100000000E-03 0.  1.
         23    2    1    2    0    0  0.00000000000E+00 -0.17763568394E-14  0.00000000000E+00  0.91188000000E+02  0.91188000000E+02 0.  0.
    9900012    2    3    3    0    0  0.11822465883E+02 -0.11594518526E+02 -0.40117573304E+02  0.47787271352E+02  0.20000001402E+02 0.  0.
         12    1    3    3    0    0 -0.11822465883E+02  0.11594518526E+02  0.40117573304E+02  0.43400728648E+02  0.00000000000E+00 0. -1.
         11    1    4    4    0    0 -0.41602576317E+01  0.11231518926E+01 -0.13827089064E+02  0.14483010943E+02  0.51100000000E-03 0. -1.
        -11    1    4    4    0    0  0.39484700615E+01 -0.26605476644E+01 -0.60848075908E+01  0.77261771516E+01  0.51100000000E-03 0.  1.
         12    1    4    4    0    0  0.12034253453E+02 -0.10057122754E+02 -0.20205676649E+02  0.25578083257E+02  0.00000000000E+00 0. -1.
</event>
<event>
 8    1  0.2994958E-010  0.9118800E+02  0.7816164E-02  0.1184000E+00
        -11   -1    0    0    0    0  0.00000000000E+00  0.00000000000E+00  0.45593999997E+02  0.45594000000E+02  0.51100000000E-03 0. -1.
         11   -1    0    0    0    0 -0.00000000000E+00 -0.00000000000E+00 -0.45593999997E+02  0.45594000000E+02  0.51100000000E-03 0.  1.
         23    2    1    2    0    0 -0.17763568394E-14  0.35527136788E-14  0.00000000000E+00  0.91188000000E+02  0.91188000000E+02 0.  0.
    9900012    2    3    3    0    0  0.13976538053E+02 -0.23200153514E+02 -0.33912133184E+02  0.47787268254E+02  0.19999987276E+02 0.  0.
         12    1    3    3    0    0 -0.13976538053E+02  0.23200153514E+02  0.33912133184E+02  0.43400731746E+02  0.00000000000E+00 0. -1.
         11    1    4    4    0    0  0.39099727381E+01 -0.19619326744E+02 -0.26226790846E+02  0.32985609393E+02  0.51100000000E-03 0. -1.
        -11    1    4    4    0    0  0.16243276266E+01 -0.13045990057E+00 -0.50529962498E+01  0.53092590242E+01  0.51100000000E-03 0.  1.
         12    1    4    4    0    0  0.84422376884E+01 -0.34503668693E+01 -0.26323460883E+01  0.94923998361E+01  0.00000000000E+00 0. -1.
</event>
<event>
 8    1  0.2994958E-010  0.9118800E+02  0.7816164E-02  0.1184000E+00
        -11   -1    0    0    0    0  0.00000000000E+00  0.00000000000E+00  0.45593999997E+02  0.45594000000E+02  0.51100000000E-03 0. -1.
         11   -1    0    0    0    0 -0.00000000000E+00 -0.00000000000E+00 -0.45593999997E+02  0.45594000000E+02  0.51100000000E-03 0.  1.
         23    2    1    2    0    0  0.00000000000E+00  0.00000000000E+00  0.00000000000E+00  0.91188000000E+02  0.91188000000E+02 0.  0.
    9900012    2    3    3    0    0  0.20173101440E+02 -0.27191226730E+02 -0.27153394745E+02  0.47787266377E+02  0.19999978721E+02 0.  0.
         12    1    3    3    0    0 -0.20173101440E+02  0.27191226730E+02  0.27153394745E+02  0.43400733623E+02  0.00000000000E+00 0. -1.
         11    1    4    4    0    0 -0.18764908286E+01 -0.17431145177E+01 -0.31224313815E+01  0.40384705081E+01  0.51100000000E-03 0.  1.
        -11    1    4    4    0    0  0.70863334937E+01 -0.11677547261E+02 -0.17885830721E+02  0.22505203248E+02  0.51100000000E-03 0. -1.
         12    1    4    4    0    0  0.14963258775E+02 -0.13770564951E+02 -0.61451326428E+01  0.21243592621E+02  0.00000000000E+00 0. -1.
</event>
<event>
 8    1  0.2994958E-010  0.9118800E+02  0.7816164E-02  0.1184000E+00
        -11   -1    0    0    0    0  0.00000000000E+00  0.00000000000E+00  0.45593999997E+02  0.45594000000E+02  0.51100000000E-03 0. -1.
         11   -1    0    0    0    0 -0.00000000000E+00 -0.00000000000E+00 -0.45593999997E+02  0.45594000000E+02  0.51100000000E-03 0.  1.
         23    2    1    2    0    0  0.00000000000E+00  0.13322676296E-14  0.00000000000E+00  0.91188000000E+02  0.91188000000E+02 0.  0.
    9900012    2    3    3    0    0  0.30539884246E+02 -0.82053677738E+00  0.30826370759E+02  0.47787274839E+02  0.20000017301E+02 0.  0.
        -12    1    3    3    0    0 -0.30539884246E+02  0.82053677738E+00 -0.30826370759E+02  0.43400725161E+02  0.00000000000E+00 0.  1.
         11    1    4    4    0    0  0.10941226018E+02  0.57594332267E+01  0.13389996618E+02  0.18225627768E+02  0.51100000000E-03 0. -1.
        -11    1    4    4    0    0  0.12321267627E+02  0.19026975800E+01  0.11219719770E+02  0.16772477634E+02  0.51100000000E-03 0.  1.
        -12    1    4    4    0    0  0.72773906013E+01 -0.84826675841E+01  0.62166543710E+01  0.12789169436E+02  0.00000000000E+00 0.  1.
</event>
<event>
 8    1  0.2994958E-010  0.9118800E+02  0.7816164E-02  0.1184000E+00
        -11   -1    0    0    0    0  0.00000000000E+00  0.00000000000E+00  0.45593999997E+02  0.45594000000E+02  0.51100000000E-03 0. -1.
         11   -1    0    0    0    0 -0.00000000000E+00 -0.00000000000E+00 -0.45593999997E+02  0.45594000000E+02  0.51100000000E-03 0.  1.
         23    2    1    2    0    0  0.00000000000E+00 -0.88817841970E-15  0.00000000000E+00  0.91188000000E+02  0.91188000000E+02 0.  0.
    9900012    2    3    3    0    0  0.13452771973E+02  0.72415174116E+01  0.40622736447E+02  0.47787269999E+02  0.19999995232E+02 0.  0.
        -12    1    3    3    0    0 -0.13452771973E+02 -0.72415174116E+01 -0.40622736447E+02  0.43400730001E+02  0.00000000000E+00 0.  1.
         11    1    4    4    0    0  0.76790805150E+01  0.11541279046E+02  0.16969660674E+02  0.21912069350E+02  0.51100000000E-03 0. -1.
        -11    1    4    4    0    0  0.10378367703E+01  0.20684786934E+01  0.33089021414E+01  0.40378884221E+01  0.51100000000E-03 0.  1.
        -12    1    4    4    0    0  0.47358546873E+01 -0.63682403277E+01  0.20344173632E+02  0.21837312226E+02  0.00000000000E+00 0.  1.
</event>
<event>
 8    1  0.2994958E-010  0.9118800E+02  0.7816164E-02  0.1184000E+00
        -11   -1    0    0    0    0  0.00000000000E+00  0.00000000000E+00  0.45593999997E+02  0.45594000000E+02  0.51100000000E-03 0.  1.
         11   -1    0    0    0    0 -0.00000000000E+00 -0.00000000000E+00 -0.45593999997E+02  0.45594000000E+02  0.51100000000E-03 0. -1.
         23    2    1    2    0    0  0.71054273576E-14 -0.35527136788E-14  0.35527136788E-14  0.91188000000E+02  0.91188000000E+02 0.  0.
    9900012    2    3    3    0    0  0.34072241496E+02  0.16802483516E+02  0.20985285202E+02  0.47787270883E+02  0.19999999265E+02 0.  0.
        -12    1    3    3    0    0 -0.34072241496E+02 -0.16802483516E+02 -0.20985285202E+02  0.43400729117E+02  0.00000000000E+00 0.  1.
         11    1    4    4    0    0  0.13839277451E+02  0.49176202715E+01  0.67969424021E+01  0.16183541509E+02  0.51100000000E-03 0. -1.
        -11    1    4    4    0    0  0.11960337529E+02  0.11916993078E+02  0.15859003403E+02  0.23164032184E+02  0.51100000000E-03 0.  1.
        -12    1    4    4    0    0  0.82726265158E+01 -0.32129833453E-01 -0.16706606034E+01  0.84396971894E+01  0.00000000000E+00 0.  1.
</event>
<event>
 8    1  0.2994958E-010  0.9118800E+02  0.7816164E-02  0.1184000E+00
        -11   -1    0    0    0    0  0.00000000000E+00  0.00000000000E+00  0.45593999997E+02  0.45594000000E+02  0.51100000000E-03 0. -1.
         11   -1    0    0    0    0 -0.00000000000E+00 -0.00000000000E+00 -0.45593999997E+02  0.45594000000E+02  0.51100000000E-03 0.  1.
         23    2    1    2    0    0  0.00000000000E+00  0.17763568394E-14  0.00000000000E+00  0.91188000000E+02  0.91188000000E+02 0.  0.
    9900012    2    3    3    0    0 -0.61719707550E+01 -0.98369152087E+01 -0.41818237544E+02  0.47787272873E+02  0.20000008339E+02 0.  0.
         12    1    3    3    0    0  0.61719707550E+01  0.98369152087E+01  0.41818237544E+02  0.43400727127E+02  0.00000000000E+00 0. -1.
         11    1    4    4    0    0  0.42477333836E+01 -0.90878143121E+01 -0.16998162869E+02  0.19737506151E+02  0.51100000000E-03 0. -1.
        -11    1    4    4    0    0 -0.36959136097E+01 -0.23379199054E+01 -0.33894701763E+01  0.55330059852E+01  0.51100000000E-03 0.  1.
        -12    1    4    4    0    0 -0.67237905290E+01  0.15888190088E+01 -0.21430604499E+02  0.22516760738E+02  0.00000000000E+00 0.  1.
</event>
<event>
 8    1  0.2994958E-010  0.9118800E+02  0.7816164E-02  0.1184000E+00
        -11   -1    0    0    0    0  0.00000000000E+00  0.00000000000E+00  0.45593999997E+02  0.45594000000E+02  0.51100000000E-03 0. -1.
         11   -1    0    0    0    0 -0.00000000000E+00 -0.00000000000E+00 -0.45593999997E+02  0.45594000000E+02  0.51100000000E-03 0.  1.
         23    2    1    2    0    0  0.00000000000E+00  0.88817841970E-15  0.00000000000E+00  0.91188000000E+02  0.91188000000E+02 0.  0.
    9900012    2    3    3    0    0  0.30142066433E+02  0.66617988344E+01 -0.30507367435E+02  0.47787271891E+02  0.20000003862E+02 0.  0.
         12    1    3    3    0    0 -0.30142066433E+02 -0.66617988344E+01  0.30507367435E+02  0.43400728109E+02  0.00000000000E+00 0. -1.
         11    1    4    4    0    0  0.49696356882E+01  0.57747535255E+01 -0.14771312189E+02  0.16620370670E+02  0.51100000000E-03 0. -1.
        -11    1    4    4    0    0  0.41786361364E+01 -0.21825791824E+01 -0.64930170538E+01  0.80239592827E+01  0.51100000000E-03 0.  1.
        -12    1    4    4    0    0  0.20993794608E+02  0.30696244913E+01 -0.92430381919E+01  0.23142941939E+02  0.00000000000E+00 0.  1.
</event>
<event>
 8    1  0.2994958E-010  0.9118800E+02  0.7816164E-02  0.1184000E+00
        -11   -1    0    0    0    0  0.00000000000E+00  0.00000000000E+00  0.45593999997E+02  0.45594000000E+02  0.51100000000E-03 0.  1.
         11   -1    0    0    0    0 -0.00000000000E+00 -0.00000000000E+00 -0.45593999997E+02  0.45594000000E+02  0.51100000000E-03 0. -1.
         23    2    1    2    0    0  0.00000000000E+00  0.71054273576E-14  0.35527136788E-14  0.91188000000E+02  0.91188000000E+02 0.  0.
    9900012    2    3    3    0    0  0.11638123699E+02 -0.38817407755E+02 -0.15536597603E+02  0.47787274971E+02  0.20000017901E+02 0.  0.
        -12    1    3    3    0    0 -0.11638123699E+02  0.38817407755E+02  0.15536597603E+02  0.43400725029E+02  0.00000000000E+00 0.  1.
         11    1    4    4    0    0  0.82348003981E+01 -0.21805110307E+02 -0.15851876781E+02  0.28187883405E+02  0.51100000000E-03 0. -1.
        -11    1    4    4    0    0  0.52179746059E+01 -0.14560935312E+02 -0.22291598154E+01  0.15627451805E+02  0.51100000000E-03 0.  1.
         12    1    4    4    0    0 -0.18146513054E+01 -0.24513621350E+01  0.25444389935E+01  0.39719397614E+01  0.00000000000E+00 0. -1.
</event>
<event>
 8    1  0.2994958E-010  0.9118800E+02  0.7816164E-02  0.1184000E+00
        -11   -1    0    0    0    0  0.00000000000E+00  0.00000000000E+00  0.45593999997E+02  0.45594000000E+02  0.51100000000E-03 0. -1.
         11   -1    0    0    0    0 -0.00000000000E+00 -0.00000000000E+00 -0.45593999997E+02  0.45594000000E+02  0.51100000000E-03 0.  1.
         23    2    1    2    0    0  0.00000000000E+00  0.71054273576E-14  0.35527136788E-14  0.91188000000E+02  0.91188000000E+02 0.  0.
    9900012    2    3    3    0    0  0.22286252167E+02  0.32792324186E+02  0.17652464888E+02  0.47787273303E+02  0.20000010297E+02 0.  0.
        -12    1    3    3    0    0 -0.22286252167E+02 -0.32792324186E+02 -0.17652464888E+02  0.43400726697E+02  0.00000000000E+00 0.  1.
         11    1    4    4    0    0  0.20686748583E+01  0.99130781619E+01  0.19715105364E+01  0.10316752802E+02  0.51100000000E-03 0. -1.
        -11    1    4    4    0    0  0.53001360553E+01  0.26318576534E+01 -0.25140421800E+01  0.64295042777E+01  0.51100000000E-03 0.  1.
         12    1    4    4    0    0  0.14917441254E+02  0.20247388371E+02  0.18194996531E+02  0.31041016224E+02  0.00000000000E+00 0. -1.
</event>
<event>
 8    1  0.2994958E-010  0.9118800E+02  0.7816164E-02  0.1184000E+00
        -11   -1    0    0    0    0  0.00000000000E+00  0.00000000000E+00  0.45593999997E+02  0.45594000000E+02  0.51100000000E-03 0. -1.
         11   -1    0    0    0    0 -0.00000000000E+00 -0.00000000000E+00 -0.45593999997E+02  0.45594000000E+02  0.51100000000E-03 0.  1.
         23    2    1    2    0    0  0.00000000000E+00  0.22204460493E-15  0.00000000000E+00  0.91188000000E+02  0.91188000000E+02 0.  0.
    9900012    2    3    3    0    0  0.11811256321E+02  0.11349608809E+01 -0.41747209460E+02  0.47787269479E+02  0.19999992861E+02 0.  0.
         12    1    3    3    0    0 -0.11811256321E+02 -0.11349608809E+01  0.41747209460E+02  0.43400730521E+02  0.00000000000E+00 0. -1.
         11    1    4    4    0    0 -0.25843081976E+01  0.94264058952E-01 -0.31096647876E+01  0.40444468009E+01  0.51100000000E-03 0. -1.
        -11    1    4    4    0    0  0.61069389276E+01  0.58464802954E+01 -0.79899429256E+01  0.11632507173E+02  0.51100000000E-03 0.  1.
         12    1    4    4    0    0  0.82886255907E+01 -0.48057834734E+01 -0.30647601747E+02  0.32110315505E+02  0.00000000000E+00 0. -1.
</event>
<event>
 8    1  0.2994958E-010  0.9118800E+02  0.7816164E-02  0.1184000E+00
        -11   -1    0    0    0    0  0.00000000000E+00  0.00000000000E+00  0.45593999997E+02  0.45594000000E+02  0.51100000000E-03 0. -1.
         11   -1    0    0    0    0 -0.00000000000E+00 -0.00000000000E+00 -0.45593999997E+02  0.45594000000E+02  0.51100000000E-03 0.  1.
         23    2    1    2    0    0  0.00000000000E+00  0.00000000000E+00  0.71054273576E-14  0.91188000000E+02  0.91188000000E+02 0.  0.
    9900012    2    3    3    0    0 -0.38262382974E+01 -0.12375011969E+02  0.41422707970E+02  0.47787288527E+02  0.20000079711E+02 0.  0.
        -12    1    3    3    0    0  0.38262382974E+01  0.12375011969E+02 -0.41422707970E+02  0.43400711473E+02  0.00000000000E+00 0.  1.
         11    1    4    4    0    0 -0.90396094543E+01 -0.43252033421E+00  0.25060245739E+02  0.26644277617E+02  0.51100000000E-03 0. -1.
        -11    1    4    4    0    0  0.39919071343E+01 -0.53011242900E+01  0.82605705868E+01  0.10595955265E+02  0.51100000000E-03 0.  1.
         12    1    4    4    0    0  0.12214640227E+01 -0.66413673448E+01  0.81018916442E+01  0.10547055645E+02  0.00000000000E+00 0. -1.
</event>
<event>
 8    1  0.2994958E-010  0.9118800E+02  0.7816164E-02  0.1184000E+00
        -11   -1    0    0    0    0  0.00000000000E+00  0.00000000000E+00  0.45593999997E+02  0.45594000000E+02  0.51100000000E-03 0. -1.
         11   -1    0    0    0    0 -0.00000000000E+00 -0.00000000000E+00 -0.45593999997E+02  0.45594000000E+02  0.51100000000E-03 0.  1.
         23    2    1    2    0    0 -0.35527136788E-14  0.88817841970E-15  0.00000000000E+00  0.91188000000E+02  0.91188000000E+02 0.  0.
    9900012    2    3    3    0    0 -0.17450342276E+02  0.72530582813E+01  0.39070479739E+02  0.47787266285E+02  0.19999978299E+02 0.  0.
        -12    1    3    3    0    0  0.17450342276E+02 -0.72530582813E+01 -0.39070479739E+02  0.43400733715E+02  0.00000000000E+00 0.  1.
         11    1    4    4    0    0 -0.50281297537E+01 -0.11904158476E+01  0.16684510974E+02  0.17466312874E+02  0.51100000000E-03 0. -1.
        -11    1    4    4    0    0 -0.42314208064E+01  0.49328132469E+01  0.20094891536E+02  0.21119711993E+02  0.51100000000E-03 0.  1.
        -12    1    4    4    0    0 -0.81907917157E+01  0.35106608820E+01  0.22910772294E+01  0.92012414178E+01  0.00000000000E+00 0.  1.
</event>
<event>
 8    1  0.2994958E-010  0.9118800E+02  0.7816164E-02  0.1184000E+00
        -11   -1    0    0    0    0  0.00000000000E+00  0.00000000000E+00  0.45593999997E+02  0.45594000000E+02  0.51100000000E-03 0. -1.
         11   -1    0    0    0    0 -0.00000000000E+00 -0.00000000000E+00 -0.45593999997E+02  0.45594000000E+02  0.51100000000E-03 0.  1.
         23    2    1    2    0    0  0.00000000000E+00  0.00000000000E+00  0.00000000000E+00  0.91188000000E+02  0.91188000000E+02 0.  0.
    9900012    2    3    3    0    0 -0.50245380201E+01  0.42020567042E+02  0.96254279315E+01  0.47787275355E+02  0.20000019655E+02 0.  0.
        -12    1    3    3    0    0  0.50245380201E+01 -0.42020567042E+02 -0.96254279315E+01  0.43400724645E+02  0.00000000000E+00 0.  1.
         11    1    4    4    0    0 -0.54587066155E+01  0.10815305345E+02 -0.35302353242E+00  0.12119939500E+02  0.51100000000E-03 0. -1.
        -11    1    4    4    0    0  0.36756945802E+01  0.82692119070E+01 -0.24563104580E+01  0.93767828991E+01  0.51100000000E-03 0.  1.
        -12    1    4    4    0    0 -0.32415259848E+01  0.22936049790E+02  0.12434761922E+02  0.26290552956E+02  0.00000000000E+00 0.  1.
</event>
<event>
 8    1  0.2994958E-010  0.9118800E+02  0.7816164E-02  0.1184000E+00
        -11   -1    0    0    0    0  0.00000000000E+00  0.00000000000E+00  0.45593999997E+02  0.45594000000E+02  0.51100000000E-03 0. -1.
         11   -1    0    0    0    0 -0.00000000000E+00 -0.00000000000E+00 -0.45593999997E+02  0.45594000000E+02  0.51100000000E-03 0.  1.
         23    2    1    2    0    0  0.00000000000E+00  0.00000000000E+00  0.00000000000E+00  0.91188000000E+02  0.91188000000E+02 0.  0.
    9900012    2    3    3    0    0  0.36058535288E+02 -0.14353158881E+02 -0.19426584454E+02  0.47787270507E+02  0.19999997549E+02 0.  0.
         12    1    3    3    0    0 -0.36058535288E+02  0.14353158881E+02  0.19426584454E+02  0.43400729493E+02  0.00000000000E+00 0. -1.
         11    1    4    4    0    0  0.24310786594E+01 -0.12966485892E+01 -0.15506280796E+01  0.31616275420E+01  0.51100000000E-03 0. -1.
        -11    1    4    4    0    0  0.13151053097E+02 -0.13430033632E+02 -0.23858378567E+01  0.18947512329E+02  0.51100000000E-03 0.  1.
         12    1    4    4    0    0  0.20476403531E+02  0.37352333952E+00 -0.15490118518E+02  0.25678130636E+02  0.00000000000E+00 0. -1.
</event>
<event>
 8    1  0.2994958E-010  0.9118800E+02  0.7816164E-02  0.1184000E+00
        -11   -1    0    0    0    0  0.00000000000E+00  0.00000000000E+00  0.45593999997E+02  0.45594000000E+02  0.51100000000E-03 0. -1.
         11   -1    0    0    0    0 -0.00000000000E+00 -0.00000000000E+00 -0.45593999997E+02  0.45594000000E+02  0.51100000000E-03 0.  1.
         23    2    1    2    0    0 -0.44408920985E-15  0.00000000000E+00  0.00000000000E+00  0.91188000000E+02  0.91188000000E+02 0.  0.
    9900012    2    3    3    0    0  0.22434937761E+01 -0.32002050636E+02 -0.29231127341E+02  0.47787270573E+02  0.19999997849E+02 0.  0.
         12    1    3    3    0    0 -0.22434937761E+01  0.32002050636E+02  0.29231127341E+02  0.43400729427E+02  0.00000000000E+00 0. -1.
         11    1    4    4    0    0  0.50159666318E+00 -0.23549507992E+02 -0.12923457174E+02  0.26867204385E+02  0.51100000000E-03 0. -1.
        -11    1    4    4    0    0  0.90937733111E+00 -0.72641777668E+01 -0.36515027642E+01  0.81809973999E+01  0.51100000000E-03 0.  1.
        -12    1    4    4    0    0  0.83251978183E+00 -0.11883648773E+01 -0.12656167403E+02  0.12739068788E+02  0.00000000000E+00 0.  1.
</event>
<event>
 8    1  0.3141258E-010  0.9118800E+02  0.7816164E-02  0.1184000E+00
        -11   -1    0    0    0    0  0.00000000000E+00  0.00000000000E+00  0.45593999997E+02  0.45594000000E+02  0.51100000000E-03 0. -1.
         11   -1    0    0    0    0 -0.00000000000E+00 -0.00000000000E+00 -0.45593999997E+02  0.45594000000E+02  0.51100000000E-03 0.  1.
         23    2    1    2    0    0 -0.88817841970E-15  0.35527136788E-14  0.35527136788E-14  0.91188000000E+02  0.91188000000E+02 0.  0.
    9900012    2    3    3    0    0 -0.62424377088E+01  0.29401818959E+02  0.31307960187E+02  0.47787270079E+02  0.19999995596E+02 0.  0.
        -12    1    3    3    0    0  0.62424377088E+01 -0.29401818959E+02 -0.31307960187E+02  0.43400729921E+02  0.00000000000E+00 0.  1.
         11    1    4    4    0    0 -0.58757337712E+01  0.14772595766E+02  0.11524206270E+02  0.19635711432E+02  0.51100000000E-03 0. -1.
        -11    1    4    4    0    0 -0.21033847843E+01  0.14090855697E+00 -0.13251843584E+01  0.24900194010E+01  0.51100000000E-03 0.  1.
         12    1    4    4    0    0  0.17366808468E+01  0.14488314636E+02  0.21108938275E+02  0.25661539246E+02  0.00000000000E+00 0. -1.
</event>
<event>
 8    1  0.2994958E-010  0.9118800E+02  0.7816164E-02  0.1184000E+00
        -11   -1    0    0    0    0  0.00000000000E+00  0.00000000000E+00  0.45593999997E+02  0.45594000000E+02  0.51100000000E-03 0. -1.
         11   -1    0    0    0    0 -0.00000000000E+00 -0.00000000000E+00 -0.45593999997E+02  0.45594000000E+02  0.51100000000E-03 0.  1.
         23    2    1    2    0    0  0.17763568394E-14  0.00000000000E+00  0.00000000000E+00  0.91188000000E+02  0.91188000000E+02 0.  0.
    9900012    2    3    3    0    0 -0.10594591866E+02 -0.17745036848E+02  0.38164008391E+02  0.47787271366E+02  0.20000001464E+02 0.  0.
        -12    1    3    3    0    0  0.10594591866E+02  0.17745036848E+02 -0.38164008391E+02  0.43400728634E+02  0.00000000000E+00 0.  1.
         11    1    4    4    0    0 -0.39847433886E+01 -0.19663214766E+01  0.18968624916E+02  0.19482128515E+02  0.51100000000E-03 0. -1.
        -11    1    4    4    0    0 -0.84050300204E+01 -0.83389637735E+01  0.16247348511E+02  0.20103710612E+02  0.51100000000E-03 0.  1.
        -12    1    4    4    0    0  0.17951815431E+01 -0.74397515981E+01  0.29480349636E+01  0.82014322383E+01  0.00000000000E+00 0.  1.
</event>
<event>
 8    1  0.2994958E-010  0.9118800E+02  0.7816164E-02  0.1184000E+00
        -11   -1    0    0    0    0  0.00000000000E+00  0.00000000000E+00  0.45593999997E+02  0.45594000000E+02  0.51100000000E-03 0. -1.
         11   -1    0    0    0    0 -0.00000000000E+00 -0.00000000000E+00 -0.45593999997E+02  0.45594000000E+02  0.51100000000E-03 0.  1.
         23    2    1    2    0    0  0.00000000000E+00  0.00000000000E+00 -0.71054273576E-14  0.91188000000E+02  0.91188000000E+02 0.  0.
    9900012    2    3    3    0    0  0.13667837640E+02 -0.50397261746E+01 -0.40882947703E+02  0.47787262234E+02  0.19999959831E+02 0.  0.
         12    1    3    3    0    0 -0.13667837640E+02  0.50397261746E+01  0.40882947703E+02  0.43400737766E+02  0.00000000000E+00 0. -1.
         11    1    4    4    0    0  0.23315895015E+00 -0.26146361943E+01 -0.15945209424E+01  0.30713486975E+01  0.51100000000E-03 0. -1.
        -11    1    4    4    0    0  0.55769850752E+01 -0.45630957634E+01 -0.34551766611E+02  0.35295172215E+02  0.51100000000E-03 0.  1.
        -12    1    4    4    0    0  0.78576936150E+01  0.21380057831E+01 -0.47366601498E+01  0.94207413217E+01  0.00000000000E+00 0.  1.
</event>
<event>
 8    1  0.2994958E-010  0.9118800E+02  0.7816164E-02  0.1184000E+00
        -11   -1    0    0    0    0  0.00000000000E+00  0.00000000000E+00  0.45593999997E+02  0.45594000000E+02  0.51100000000E-03 0. -1.
         11   -1    0    0    0    0 -0.00000000000E+00 -0.00000000000E+00 -0.45593999997E+02  0.45594000000E+02  0.51100000000E-03 0.  1.
         23    2    1    2    0    0 -0.19428902931E-15  0.00000000000E+00  0.00000000000E+00  0.91188000000E+02  0.91188000000E+02 0.  0.
    9900012    2    3    3    0    0  0.16816416156E+00 -0.33608415290E+02  0.27460315959E+02  0.47787276388E+02  0.20000024364E+02 0.  0.
        -12    1    3    3    0    0 -0.16816416156E+00  0.33608415290E+02 -0.27460315959E+02  0.43400723612E+02  0.00000000000E+00 0.  1.
         11    1    4    4    0    0 -0.16334888192E+01 -0.83850009544E+01  0.76582487561E+01  0.11472807023E+02  0.51100000000E-03 0. -1.
        -11    1    4    4    0    0  0.56577721227E+01 -0.12565534509E+02  0.18428513793E+02  0.23011153030E+02  0.51100000000E-03 0.  1.
         12    1    4    4    0    0 -0.38561191419E+01 -0.12657879826E+02  0.13735534101E+01  0.13303316335E+02  0.00000000000E+00 0. -1.
</event>
<event>
 8    1  0.2994958E-010  0.9118800E+02  0.7816164E-02  0.1184000E+00
        -11   -1    0    0    0    0  0.00000000000E+00  0.00000000000E+00  0.45593999997E+02  0.45594000000E+02  0.51100000000E-03 0.  1.
         11   -1    0    0    0    0 -0.00000000000E+00 -0.00000000000E+00 -0.45593999997E+02  0.45594000000E+02  0.51100000000E-03 0. -1.
         23    2    1    2    0    0  0.71054273576E-14  0.35527136788E-14  0.44408920985E-15  0.91188000000E+02  0.91188000000E+02 0.  0.
    9900012    2    3    3    0    0 -0.41123937282E+02 -0.13504872609E+02  0.31723746139E+01  0.47787265415E+02  0.19999974334E+02 0.  0.
        -12    1    3    3    0    0  0.41123937282E+02  0.13504872609E+02 -0.31723746139E+01  0.43400734585E+02  0.00000000000E+00 0.  1.
         11    1    4    4    0    0 -0.39278929648E+02 -0.13654864298E+02  0.68565559328E+00  0.41590380585E+02  0.51100000000E-03 0. -1.
        -11    1    4    4    0    0 -0.10658212389E+01  0.41423479876E+00 -0.16342530964E+01  0.19945798621E+01  0.51100000000E-03 0.  1.
         12    1    4    4    0    0 -0.77918639521E+00 -0.26424311008E+00  0.41209721170E+01  0.42023049686E+01  0.00000000000E+00 0. -1.
</event>
<event>
 8    1  0.2994958E-010  0.9118800E+02  0.7816164E-02  0.1184000E+00
        -11   -1    0    0    0    0  0.00000000000E+00  0.00000000000E+00  0.45593999997E+02  0.45594000000E+02  0.51100000000E-03 0. -1.
         11   -1    0    0    0    0 -0.00000000000E+00 -0.00000000000E+00 -0.45593999997E+02  0.45594000000E+02  0.51100000000E-03 0.  1.
         23    2    1    2    0    0  0.00000000000E+00  0.00000000000E+00  0.00000000000E+00  0.91188000000E+02  0.91188000000E+02 0.  0.
    9900012    2    3    3    0    0  0.30262158537E+02 -0.36583376429E+01  0.30894039748E+02  0.47787269988E+02  0.19999995184E+02 0.  0.
        -12    1    3    3    0    0 -0.30262158537E+02  0.36583376429E+01 -0.30894039748E+02  0.43400730012E+02  0.00000000000E+00 0.  1.
         11    1    4    4    0    0  0.12007229248E+02 -0.55315603421E+00  0.12019736688E+02  0.16998635419E+02  0.51100000000E-03 0. -1.
        -11    1    4    4    0    0  0.96327895208E+01  0.29097384934E+01  0.10794912797E+01  0.10120400868E+02  0.51100000000E-03 0.  1.
        -12    1    4    4    0    0  0.86221397685E+01 -0.60149201021E+01  0.17794811780E+02  0.20668233701E+02  0.00000000000E+00 0.  1.
</event>
<event>
 8    1  0.2994958E-010  0.9118800E+02  0.7816164E-02  0.1184000E+00
        -11   -1    0    0    0    0  0.00000000000E+00  0.00000000000E+00  0.45593999997E+02  0.45594000000E+02  0.51100000000E-03 0. -1.
         11   -1    0    0    0    0 -0.00000000000E+00 -0.00000000000E+00 -0.45593999997E+02  0.45594000000E+02  0.51100000000E-03 0.  1.
         23    2    1    2    0    0  0.00000000000E+00 -0.88817841970E-15 -0.71054273576E-14  0.91188000000E+02  0.91188000000E+02 0.  0.
    9900012    2    3    3    0    0 -0.42527326426E+01 -0.55102136610E+01  0.42838942819E+02  0.47787271764E+02  0.20000003283E+02 0.  0.
        -12    1    3    3    0    0  0.42527326426E+01  0.55102136610E+01 -0.42838942819E+02  0.43400728236E+02  0.00000000000E+00 0.  1.
         11    1    4    4    0    0  0.27604697334E+00  0.23099072418E+01  0.27391693633E+02  0.27490302904E+02  0.51100000000E-03 0.  1.
        -11    1    4    4    0    0 -0.33405575195E+01 -0.43706695767E+01  0.15703936758E+02  0.16639582538E+02  0.51100000000E-03 0. -1.
        -12    1    4    4    0    0 -0.11882220964E+01 -0.34494513261E+01 -0.25668757172E+00  0.36573863224E+01  0.00000000000E+00 0.  1.
</event>
<event>
 8    1  0.2994958E-010  0.9118800E+02  0.7816164E-02  0.1184000E+00
        -11   -1    0    0    0    0  0.00000000000E+00  0.00000000000E+00  0.45593999997E+02  0.45594000000E+02  0.51100000000E-03 0. -1.
         11   -1    0    0    0    0 -0.00000000000E+00 -0.00000000000E+00 -0.45593999997E+02  0.45594000000E+02  0.51100000000E-03 0.  1.
         23    2    1    2    0    0 -0.88817841970E-15 -0.44408920985E-15  0.00000000000E+00  0.91188000000E+02  0.91188000000E+02 0.  0.
    9900012    2    3    3    0    0  0.64795967223E+01  0.27296145153E+01  0.42827410770E+02  0.47787273251E+02  0.20000010061E+02 0.  0.
        -12    1    3    3    0    0 -0.64795967223E+01 -0.27296145153E+01 -0.42827410770E+02  0.43400726749E+02  0.00000000000E+00 0.  1.
         11    1    4    4    0    0 -0.40660885848E+01  0.61178895000E+01  0.13403076963E+02  0.15284113342E+02  0.51100000000E-03 0. -1.
        -11    1    4    4    0    0  0.16060980870E+00 -0.34189158431E+01  0.73874819628E+01  0.81418469074E+01  0.51100000000E-03 0.  1.
         12    1    4    4    0    0  0.10385075498E+02  0.30640858404E-01  0.22036851844E+02  0.24361313002E+02  0.00000000000E+00 0. -1.
</event>
<event>
 8    1  0.2994958E-010  0.9118800E+02  0.7816164E-02  0.1184000E+00
        -11   -1    0    0    0    0  0.00000000000E+00  0.00000000000E+00  0.45593999997E+02  0.45594000000E+02  0.51100000000E-03 0.  1.
         11   -1    0    0    0    0 -0.00000000000E+00 -0.00000000000E+00 -0.45593999997E+02  0.45594000000E+02  0.51100000000E-03 0. -1.
         23    2    1    2    0    0  0.17763568394E-14 -0.71054273576E-14  0.00000000000E+00  0.91188000000E+02  0.91188000000E+02 0.  0.
    9900012    2    3    3    0    0 -0.10926158816E+02 -0.41161695120E+02 -0.83640442219E+01  0.47787270428E+02  0.19999997189E+02 0.  0.
        -12    1    3    3    0    0  0.10926158816E+02  0.41161695120E+02  0.83640442219E+01  0.43400729572E+02  0.00000000000E+00 0.  1.
         11    1    4    4    0    0 -0.10975329421E+02 -0.31675874208E+02 -0.40289063281E+01  0.33764640516E+02  0.51100000000E-03 0. -1.
        -11    1    4    4    0    0 -0.41898927569E+01 -0.53165550989E+01 -0.44054117095E+01  0.80764232198E+01  0.51100000000E-03 0.  1.
        -12    1    4    4    0    0  0.42390633623E+01 -0.41692658135E+01  0.70273815708E-01  0.59462066919E+01  0.00000000000E+00 0.  1.
</event>
<event>
 8    1  0.2994958E-010  0.9118800E+02  0.7816164E-02  0.1184000E+00
        -11   -1    0    0    0    0  0.00000000000E+00  0.00000000000E+00  0.45593999997E+02  0.45594000000E+02  0.51100000000E-03 0. -1.
         11   -1    0    0    0    0 -0.00000000000E+00 -0.00000000000E+00 -0.45593999997E+02  0.45594000000E+02  0.51100000000E-03 0.  1.
         23    2    1    2    0    0  0.00000000000E+00  0.00000000000E+00  0.00000000000E+00  0.91188000000E+02  0.91188000000E+02 0.  0.
    9900012    2    3    3    0    0 -0.30067425030E+02 -0.12807322060E+02 -0.28557755122E+02  0.47787275077E+02  0.20000018385E+02 0.  0.
         12    1    3    3    0    0  0.30067425030E+02  0.12807322060E+02  0.28557755122E+02  0.43400724923E+02  0.00000000000E+00 0. -1.
         11    1    4    4    0    0 -0.14239429864E+02 -0.31349780966E+01 -0.87114095448E+01  0.16984643271E+02  0.51100000000E-03 0. -1.
        -11    1    4    4    0    0 -0.15008541981E+02 -0.41310428595E+01 -0.19818386516E+02  0.25200997835E+02  0.51100000000E-03 0.  1.
        -12    1    4    4    0    0 -0.81945318450E+00 -0.55413011035E+01 -0.27959061234E-01  0.56016339715E+01  0.00000000000E+00 0.  1.
</event>
<event>
 8    1  0.2994958E-010  0.9118800E+02  0.7816164E-02  0.1184000E+00
        -11   -1    0    0    0    0  0.00000000000E+00  0.00000000000E+00  0.45593999997E+02  0.45594000000E+02  0.51100000000E-03 0. -1.
         11   -1    0    0    0    0 -0.00000000000E+00 -0.00000000000E+00 -0.45593999997E+02  0.45594000000E+02  0.51100000000E-03 0.  1.
         23    2    1    2    0    0  0.00000000000E+00 -0.88817841970E-15  0.00000000000E+00  0.91188000000E+02  0.91188000000E+02 0.  0.
    9900012    2    3    3    0    0  0.18311313920E+02  0.73139628425E+01  0.38662965160E+02  0.47787272531E+02  0.20000006777E+02 0.  0.
        -12    1    3    3    0    0 -0.18311313920E+02 -0.73139628425E+01 -0.38662965160E+02  0.43400727469E+02  0.00000000000E+00 0.  1.
         11    1    4    4    0    0 -0.73258227368E+00  0.56969811306E+00  0.12581859445E+01  0.15634144875E+01  0.51100000000E-03 0. -1.
        -11    1    4    4    0    0  0.89584670243E+01 -0.40032021494E+01  0.59189989604E+01  0.11459245517E+02  0.51100000000E-03 0.  1.
        -12    1    4    4    0    0  0.10085429169E+02  0.10747466879E+02  0.31485780255E+02  0.34764612526E+02  0.00000000000E+00 0.  1.
</event>
<event>
 8    1  0.2994958E-010  0.9118800E+02  0.7816164E-02  0.1184000E+00
        -11   -1    0    0    0    0  0.00000000000E+00  0.00000000000E+00  0.45593999997E+02  0.45594000000E+02  0.51100000000E-03 0. -1.
         11   -1    0    0    0    0 -0.00000000000E+00 -0.00000000000E+00 -0.45593999997E+02  0.45594000000E+02  0.51100000000E-03 0.  1.
         23    2    1    2    0    0  0.00000000000E+00  0.00000000000E+00  0.00000000000E+00  0.91188000000E+02  0.91188000000E+02 0.  0.
    9900012    2    3    3    0    0  0.22462225441E+02  0.35704966829E+02  0.10209168694E+02  0.47787270128E+02  0.19999995820E+02 0.  0.
        -12    1    3    3    0    0 -0.22462225441E+02 -0.35704966829E+02 -0.10209168694E+02  0.43400729872E+02  0.00000000000E+00 0.  1.
         11    1    4    4    0    0  0.12426158766E+01  0.15011143542E+02  0.86000822426E+01  0.17344738093E+02  0.51100000000E-03 0. -1.
        -11    1    4    4    0    0  0.20339790223E+01 -0.18582782668E+00  0.25658898876E-01  0.20426113885E+01  0.51100000000E-03 0.  1.
        -12    1    4    4    0    0  0.19185630542E+02  0.20879651113E+02  0.15834275527E+01  0.28399920647E+02  0.00000000000E+00 0.  1.
</event>
<event>
 8    1  0.2994958E-010  0.9118800E+02  0.7816164E-02  0.1184000E+00
        -11   -1    0    0    0    0  0.00000000000E+00  0.00000000000E+00  0.45593999997E+02  0.45594000000E+02  0.51100000000E-03 0. -1.
         11   -1    0    0    0    0 -0.00000000000E+00 -0.00000000000E+00 -0.45593999997E+02  0.45594000000E+02  0.51100000000E-03 0.  1.
         23    2    1    2    0    0  0.00000000000E+00  0.00000000000E+00  0.00000000000E+00  0.91188000000E+02  0.91188000000E+02 0.  0.
    9900012    2    3    3    0    0 -0.56817746260E+01  0.17895299903E+02 -0.39129253648E+02  0.47787276359E+02  0.20000024231E+02 0.  0.
         12    1    3    3    0    0  0.56817746260E+01 -0.17895299903E+02  0.39129253648E+02  0.43400723641E+02  0.00000000000E+00 0. -1.
         11    1    4    4    0    0  0.15633600960E+01 -0.73738273605E-01  0.82181971562E+00  0.17677443335E+01  0.51100000000E-03 0. -1.
        -11    1    4    4    0    0  0.20456804402E+01  0.46685906654E+01 -0.36844679930E+01  0.62893443154E+01  0.51100000000E-03 0.  1.
        -12    1    4    4    0    0 -0.92908151622E+01  0.13300447511E+02 -0.36266605370E+02  0.39730187710E+02  0.00000000000E+00 0.  1.
</event>
<event>
 8    1  0.2994958E-010  0.9118800E+02  0.7816164E-02  0.1184000E+00
        -11   -1    0    0    0    0  0.00000000000E+00  0.00000000000E+00  0.45593999997E+02  0.45594000000E+02  0.51100000000E-03 0. -1.
         11   -1    0    0    0    0 -0.00000000000E+00 -0.00000000000E+00 -0.45593999997E+02  0.45594000000E+02  0.51100000000E-03 0.  1.
         23    2    1    2    0    0  0.00000000000E+00  0.00000000000E+00  0.00000000000E+00  0.91188000000E+02  0.91188000000E+02 0.  0.
    9900012    2    3    3    0    0 -0.13828539995E+02 -0.32130607368E+02 -0.25690861779E+02  0.47787253150E+02  0.19999918410E+02 0.  0.
         12    1    3    3    0    0  0.13828539995E+02  0.32130607368E+02  0.25690861779E+02  0.43400746850E+02  0.00000000000E+00 0. -1.
         11    1    4    4    0    0 -0.54940974200E+01 -0.25763726290E+01 -0.52157383045E+00  0.60905534975E+01  0.51100000000E-03 0. -1.
        -11    1    4    4    0    0  0.14578046987E+01 -0.40735693468E-01  0.31549736030E+00  0.14921101775E+01  0.51100000000E-03 0.  1.
        -12    1    4    4    0    0 -0.97922472737E+01 -0.29513499045E+02 -0.25484785309E+02  0.40204589475E+02  0.00000000000E+00 0.  1.
</event>
<event>
 8    1  0.2994958E-010  0.9118800E+02  0.7816164E-02  0.1184000E+00
        -11   -1    0    0    0    0  0.00000000000E+00  0.00000000000E+00  0.45593999997E+02  0.45594000000E+02  0.51100000000E-03 0.  1.
         11   -1    0    0    0    0 -0.00000000000E+00 -0.00000000000E+00 -0.45593999997E+02  0.45594000000E+02  0.51100000000E-03 0. -1.
         23    2    1    2    0    0  0.00000000000E+00  0.88817841970E-15  0.00000000000E+00  0.91188000000E+02  0.91188000000E+02 0.  0.
    9900012    2    3    3    0    0  0.42885517146E+02 -0.46567832831E+01  0.47717620538E+01  0.47787275069E+02  0.20000018351E+02 0.  0.
         12    1    3    3    0    0 -0.42885517146E+02  0.46567832831E+01 -0.47717620538E+01  0.43400724931E+02  0.00000000000E+00 0. -1.
         11    1    4    4    0    0  0.12507658301E+02  0.12452865572E+01 -0.32662142076E+01  0.12986932290E+02  0.51100000000E-03 0. -1.
        -11    1    4    4    0    0  0.17894415217E+02 -0.68626212616E+01 -0.12577518743E+01  0.19206447005E+02  0.51100000000E-03 0.  1.
        -12    1    4    4    0    0  0.12483443628E+02  0.96055142129E+00  0.92957281357E+01  0.15593895774E+02  0.00000000000E+00 0.  1.
</event>
<event>
 8    1  0.2994958E-010  0.9118800E+02  0.7816164E-02  0.1184000E+00
        -11   -1    0    0    0    0  0.00000000000E+00  0.00000000000E+00  0.45593999997E+02  0.45594000000E+02  0.51100000000E-03 0. -1.
         11   -1    0    0    0    0 -0.00000000000E+00 -0.00000000000E+00 -0.45593999997E+02  0.45594000000E+02  0.51100000000E-03 0.  1.
         23    2    1    2    0    0  0.00000000000E+00  0.00000000000E+00  0.00000000000E+00  0.91188000000E+02  0.91188000000E+02 0.  0.
    9900012    2    3    3    0    0  0.47721842470E+01  0.99995396793E+01  0.41962587943E+02  0.47787270477E+02  0.19999997411E+02 0.  0.
        -12    1    3    3    0    0 -0.47721842470E+01 -0.99995396793E+01 -0.41962587943E+02  0.43400729523E+02  0.00000000000E+00 0.  1.
         11    1    4    4    0    0  0.45429668194E+01  0.79794418295E+01  0.22672510153E+02  0.24461250098E+02  0.51100000000E-03 0. -1.
        -11    1    4    4    0    0  0.10334390788E+01  0.67408403229E+01  0.56053880484E+01  0.88276440811E+01  0.51100000000E-03 0.  1.
        -12    1    4    4    0    0 -0.80422165118E+00 -0.47207424730E+01  0.13684689741E+02  0.14498376298E+02  0.00000000000E+00 0.  1.
</event>
<event>
 8    1  0.2994958E-010  0.9118800E+02  0.7816164E-02  0.1184000E+00
        -11   -1    0    0    0    0  0.00000000000E+00  0.00000000000E+00  0.45593999997E+02  0.45594000000E+02  0.51100000000E-03 0. -1.
         11   -1    0    0    0    0 -0.00000000000E+00 -0.00000000000E+00 -0.45593999997E+02  0.45594000000E+02  0.51100000000E-03 0.  1.
         23    2    1    2    0    0  0.00000000000E+00  0.00000000000E+00  0.00000000000E+00  0.91188000000E+02  0.91188000000E+02 0.  0.
    9900012    2    3    3    0    0 -0.12551331308E+02 -0.25244945315E+02 -0.32996672834E+02  0.47787267291E+02  0.19999982888E+02 0.  0.
         12    1    3    3    0    0  0.12551331308E+02  0.25244945315E+02  0.32996672834E+02  0.43400732709E+02  0.00000000000E+00 0. -1.
         11    1    4    4    0    0  0.32068719605E+01 -0.14768128848E+02 -0.13010446824E+02  0.19941248312E+02  0.51100000000E-03 0. -1.
        -11    1    4    4    0    0 -0.70586358345E+00 -0.11439590334E+01 -0.32292694067E+00  0.13824499046E+01  0.51100000000E-03 0.  1.
        -12    1    4    4    0    0 -0.15052339686E+02 -0.93328574335E+01 -0.19663299069E+02  0.26463569074E+02  0.00000000000E+00 0.  1.
</event>
<event>
 8    1  0.2994958E-010  0.9118800E+02  0.7816164E-02  0.1184000E+00
        -11   -1    0    0    0    0  0.00000000000E+00  0.00000000000E+00  0.45593999997E+02  0.45594000000E+02  0.51100000000E-03 0. -1.
         11   -1    0    0    0    0 -0.00000000000E+00 -0.00000000000E+00 -0.45593999997E+02  0.45594000000E+02  0.51100000000E-03 0.  1.
         23    2    1    2    0    0  0.00000000000E+00  0.00000000000E+00  0.00000000000E+00  0.91188000000E+02  0.91188000000E+02 0.  0.
    9900012    2    3    3    0    0 -0.86394453127E+01  0.26466232543E+02 -0.33294473844E+02  0.47787268798E+02  0.19999989756E+02 0.  0.
         12    1    3    3    0    0  0.86394453127E+01 -0.26466232543E+02  0.33294473844E+02  0.43400731202E+02  0.00000000000E+00 0. -1.
         11    1    4    4    0    0 -0.65078495388E+00  0.13385314937E+01 -0.13065830024E+02  0.13150327072E+02  0.51100000000E-03 0.  1.
        -11    1    4    4    0    0 -0.30237434948E+01  0.28976223316E+01 -0.21999138641E-01  0.41880453821E+01  0.51100000000E-03 0. -1.
        -12    1    4    4    0    0 -0.49649168640E+01  0.22230078718E+02 -0.20206644681E+02  0.30448896344E+02  0.00000000000E+00 0.  1.
</event>
<event>
 8    1  0.2994958E-010  0.9118800E+02  0.7816164E-02  0.1184000E+00
        -11   -1    0    0    0    0  0.00000000000E+00  0.00000000000E+00  0.45593999997E+02  0.45594000000E+02  0.51100000000E-03 0. -1.
         11   -1    0    0    0    0 -0.00000000000E+00 -0.00000000000E+00 -0.45593999997E+02  0.45594000000E+02  0.51100000000E-03 0.  1.
         23    2    1    2    0    0  0.00000000000E+00 -0.31918911958E-15  0.00000000000E+00  0.91188000000E+02  0.91188000000E+02 0.  0.
    9900012    2    3    3    0    0 -0.58405418020E+01 -0.86241028244E-01  0.43005856516E+02  0.47787273499E+02  0.20000011194E+02 0.  0.
        -12    1    3    3    0    0  0.58405418020E+01  0.86241028244E-01 -0.43005856516E+02  0.43400726501E+02  0.00000000000E+00 0.  1.
         11    1    4    4    0    0 -0.27270918830E+01  0.19559542632E+01  0.11314158056E+02  0.11801396527E+02  0.51100000000E-03 0.  1.
        -11    1    4    4    0    0 -0.32975422289E+01 -0.92059947672E+01  0.16311427806E+02  0.19018065142E+02  0.51100000000E-03 0. -1.
        -12    1    4    4    0    0  0.18409230991E+00  0.71637994757E+01  0.15380270655E+02  0.16967811831E+02  0.00000000000E+00 0.  1.
</event>
<event>
 8    1  0.2994958E-010  0.9118800E+02  0.7816164E-02  0.1184000E+00
        -11   -1    0    0    0    0  0.00000000000E+00  0.00000000000E+00  0.45593999997E+02  0.45594000000E+02  0.51100000000E-03 0. -1.
         11   -1    0    0    0    0 -0.00000000000E+00 -0.00000000000E+00 -0.45593999997E+02  0.45594000000E+02  0.51100000000E-03 0.  1.
         23    2    1    2    0    0  0.00000000000E+00  0.17763568394E-14  0.00000000000E+00  0.91188000000E+02  0.91188000000E+02 0.  0.
    9900012    2    3    3    0    0 -0.19636098991E+02 -0.14244087971E+02  0.35988233691E+02  0.47787269708E+02  0.19999993907E+02 0.  0.
        -12    1    3    3    0    0  0.19636098991E+02  0.14244087971E+02 -0.35988233691E+02  0.43400730292E+02  0.00000000000E+00 0.  1.
         11    1    4    4    0    0 -0.67028667179E+01 -0.65713387577E+01  0.20581959497E+02  0.22621405179E+02  0.51100000000E-03 0. -1.
        -11    1    4    4    0    0  0.21189622391E+01 -0.29041960280E+01  0.53508034943E+01  0.64463519789E+01  0.51100000000E-03 0.  1.
        -12    1    4    4    0    0 -0.15052194512E+02 -0.47685531853E+01  0.10055470700E+02  0.18719512550E+02  0.00000000000E+00 0.  1.
</event>
<event>
 8    1  0.2994958E-010  0.9118800E+02  0.7816164E-02  0.1184000E+00
        -11   -1    0    0    0    0  0.00000000000E+00  0.00000000000E+00  0.45593999997E+02  0.45594000000E+02  0.51100000000E-03 0. -1.
         11   -1    0    0    0    0 -0.00000000000E+00 -0.00000000000E+00 -0.45593999997E+02  0.45594000000E+02  0.51100000000E-03 0.  1.
         23    2    1    2    0    0 -0.44408920985E-15  0.88817841970E-15  0.00000000000E+00  0.91188000000E+02  0.91188000000E+02 0.  0.
    9900012    2    3    3    0    0  0.32856732568E+01 -0.72517703295E+01 -0.42664268043E+02  0.47787267410E+02  0.19999983430E+02 0.  0.
         12    1    3    3    0    0 -0.32856732568E+01  0.72517703295E+01  0.42664268043E+02  0.43400732590E+02  0.00000000000E+00 0. -1.
         11    1    4    4    0    0  0.11419770699E+01  0.17636329074E+01  0.70557354583E+00  0.22163814992E+01  0.51100000000E-03 0. -1.
        -11    1    4    4    0    0  0.48672492017E+01 -0.34330013307E+00 -0.13939488369E+02  0.14768795009E+02  0.51100000000E-03 0.  1.
        -12    1    4    4    0    0 -0.27235530148E+01 -0.86721031038E+01 -0.29430353220E+02  0.30802090902E+02  0.00000000000E+00 0.  1.
</event>
<event>
 8    1  0.2994958E-010  0.9118800E+02  0.7816164E-02  0.1184000E+00
        -11   -1    0    0    0    0  0.00000000000E+00  0.00000000000E+00  0.45593999997E+02  0.45594000000E+02  0.51100000000E-03 0. -1.
         11   -1    0    0    0    0 -0.00000000000E+00 -0.00000000000E+00 -0.45593999997E+02  0.45594000000E+02  0.51100000000E-03 0.  1.
         23    2    1    2    0    0  0.17763568394E-14  0.00000000000E+00  0.71054273576E-14  0.91188000000E+02  0.91188000000E+02 0.  0.
    9900012    2    3    3    0    0 -0.14962625125E+02 -0.11196310880E+02 -0.39171234675E+02  0.47787272427E+02  0.20000006304E+02 0.  0.
         12    1    3    3    0    0  0.14962625125E+02  0.11196310880E+02  0.39171234675E+02  0.43400727573E+02  0.00000000000E+00 0. -1.
         11    1    4    4    0    0 -0.58564044318E+01  0.11288536590E+01 -0.48624500200E+01  0.76951415783E+01  0.51100000000E-03 0. -1.
        -11    1    4    4    0    0  0.27650255287E+01 -0.32761621495E+01 -0.25190079724E+01  0.49723240070E+01  0.51100000000E-03 0.  1.
        -12    1    4    4    0    0 -0.11871246222E+02 -0.90490023891E+01 -0.31789776682E+02  0.35119806842E+02  0.00000000000E+00 0.  1.
</event>
<event>
 8    1  0.2994958E-010  0.9118800E+02  0.7816164E-02  0.1184000E+00
        -11   -1    0    0    0    0  0.00000000000E+00  0.00000000000E+00  0.45593999997E+02  0.45594000000E+02  0.51100000000E-03 0. -1.
         11   -1    0    0    0    0 -0.00000000000E+00 -0.00000000000E+00 -0.45593999997E+02  0.45594000000E+02  0.51100000000E-03 0.  1.
         23    2    1    2    0    0 -0.17763568394E-14  0.17763568394E-14  0.00000000000E+00  0.91188000000E+02  0.91188000000E+02 0.  0.
    9900012    2    3    3    0    0  0.11139131807E+02  0.15296134161E+02 -0.39058560809E+02  0.47787272470E+02  0.20000006498E+02 0.  0.
         12    1    3    3    0    0 -0.11139131807E+02 -0.15296134161E+02  0.39058560809E+02  0.43400727530E+02  0.00000000000E+00 0. -1.
         11    1    4    4    0    0  0.25762836482E+01  0.94504926442E+01 -0.10159086787E+02  0.14112267474E+02  0.51100000000E-03 0. -1.
        -11    1    4    4    0    0  0.85574510908E+01  0.81959741740E+01 -0.12948709494E+02  0.17552009562E+02  0.51100000000E-03 0.  1.
         12    1    4    4    0    0  0.53970678615E-02 -0.23503326573E+01 -0.15950764528E+02  0.16122995434E+02  0.00000000000E+00 0. -1.
</event>
<event>
 8    1  0.2994958E-010  0.9118800E+02  0.7816164E-02  0.1184000E+00
        -11   -1    0    0    0    0  0.00000000000E+00  0.00000000000E+00  0.45593999997E+02  0.45594000000E+02  0.51100000000E-03 0. -1.
         11   -1    0    0    0    0 -0.00000000000E+00 -0.00000000000E+00 -0.45593999997E+02  0.45594000000E+02  0.51100000000E-03 0.  1.
         23    2    1    2    0    0  0.35527136788E-14  0.35527136788E-14  0.00000000000E+00  0.91188000000E+02  0.91188000000E+02 0.  0.
    9900012    2    3    3    0    0  0.31036050120E+02  0.24562993854E+02 -0.17805790942E+02  0.47787271144E+02  0.20000000454E+02 0.  0.
         12    1    3    3    0    0 -0.31036050120E+02 -0.24562993854E+02  0.17805790942E+02  0.43400728856E+02  0.00000000000E+00 0. -1.
         11    1    4    4    0    0  0.43002451172E+01  0.34320872996E+01 -0.75042569199E+01  0.93051170590E+01  0.51100000000E-03 0. -1.
        -11    1    4    4    0    0  0.17249834034E+02  0.17918300193E+02 -0.13062127297E+02  0.28093440974E+02  0.51100000000E-03 0.  1.
         12    1    4    4    0    0  0.94859709692E+01  0.32126063621E+01  0.27605932749E+01  0.10388713111E+02  0.00000000000E+00 0. -1.
</event>
<event>
 8    1  0.2994958E-010  0.9118800E+02  0.7816164E-02  0.1184000E+00
        -11   -1    0    0    0    0  0.00000000000E+00  0.00000000000E+00  0.45593999997E+02  0.45594000000E+02  0.51100000000E-03 0. -1.
         11   -1    0    0    0    0 -0.00000000000E+00 -0.00000000000E+00 -0.45593999997E+02  0.45594000000E+02  0.51100000000E-03 0.  1.
         23    2    1    2    0    0  0.35527136788E-14 -0.35527136788E-14  0.00000000000E+00  0.91188000000E+02  0.91188000000E+02 0.  0.
    9900012    2    3    3    0    0  0.28226564535E+02 -0.19726659904E+02  0.26414828154E+02  0.47787271863E+02  0.20000003731E+02 0.  0.
        -12    1    3    3    0    0 -0.28226564535E+02  0.19726659904E+02 -0.26414828154E+02  0.43400728137E+02  0.00000000000E+00 0.  1.
         11    1    4    4    0    0 -0.25947317296E+01 -0.41061134045E+00  0.64084934732E+00  0.27040566874E+01  0.51100000000E-03 0. -1.
        -11    1    4    4    0    0  0.48486842702E+01 -0.58581123717E+01  0.69177468815E+01  0.10280196588E+02  0.51100000000E-03 0.  1.
         12    1    4    4    0    0  0.25972611995E+02 -0.13457936192E+02  0.18856231926E+02  0.34803018587E+02  0.00000000000E+00 0. -1.
</event>
<event>
 8    1  0.2994958E-010  0.9118800E+02  0.7816164E-02  0.1184000E+00
        -11   -1    0    0    0    0  0.00000000000E+00  0.00000000000E+00  0.45593999997E+02  0.45594000000E+02  0.51100000000E-03 0. -1.
         11   -1    0    0    0    0 -0.00000000000E+00 -0.00000000000E+00 -0.45593999997E+02  0.45594000000E+02  0.51100000000E-03 0.  1.
         23    2    1    2    0    0 -0.71054273576E-14 -0.44408920985E-15  0.00000000000E+00  0.91188000000E+02  0.91188000000E+02 0.  0.
    9900012    2    3    3    0    0 -0.39851295868E+02  0.36601707646E+01 -0.16795844215E+02  0.47787274024E+02  0.20000013585E+02 0.  0.
         12    1    3    3    0    0  0.39851295868E+02 -0.36601707646E+01  0.16795844215E+02  0.43400725976E+02  0.00000000000E+00 0. -1.
         11    1    4    4    0    0 -0.69408996231E+01 -0.31835440854E+01 -0.57438840847E+00  0.76577387542E+01  0.51100000000E-03 0. -1.
        -11    1    4    4    0    0 -0.29381313942E+02  0.43247647699E+00 -0.13152372677E+02  0.32193688080E+02  0.51100000000E-03 0.  1.
        -12    1    4    4    0    0 -0.35290823023E+01  0.64112383730E+01 -0.30690831293E+01  0.79358471902E+01  0.00000000000E+00 0.  1.
</event>
<event>
 8    1  0.2994958E-010  0.9118800E+02  0.7816164E-02  0.1184000E+00
        -11   -1    0    0    0    0  0.00000000000E+00  0.00000000000E+00  0.45593999997E+02  0.45594000000E+02  0.51100000000E-03 0. -1.
         11   -1    0    0    0    0 -0.00000000000E+00 -0.00000000000E+00 -0.45593999997E+02  0.45594000000E+02  0.51100000000E-03 0.  1.
         23    2    1    2    0    0  0.17763568394E-14  0.00000000000E+00  0.00000000000E+00  0.91188000000E+02  0.91188000000E+02 0.  0.
    9900012    2    3    3    0    0  0.11065492691E+02  0.20048253143E+01  0.41918481499E+02  0.47787267929E+02  0.19999985798E+02 0.  0.
        -12    1    3    3    0    0 -0.11065492691E+02 -0.20048253143E+01 -0.41918481499E+02  0.43400732071E+02  0.00000000000E+00 0.  1.
         11    1    4    4    0    0  0.18717340142E+00  0.25359285488E+01  0.69277196390E+00  0.26355076820E+01  0.51100000000E-03 0. -1.
        -11    1    4    4    0    0  0.11525259507E+02  0.26724326758E+01  0.17029897159E+02  0.20736221946E+02  0.51100000000E-03 0.  1.
         12    1    4    4    0    0 -0.64694021687E+00 -0.32035359103E+01  0.24195812377E+02  0.24415538301E+02  0.00000000000E+00 0. -1.
</event>
<event>
 8    1  0.2994958E-010  0.9118800E+02  0.7816164E-02  0.1184000E+00
        -11   -1    0    0    0    0  0.00000000000E+00  0.00000000000E+00  0.45593999997E+02  0.45594000000E+02  0.51100000000E-03 0. -1.
         11   -1    0    0    0    0 -0.00000000000E+00 -0.00000000000E+00 -0.45593999997E+02  0.45594000000E+02  0.51100000000E-03 0.  1.
         23    2    1    2    0    0 -0.35527136788E-14 -0.35527136788E-14  0.71054273576E-14  0.91188000000E+02  0.91188000000E+02 0.  0.
    9900012    2    3    3    0    0  0.17732838279E+02  0.14055829809E+02 -0.37035168574E+02  0.47787267099E+02  0.19999982009E+02 0.  0.
         12    1    3    3    0    0 -0.17732838279E+02 -0.14055829809E+02  0.37035168574E+02  0.43400732901E+02  0.00000000000E+00 0. -1.
         11    1    4    4    0    0  0.25977098678E+01  0.70149126413E+01 -0.10987006110E+02  0.13291779393E+02  0.51100000000E-03 0. -1.
        -11    1    4    4    0    0  0.46569015133E+01  0.10575715625E+02 -0.13459227563E+02  0.17739315081E+02  0.51100000000E-03 0.  1.
         12    1    4    4    0    0  0.10478226898E+02 -0.35347984574E+01 -0.12588934901E+02  0.16756172624E+02  0.00000000000E+00 0. -1.
</event>
<event>
 8    1  0.3252568E-010  0.9118800E+02  0.7816164E-02  0.1184000E+00
        -11   -1    0    0    0    0  0.00000000000E+00  0.00000000000E+00  0.45593999997E+02  0.45594000000E+02  0.51100000000E-03 0. -1.
         11   -1    0    0    0    0 -0.00000000000E+00 -0.00000000000E+00 -0.45593999997E+02  0.45594000000E+02  0.51100000000E-03 0.  1.
         23    2    1    2    0    0 -0.35527136788E-14  0.22204460493E-15  0.00000000000E+00  0.91188000000E+02  0.91188000000E+02 0.  0.
    9900012    2    3    3    0    0 -0.17583684462E+02 -0.15111162562E+01  0.39650384576E+02  0.47787280782E+02  0.20000044398E+02 0.  0.
        -12    1    3    3    0    0  0.17583684462E+02  0.15111162562E+01 -0.39650384576E+02  0.43400719218E+02  0.00000000000E+00 0.  1.
         11    1    4    4    0    0 -0.23112320793E+01 -0.58912796416E+01  0.57570657982E+01  0.85552776931E+01  0.51100000000E-03 0. -1.
        -11    1    4    4    0    0 -0.12779920055E+02  0.47928311855E+01  0.15446211807E+02  0.20612691402E+02  0.51100000000E-03 0.  1.
         12    1    4    4    0    0 -0.24925323276E+01 -0.41266780012E+00  0.18447106971E+02  0.18619311687E+02  0.00000000000E+00 0. -1.
</event>
<event>
 8    1  0.2994958E-010  0.9118800E+02  0.7816164E-02  0.1184000E+00
        -11   -1    0    0    0    0  0.00000000000E+00  0.00000000000E+00  0.45593999997E+02  0.45594000000E+02  0.51100000000E-03 0.  1.
         11   -1    0    0    0    0 -0.00000000000E+00 -0.00000000000E+00 -0.45593999997E+02  0.45594000000E+02  0.51100000000E-03 0. -1.
         23    2    1    2    0    0  0.00000000000E+00  0.00000000000E+00  0.88817841970E-15  0.91188000000E+02  0.91188000000E+02 0.  0.
    9900012    2    3    3    0    0 -0.29304139456E+02  0.31089090917E+02 -0.76393039388E+01  0.47787272725E+02  0.20000007663E+02 0.  0.
         12    1    3    3    0    0  0.29304139456E+02 -0.31089090917E+02  0.76393039388E+01  0.43400727275E+02  0.00000000000E+00 0. -1.
         11    1    4    4    0    0 -0.58405058234E+01  0.27608146881E+01 -0.60686471116E+01  0.88635254860E+01  0.51100000000E-03 0. -1.
        -11    1    4    4    0    0 -0.61185954162E+00  0.18387083679E+00  0.23720240348E+01  0.24565583377E+01  0.51100000000E-03 0.  1.
        -12    1    4    4    0    0 -0.22851774091E+02  0.28144405393E+02 -0.39426808621E+01  0.36467188901E+02  0.00000000000E+00 0.  1.
</event>
<event>
 8    1  0.2994958E-010  0.9118800E+02  0.7816164E-02  0.1184000E+00
        -11   -1    0    0    0    0  0.00000000000E+00  0.00000000000E+00  0.45593999997E+02  0.45594000000E+02  0.51100000000E-03 0. -1.
         11   -1    0    0    0    0 -0.00000000000E+00 -0.00000000000E+00 -0.45593999997E+02  0.45594000000E+02  0.51100000000E-03 0.  1.
         23    2    1    2    0    0 -0.35527136788E-14  0.00000000000E+00  0.00000000000E+00  0.91188000000E+02  0.91188000000E+02 0.  0.
    9900012    2    3    3    0    0 -0.18700839578E+02  0.81943528859E+01 -0.38298230912E+02  0.47787270615E+02  0.19999998044E+02 0.  0.
         12    1    3    3    0    0  0.18700839578E+02 -0.81943528859E+01  0.38298230912E+02  0.43400729385E+02  0.00000000000E+00 0. -1.
         11    1    4    4    0    0  0.98542845800E+00 -0.17100699882E+01 -0.51572459309E+01  0.55220100020E+01  0.51100000000E-03 0. -1.
        -11    1    4    4    0    0 -0.35058891851E+00  0.22662540992E+01  0.82904712377E+00  0.24384707557E+01  0.51100000000E-03 0.  1.
        -12    1    4    4    0    0 -0.19335679117E+02  0.76381687749E+01 -0.33970032105E+02  0.39826789858E+02  0.00000000000E+00 0.  1.
</event>
<event>
 8    1  0.2994958E-010  0.9118800E+02  0.7816164E-02  0.1184000E+00
        -11   -1    0    0    0    0  0.00000000000E+00  0.00000000000E+00  0.45593999997E+02  0.45594000000E+02  0.51100000000E-03 0. -1.
         11   -1    0    0    0    0 -0.00000000000E+00 -0.00000000000E+00 -0.45593999997E+02  0.45594000000E+02  0.51100000000E-03 0.  1.
         23    2    1    2    0    0  0.71054273576E-14  0.00000000000E+00  0.00000000000E+00  0.91188000000E+02  0.91188000000E+02 0.  0.
    9900012    2    3    3    0    0 -0.31959616607E+02  0.29287964343E+02  0.21033819918E+01  0.47787237739E+02  0.19999848147E+02 0.  0.
        -12    1    3    3    0    0  0.31959616607E+02 -0.29287964343E+02 -0.21033819918E+01  0.43400762261E+02  0.00000000000E+00 0.  1.
         11    1    4    4    0    0 -0.69175891879E+01  0.10996177047E+02  0.25909642852E+01  0.13246963653E+02  0.51100000000E-03 0. -1.
        -11    1    4    4    0    0 -0.12183187754E+02  0.17923108586E+02 -0.42559427536E+00  0.21676000923E+02  0.51100000000E-03 0.  1.
         12    1    4    4    0    0 -0.12858839665E+02  0.36867870946E+00 -0.61988017995E-01  0.12864273164E+02  0.00000000000E+00 0. -1.
</event>
<event>
 8    1  0.2994958E-010  0.9118800E+02  0.7816164E-02  0.1184000E+00
        -11   -1    0    0    0    0  0.00000000000E+00  0.00000000000E+00  0.45593999997E+02  0.45594000000E+02  0.51100000000E-03 0. -1.
         11   -1    0    0    0    0 -0.00000000000E+00 -0.00000000000E+00 -0.45593999997E+02  0.45594000000E+02  0.51100000000E-03 0.  1.
         23    2    1    2    0    0  0.00000000000E+00  0.00000000000E+00  0.00000000000E+00  0.91188000000E+02  0.91188000000E+02 0.  0.
    9900012    2    3    3    0    0  0.13466627737E+02 -0.18495736662E+02  0.36880630501E+02  0.47787271395E+02  0.20000001599E+02 0.  0.
        -12    1    3    3    0    0 -0.13466627737E+02  0.18495736662E+02 -0.36880630501E+02  0.43400728605E+02  0.00000000000E+00 0.  1.
         11    1    4    4    0    0  0.42679576313E+01 -0.87228896817E+01  0.24266933768E+02  0.26137871786E+02  0.51100000000E-03 0. -1.
        -11    1    4    4    0    0  0.68801178440E+01 -0.84509874646E+01  0.14673914935E+02  0.18277827838E+02  0.51100000000E-03 0.  1.
        -12    1    4    4    0    0  0.23185522621E+01 -0.13218595152E+01 -0.20602182022E+01  0.33715717716E+01  0.00000000000E+00 0.  1.
</event>
<event>
 8    1  0.2994958E-010  0.9118800E+02  0.7816164E-02  0.1184000E+00
        -11   -1    0    0    0    0  0.00000000000E+00  0.00000000000E+00  0.45593999997E+02  0.45594000000E+02  0.51100000000E-03 0. -1.
         11   -1    0    0    0    0 -0.00000000000E+00 -0.00000000000E+00 -0.45593999997E+02  0.45594000000E+02  0.51100000000E-03 0.  1.
         23    2    1    2    0    0  0.71054273576E-14  0.00000000000E+00  0.66613381478E-15  0.91188000000E+02  0.91188000000E+02 0.  0.
    9900012    2    3    3    0    0  0.40961254022E+02  0.14315737320E+02  0.92669491784E+00  0.47787269251E+02  0.19999991822E+02 0.  0.
         12    1    3    3    0    0 -0.40961254022E+02 -0.14315737320E+02 -0.92669491784E+00  0.43400730749E+02  0.00000000000E+00 0. -1.
         11    1    4    4    0    0  0.12915346969E+02 -0.73400556876E+00 -0.10884800381E+01  0.12981900498E+02  0.51100000000E-03 0. -1.
        -11    1    4    4    0    0  0.61601447217E+01  0.27770774095E+00 -0.44699488998E+01  0.76160979517E+01  0.51100000000E-03 0.  1.
         12    1    4    4    0    0  0.21885762332E+02  0.14772035148E+02  0.64851238557E+01  0.27189270801E+02  0.00000000000E+00 0. -1.
</event>
<event>
 8    1  0.2994958E-010  0.9118800E+02  0.7816164E-02  0.1184000E+00
        -11   -1    0    0    0    0  0.00000000000E+00  0.00000000000E+00  0.45593999997E+02  0.45594000000E+02  0.51100000000E-03 0.  1.
         11   -1    0    0    0    0 -0.00000000000E+00 -0.00000000000E+00 -0.45593999997E+02  0.45594000000E+02  0.51100000000E-03 0. -1.
         23    2    1    2    0    0  0.00000000000E+00  0.00000000000E+00  0.88817841970E-15  0.91188000000E+02  0.91188000000E+02 0.  0.
    9900012    2    3    3    0    0 -0.27372434507E+02 -0.33271606470E+02  0.52319336902E+01  0.47787273070E+02  0.20000009235E+02 0.  0.
         12    1    3    3    0    0  0.27372434507E+02  0.33271606470E+02 -0.52319336902E+01  0.43400726930E+02  0.00000000000E+00 0. -1.
         11    1    4    4    0    0 -0.60320060919E+01 -0.29753976369E+01  0.62542930525E+01  0.91844580917E+01  0.51100000000E-03 0. -1.
        -11    1    4    4    0    0  0.11376098546E+01 -0.21852126823E+01 -0.86042914359E+00  0.26095304598E+01  0.51100000000E-03 0.  1.
        -12    1    4    4    0    0 -0.22478038270E+02 -0.28110996151E+02 -0.16193021875E+00  0.35993284518E+02  0.00000000000E+00 0.  1.
</event>
<event>
 8    1  0.2994958E-010  0.9118800E+02  0.7816164E-02  0.1184000E+00
        -11   -1    0    0    0    0  0.00000000000E+00  0.00000000000E+00  0.45593999997E+02  0.45594000000E+02  0.51100000000E-03 0. -1.
         11   -1    0    0    0    0 -0.00000000000E+00 -0.00000000000E+00 -0.45593999997E+02  0.45594000000E+02  0.51100000000E-03 0.  1.
         23    2    1    2    0    0  0.00000000000E+00  0.17763568394E-14  0.00000000000E+00  0.91188000000E+02  0.91188000000E+02 0.  0.
    9900012    2    3    3    0    0  0.96371154653E+01  0.11491729624E+02 -0.40727006483E+02  0.47787275336E+02  0.20000019568E+02 0.  0.
         12    1    3    3    0    0 -0.96371154653E+01 -0.11491729624E+02  0.40727006483E+02  0.43400724664E+02  0.00000000000E+00 0. -1.
         11    1    4    4    0    0  0.58831319800E+01  0.69912212638E+01 -0.86138728007E+01  0.12557357267E+02  0.51100000000E-03 0. -1.
        -11    1    4    4    0    0 -0.13767587692E+01  0.15916457203E+01  0.43732827238E+00  0.21494318054E+01  0.51100000000E-03 0.  1.
        -12    1    4    4    0    0  0.51307422545E+01  0.29088626403E+01 -0.32550461955E+02  0.33080486263E+02  0.00000000000E+00 0.  1.
</event>
<event>
 8    1  0.2994958E-010  0.9118800E+02  0.7816164E-02  0.1184000E+00
        -11   -1    0    0    0    0  0.00000000000E+00  0.00000000000E+00  0.45593999997E+02  0.45594000000E+02  0.51100000000E-03 0.  1.
         11   -1    0    0    0    0 -0.00000000000E+00 -0.00000000000E+00 -0.45593999997E+02  0.45594000000E+02  0.51100000000E-03 0. -1.
         23    2    1    2    0    0  0.17763568394E-14  0.00000000000E+00 -0.17763568394E-14  0.91188000000E+02  0.91188000000E+02 0.  0.
    9900012    2    3    3    0    0 -0.13805455166E+02  0.38535142143E+02  0.14424813450E+02  0.47787274022E+02  0.20000013578E+02 0.  0.
        -12    1    3    3    0    0  0.13805455166E+02 -0.38535142143E+02 -0.14424813450E+02  0.43400725978E+02  0.00000000000E+00 0.  1.
         11    1    4    4    0    0 -0.12470631132E+02  0.22925097817E+02  0.80667856145E+01  0.27315742369E+02  0.51100000000E-03 0.  1.
        -11    1    4    4    0    0 -0.45881006047E+01  0.12999991520E+02  0.80572897896E+01  0.15967791509E+02  0.51100000000E-03 0. -1.
        -12    1    4    4    0    0  0.32532765706E+01  0.26100528065E+01 -0.16992619545E+01  0.45037401443E+01  0.00000000000E+00 0.  1.
</event>
<event>
 8    1  0.2994958E-010  0.9118800E+02  0.7816164E-02  0.1184000E+00
        -11   -1    0    0    0    0  0.00000000000E+00  0.00000000000E+00  0.45593999997E+02  0.45594000000E+02  0.51100000000E-03 0. -1.
         11   -1    0    0    0    0 -0.00000000000E+00 -0.00000000000E+00 -0.45593999997E+02  0.45594000000E+02  0.51100000000E-03 0.  1.
         23    2    1    2    0    0  0.00000000000E+00  0.00000000000E+00  0.71054273576E-14  0.91188000000E+02  0.91188000000E+02 0.  0.
    9900012    2    3    3    0    0  0.19486257582E+02  0.78897561854E+01  0.37969225176E+02  0.47787256369E+02  0.19999933091E+02 0.  0.
        -12    1    3    3    0    0 -0.19486257582E+02 -0.78897561854E+01 -0.37969225176E+02  0.43400743631E+02  0.00000000000E+00 0.  1.
         11    1    4    4    0    0  0.10798478940E+02 -0.83285844640E-01  0.10507460531E+02  0.15067209795E+02  0.51100000000E-03 0. -1.
        -11    1    4    4    0    0  0.99226260330E+01  0.66347403685E+01  0.11237434264E+02  0.16393846902E+02  0.51100000000E-03 0.  1.
        -12    1    4    4    0    0 -0.12348473910E+01  0.13383016615E+01  0.16224330381E+02  0.16326199672E+02  0.00000000000E+00 0.  1.
</event>
<event>
 8    1  0.2994958E-010  0.9118800E+02  0.7816164E-02  0.1184000E+00
        -11   -1    0    0    0    0  0.00000000000E+00  0.00000000000E+00  0.45593999997E+02  0.45594000000E+02  0.51100000000E-03 0. -1.
         11   -1    0    0    0    0 -0.00000000000E+00 -0.00000000000E+00 -0.45593999997E+02  0.45594000000E+02  0.51100000000E-03 0.  1.
         23    2    1    2    0    0  0.00000000000E+00  0.00000000000E+00 -0.71054273576E-14  0.91188000000E+02  0.91188000000E+02 0.  0.
    9900012    2    3    3    0    0 -0.27842250601E+01 -0.85207143660E+01 -0.42464914116E+02  0.47787269437E+02  0.19999992673E+02 0.  0.
         12    1    3    3    0    0  0.27842250601E+01  0.85207143660E+01  0.42464914116E+02  0.43400730563E+02  0.00000000000E+00 0. -1.
         11    1    4    4    0    0 -0.30030896788E+01 -0.21076288096E+01  0.89994697930E-01  0.36699790360E+01  0.51100000000E-03 0. -1.
        -11    1    4    4    0    0 -0.43694951848E+01 -0.49293517083E+01 -0.20152898219E+02  0.21202129688E+02  0.51100000000E-03 0.  1.
         12    1    4    4    0    0  0.45883598034E+01 -0.14837338481E+01 -0.22402010595E+02  0.22915160714E+02  0.00000000000E+00 0. -1.
</event>
<event>
 8    1  0.2994958E-010  0.9118800E+02  0.7816164E-02  0.1184000E+00
        -11   -1    0    0    0    0  0.00000000000E+00  0.00000000000E+00  0.45593999997E+02  0.45594000000E+02  0.51100000000E-03 0.  1.
         11   -1    0    0    0    0 -0.00000000000E+00 -0.00000000000E+00 -0.45593999997E+02  0.45594000000E+02  0.51100000000E-03 0. -1.
         23    2    1    2    0    0  0.00000000000E+00  0.71054273576E-14  0.35527136788E-14  0.91188000000E+02  0.91188000000E+02 0.  0.
    9900012    2    3    3    0    0 -0.13798798286E+01  0.38165730989E+02  0.20617876782E+02  0.47787263448E+02  0.19999965366E+02 0.  0.
        -12    1    3    3    0    0  0.13798798286E+01 -0.38165730989E+02 -0.20617876782E+02  0.43400736552E+02  0.00000000000E+00 0.  1.
         11    1    4    4    0    0 -0.11409053895E+01  0.93930892666E+01  0.31241772846E+01  0.99645509204E+01  0.51100000000E-03 0. -1.
        -11    1    4    4    0    0 -0.49897750945E-01  0.90921108579E+00 -0.30635626298E+01  0.31960242227E+01  0.51100000000E-03 0.  1.
        -12    1    4    4    0    0 -0.18907668815E+00  0.27863430637E+02  0.20557262127E+02  0.34626688305E+02  0.00000000000E+00 0.  1.
</event>
<event>
 8    1  0.2994958E-010  0.9118800E+02  0.7816164E-02  0.1184000E+00
        -11   -1    0    0    0    0  0.00000000000E+00  0.00000000000E+00  0.45593999997E+02  0.45594000000E+02  0.51100000000E-03 0. -1.
         11   -1    0    0    0    0 -0.00000000000E+00 -0.00000000000E+00 -0.45593999997E+02  0.45594000000E+02  0.51100000000E-03 0.  1.
         23    2    1    2    0    0  0.00000000000E+00  0.88817841970E-15  0.00000000000E+00  0.91188000000E+02  0.91188000000E+02 0.  0.
    9900012    2    3    3    0    0  0.17141738076E+02  0.56459371141E+01 -0.39470335610E+02  0.47787272088E+02  0.20000004757E+02 0.  0.
         12    1    3    3    0    0 -0.17141738076E+02 -0.56459371141E+01  0.39470335610E+02  0.43400727912E+02  0.00000000000E+00 0. -1.
         11    1    4    4    0    0  0.10832709582E+02  0.40351021163E+01 -0.25814336709E+02  0.28284441411E+02  0.51100000000E-03 0.  1.
        -11    1    4    4    0    0 -0.22127881996E+01  0.79378899633E+00 -0.98630034738E+01  0.10139298318E+02  0.51100000000E-03 0. -1.
         12    1    4    4    0    0  0.85218166934E+01  0.81704600156E+00 -0.37929954272E+01  0.93635323588E+01  0.00000000000E+00 0. -1.
</event>
<event>
 8    1  0.2994958E-010  0.9118800E+02  0.7816164E-02  0.1184000E+00
        -11   -1    0    0    0    0  0.00000000000E+00  0.00000000000E+00  0.45593999997E+02  0.45594000000E+02  0.51100000000E-03 0. -1.
         11   -1    0    0    0    0 -0.00000000000E+00 -0.00000000000E+00 -0.45593999997E+02  0.45594000000E+02  0.51100000000E-03 0.  1.
         23    2    1    2    0    0  0.00000000000E+00  0.88817841970E-15  0.00000000000E+00  0.91188000000E+02  0.91188000000E+02 0.  0.
    9900012    2    3    3    0    0 -0.16091942728E+02  0.60682833377E+01 -0.39847814385E+02  0.47787274260E+02  0.20000014663E+02 0.  0.
         12    1    3    3    0    0  0.16091942728E+02 -0.60682833377E+01  0.39847814385E+02  0.43400725740E+02  0.00000000000E+00 0. -1.
         11    1    4    4    0    0 -0.89305919797E+01  0.23485043120E+00 -0.10098798650E+02  0.13483188134E+02  0.51100000000E-03 0. -1.
        -11    1    4    4    0    0 -0.61503774807E+01 -0.13776193154E+01 -0.24577806060E+02  0.25373086708E+02  0.51100000000E-03 0.  1.
         12    1    4    4    0    0 -0.10109732678E+01  0.72110522220E+01 -0.51712096761E+01  0.89309994183E+01  0.00000000000E+00 0. -1.
</event>
<event>
 8    1  0.2994958E-010  0.9118800E+02  0.7816164E-02  0.1184000E+00
        -11   -1    0    0    0    0  0.00000000000E+00  0.00000000000E+00  0.45593999997E+02  0.45594000000E+02  0.51100000000E-03 0. -1.
         11   -1    0    0    0    0 -0.00000000000E+00 -0.00000000000E+00 -0.45593999997E+02  0.45594000000E+02  0.51100000000E-03 0.  1.
         23    2    1    2    0    0  0.17763568394E-14  0.71054273576E-14  0.00000000000E+00  0.91188000000E+02  0.91188000000E+02 0.  0.
    9900012    2    3    3    0    0  0.12767936047E+02  0.25221855223E+02  0.32931156355E+02  0.47787271543E+02  0.20000002271E+02 0.  0.
        -12    1    3    3    0    0 -0.12767936047E+02 -0.25221855223E+02 -0.32931156355E+02  0.43400728457E+02  0.00000000000E+00 0.  1.
         11    1    4    4    0    0  0.16610777647E+02  0.16488525546E+02  0.17963125861E+02  0.29503615027E+02  0.51100000000E-03 0. -1.
        -11    1    4    4    0    0 -0.71018361936E+00 -0.33297162818E+00  0.20405255726E+01  0.21860868582E+01  0.51100000000E-03 0.  1.
         12    1    4    4    0    0 -0.31326579808E+01  0.90663013050E+01  0.12927504921E+02  0.16097569657E+02  0.00000000000E+00 0. -1.
</event>
<event>
 8    1  0.2994958E-010  0.9118800E+02  0.7816164E-02  0.1184000E+00
        -11   -1    0    0    0    0  0.00000000000E+00  0.00000000000E+00  0.45593999997E+02  0.45594000000E+02  0.51100000000E-03 0. -1.
         11   -1    0    0    0    0 -0.00000000000E+00 -0.00000000000E+00 -0.45593999997E+02  0.45594000000E+02  0.51100000000E-03 0.  1.
         23    2    1    2    0    0  0.00000000000E+00  0.00000000000E+00  0.00000000000E+00  0.91188000000E+02  0.91188000000E+02 0.  0.
    9900012    2    3    3    0    0 -0.16050495438E+02 -0.11216583799E+02 -0.38732326201E+02  0.47787271333E+02  0.20000001315E+02 0.  0.
         12    1    3    3    0    0  0.16050495438E+02  0.11216583799E+02  0.38732326201E+02  0.43400728667E+02  0.00000000000E+00 0. -1.
         11    1    4    4    0    0 -0.70173707802E+01  0.30112693464E+01 -0.10983959578E+02  0.13377541031E+02  0.51100000000E-03 0. -1.
        -11    1    4    4    0    0  0.60146568662E+00 -0.16357386358E+01  0.67035373700E+00  0.18672911532E+01  0.51100000000E-03 0.  1.
        -12    1    4    4    0    0 -0.96345903444E+01 -0.12592114509E+02 -0.28418720359E+02  0.32542439149E+02  0.00000000000E+00 0.  1.
</event>
<event>
 8    1  0.2994958E-010  0.9118800E+02  0.7816164E-02  0.1184000E+00
        -11   -1    0    0    0    0  0.00000000000E+00  0.00000000000E+00  0.45593999997E+02  0.45594000000E+02  0.51100000000E-03 0. -1.
         11   -1    0    0    0    0 -0.00000000000E+00 -0.00000000000E+00 -0.45593999997E+02  0.45594000000E+02  0.51100000000E-03 0.  1.
         23    2    1    2    0    0  0.00000000000E+00  0.00000000000E+00  0.00000000000E+00  0.91188000000E+02  0.91188000000E+02 0.  0.
    9900012    2    3    3    0    0  0.70494434247E+01 -0.64809783452E+01  0.42331140505E+02  0.47787272018E+02  0.20000004441E+02 0.  0.
        -12    1    3    3    0    0 -0.70494434247E+01  0.64809783452E+01 -0.42331140505E+02  0.43400727982E+02  0.00000000000E+00 0.  1.
         11    1    4    4    0    0 -0.20048758332E+01 -0.41381053503E+00  0.20758217782E+02  0.20858915888E+02  0.51100000000E-03 0.  1.
        -11    1    4    4    0    0 -0.46948886070E-01 -0.24773950847E+01  0.14855223894E+02  0.15060457091E+02  0.51100000000E-03 0. -1.
        -12    1    4    4    0    0  0.91012681440E+01 -0.35897727255E+01  0.67176988286E+01  0.11867899039E+02  0.00000000000E+00 0.  1.
</event>
<event>
 8    1  0.2994958E-010  0.9118800E+02  0.7816164E-02  0.1184000E+00
        -11   -1    0    0    0    0  0.00000000000E+00  0.00000000000E+00  0.45593999997E+02  0.45594000000E+02  0.51100000000E-03 0. -1.
         11   -1    0    0    0    0 -0.00000000000E+00 -0.00000000000E+00 -0.45593999997E+02  0.45594000000E+02  0.51100000000E-03 0.  1.
         23    2    1    2    0    0  0.00000000000E+00  0.88817841970E-15 -0.71054273576E-14  0.91188000000E+02  0.91188000000E+02 0.  0.
    9900012    2    3    3    0    0 -0.10806855956E+02 -0.50260408523E+01  0.41732177269E+02  0.47787264500E+02  0.19999970162E+02 0.  0.
        -12    1    3    3    0    0  0.10806855956E+02  0.50260408523E+01 -0.41732177269E+02  0.43400735500E+02  0.00000000000E+00 0.  1.
         11    1    4    4    0    0 -0.37116356331E-01 -0.10890879284E+01  0.18559186909E+02  0.18591151366E+02  0.51100000000E-03 0. -1.
        -11    1    4    4    0    0 -0.30836027187E+01 -0.80849001442E+01  0.14511908205E+02  0.16895848486E+02  0.51100000000E-03 0.  1.
        -12    1    4    4    0    0 -0.76861368810E+01  0.41479472203E+01  0.86610821555E+01  0.12300264648E+02  0.00000000000E+00 0.  1.
</event>
<event>
 8    1  0.2994958E-010  0.9118800E+02  0.7816164E-02  0.1184000E+00
        -11   -1    0    0    0    0  0.00000000000E+00  0.00000000000E+00  0.45593999997E+02  0.45594000000E+02  0.51100000000E-03 0. -1.
         11   -1    0    0    0    0 -0.00000000000E+00 -0.00000000000E+00 -0.45593999997E+02  0.45594000000E+02  0.51100000000E-03 0.  1.
         23    2    1    2    0    0  0.00000000000E+00  0.71054273576E-14  0.00000000000E+00  0.91188000000E+02  0.91188000000E+02 0.  0.
    9900012    2    3    3    0    0  0.45984146339E+01 -0.35492740856E+02  0.24550828183E+02  0.47787271492E+02  0.20000002039E+02 0.  0.
        -12    1    3    3    0    0 -0.45984146339E+01  0.35492740856E+02 -0.24550828183E+02  0.43400728508E+02  0.00000000000E+00 0.  1.
         11    1    4    4    0    0  0.54141753903E+00 -0.59600548278E+00  0.14856183976E+01  0.16897981452E+01  0.51100000000E-03 0. -1.
        -11    1    4    4    0    0 -0.44096822175E+01 -0.28963229759E+02  0.14590408899E+02  0.32729100315E+02  0.51100000000E-03 0.  1.
        -12    1    4    4    0    0  0.84666793124E+01 -0.59335056146E+01  0.84748008862E+01  0.13368373032E+02  0.00000000000E+00 0.  1.
</event>
<event>
 8    1  0.2994958E-010  0.9118800E+02  0.7816164E-02  0.1184000E+00
        -11   -1    0    0    0    0  0.00000000000E+00  0.00000000000E+00  0.45593999997E+02  0.45594000000E+02  0.51100000000E-03 0. -1.
         11   -1    0    0    0    0 -0.00000000000E+00 -0.00000000000E+00 -0.45593999997E+02  0.45594000000E+02  0.51100000000E-03 0.  1.
         23    2    1    2    0    0 -0.71054273576E-14 -0.17763568394E-14  0.00000000000E+00  0.91188000000E+02  0.91188000000E+02 0.  0.
    9900012    2    3    3    0    0  0.38982118211E+02  0.10065537333E+02  0.16208114135E+02  0.47787267911E+02  0.19999985715E+02 0.  0.
        -12    1    3    3    0    0 -0.38982118211E+02 -0.10065537333E+02 -0.16208114135E+02  0.43400732089E+02  0.00000000000E+00 0.  1.
         11    1    4    4    0    0  0.16134827108E+02  0.35432741890E+01  0.42446226447E+01  0.17055915673E+02  0.51100000000E-03 0. -1.
        -11    1    4    4    0    0  0.14497158630E+02  0.70757207951E-01  0.13806186288E+02  0.20019575295E+02  0.51100000000E-03 0.  1.
        -12    1    4    4    0    0  0.83501324736E+01  0.64515059365E+01 -0.18426947977E+01  0.10711776944E+02  0.00000000000E+00 0.  1.
</event>
<event>
 8    1  0.2994958E-010  0.9118800E+02  0.7816164E-02  0.1184000E+00
        -11   -1    0    0    0    0  0.00000000000E+00  0.00000000000E+00  0.45593999997E+02  0.45594000000E+02  0.51100000000E-03 0. -1.
         11   -1    0    0    0    0 -0.00000000000E+00 -0.00000000000E+00 -0.45593999997E+02  0.45594000000E+02  0.51100000000E-03 0.  1.
         23    2    1    2    0    0 -0.11102230246E-14  0.35527136788E-14  0.00000000000E+00  0.91188000000E+02  0.91188000000E+02 0.  0.
    9900012    2    3    3    0    0  0.10714797631E+01 -0.26274440746E+02  0.34527210659E+02  0.47787279023E+02  0.20000036379E+02 0.  0.
        -12    1    3    3    0    0 -0.10714797631E+01  0.26274440746E+02 -0.34527210659E+02  0.43400720977E+02  0.00000000000E+00 0.  1.
         11    1    4    4    0    0  0.10234396654E+01  0.11578769284E+01  0.43984178896E+01  0.46619939857E+01  0.51100000000E-03 0.  1.
        -11    1    4    4    0    0 -0.53262444505E+01 -0.54532681172E+01  0.11598511646E+02  0.13879210560E+02  0.51100000000E-03 0. -1.
         12    1    4    4    0    0  0.53742845483E+01 -0.21979049557E+02  0.18530281124E+02  0.29246074478E+02  0.00000000000E+00 0. -1.
</event>
<event>
 8    1  0.2994958E-010  0.9118800E+02  0.7816164E-02  0.1184000E+00
        -11   -1    0    0    0    0  0.00000000000E+00  0.00000000000E+00  0.45593999997E+02  0.45594000000E+02  0.51100000000E-03 0.  1.
         11   -1    0    0    0    0 -0.00000000000E+00 -0.00000000000E+00 -0.45593999997E+02  0.45594000000E+02  0.51100000000E-03 0. -1.
         23    2    1    2    0    0  0.35527136788E-14  0.00000000000E+00 -0.17763568394E-14  0.91188000000E+02  0.91188000000E+02 0.  0.
    9900012    2    3    3    0    0 -0.27787130090E+02 -0.32525265787E+02  0.73216107274E+01  0.47787268477E+02  0.19999988292E+02 0.  0.
        -12    1    3    3    0    0  0.27787130090E+02  0.32525265787E+02 -0.73216107274E+01  0.43400731523E+02  0.00000000000E+00 0.  1.
         11    1    4    4    0    0 -0.46622076845E+01 -0.52374929319E+01  0.19158808729E+01  0.72689829058E+01  0.51100000000E-03 0. -1.
        -11    1    4    4    0    0 -0.80335949457E+01 -0.81796507208E+01  0.10608169610E+02  0.15619814224E+02  0.51100000000E-03 0.  1.
         12    1    4    4    0    0 -0.15091327460E+02 -0.19108122134E+02 -0.52024397555E+01  0.24898471347E+02  0.00000000000E+00 0. -1.
</event>
<event>
 8    1  0.2994958E-010  0.9118800E+02  0.7816164E-02  0.1184000E+00
        -11   -1    0    0    0    0  0.00000000000E+00  0.00000000000E+00  0.45593999997E+02  0.45594000000E+02  0.51100000000E-03 0. -1.
         11   -1    0    0    0    0 -0.00000000000E+00 -0.00000000000E+00 -0.45593999997E+02  0.45594000000E+02  0.51100000000E-03 0.  1.
         23    2    1    2    0    0 -0.88817841970E-15  0.00000000000E+00  0.00000000000E+00  0.91188000000E+02  0.91188000000E+02 0.  0.
    9900012    2    3    3    0    0  0.49351683506E+01  0.93117591802E+01  0.42101754711E+02  0.47787280013E+02  0.20000040891E+02 0.  0.
        -12    1    3    3    0    0 -0.49351683506E+01 -0.93117591802E+01 -0.42101754711E+02  0.43400719987E+02  0.00000000000E+00 0.  1.
         11    1    4    4    0    0  0.11362106045E+02  0.96700576948E+01  0.33225502595E+02  0.36421717320E+02  0.51100000000E-03 0. -1.
        -11    1    4    4    0    0 -0.23422312570E+01 -0.94516845153E+00  0.15684629588E+01  0.29731241106E+01  0.51100000000E-03 0.  1.
        -12    1    4    4    0    0 -0.40847064370E+01  0.58686993698E+00  0.73077891565E+01  0.83924385822E+01  0.00000000000E+00 0.  1.
</event>
<event>
 8    1  0.2994958E-010  0.9118800E+02  0.7816164E-02  0.1184000E+00
        -11   -1    0    0    0    0  0.00000000000E+00  0.00000000000E+00  0.45593999997E+02  0.45594000000E+02  0.51100000000E-03 0. -1.
         11   -1    0    0    0    0 -0.00000000000E+00 -0.00000000000E+00 -0.45593999997E+02  0.45594000000E+02  0.51100000000E-03 0.  1.
         23    2    1    2    0    0 -0.35527136788E-14 -0.71054273576E-14 -0.35527136788E-14  0.91188000000E+02  0.91188000000E+02 0.  0.
    9900012    2    3    3    0    0 -0.17958735680E+02 -0.34950547467E+02 -0.18427357061E+02  0.47787257567E+02  0.19999938549E+02 0.  0.
         12    1    3    3    0    0  0.17958735680E+02  0.34950547467E+02  0.18427357061E+02  0.43400742433E+02  0.00000000000E+00 0. -1.
         11    1    4    4    0    0  0.30960436757E+00 -0.22840838198E+01 -0.63531199088E+01  0.67583301634E+01  0.51100000000E-03 0.  1.
        -11    1    4    4    0    0 -0.93329125387E+00 -0.11535415099E+02 -0.59766617964E+01  0.13025257025E+02  0.51100000000E-03 0. -1.
        -12    1    4    4    0    0 -0.17335048794E+02 -0.21131048549E+02 -0.60975753562E+01  0.28003670379E+02  0.00000000000E+00 0.  1.
</event>
<event>
 8    1  0.2994958E-010  0.9118800E+02  0.7816164E-02  0.1184000E+00
        -11   -1    0    0    0    0  0.00000000000E+00  0.00000000000E+00  0.45593999997E+02  0.45594000000E+02  0.51100000000E-03 0. -1.
         11   -1    0    0    0    0 -0.00000000000E+00 -0.00000000000E+00 -0.45593999997E+02  0.45594000000E+02  0.51100000000E-03 0.  1.
         23    2    1    2    0    0  0.00000000000E+00  0.00000000000E+00  0.00000000000E+00  0.91188000000E+02  0.91188000000E+02 0.  0.
    9900012    2    3    3    0    0  0.10271980919E+02  0.39711998604E+02 -0.14179806112E+02  0.47787270438E+02  0.19999997237E+02 0.  0.
         12    1    3    3    0    0 -0.10271980919E+02 -0.39711998604E+02  0.14179806112E+02  0.43400729562E+02  0.00000000000E+00 0. -1.
         11    1    4    4    0    0 -0.18545936573E+01  0.13138250846E+02  0.19831799853E+01  0.13415891921E+02  0.51100000000E-03 0. -1.
        -11    1    4    4    0    0  0.24683692104E-01  0.12270157994E+01 -0.32183891718E+01  0.34444456998E+01  0.51100000000E-03 0.  1.
        -12    1    4    4    0    0  0.12101890884E+02  0.25346731959E+02 -0.12944596926E+02  0.30926932818E+02  0.00000000000E+00 0.  1.
</event>
<event>
 8    1  0.2994958E-010  0.9118800E+02  0.7816164E-02  0.1184000E+00
        -11   -1    0    0    0    0  0.00000000000E+00  0.00000000000E+00  0.45593999997E+02  0.45594000000E+02  0.51100000000E-03 0. -1.
         11   -1    0    0    0    0 -0.00000000000E+00 -0.00000000000E+00 -0.45593999997E+02  0.45594000000E+02  0.51100000000E-03 0.  1.
         23    2    1    2    0    0 -0.35527136788E-14 -0.17763568394E-14  0.00000000000E+00  0.91188000000E+02  0.91188000000E+02 0.  0.
    9900012    2    3    3    0    0 -0.24609642797E+02 -0.13765912923E+02 -0.32992246701E+02  0.47787271670E+02  0.20000002852E+02 0.  0.
         12    1    3    3    0    0  0.24609642797E+02  0.13765912923E+02  0.32992246701E+02  0.43400728330E+02  0.00000000000E+00 0. -1.
         11    1    4    4    0    0  0.16999197925E+01 -0.51530749703E+01 -0.72907948552E+01  0.90884321438E+01  0.51100000000E-03 0.  1.
        -11    1    4    4    0    0 -0.42011542531E+01 -0.24596370931E+00 -0.84322881263E+01  0.94241009392E+01  0.51100000000E-03 0. -1.
        -12    1    4    4    0    0 -0.22108408337E+02 -0.83668742429E+01 -0.17269163719E+02  0.29274738587E+02  0.00000000000E+00 0.  1.
</event>
<event>
 8    1  0.2994958E-010  0.9118800E+02  0.7816164E-02  0.1184000E+00
        -11   -1    0    0    0    0  0.00000000000E+00  0.00000000000E+00  0.45593999997E+02  0.45594000000E+02  0.51100000000E-03 0. -1.
         11   -1    0    0    0    0 -0.00000000000E+00 -0.00000000000E+00 -0.45593999997E+02  0.45594000000E+02  0.51100000000E-03 0.  1.
         23    2    1    2    0    0  0.17763568394E-14 -0.35527136788E-14  0.00000000000E+00  0.91188000000E+02  0.91188000000E+02 0.  0.
    9900012    2    3    3    0    0 -0.11479830050E+02  0.26838562856E+02  0.32117423880E+02  0.47787264167E+02  0.19999968645E+02 0.  0.
        -12    1    3    3    0    0  0.11479830050E+02 -0.26838562856E+02 -0.32117423880E+02  0.43400735833E+02  0.00000000000E+00 0.  1.
         11    1    4    4    0    0 -0.22010651609E+01  0.84590969499E+01  0.13104979957E+02  0.15752508022E+02  0.51100000000E-03 0. -1.
        -11    1    4    4    0    0  0.23841163313E+01  0.10702216775E+02  0.12501064537E+02  0.16628231096E+02  0.51100000000E-03 0.  1.
        -12    1    4    4    0    0 -0.11662881221E+02  0.76772491311E+01  0.65113793857E+01  0.15406525049E+02  0.00000000000E+00 0.  1.
</event>
<event>
 8    1  0.2994958E-010  0.9118800E+02  0.7816164E-02  0.1184000E+00
        -11   -1    0    0    0    0  0.00000000000E+00  0.00000000000E+00  0.45593999997E+02  0.45594000000E+02  0.51100000000E-03 0.  1.
         11   -1    0    0    0    0 -0.00000000000E+00 -0.00000000000E+00 -0.45593999997E+02  0.45594000000E+02  0.51100000000E-03 0. -1.
         23    2    1    2    0    0  0.00000000000E+00  0.00000000000E+00  0.00000000000E+00  0.91188000000E+02  0.91188000000E+02 0.  0.
    9900012    2    3    3    0    0 -0.34914397881E+02 -0.22351553977E+02 -0.12845861220E+02  0.47787270801E+02  0.19999998890E+02 0.  0.
         12    1    3    3    0    0  0.34914397881E+02  0.22351553977E+02  0.12845861220E+02  0.43400729199E+02  0.00000000000E+00 0. -1.
         11    1    4    4    0    0  0.55367322660E+00 -0.19730345957E+01 -0.16325199962E+01  0.26200269764E+01  0.51100000000E-03 0. -1.
        -11    1    4    4    0    0 -0.16560184368E+02 -0.92079455711E+01 -0.13236069705E+02  0.23113189079E+02  0.51100000000E-03 0.  1.
        -12    1    4    4    0    0 -0.18907886739E+02 -0.11170573810E+02  0.20227284813E+01  0.22054054745E+02  0.00000000000E+00 0.  1.
</event>
<event>
 8    1  0.2994958E-010  0.9118800E+02  0.7816164E-02  0.1184000E+00
        -11   -1    0    0    0    0  0.00000000000E+00  0.00000000000E+00  0.45593999997E+02  0.45594000000E+02  0.51100000000E-03 0. -1.
         11   -1    0    0    0    0 -0.00000000000E+00 -0.00000000000E+00 -0.45593999997E+02  0.45594000000E+02  0.51100000000E-03 0.  1.
         23    2    1    2    0    0  0.00000000000E+00  0.35527136788E-14  0.35527136788E-14  0.91188000000E+02  0.91188000000E+02 0.  0.
    9900012    2    3    3    0    0  0.23455484447E+02  0.23261377148E+02  0.28149100352E+02  0.47787271111E+02  0.20000000305E+02 0.  0.
        -12    1    3    3    0    0 -0.23455484447E+02 -0.23261377148E+02 -0.28149100352E+02  0.43400728889E+02  0.00000000000E+00 0.  1.
         11    1    4    4    0    0  0.56717992850E+01  0.88065487947E+01  0.10594835992E+02  0.14898830785E+02  0.51100000000E-03 0. -1.
        -11    1    4    4    0    0  0.51256023667E+01  0.14195411697E+02  0.84796720863E+01  0.17311451465E+02  0.51100000000E-03 0.  1.
        -12    1    4    4    0    0  0.12658082795E+02  0.25941665553E+00  0.90745922741E+01  0.15576988861E+02  0.00000000000E+00 0.  1.
</event>
<event>
 8    1  0.2994958E-010  0.9118800E+02  0.7816164E-02  0.1184000E+00
        -11   -1    0    0    0    0  0.00000000000E+00  0.00000000000E+00  0.45593999997E+02  0.45594000000E+02  0.51100000000E-03 0. -1.
         11   -1    0    0    0    0 -0.00000000000E+00 -0.00000000000E+00 -0.45593999997E+02  0.45594000000E+02  0.51100000000E-03 0.  1.
         23    2    1    2    0    0  0.00000000000E+00 -0.71054273576E-14 -0.35527136788E-14  0.91188000000E+02  0.91188000000E+02 0.  0.
    9900012    2    3    3    0    0 -0.19560295496E+02 -0.33480106177E+02 -0.19496167461E+02  0.47787271721E+02  0.20000003083E+02 0.  0.
         12    1    3    3    0    0  0.19560295496E+02  0.33480106177E+02  0.19496167461E+02  0.43400728279E+02  0.00000000000E+00 0. -1.
         11    1    4    4    0    0 -0.52124923532E+01 -0.18318013170E+02 -0.12093926665E+02  0.22560645945E+02  0.51100000000E-03 0. -1.
        -11    1    4    4    0    0 -0.40105642173E+01 -0.11758530869E+02 -0.71632856823E+01  0.14340862442E+02  0.51100000000E-03 0.  1.
        -12    1    4    4    0    0 -0.10337238925E+02 -0.34035621386E+01 -0.23895511419E+00  0.10885763334E+02  0.00000000000E+00 0.  1.
</event>
<event>
 8    1  0.2994958E-010  0.9118800E+02  0.7816164E-02  0.1184000E+00
        -11   -1    0    0    0    0  0.00000000000E+00  0.00000000000E+00  0.45593999997E+02  0.45594000000E+02  0.51100000000E-03 0. -1.
         11   -1    0    0    0    0 -0.00000000000E+00 -0.00000000000E+00 -0.45593999997E+02  0.45594000000E+02  0.51100000000E-03 0.  1.
         23    2    1    2    0    0  0.00000000000E+00  0.17763568394E-14  0.00000000000E+00  0.91188000000E+02  0.91188000000E+02 0.  0.
    9900012    2    3    3    0    0 -0.24913128726E+02  0.79756556209E+01  0.34631613688E+02  0.47787265765E+02  0.19999975931E+02 0.  0.
        -12    1    3    3    0    0  0.24913128726E+02 -0.79756556209E+01 -0.34631613688E+02  0.43400734235E+02  0.00000000000E+00 0.  1.
         11    1    4    4    0    0 -0.75358491686E+01  0.40694660878E+01  0.36148894858E+01  0.92960746118E+01  0.51100000000E-03 0.  1.
        -11    1    4    4    0    0 -0.55492233498E+01  0.25090506387E+01  0.96595419134E+00  0.61662211001E+01  0.51100000000E-03 0. -1.
         12    1    4    4    0    0 -0.11828056207E+02  0.13971388944E+01  0.30050770011E+02  0.32324970054E+02  0.00000000000E+00 0. -1.
</event>
<event>
 8    1  0.2994958E-010  0.9118800E+02  0.7816164E-02  0.1184000E+00
        -11   -1    0    0    0    0  0.00000000000E+00  0.00000000000E+00  0.45593999997E+02  0.45594000000E+02  0.51100000000E-03 0. -1.
         11   -1    0    0    0    0 -0.00000000000E+00 -0.00000000000E+00 -0.45593999997E+02  0.45594000000E+02  0.51100000000E-03 0.  1.
         23    2    1    2    0    0  0.00000000000E+00  0.00000000000E+00  0.44408920985E-15  0.91188000000E+02  0.91188000000E+02 0.  0.
    9900012    2    3    3    0    0 -0.22992455047E+02 -0.36681295945E+02 -0.30745295626E+01  0.47787271973E+02  0.20000004233E+02 0.  0.
        -12    1    3    3    0    0  0.22992455047E+02  0.36681295945E+02  0.30745295626E+01  0.43400728027E+02  0.00000000000E+00 0.  1.
         11    1    4    4    0    0 -0.60455943006E+01 -0.21895982207E+01 -0.39562023517E+01  0.75495091313E+01  0.51100000000E-03 0. -1.
        -11    1    4    4    0    0 -0.40375401792E+01 -0.15321651914E+01  0.21364413369E+01  0.48180538311E+01  0.51100000000E-03 0.  1.
         12    1    4    4    0    0 -0.12909320567E+02 -0.32959532533E+02 -0.12547685478E+01  0.35419709010E+02  0.00000000000E+00 0. -1.
</event>
<event>
 8    1  0.2994958E-010  0.9118800E+02  0.7816164E-02  0.1184000E+00
        -11   -1    0    0    0    0  0.00000000000E+00  0.00000000000E+00  0.45593999997E+02  0.45594000000E+02  0.51100000000E-03 0. -1.
         11   -1    0    0    0    0 -0.00000000000E+00 -0.00000000000E+00 -0.45593999997E+02  0.45594000000E+02  0.51100000000E-03 0.  1.
         23    2    1    2    0    0  0.00000000000E+00  0.00000000000E+00  0.00000000000E+00  0.91188000000E+02  0.91188000000E+02 0.  0.
    9900012    2    3    3    0    0 -0.32047203963E+02  0.21123969941E+02 -0.20257785878E+02  0.47787271012E+02  0.19999999854E+02 0.  0.
         12    1    3    3    0    0  0.32047203963E+02 -0.21123969941E+02  0.20257785878E+02  0.43400728988E+02  0.00000000000E+00 0. -1.
         11    1    4    4    0    0 -0.29745461450E+01 -0.15241649298E+01  0.17271645342E+01  0.37621936542E+01  0.51100000000E-03 0. -1.
        -11    1    4    4    0    0 -0.10484922260E+02  0.26426309785E+01 -0.69151395128E+01  0.12834961941E+02  0.51100000000E-03 0.  1.
        -12    1    4    4    0    0 -0.18587735559E+02  0.20005503893E+02 -0.15069810900E+02  0.31190115417E+02  0.00000000000E+00 0.  1.
</event>
<event>
 8    1  0.2994958E-010  0.9118800E+02  0.7816164E-02  0.1184000E+00
        -11   -1    0    0    0    0  0.00000000000E+00  0.00000000000E+00  0.45593999997E+02  0.45594000000E+02  0.51100000000E-03 0. -1.
         11   -1    0    0    0    0 -0.00000000000E+00 -0.00000000000E+00 -0.45593999997E+02  0.45594000000E+02  0.51100000000E-03 0.  1.
         23    2    1    2    0    0  0.00000000000E+00  0.00000000000E+00  0.00000000000E+00  0.91188000000E+02  0.91188000000E+02 0.  0.
    9900012    2    3    3    0    0 -0.23574831231E+02  0.20240008145E+02 -0.30301695223E+02  0.47787270390E+02  0.19999997018E+02 0.  0.
         12    1    3    3    0    0  0.23574831231E+02 -0.20240008145E+02  0.30301695223E+02  0.43400729610E+02  0.00000000000E+00 0. -1.
         11    1    4    4    0    0 -0.44344767283E+01  0.84398841956E+01 -0.68077172899E+01  0.11715000813E+02  0.51100000000E-03 0. -1.
        -11    1    4    4    0    0 -0.15165972214E+02  0.70189542586E+01 -0.24617843999E+02  0.29754170724E+02  0.51100000000E-03 0.  1.
        -12    1    4    4    0    0 -0.39743822889E+01  0.47811696905E+01  0.11238660658E+01  0.63180988534E+01  0.00000000000E+00 0.  1.
</event>
<event>
 8    1  0.2994958E-010  0.9118800E+02  0.7816164E-02  0.1184000E+00
        -11   -1    0    0    0    0  0.00000000000E+00  0.00000000000E+00  0.45593999997E+02  0.45594000000E+02  0.51100000000E-03 0. -1.
         11   -1    0    0    0    0 -0.00000000000E+00 -0.00000000000E+00 -0.45593999997E+02  0.45594000000E+02  0.51100000000E-03 0.  1.
         23    2    1    2    0    0  0.00000000000E+00  0.00000000000E+00  0.71054273576E-14  0.91188000000E+02  0.91188000000E+02 0.  0.
    9900012    2    3    3    0    0  0.27743748494E+02 -0.31070965070E+01 -0.33230317028E+02  0.47787267299E+02  0.19999982922E+02 0.  0.
         12    1    3    3    0    0 -0.27743748494E+02  0.31070965070E+01  0.33230317028E+02  0.43400732701E+02  0.00000000000E+00 0. -1.
         11    1    4    4    0    0  0.39650867965E+01 -0.30070175646E+01 -0.12297603093E+02  0.13266314862E+02  0.51100000000E-03 0. -1.
        -11    1    4    4    0    0  0.18483899886E+02  0.29027978258E+01 -0.21387887900E+02  0.28416941061E+02  0.51100000000E-03 0.  1.
        -12    1    4    4    0    0  0.52947618116E+01 -0.30028767682E+01  0.45517396427E+00  0.61040113749E+01  0.00000000000E+00 0.  1.
</event>
<event>
 8    1  0.2994958E-010  0.9118800E+02  0.7816164E-02  0.1184000E+00
        -11   -1    0    0    0    0  0.00000000000E+00  0.00000000000E+00  0.45593999997E+02  0.45594000000E+02  0.51100000000E-03 0. -1.
         11   -1    0    0    0    0 -0.00000000000E+00 -0.00000000000E+00 -0.45593999997E+02  0.45594000000E+02  0.51100000000E-03 0.  1.
         23    2    1    2    0    0 -0.44408920985E-15 -0.88817841970E-15  0.00000000000E+00  0.91188000000E+02  0.91188000000E+02 0.  0.
    9900012    2    3    3    0    0  0.33185998136E+01  0.51561585786E+01  0.42965383318E+02  0.47787271439E+02  0.20000001798E+02 0.  0.
        -12    1    3    3    0    0 -0.33185998136E+01 -0.51561585786E+01 -0.42965383318E+02  0.43400728561E+02  0.00000000000E+00 0.  1.
         11    1    4    4    0    0  0.36335461427E+01  0.52144201693E+01  0.22701366450E+02  0.23574241753E+02  0.51100000000E-03 0. -1.
        -11    1    4    4    0    0 -0.21557011910E+01  0.49404132376E+01  0.17293166114E+02  0.18113760656E+02  0.51100000000E-03 0.  1.
        -12    1    4    4    0    0  0.18407548619E+01 -0.49986748282E+01  0.29708507538E+01  0.60992690301E+01  0.00000000000E+00 0.  1.
</event>
<event>
 8    1  0.2994958E-010  0.9118800E+02  0.7816164E-02  0.1184000E+00
        -11   -1    0    0    0    0  0.00000000000E+00  0.00000000000E+00  0.45593999997E+02  0.45594000000E+02  0.51100000000E-03 0. -1.
         11   -1    0    0    0    0 -0.00000000000E+00 -0.00000000000E+00 -0.45593999997E+02  0.45594000000E+02  0.51100000000E-03 0.  1.
         23    2    1    2    0    0  0.35527136788E-14 -0.35527136788E-14 -0.71054273576E-14  0.91188000000E+02  0.91188000000E+02 0.  0.
    9900012    2    3    3    0    0 -0.25993218543E+02  0.22158266270E+02  0.26776613542E+02  0.47787271814E+02  0.20000003508E+02 0.  0.
        -12    1    3    3    0    0  0.25993218543E+02 -0.22158266270E+02 -0.26776613542E+02  0.43400728186E+02  0.00000000000E+00 0.  1.
         11    1    4    4    0    0 -0.12908056661E+02  0.86952774454E+01  0.98016390672E+01  0.18392876482E+02  0.51100000000E-03 0. -1.
        -11    1    4    4    0    0 -0.12357186548E+02  0.15399975787E+02  0.18313170945E+02  0.26930123356E+02  0.51100000000E-03 0.  1.
        -12    1    4    4    0    0 -0.72797533401E+00 -0.19369869628E+01 -0.13381964699E+01  0.24642719763E+01  0.00000000000E+00 0.  1.
</event>
<event>
 8    1  0.2994958E-010  0.9118800E+02  0.7816164E-02  0.1184000E+00
        -11   -1    0    0    0    0  0.00000000000E+00  0.00000000000E+00  0.45593999997E+02  0.45594000000E+02  0.51100000000E-03 0. -1.
         11   -1    0    0    0    0 -0.00000000000E+00 -0.00000000000E+00 -0.45593999997E+02  0.45594000000E+02  0.51100000000E-03 0.  1.
         23    2    1    2    0    0  0.00000000000E+00  0.00000000000E+00  0.00000000000E+00  0.91188000000E+02  0.91188000000E+02 0.  0.
    9900012    2    3    3    0    0 -0.26826712734E+02 -0.57697313615E+01  0.33625255981E+02  0.47787306966E+02  0.20000163779E+02 0.  0.
        -12    1    3    3    0    0  0.26826712734E+02  0.57697313615E+01 -0.33625255981E+02  0.43400693034E+02  0.00000000000E+00 0.  1.
         11    1    4    4    0    0 -0.23091114198E+02 -0.26267037529E+00  0.18444222339E+02  0.29554320980E+02  0.51100000000E-03 0. -1.
        -11    1    4    4    0    0 -0.49378225861E+00 -0.85502481954E+00 -0.80322591749E+00  0.12728159712E+01  0.51100000000E-03 0.  1.
         12    1    4    4    0    0 -0.32418162768E+01 -0.46520361666E+01  0.15984259559E+02  0.16960170014E+02  0.00000000000E+00 0. -1.
</event>
<event>
 8    1  0.2994958E-010  0.9118800E+02  0.7816164E-02  0.1184000E+00
        -11   -1    0    0    0    0  0.00000000000E+00  0.00000000000E+00  0.45593999997E+02  0.45594000000E+02  0.51100000000E-03 0. -1.
         11   -1    0    0    0    0 -0.00000000000E+00 -0.00000000000E+00 -0.45593999997E+02  0.45594000000E+02  0.51100000000E-03 0.  1.
         23    2    1    2    0    0 -0.35527136788E-14  0.00000000000E+00  0.35527136788E-14  0.91188000000E+02  0.91188000000E+02 0.  0.
    9900012    2    3    3    0    0  0.24757504318E+02  0.30309062691E+02 -0.18762993606E+02  0.47787271546E+02  0.20000002288E+02 0.  0.
         12    1    3    3    0    0 -0.24757504318E+02 -0.30309062691E+02  0.18762993606E+02  0.43400728454E+02  0.00000000000E+00 0. -1.
         11    1    4    4    0    0 -0.15590125875E+01  0.98598064146E+01 -0.40333544242E+01  0.10766348079E+02  0.51100000000E-03 0. -1.
        -11    1    4    4    0    0  0.34735622540E+01  0.21976244356E+01  0.34459750562E+00  0.41247952185E+01  0.51100000000E-03 0.  1.
        -12    1    4    4    0    0  0.22842954652E+02  0.18251631841E+02 -0.15074236687E+02  0.32896128249E+02  0.00000000000E+00 0.  1.
</event>
<event>
 8    1  0.2994958E-010  0.9118800E+02  0.7816164E-02  0.1184000E+00
        -11   -1    0    0    0    0  0.00000000000E+00  0.00000000000E+00  0.45593999997E+02  0.45594000000E+02  0.51100000000E-03 0.  1.
         11   -1    0    0    0    0 -0.00000000000E+00 -0.00000000000E+00 -0.45593999997E+02  0.45594000000E+02  0.51100000000E-03 0. -1.
         23    2    1    2    0    0  0.00000000000E+00  0.00000000000E+00  0.44408920985E-15  0.91188000000E+02  0.91188000000E+02 0.  0.
    9900012    2    3    3    0    0  0.20249832936E+02 -0.38295584530E+02  0.26488703111E+01  0.47787262191E+02  0.19999959636E+02 0.  0.
         12    1    3    3    0    0 -0.20249832936E+02  0.38295584530E+02 -0.26488703111E+01  0.43400737809E+02  0.00000000000E+00 0. -1.
         11    1    4    4    0    0  0.53070597440E+00 -0.12105685541E+02 -0.33465754869E+01  0.12570952191E+02  0.51100000000E-03 0. -1.
        -11    1    4    4    0    0  0.61946942542E+00 -0.29721473714E+01  0.40873436202E+01  0.50915400909E+01  0.51100000000E-03 0.  1.
        -12    1    4    4    0    0  0.19099657536E+02 -0.23217751618E+02  0.19081021777E+01  0.30124769909E+02  0.00000000000E+00 0.  1.
</event>
<event>
 8    1  0.2994958E-010  0.9118800E+02  0.7816164E-02  0.1184000E+00
        -11   -1    0    0    0    0  0.00000000000E+00  0.00000000000E+00  0.45593999997E+02  0.45594000000E+02  0.51100000000E-03 0. -1.
         11   -1    0    0    0    0 -0.00000000000E+00 -0.00000000000E+00 -0.45593999997E+02  0.45594000000E+02  0.51100000000E-03 0.  1.
         23    2    1    2    0    0  0.00000000000E+00 -0.17763568394E-14  0.00000000000E+00  0.91188000000E+02  0.91188000000E+02 0.  0.
    9900012    2    3    3    0    0  0.24303562619E+02  0.10935311211E+02  0.34254613512E+02  0.47787277263E+02  0.20000028352E+02 0.  0.
        -12    1    3    3    0    0 -0.24303562619E+02 -0.10935311211E+02 -0.34254613512E+02  0.43400722737E+02  0.00000000000E+00 0.  1.
         11    1    4    4    0    0  0.13098132429E+02  0.10275919089E+02  0.28319226723E+02  0.32850177910E+02  0.51100000000E-03 0. -1.
        -11    1    4    4    0    0  0.38951518394E+01  0.28661149170E+01  0.54490664808E+01  0.72855437918E+01  0.51100000000E-03 0.  1.
        -12    1    4    4    0    0  0.73102783503E+01 -0.22067227954E+01  0.48632030794E+00  0.76515555606E+01  0.00000000000E+00 0.  1.
</event>
<event>
 8    1  0.2994958E-010  0.9118800E+02  0.7816164E-02  0.1184000E+00
        -11   -1    0    0    0    0  0.00000000000E+00  0.00000000000E+00  0.45593999997E+02  0.45594000000E+02  0.51100000000E-03 0. -1.
         11   -1    0    0    0    0 -0.00000000000E+00 -0.00000000000E+00 -0.45593999997E+02  0.45594000000E+02  0.51100000000E-03 0.  1.
         23    2    1    2    0    0  0.00000000000E+00  0.88817841970E-15  0.00000000000E+00  0.91188000000E+02  0.91188000000E+02 0.  0.
    9900012    2    3    3    0    0 -0.20659376892E+02  0.50150469427E+01 -0.37837337709E+02  0.47787254911E+02  0.19999926441E+02 0.  0.
         12    1    3    3    0    0  0.20659376892E+02 -0.50150469427E+01  0.37837337709E+02  0.43400745089E+02  0.00000000000E+00 0. -1.
         11    1    4    4    0    0 -0.61909300586E+00 -0.42387214143E+01 -0.11563057457E+02  0.12331031319E+02  0.51100000000E-03 0. -1.
        -11    1    4    4    0    0 -0.29939279776E+01  0.49695193003E+01 -0.96705082445E+01  0.11277342629E+02  0.51100000000E-03 0.  1.
        -12    1    4    4    0    0 -0.17046355908E+02  0.42842490567E+01 -0.16603772007E+02  0.24178880962E+02  0.00000000000E+00 0.  1.
</event>
<event>
 8    1  0.2994958E-010  0.9118800E+02  0.7816164E-02  0.1184000E+00
        -11   -1    0    0    0    0  0.00000000000E+00  0.00000000000E+00  0.45593999997E+02  0.45594000000E+02  0.51100000000E-03 0. -1.
         11   -1    0    0    0    0 -0.00000000000E+00 -0.00000000000E+00 -0.45593999997E+02  0.45594000000E+02  0.51100000000E-03 0.  1.
         23    2    1    2    0    0 -0.71054273576E-14  0.71054273576E-14  0.26645352591E-14  0.91188000000E+02  0.91188000000E+02 0.  0.
    9900012    2    3    3    0    0 -0.18681758914E+02  0.38897189424E+02  0.46501335179E+01  0.47787271861E+02  0.20000003725E+02 0.  0.
        -12    1    3    3    0    0  0.18681758914E+02 -0.38897189424E+02 -0.46501335179E+01  0.43400728139E+02  0.00000000000E+00 0.  1.
         11    1    4    4    0    0 -0.17154028407E+02  0.22398574636E+02  0.38836596096E+01  0.28478757848E+02  0.51100000000E-03 0. -1.
        -11    1    4    4    0    0 -0.48193927005E+01  0.83029803187E+01  0.32474798424E+01  0.10134700477E+02  0.51100000000E-03 0.  1.
        -12    1    4    4    0    0  0.32916621938E+01  0.81956344698E+01 -0.24810059342E+01  0.91738135367E+01  0.00000000000E+00 0.  1.
</event>
<event>
 8    1  0.2994958E-010  0.9118800E+02  0.7816164E-02  0.1184000E+00
        -11   -1    0    0    0    0  0.00000000000E+00  0.00000000000E+00  0.45593999997E+02  0.45594000000E+02  0.51100000000E-03 0. -1.
         11   -1    0    0    0    0 -0.00000000000E+00 -0.00000000000E+00 -0.45593999997E+02  0.45594000000E+02  0.51100000000E-03 0.  1.
         23    2    1    2    0    0  0.71054273576E-14  0.66613381478E-15 -0.35527136788E-14  0.91188000000E+02  0.91188000000E+02 0.  0.
    9900012    2    3    3    0    0  0.35491370891E+02  0.25772091288E+00 -0.24978358208E+02  0.47787283341E+02  0.20000056065E+02 0.  0.
         12    1    3    3    0    0 -0.35491370891E+02 -0.25772091288E+00  0.24978358208E+02  0.43400716659E+02  0.00000000000E+00 0. -1.
         11    1    4    4    0    0  0.61614333693E+01  0.15826254859E+01 -0.56887099711E+01  0.85340134748E+01  0.51100000000E-03 0.  1.
        -11    1    4    4    0    0  0.17283588786E+02 -0.38192616109E+01 -0.20272106039E+02  0.26912218119E+02  0.51100000000E-03 0. -1.
         12    1    4    4    0    0  0.12046348736E+02  0.24943570379E+01  0.98245780257E+00  0.12341051747E+02  0.00000000000E+00 0. -1.
</event>
<event>
 8    1  0.2994958E-010  0.9118800E+02  0.7816164E-02  0.1184000E+00
        -11   -1    0    0    0    0  0.00000000000E+00  0.00000000000E+00  0.45593999997E+02  0.45594000000E+02  0.51100000000E-03 0. -1.
         11   -1    0    0    0    0 -0.00000000000E+00 -0.00000000000E+00 -0.45593999997E+02  0.45594000000E+02  0.51100000000E-03 0.  1.
         23    2    1    2    0    0  0.00000000000E+00 -0.17763568394E-14  0.00000000000E+00  0.91188000000E+02  0.91188000000E+02 0.  0.
    9900012    2    3    3    0    0  0.96139747778E+01 -0.12599560394E+02  0.40403538891E+02  0.47787269729E+02  0.19999994003E+02 0.  0.
        -12    1    3    3    0    0 -0.96139747778E+01  0.12599560394E+02 -0.40403538891E+02  0.43400730271E+02  0.00000000000E+00 0.  1.
         11    1    4    4    0    0  0.91537816429E+01 -0.12524345430E+02  0.29863815090E+02  0.33652613551E+02  0.51100000000E-03 0. -1.
        -11    1    4    4    0    0  0.16182851012E+01 -0.29147736009E+01  0.18902972775E+00  0.33392340907E+01  0.51100000000E-03 0.  1.
        -12    1    4    4    0    0 -0.11580919663E+01  0.28395586368E+01  0.10350694073E+02  0.10795422088E+02  0.00000000000E+00 0.  1.
</event>
<event>
 8    1  0.3177064E-010  0.9118800E+02  0.7816164E-02  0.1184000E+00
        -11   -1    0    0    0    0  0.00000000000E+00  0.00000000000E+00  0.45593999997E+02  0.45594000000E+02  0.51100000000E-03 0. -1.
         11   -1    0    0    0    0 -0.00000000000E+00 -0.00000000000E+00 -0.45593999997E+02  0.45594000000E+02  0.51100000000E-03 0.  1.
         23    2    1    2    0    0  0.00000000000E+00  0.00000000000E+00 -0.35527136788E-14  0.91188000000E+02  0.91188000000E+02 0.  0.
    9900012    2    3    3    0    0  0.29994043483E+02 -0.10858715889E+02  0.29429040677E+02  0.47787276615E+02  0.20000025397E+02 0.  0.
        -12    1    3    3    0    0 -0.29994043483E+02  0.10858715889E+02 -0.29429040677E+02  0.43400723385E+02  0.00000000000E+00 0.  1.
         11    1    4    4    0    0  0.11758069836E+02 -0.93008131344E+01  0.15788308060E+02  0.21772184155E+02  0.51100000000E-03 0. -1.
        -11    1    4    4    0    0  0.48356334469E+00  0.15027063648E+01  0.64137831060E+01  0.66051929509E+01  0.51100000000E-03 0.  1.
         12    1    4    4    0    0  0.17752410302E+02 -0.30606091190E+01  0.72269495114E+01  0.19409899509E+02  0.00000000000E+00 0. -1.
</event>
<event>
 8    1  0.2994958E-010  0.9118800E+02  0.7816164E-02  0.1184000E+00
        -11   -1    0    0    0    0  0.00000000000E+00  0.00000000000E+00  0.45593999997E+02  0.45594000000E+02  0.51100000000E-03 0. -1.
         11   -1    0    0    0    0 -0.00000000000E+00 -0.00000000000E+00 -0.45593999997E+02  0.45594000000E+02  0.51100000000E-03 0.  1.
         23    2    1    2    0    0  0.00000000000E+00  0.00000000000E+00 -0.71054273576E-14  0.91188000000E+02  0.91188000000E+02 0.  0.
    9900012    2    3    3    0    0 -0.22950416647E+02  0.79076987224E+01  0.35977356642E+02  0.47787268274E+02  0.19999987371E+02 0.  0.
        -12    1    3    3    0    0  0.22950416647E+02 -0.79076987224E+01 -0.35977356642E+02  0.43400731726E+02  0.00000000000E+00 0.  1.
         11    1    4    4    0    0 -0.11761874812E+02  0.71734332883E+01  0.19039300862E+02  0.23500953636E+02  0.51100000000E-03 0. -1.
        -11    1    4    4    0    0 -0.84965540503E+01  0.66964920510E+01  0.97007557845E+01  0.14530626262E+02  0.51100000000E-03 0.  1.
        -12    1    4    4    0    0 -0.26919877846E+01 -0.59622266169E+01  0.72372999958E+01  0.97556883762E+01  0.00000000000E+00 0.  1.
</event>
<event>
 8    1  0.2994958E-010  0.9118800E+02  0.7816164E-02  0.1184000E+00
        -11   -1    0    0    0    0  0.00000000000E+00  0.00000000000E+00  0.45593999997E+02  0.45594000000E+02  0.51100000000E-03 0.  1.
         11   -1    0    0    0    0 -0.00000000000E+00 -0.00000000000E+00 -0.45593999997E+02  0.45594000000E+02  0.51100000000E-03 0. -1.
         23    2    1    2    0    0  0.00000000000E+00 -0.71054273576E-14 -0.17763568394E-14  0.91188000000E+02  0.91188000000E+02 0.  0.
    9900012    2    3    3    0    0  0.24348300327E+02  0.35490139114E+02  0.55887142011E+01  0.47787269250E+02  0.19999991820E+02 0.  0.
        -12    1    3    3    0    0 -0.24348300327E+02 -0.35490139114E+02 -0.55887142011E+01  0.43400730750E+02  0.00000000000E+00 0.  1.
         11    1    4    4    0    0  0.86031965768E+01  0.67692769542E+01 -0.54918678283E+01  0.12247396226E+02  0.51100000000E-03 0. -1.
        -11    1    4    4    0    0  0.18405548560E+01  0.92451111117E+00  0.26125241072E+01  0.33268070945E+01  0.51100000000E-03 0.  1.
        -12    1    4    4    0    0  0.13904548895E+02  0.27796351049E+02  0.84680579222E+01  0.32213065929E+02  0.00000000000E+00 0.  1.
</event>
<event>
 8    1  0.2994958E-010  0.9118800E+02  0.7816164E-02  0.1184000E+00
        -11   -1    0    0    0    0  0.00000000000E+00  0.00000000000E+00  0.45593999997E+02  0.45594000000E+02  0.51100000000E-03 0. -1.
         11   -1    0    0    0    0 -0.00000000000E+00 -0.00000000000E+00 -0.45593999997E+02  0.45594000000E+02  0.51100000000E-03 0.  1.
         23    2    1    2    0    0  0.00000000000E+00  0.00000000000E+00 -0.71054273576E-14  0.91188000000E+02  0.91188000000E+02 0.  0.
    9900012    2    3    3    0    0 -0.14643930402E+02 -0.50643558652E+01 -0.40540480690E+02  0.47787274516E+02  0.20000015830E+02 0.  0.
         12    1    3    3    0    0  0.14643930402E+02  0.50643558652E+01  0.40540480690E+02  0.43400725484E+02  0.00000000000E+00 0. -1.
         11    1    4    4    0    0 -0.82214341865E+01 -0.94153875182E+01 -0.22922516032E+02  0.26109064398E+02  0.51100000000E-03 0. -1.
        -11    1    4    4    0    0 -0.16361727810E+01  0.48669613475E+00 -0.14823832418E+02  0.14921794206E+02  0.51100000000E-03 0.  1.
         12    1    4    4    0    0 -0.47863234343E+01  0.38643355182E+01 -0.27941322391E+01  0.67564159126E+01  0.00000000000E+00 0. -1.
</event>
<event>
 8    1  0.2994958E-010  0.9118800E+02  0.7816164E-02  0.1184000E+00
        -11   -1    0    0    0    0  0.00000000000E+00  0.00000000000E+00  0.45593999997E+02  0.45594000000E+02  0.51100000000E-03 0. -1.
         11   -1    0    0    0    0 -0.00000000000E+00 -0.00000000000E+00 -0.45593999997E+02  0.45594000000E+02  0.51100000000E-03 0.  1.
         23    2    1    2    0    0  0.00000000000E+00  0.17763568394E-14  0.00000000000E+00  0.91188000000E+02  0.91188000000E+02 0.  0.
    9900012    2    3    3    0    0  0.23812118946E+02 -0.60233039378E+01  0.35781648640E+02  0.47787267536E+02  0.19999984002E+02 0.  0.
        -12    1    3    3    0    0 -0.23812118946E+02  0.60233039378E+01 -0.35781648640E+02  0.43400732464E+02  0.00000000000E+00 0.  1.
         11    1    4    4    0    0  0.96262481488E+01  0.71228578094E+00  0.19182175751E+01  0.98413191892E+01  0.51100000000E-03 0. -1.
        -11    1    4    4    0    0  0.11934803109E+02 -0.61530999763E+01  0.21373101837E+02  0.25241031020E+02  0.51100000000E-03 0.  1.
        -12    1    4    4    0    0  0.22510676880E+01 -0.58248974237E+00  0.12490329229E+02  0.12704917327E+02  0.00000000000E+00 0.  1.
</event>
<event>
 8    1  0.2994958E-010  0.9118800E+02  0.7816164E-02  0.1184000E+00
        -11   -1    0    0    0    0  0.00000000000E+00  0.00000000000E+00  0.45593999997E+02  0.45594000000E+02  0.51100000000E-03 0. -1.
         11   -1    0    0    0    0 -0.00000000000E+00 -0.00000000000E+00 -0.45593999997E+02  0.45594000000E+02  0.51100000000E-03 0.  1.
         23    2    1    2    0    0  0.00000000000E+00  0.00000000000E+00  0.35527136788E-14  0.91188000000E+02  0.91188000000E+02 0.  0.
    9900012    2    3    3    0    0  0.12431911403E+02 -0.29814136121E+02  0.28985999568E+02  0.47787270689E+02  0.19999998377E+02 0.  0.
        -12    1    3    3    0    0 -0.12431911403E+02  0.29814136121E+02 -0.28985999568E+02  0.43400729311E+02  0.00000000000E+00 0.  1.
         11    1    4    4    0    0  0.18958993321E+01 -0.26932755291E+01  0.65718478072E+01  0.73510102173E+01  0.51100000000E-03 0.  1.
        -11    1    4    4    0    0  0.57182413586E+01 -0.27515664336E+02  0.15789119014E+02  0.32235172523E+02  0.51100000000E-03 0. -1.
         12    1    4    4    0    0  0.48177707121E+01  0.39480374385E+00  0.66250327477E+01  0.82010879484E+01  0.00000000000E+00 0. -1.
</event>
<event>
 8    1  0.2994958E-010  0.9118800E+02  0.7816164E-02  0.1184000E+00
        -11   -1    0    0    0    0  0.00000000000E+00  0.00000000000E+00  0.45593999997E+02  0.45594000000E+02  0.51100000000E-03 0. -1.
         11   -1    0    0    0    0 -0.00000000000E+00 -0.00000000000E+00 -0.45593999997E+02  0.45594000000E+02  0.51100000000E-03 0.  1.
         23    2    1    2    0    0  0.00000000000E+00  0.00000000000E+00  0.35527136788E-14  0.91188000000E+02  0.91188000000E+02 0.  0.
    9900012    2    3    3    0    0  0.32629607511E+02  0.20261569107E+02 -0.20208927750E+02  0.47787271552E+02  0.20000002313E+02 0.  0.
         12    1    3    3    0    0 -0.32629607511E+02 -0.20261569107E+02  0.20208927750E+02  0.43400728448E+02  0.00000000000E+00 0. -1.
         11    1    4    4    0    0  0.61210898214E+01 -0.99191433191E+00 -0.48405410791E+00  0.62198025116E+01  0.51100000000E-03 0. -1.
        -11    1    4    4    0    0  0.24331813702E+01 -0.49213052583E+00  0.14035816339E+01  0.28517723785E+01  0.51100000000E-03 0.  1.
        -12    1    4    4    0    0  0.24075336320E+02  0.21745613965E+02 -0.21128455276E+02  0.38715696662E+02  0.00000000000E+00 0.  1.
</event>
<event>
 8    1  0.2994958E-010  0.9118800E+02  0.7816164E-02  0.1184000E+00
        -11   -1    0    0    0    0  0.00000000000E+00  0.00000000000E+00  0.45593999997E+02  0.45594000000E+02  0.51100000000E-03 0. -1.
         11   -1    0    0    0    0 -0.00000000000E+00 -0.00000000000E+00 -0.45593999997E+02  0.45594000000E+02  0.51100000000E-03 0.  1.
         23    2    1    2    0    0 -0.88817841970E-15  0.00000000000E+00  0.71054273576E-14  0.91188000000E+02  0.91188000000E+02 0.  0.
    9900012    2    3    3    0    0 -0.71444160499E+01  0.20525738410E+02  0.37566931149E+02  0.47787274961E+02  0.20000017859E+02 0.  0.
        -12    1    3    3    0    0  0.71444160499E+01 -0.20525738410E+02 -0.37566931149E+02  0.43400725039E+02  0.00000000000E+00 0.  1.
         11    1    4    4    0    0 -0.66257421243E+00  0.28616352053E+01  0.18153441832E+01  0.34530327829E+01  0.51100000000E-03 0. -1.
        -11    1    4    4    0    0  0.14837002938E+01  0.13127911483E+01 -0.17572645962E+01  0.26481628128E+01  0.51100000000E-03 0.  1.
         12    1    4    4    0    0 -0.79655421312E+01  0.16351312056E+02  0.37508851562E+02  0.41686079366E+02  0.00000000000E+00 0. -1.
</event>
<event>
 8    1  0.2994958E-010  0.9118800E+02  0.7816164E-02  0.1184000E+00
        -11   -1    0    0    0    0  0.00000000000E+00  0.00000000000E+00  0.45593999997E+02  0.45594000000E+02  0.51100000000E-03 0. -1.
         11   -1    0    0    0    0 -0.00000000000E+00 -0.00000000000E+00 -0.45593999997E+02  0.45594000000E+02  0.51100000000E-03 0.  1.
         23    2    1    2    0    0  0.00000000000E+00  0.00000000000E+00  0.00000000000E+00  0.91188000000E+02  0.91188000000E+02 0.  0.
    9900012    2    3    3    0    0  0.36801219972E+02  0.52689986984E+01  0.22394882473E+02  0.47787275356E+02  0.20000019657E+02 0.  0.
        -12    1    3    3    0    0 -0.36801219972E+02 -0.52689986984E+01 -0.22394882473E+02  0.43400724644E+02  0.00000000000E+00 0.  1.
         11    1    4    4    0    0  0.24126904353E+02  0.29704736886E+01  0.18035567616E+02  0.30269009351E+02  0.51100000000E-03 0. -1.
        -11    1    4    4    0    0  0.14238247100E+02  0.33335937086E+00  0.26667957052E+01  0.14489672479E+02  0.51100000000E-03 0.  1.
        -12    1    4    4    0    0 -0.15639314816E+01  0.19651656389E+01  0.16925191519E+01  0.30285935262E+01  0.00000000000E+00 0.  1.
</event>
<event>
 8    1  0.2994958E-010  0.9118800E+02  0.7816164E-02  0.1184000E+00
        -11   -1    0    0    0    0  0.00000000000E+00  0.00000000000E+00  0.45593999997E+02  0.45594000000E+02  0.51100000000E-03 0. -1.
         11   -1    0    0    0    0 -0.00000000000E+00 -0.00000000000E+00 -0.45593999997E+02  0.45594000000E+02  0.51100000000E-03 0.  1.
         23    2    1    2    0    0 -0.44408920985E-15  0.17763568394E-14  0.00000000000E+00  0.91188000000E+02  0.91188000000E+02 0.  0.
    9900012    2    3    3    0    0 -0.23396746252E+01 -0.10536497425E+02  0.42037263258E+02  0.47787270081E+02  0.19999995605E+02 0.  0.
        -12    1    3    3    0    0  0.23396746252E+01  0.10536497425E+02 -0.42037263258E+02  0.43400729919E+02  0.00000000000E+00 0.  1.
         11    1    4    4    0    0 -0.13222809185E+01  0.35393514029E+01  0.31451323115E+01  0.49160240743E+01  0.51100000000E-03 0.  1.
        -11    1    4    4    0    0 -0.52096567075E+01 -0.36418894654E+01  0.18814128469E+02  0.19858884968E+02  0.51100000000E-03 0. -1.
         12    1    4    4    0    0  0.41922630009E+01 -0.10433959363E+02  0.20078002478E+02  0.23012361038E+02  0.00000000000E+00 0. -1.
</event>
<event>
 8    1  0.2994958E-010  0.9118800E+02  0.7816164E-02  0.1184000E+00
        -11   -1    0    0    0    0  0.00000000000E+00  0.00000000000E+00  0.45593999997E+02  0.45594000000E+02  0.51100000000E-03 0. -1.
         11   -1    0    0    0    0 -0.00000000000E+00 -0.00000000000E+00 -0.45593999997E+02  0.45594000000E+02  0.51100000000E-03 0.  1.
         23    2    1    2    0    0  0.00000000000E+00 -0.17763568394E-14  0.00000000000E+00  0.91188000000E+02  0.91188000000E+02 0.  0.
    9900012    2    3    3    0    0  0.16334737575E+02 -0.10399592222E+02  0.38841316106E+02  0.47787274121E+02  0.20000014026E+02 0.  0.
        -12    1    3    3    0    0 -0.16334737575E+02  0.10399592222E+02 -0.38841316106E+02  0.43400725879E+02  0.00000000000E+00 0.  1.
         11    1    4    4    0    0  0.12076432961E+02 -0.31384424257E+01  0.15217100745E+02  0.19678673971E+02  0.51100000000E-03 0. -1.
        -11    1    4    4    0    0  0.54665463687E+01 -0.99621604335E+01  0.13952837936E+02  0.17994706345E+02  0.51100000000E-03 0.  1.
        -12    1    4    4    0    0 -0.12082417547E+01  0.27010106374E+01  0.96713774251E+01  0.10113893805E+02  0.00000000000E+00 0.  1.
</event>
<event>
 8    1  0.2994958E-010  0.9118800E+02  0.7816164E-02  0.1184000E+00
        -11   -1    0    0    0    0  0.00000000000E+00  0.00000000000E+00  0.45593999997E+02  0.45594000000E+02  0.51100000000E-03 0. -1.
         11   -1    0    0    0    0 -0.00000000000E+00 -0.00000000000E+00 -0.45593999997E+02  0.45594000000E+02  0.51100000000E-03 0.  1.
         23    2    1    2    0    0 -0.66613381478E-15  0.00000000000E+00  0.00000000000E+00  0.91188000000E+02  0.91188000000E+02 0.  0.
    9900012    2    3    3    0    0 -0.77754577020E+00  0.27883419053E+02 -0.33249568459E+02  0.47787269151E+02  0.19999991368E+02 0.  0.
         12    1    3    3    0    0  0.77754577020E+00 -0.27883419053E+02  0.33249568459E+02  0.43400730849E+02  0.00000000000E+00 0. -1.
         11    1    4    4    0    0 -0.47295392042E+00  0.98628592229E+01 -0.18324008883E+02  0.20815114203E+02  0.51100000000E-03 0. -1.
        -11    1    4    4    0    0 -0.60818247921E+01  0.11064615442E+02 -0.12127614762E+02  0.17506951412E+02  0.51100000000E-03 0.  1.
         12    1    4    4    0    0  0.57772329423E+01  0.69559443882E+01 -0.27979448143E+01  0.94652035364E+01  0.00000000000E+00 0. -1.
</event>
<event>
 8    1  0.2994958E-010  0.9118800E+02  0.7816164E-02  0.1184000E+00
        -11   -1    0    0    0    0  0.00000000000E+00  0.00000000000E+00  0.45593999997E+02  0.45594000000E+02  0.51100000000E-03 0. -1.
         11   -1    0    0    0    0 -0.00000000000E+00 -0.00000000000E+00 -0.45593999997E+02  0.45594000000E+02  0.51100000000E-03 0.  1.
         23    2    1    2    0    0  0.00000000000E+00  0.35527136788E-14 -0.71054273576E-14  0.91188000000E+02  0.91188000000E+02 0.  0.
    9900012    2    3    3    0    0  0.16235425033E+02 -0.17016340626E+02  0.36475720294E+02  0.47787273678E+02  0.20000012007E+02 0.  0.
        -12    1    3    3    0    0 -0.16235425033E+02  0.17016340626E+02 -0.36475720294E+02  0.43400726322E+02  0.00000000000E+00 0.  1.
         11    1    4    4    0    0  0.66943034262E+00 -0.71704497173E+01  0.30640512590E+01  0.78263590840E+01  0.51100000000E-03 0.  1.
        -11    1    4    4    0    0  0.84030386258E+01 -0.75984794404E+01  0.29272202201E+02  0.31388051387E+02  0.51100000000E-03 0. -1.
         12    1    4    4    0    0  0.71629560641E+01 -0.22474114684E+01  0.41394668350E+01  0.85728632068E+01  0.00000000000E+00 0. -1.
</event>
<event>
 8    1  0.2994958E-010  0.9118800E+02  0.7816164E-02  0.1184000E+00
        -11   -1    0    0    0    0  0.00000000000E+00  0.00000000000E+00  0.45593999997E+02  0.45594000000E+02  0.51100000000E-03 0. -1.
         11   -1    0    0    0    0 -0.00000000000E+00 -0.00000000000E+00 -0.45593999997E+02  0.45594000000E+02  0.51100000000E-03 0.  1.
         23    2    1    2    0    0  0.71054273576E-14  0.35527136788E-14 -0.35527136788E-14  0.91188000000E+02  0.91188000000E+02 0.  0.
    9900012    2    3    3    0    0  0.26567226594E+02  0.17520033167E+02 -0.29510237550E+02  0.47787271765E+02  0.20000003286E+02 0.  0.
         12    1    3    3    0    0 -0.26567226594E+02 -0.17520033167E+02  0.29510237550E+02  0.43400728235E+02  0.00000000000E+00 0. -1.
         11    1    4    4    0    0  0.87647018072E+01  0.13308680562E+02 -0.16964189855E+02  0.23274980425E+02  0.51100000000E-03 0. -1.
        -11    1    4    4    0    0  0.14560568808E+02  0.74575145794E+01 -0.10804085096E+02  0.19604921391E+02  0.51100000000E-03 0.  1.
         12    1    4    4    0    0  0.32419559783E+01 -0.32461619739E+01 -0.17419625990E+01  0.49073699496E+01  0.00000000000E+00 0. -1.
</event>
<event>
 8    1  0.2994958E-010  0.9118800E+02  0.7816164E-02  0.1184000E+00
        -11   -1    0    0    0    0  0.00000000000E+00  0.00000000000E+00  0.45593999997E+02  0.45594000000E+02  0.51100000000E-03 0. -1.
         11   -1    0    0    0    0 -0.00000000000E+00 -0.00000000000E+00 -0.45593999997E+02  0.45594000000E+02  0.51100000000E-03 0.  1.
         23    2    1    2    0    0  0.71054273576E-14  0.00000000000E+00  0.17763568394E-14  0.91188000000E+02  0.91188000000E+02 0.  0.
    9900012    2    3    3    0    0  0.28150954634E+02  0.31869139033E+02  0.86893008349E+01  0.47787283203E+02  0.20000055435E+02 0.  0.
         12    1    3    3    0    0 -0.28150954634E+02 -0.31869139033E+02 -0.86893008349E+01  0.43400716797E+02  0.00000000000E+00 0. -1.
         11    1    4    4    0    0  0.15321399530E+02  0.19042564772E+02  0.80796944248E+01  0.25741911719E+02  0.51100000000E-03 0. -1.
        -11    1    4    4    0    0  0.12583769137E+02  0.60591771455E+01 -0.31251117874E+01  0.14311925004E+02  0.51100000000E-03 0.  1.
         12    1    4    4    0    0  0.24578596724E+00  0.67673971150E+01  0.37347181975E+01  0.77334464806E+01  0.00000000000E+00 0. -1.
</event>
<event>
 8    1  0.2994958E-010  0.9118800E+02  0.7816164E-02  0.1184000E+00
        -11   -1    0    0    0    0  0.00000000000E+00  0.00000000000E+00  0.45593999997E+02  0.45594000000E+02  0.51100000000E-03 0. -1.
         11   -1    0    0    0    0 -0.00000000000E+00 -0.00000000000E+00 -0.45593999997E+02  0.45594000000E+02  0.51100000000E-03 0.  1.
         23    2    1    2    0    0  0.44408920985E-15 -0.44408920985E-15 -0.71054273576E-14  0.91188000000E+02  0.91188000000E+02 0.  0.
    9900012    2    3    3    0    0  0.30998779584E+01 -0.38673924083E+01 -0.43116752218E+02  0.47787305429E+02  0.20000156772E+02 0.  0.
         12    1    3    3    0    0 -0.30998779584E+01  0.38673924083E+01  0.43116752218E+02  0.43400694571E+02  0.00000000000E+00 0. -1.
         11    1    4    4    0    0  0.89705589338E+00  0.56441455583E+01 -0.14280324283E+02  0.15381441748E+02  0.51100000000E-03 0.  1.
        -11    1    4    4    0    0  0.63412724594E+00 -0.18937757699E+00 -0.18054543405E+02  0.18066668732E+02  0.51100000000E-03 0. -1.
         12    1    4    4    0    0  0.15686948191E+01 -0.93221603896E+01 -0.10781884530E+02  0.14339194949E+02  0.00000000000E+00 0. -1.
</event>
<event>
 8    1  0.2994958E-010  0.9118800E+02  0.7816164E-02  0.1184000E+00
        -11   -1    0    0    0    0  0.00000000000E+00  0.00000000000E+00  0.45593999997E+02  0.45594000000E+02  0.51100000000E-03 0. -1.
         11   -1    0    0    0    0 -0.00000000000E+00 -0.00000000000E+00 -0.45593999997E+02  0.45594000000E+02  0.51100000000E-03 0.  1.
         23    2    1    2    0    0  0.71054273576E-14  0.00000000000E+00 -0.88817841970E-15  0.91188000000E+02  0.91188000000E+02 0.  0.
    9900012    2    3    3    0    0  0.32883478602E+02  0.28311134920E+02 -0.88283696985E+00  0.47787275046E+02  0.20000018246E+02 0.  0.
         12    1    3    3    0    0 -0.32883478602E+02 -0.28311134920E+02  0.88283696985E+00  0.43400724954E+02  0.00000000000E+00 0. -1.
         11    1    4    4    0    0  0.43873688142E+01  0.84368196919E+01 -0.35809686737E+01  0.10161312343E+02  0.51100000000E-03 0. -1.
        -11    1    4    4    0    0  0.11243598564E+02  0.14057019227E+02 -0.36068224922E+01  0.18358307846E+02  0.51100000000E-03 0.  1.
         12    1    4    4    0    0  0.17252511224E+02  0.58172960006E+01  0.63049541960E+01  0.19267654857E+02  0.00000000000E+00 0. -1.
</event>
<event>
 8    1  0.2994958E-010  0.9118800E+02  0.7816164E-02  0.1184000E+00
        -11   -1    0    0    0    0  0.00000000000E+00  0.00000000000E+00  0.45593999997E+02  0.45594000000E+02  0.51100000000E-03 0.  1.
         11   -1    0    0    0    0 -0.00000000000E+00 -0.00000000000E+00 -0.45593999997E+02  0.45594000000E+02  0.51100000000E-03 0. -1.
         23    2    1    2    0    0  0.00000000000E+00  0.00000000000E+00 -0.35527136788E-14  0.91188000000E+02  0.91188000000E+02 0.  0.
    9900012    2    3    3    0    0 -0.10881867638E+02  0.35961817875E+02 -0.21724539185E+02  0.47787274303E+02  0.20000014858E+02 0.  0.
         12    1    3    3    0    0  0.10881867638E+02 -0.35961817875E+02  0.21724539185E+02  0.43400725697E+02  0.00000000000E+00 0. -1.
         11    1    4    4    0    0 -0.11637575181E+01  0.10794108020E+02 -0.12807548130E+02  0.16789889484E+02  0.51100000000E-03 0.  1.
        -11    1    4    4    0    0  0.10175291330E+01  0.12888025105E+02 -0.66233872066E+01  0.14526039205E+02  0.51100000000E-03 0. -1.
         12    1    4    4    0    0 -0.10735639253E+02  0.12279684750E+02 -0.22936038486E+01  0.16471345614E+02  0.00000000000E+00 0. -1.
</event>
<event>
 8    1  0.2994958E-010  0.9118800E+02  0.7816164E-02  0.1184000E+00
        -11   -1    0    0    0    0  0.00000000000E+00  0.00000000000E+00  0.45593999997E+02  0.45594000000E+02  0.51100000000E-03 0. -1.
         11   -1    0    0    0    0 -0.00000000000E+00 -0.00000000000E+00 -0.45593999997E+02  0.45594000000E+02  0.51100000000E-03 0.  1.
         23    2    1    2    0    0  0.00000000000E+00  0.12490009027E-15  0.00000000000E+00  0.91188000000E+02  0.91188000000E+02 0.  0.
    9900012    2    3    3    0    0 -0.27334371637E+01 -0.10347143384E+00 -0.43314443762E+02  0.47787269321E+02  0.19999992144E+02 0.  0.
         12    1    3    3    0    0  0.27334371637E+01  0.10347143384E+00  0.43314443762E+02  0.43400730679E+02  0.00000000000E+00 0. -1.
         11    1    4    4    0    0  0.15217416924E+01 -0.17139175431E+01 -0.29015178437E+02  0.29105562890E+02  0.51100000000E-03 0. -1.
        -11    1    4    4    0    0  0.28193664211E+01 -0.24732543005E+01 -0.34082255527E+01  0.50677229137E+01  0.51100000000E-03 0.  1.
         12    1    4    4    0    0 -0.70745452772E+01  0.40837004098E+01 -0.10891039772E+02  0.13613983518E+02  0.00000000000E+00 0. -1.
</event>
<event>
 8    1  0.2994958E-010  0.9118800E+02  0.7816164E-02  0.1184000E+00
        -11   -1    0    0    0    0  0.00000000000E+00  0.00000000000E+00  0.45593999997E+02  0.45594000000E+02  0.51100000000E-03 0. -1.
         11   -1    0    0    0    0 -0.00000000000E+00 -0.00000000000E+00 -0.45593999997E+02  0.45594000000E+02  0.51100000000E-03 0.  1.
         23    2    1    2    0    0  0.00000000000E+00  0.00000000000E+00  0.35527136788E-14  0.91188000000E+02  0.91188000000E+02 0.  0.
    9900012    2    3    3    0    0 -0.11445052889E+01 -0.36537048666E+02  0.23395659069E+02  0.47787277877E+02  0.20000031152E+02 0.  0.
        -12    1    3    3    0    0  0.11445052889E+01  0.36537048666E+02 -0.23395659069E+02  0.43400722123E+02  0.00000000000E+00 0.  1.
         11    1    4    4    0    0  0.25854025648E+01 -0.63901873139E+01 -0.30066589202E+01  0.75205583870E+01  0.51100000000E-03 0. -1.
        -11    1    4    4    0    0 -0.14258340010E+01 -0.74958523453E+01  0.69324976361E+01  0.10309235118E+02  0.51100000000E-03 0.  1.
         12    1    4    4    0    0 -0.23040738526E+01 -0.22651009007E+02  0.19469820353E+02  0.29957484372E+02  0.00000000000E+00 0. -1.
</event>
<event>
 8    1  0.2994958E-010  0.9118800E+02  0.7816164E-02  0.1184000E+00
        -11   -1    0    0    0    0  0.00000000000E+00  0.00000000000E+00  0.45593999997E+02  0.45594000000E+02  0.51100000000E-03 0. -1.
         11   -1    0    0    0    0 -0.00000000000E+00 -0.00000000000E+00 -0.45593999997E+02  0.45594000000E+02  0.51100000000E-03 0.  1.
         23    2    1    2    0    0 -0.35527136788E-14  0.00000000000E+00  0.00000000000E+00  0.91188000000E+02  0.91188000000E+02 0.  0.
    9900012    2    3    3    0    0  0.16211959683E+02  0.32494160662E+02  0.23768157263E+02  0.47787269435E+02  0.19999992664E+02 0.  0.
        -12    1    3    3    0    0 -0.16211959683E+02 -0.32494160662E+02 -0.23768157263E+02  0.43400730565E+02  0.00000000000E+00 0.  1.
         11    1    4    4    0    0  0.21168861922E+01  0.14133064132E+02  0.12947564213E+02  0.19283778889E+02  0.51100000000E-03 0. -1.
        -11    1    4    4    0    0  0.11010052466E+02  0.19614875289E+02  0.11242622565E+02  0.25146792048E+02  0.51100000000E-03 0.  1.
        -12    1    4    4    0    0  0.30850210244E+01 -0.12537787597E+01 -0.42202951472E+00  0.33566984986E+01  0.00000000000E+00 0.  1.
</event>
<event>
 8    1  0.2994958E-010  0.9118800E+02  0.7816164E-02  0.1184000E+00
        -11   -1    0    0    0    0  0.00000000000E+00  0.00000000000E+00  0.45593999997E+02  0.45594000000E+02  0.51100000000E-03 0.  1.
         11   -1    0    0    0    0 -0.00000000000E+00 -0.00000000000E+00 -0.45593999997E+02  0.45594000000E+02  0.51100000000E-03 0. -1.
         23    2    1    2    0    0  0.00000000000E+00 -0.71054273576E-14  0.00000000000E+00  0.91188000000E+02  0.91188000000E+02 0.  0.
    9900012    2    3    3    0    0  0.71503420556E+01 -0.42695297791E+02 -0.30995099823E+01  0.47787276422E+02  0.20000024518E+02 0.  0.
         12    1    3    3    0    0 -0.71503420556E+01  0.42695297791E+02  0.30995099823E+01  0.43400723578E+02  0.00000000000E+00 0. -1.
         11    1    4    4    0    0  0.15304946365E+01 -0.13145042096E+01  0.14113174007E+01  0.24621438253E+01  0.51100000000E-03 0. -1.
        -11    1    4    4    0    0  0.74572179591E+01 -0.33234576520E+02 -0.97968660579E+01  0.35441864525E+02  0.51100000000E-03 0.  1.
        -12    1    4    4    0    0 -0.18373705401E+01 -0.81462170610E+01  0.52860386748E+01  0.98832680717E+01  0.00000000000E+00 0.  1.
</event>
<event>
 8    1  0.2994958E-010  0.9118800E+02  0.7816164E-02  0.1184000E+00
        -11   -1    0    0    0    0  0.00000000000E+00  0.00000000000E+00  0.45593999997E+02  0.45594000000E+02  0.51100000000E-03 0. -1.
         11   -1    0    0    0    0 -0.00000000000E+00 -0.00000000000E+00 -0.45593999997E+02  0.45594000000E+02  0.51100000000E-03 0.  1.
         23    2    1    2    0    0 -0.17763568394E-14 -0.88817841970E-15  0.00000000000E+00  0.91188000000E+02  0.91188000000E+02 0.  0.
    9900012    2    3    3    0    0  0.86731372194E+01  0.75984900085E+01  0.41840924967E+02  0.47787270032E+02  0.19999995385E+02 0.  0.
        -12    1    3    3    0    0 -0.86731372194E+01 -0.75984900085E+01 -0.41840924967E+02  0.43400729968E+02  0.00000000000E+00 0.  1.
         11    1    4    4    0    0  0.58097944880E+01 -0.19604063686E+01  0.27225839379E+02  0.27907762993E+02  0.51100000000E-03 0. -1.
        -11    1    4    4    0    0  0.53768979979E+01  0.24660610554E+01  0.71497643038E+01  0.92796346409E+01  0.51100000000E-03 0.  1.
        -12    1    4    4    0    0 -0.25135552665E+01  0.70928353217E+01  0.74653212845E+01  0.10599872398E+02  0.00000000000E+00 0.  1.
</event>
<event>
 8    1  0.2994958E-010  0.9118800E+02  0.7816164E-02  0.1184000E+00
        -11   -1    0    0    0    0  0.00000000000E+00  0.00000000000E+00  0.45593999997E+02  0.45594000000E+02  0.51100000000E-03 0.  1.
         11   -1    0    0    0    0 -0.00000000000E+00 -0.00000000000E+00 -0.45593999997E+02  0.45594000000E+02  0.51100000000E-03 0. -1.
         23    2    1    2    0    0  0.00000000000E+00  0.00000000000E+00  0.00000000000E+00  0.91188000000E+02  0.91188000000E+02 0.  0.
    9900012    2    3    3    0    0  0.38193904458E+02 -0.79777492794E+01 -0.19005384241E+02  0.47787268999E+02  0.19999990673E+02 0.  0.
         12    1    3    3    0    0 -0.38193904458E+02  0.79777492794E+01  0.19005384241E+02  0.43400731001E+02  0.00000000000E+00 0. -1.
         11    1    4    4    0    0  0.80165177276E+01 -0.78450210889E+01 -0.94608685461E+01  0.14673682097E+02  0.51100000000E-03 0. -1.
        -11    1    4    4    0    0  0.19342561219E+01 -0.22114132909E+01 -0.26737914789E+01  0.39725126334E+01  0.51100000000E-03 0.  1.
        -12    1    4    4    0    0  0.28243130608E+02  0.20786851005E+01 -0.68707242160E+01  0.29141074269E+02  0.00000000000E+00 0.  1.
</event>
<event>
 8    1  0.2994958E-010  0.9118800E+02  0.7816164E-02  0.1184000E+00
        -11   -1    0    0    0    0  0.00000000000E+00  0.00000000000E+00  0.45593999997E+02  0.45594000000E+02  0.51100000000E-03 0. -1.
         11   -1    0    0    0    0 -0.00000000000E+00 -0.00000000000E+00 -0.45593999997E+02  0.45594000000E+02  0.51100000000E-03 0.  1.
         23    2    1    2    0    0  0.00000000000E+00  0.35527136788E-14 -0.35527136788E-14  0.91188000000E+02  0.91188000000E+02 0.  0.
    9900012    2    3    3    0    0  0.22013893060E+02  0.25082814904E+02 -0.27746431390E+02  0.47787267909E+02  0.19999985706E+02 0.  0.
         12    1    3    3    0    0 -0.22013893060E+02 -0.25082814904E+02  0.27746431390E+02  0.43400732091E+02  0.00000000000E+00 0. -1.
         11    1    4    4    0    0  0.60025272625E+01  0.36302672418E+01 -0.15761821184E+02  0.17252367405E+02  0.51100000000E-03 0. -1.
        -11    1    4    4    0    0  0.75054784762E+01  0.66537121738E+01 -0.84238848873E+01  0.13098317820E+02  0.51100000000E-03 0.  1.
        -12    1    4    4    0    0  0.85058873213E+01  0.14798835488E+02 -0.35607253185E+01  0.17436582685E+02  0.00000000000E+00 0.  1.
</event>
<event>
 8    1  0.2994958E-010  0.9118800E+02  0.7816164E-02  0.1184000E+00
        -11   -1    0    0    0    0  0.00000000000E+00  0.00000000000E+00  0.45593999997E+02  0.45594000000E+02  0.51100000000E-03 0. -1.
         11   -1    0    0    0    0 -0.00000000000E+00 -0.00000000000E+00 -0.45593999997E+02  0.45594000000E+02  0.51100000000E-03 0.  1.
         23    2    1    2    0    0  0.35527136788E-14 -0.44408920985E-15  0.00000000000E+00  0.91188000000E+02  0.91188000000E+02 0.  0.
    9900012    2    3    3    0    0 -0.18237901203E+02  0.20707597126E+01 -0.39328287213E+02  0.47787271190E+02  0.20000000665E+02 0.  0.
         12    1    3    3    0    0  0.18237901203E+02 -0.20707597126E+01  0.39328287213E+02  0.43400728810E+02  0.00000000000E+00 0. -1.
         11    1    4    4    0    0 -0.76413536901E+01  0.57724483391E+01 -0.81786875179E+01  0.12593743519E+02  0.51100000000E-03 0. -1.
        -11    1    4    4    0    0  0.14903637182E+01 -0.56305195238E+00  0.43340511115E-01  0.15937660351E+01  0.51100000000E-03 0.  1.
        -12    1    4    4    0    0 -0.12086911232E+02 -0.31386366742E+01 -0.31192940206E+02  0.33599761636E+02  0.00000000000E+00 0.  1.
</event>
<event>
 8    1  0.2994958E-010  0.9118800E+02  0.7816164E-02  0.1184000E+00
        -11   -1    0    0    0    0  0.00000000000E+00  0.00000000000E+00  0.45593999997E+02  0.45594000000E+02  0.51100000000E-03 0.  1.
         11   -1    0    0    0    0 -0.00000000000E+00 -0.00000000000E+00 -0.45593999997E+02  0.45594000000E+02  0.51100000000E-03 0. -1.
         23    2    1    2    0    0  0.71054273576E-14  0.17763568394E-14  0.00000000000E+00  0.91188000000E+02  0.91188000000E+02 0.  0.
    9900012    2    3    3    0    0  0.40933621368E+02  0.14232917371E+02  0.23422557549E+01  0.47787268932E+02  0.19999990368E+02 0.  0.
        -12    1    3    3    0    0 -0.40933621368E+02 -0.14232917371E+02 -0.23422557549E+01  0.43400731068E+02  0.00000000000E+00 0.  1.
         11    1    4    4    0    0  0.23247794978E+02  0.55566365119E+01 -0.83159751382E+01  0.25307935977E+02  0.51100000000E-03 0. -1.
        -11    1    4    4    0    0  0.20701270331E+01  0.15318433994E+01  0.19149090876E+01  0.32091817039E+01  0.51100000000E-03 0.  1.
         12    1    4    4    0    0  0.15615699357E+02  0.71444374597E+01  0.87433218054E+01  0.19270151251E+02  0.00000000000E+00 0. -1.
</event>
<event>
 8    1  0.2994958E-010  0.9118800E+02  0.7816164E-02  0.1184000E+00
        -11   -1    0    0    0    0  0.00000000000E+00  0.00000000000E+00  0.45593999997E+02  0.45594000000E+02  0.51100000000E-03 0. -1.
         11   -1    0    0    0    0 -0.00000000000E+00 -0.00000000000E+00 -0.45593999997E+02  0.45594000000E+02  0.51100000000E-03 0.  1.
         23    2    1    2    0    0 -0.35527136788E-14  0.35527136788E-14  0.00000000000E+00  0.91188000000E+02  0.91188000000E+02 0.  0.
    9900012    2    3    3    0    0  0.21330219752E+02 -0.28399004463E+02  0.24942765134E+02  0.47787271185E+02  0.20000000641E+02 0.  0.
        -12    1    3    3    0    0 -0.21330219752E+02  0.28399004463E+02 -0.24942765134E+02  0.43400728815E+02  0.00000000000E+00 0.  1.
         11    1    4    4    0    0  0.17146727445E+01 -0.16757784826E+00 -0.16314992444E+01  0.23727568357E+01  0.51100000000E-03 0. -1.
        -11    1    4    4    0    0  0.63041053240E+01 -0.14070820889E+02  0.46243890129E+01  0.16097040673E+02  0.51100000000E-03 0.  1.
         12    1    4    4    0    0  0.13311441683E+02 -0.14160605727E+02  0.21949875365E+02  0.29317473677E+02  0.00000000000E+00 0. -1.
</event>
<event>
 8    1  0.3281707E-010  0.9118800E+02  0.7816164E-02  0.1184000E+00
        -11   -1    0    0    0    0  0.00000000000E+00  0.00000000000E+00  0.45593999997E+02  0.45594000000E+02  0.51100000000E-03 0. -1.
         11   -1    0    0    0    0 -0.00000000000E+00 -0.00000000000E+00 -0.45593999997E+02  0.45594000000E+02  0.51100000000E-03 0.  1.
         23    2    1    2    0    0  0.00000000000E+00  0.88817841970E-15  0.00000000000E+00  0.91188000000E+02  0.91188000000E+02 0.  0.
    9900012    2    3    3    0    0 -0.71042567186E+01 -0.44229525219E+01  0.42586270332E+02  0.47787269668E+02  0.19999993725E+02 0.  0.
        -12    1    3    3    0    0  0.71042567186E+01  0.44229525219E+01 -0.42586270332E+02  0.43400730332E+02  0.00000000000E+00 0.  1.
         11    1    4    4    0    0 -0.72864610333E+01  0.28121720548E+01  0.13470192419E+02  0.15570706796E+02  0.51100000000E-03 0. -1.
        -11    1    4    4    0    0  0.33631330181E+01  0.20724775808E+01  0.80264056013E+01  0.89458937037E+01  0.51100000000E-03 0.  1.
         12    1    4    4    0    0 -0.31809287035E+01 -0.93076021575E+01  0.21089672312E+02  0.23270669169E+02  0.00000000000E+00 0. -1.
</event>
<event>
 8    1  0.2994958E-010  0.9118800E+02  0.7816164E-02  0.1184000E+00
        -11   -1    0    0    0    0  0.00000000000E+00  0.00000000000E+00  0.45593999997E+02  0.45594000000E+02  0.51100000000E-03 0. -1.
         11   -1    0    0    0    0 -0.00000000000E+00 -0.00000000000E+00 -0.45593999997E+02  0.45594000000E+02  0.51100000000E-03 0.  1.
         23    2    1    2    0    0  0.00000000000E+00  0.00000000000E+00  0.00000000000E+00  0.91188000000E+02  0.91188000000E+02 0.  0.
    9900012    2    3    3    0    0 -0.29105514668E+01 -0.26050963962E+02  0.34590449698E+02  0.47787271394E+02  0.20000001595E+02 0.  0.
        -12    1    3    3    0    0  0.29105514668E+01  0.26050963962E+02 -0.34590449698E+02  0.43400728606E+02  0.00000000000E+00 0.  1.
         11    1    4    4    0    0 -0.86128601301E+01 -0.17706042680E+02  0.14575365321E+02  0.24497481126E+02  0.51100000000E-03 0. -1.
        -11    1    4    4    0    0 -0.37541371523E+00 -0.35659647246E+01  0.32995830038E+01  0.48728111122E+01  0.51100000000E-03 0.  1.
        -12    1    4    4    0    0  0.60777223786E+01 -0.47789565575E+01  0.16715501373E+02  0.18416979156E+02  0.00000000000E+00 0.  1.
</event>
<event>
 8    1  0.2994958E-010  0.9118800E+02  0.7816164E-02  0.1184000E+00
        -11   -1    0    0    0    0  0.00000000000E+00  0.00000000000E+00  0.45593999997E+02  0.45594000000E+02  0.51100000000E-03 0. -1.
         11   -1    0    0    0    0 -0.00000000000E+00 -0.00000000000E+00 -0.45593999997E+02  0.45594000000E+02  0.51100000000E-03 0.  1.
         23    2    1    2    0    0  0.00000000000E+00  0.00000000000E+00  0.00000000000E+00  0.91188000000E+02  0.91188000000E+02 0.  0.
    9900012    2    3    3    0    0  0.34558338813E+01  0.29789595398E+02 -0.31372931764E+02  0.47787266950E+02  0.19999981334E+02 0.  0.
         12    1    3    3    0    0 -0.34558338813E+01 -0.29789595398E+02  0.31372931764E+02  0.43400733050E+02  0.00000000000E+00 0. -1.
         11    1    4    4    0    0 -0.95172925371E+00  0.86924676755E+01 -0.22377216526E+01  0.90261941768E+01  0.51100000000E-03 0. -1.
        -11    1    4    4    0    0 -0.25182513562E+01  0.14927864935E+02 -0.12162022530E+02  0.19418999297E+02  0.51100000000E-03 0.  1.
         12    1    4    4    0    0  0.69258144912E+01  0.61692627870E+01 -0.16973187581E+02  0.19342073477E+02  0.00000000000E+00 0. -1.
</event>
<event>
 8    1  0.2994958E-010  0.9118800E+02  0.7816164E-02  0.1184000E+00
        -11   -1    0    0    0    0  0.00000000000E+00  0.00000000000E+00  0.45593999997E+02  0.45594000000E+02  0.51100000000E-03 0.  1.
         11   -1    0    0    0    0 -0.00000000000E+00 -0.00000000000E+00 -0.45593999997E+02  0.45594000000E+02  0.51100000000E-03 0. -1.
         23    2    1    2    0    0  0.00000000000E+00  0.71054273576E-14  0.00000000000E+00  0.91188000000E+02  0.91188000000E+02 0.  0.
    9900012    2    3    3    0    0 -0.16697160496E+02  0.34851012789E+02  0.19754373397E+02  0.47787268101E+02  0.19999986579E+02 0.  0.
        -12    1    3    3    0    0  0.16697160496E+02 -0.34851012789E+02 -0.19754373397E+02  0.43400731899E+02  0.00000000000E+00 0.  1.
         11    1    4    4    0    0 -0.13362411191E+02  0.18270852425E+02  0.17055000567E+02  0.28341685302E+02  0.51100000000E-03 0. -1.
        -11    1    4    4    0    0 -0.17554509498E+00  0.11006271794E+01  0.34535782611E+01  0.36289667035E+01  0.51100000000E-03 0.  1.
        -12    1    4    4    0    0 -0.31592042103E+01  0.15479533185E+02 -0.75420543094E+00  0.15816616095E+02  0.00000000000E+00 0.  1.
</event>
<event>
 8    1  0.2994958E-010  0.9118800E+02  0.7816164E-02  0.1184000E+00
        -11   -1    0    0    0    0  0.00000000000E+00  0.00000000000E+00  0.45593999997E+02  0.45594000000E+02  0.51100000000E-03 0. -1.
         11   -1    0    0    0    0 -0.00000000000E+00 -0.00000000000E+00 -0.45593999997E+02  0.45594000000E+02  0.51100000000E-03 0.  1.
         23    2    1    2    0    0  0.00000000000E+00  0.00000000000E+00 -0.35527136788E-14  0.91188000000E+02  0.91188000000E+02 0.  0.
    9900012    2    3    3    0    0 -0.21768334525E+02  0.20746212394E+02  0.31294691157E+02  0.47787269461E+02  0.19999992780E+02 0.  0.
        -12    1    3    3    0    0  0.21768334525E+02 -0.20746212394E+02 -0.31294691157E+02  0.43400730539E+02  0.00000000000E+00 0.  1.
         11    1    4    4    0    0 -0.32588052495E+01  0.29992758691E+01  0.15879814795E+01  0.47050135848E+01  0.51100000000E-03 0. -1.
        -11    1    4    4    0    0 -0.27649668334E+01  0.66813934934E+01 -0.51983142808E+00  0.72495714065E+01  0.51100000000E-03 0.  1.
         12    1    4    4    0    0 -0.15744562442E+02  0.11065543032E+02  0.30226541106E+02  0.35832684470E+02  0.00000000000E+00 0. -1.
</event>
<event>
 8    1  0.2994958E-010  0.9118800E+02  0.7816164E-02  0.1184000E+00
        -11   -1    0    0    0    0  0.00000000000E+00  0.00000000000E+00  0.45593999997E+02  0.45594000000E+02  0.51100000000E-03 0. -1.
         11   -1    0    0    0    0 -0.00000000000E+00 -0.00000000000E+00 -0.45593999997E+02  0.45594000000E+02  0.51100000000E-03 0.  1.
         23    2    1    2    0    0  0.00000000000E+00  0.00000000000E+00  0.00000000000E+00  0.91188000000E+02  0.91188000000E+02 0.  0.
    9900012    2    3    3    0    0 -0.18517766144E+01  0.23706644488E+02 -0.36306876913E+02  0.47787269814E+02  0.19999994389E+02 0.  0.
         12    1    3    3    0    0  0.18517766144E+01 -0.23706644488E+02  0.36306876913E+02  0.43400730186E+02  0.00000000000E+00 0. -1.
         11    1    4    4    0    0  0.19699851005E+00 -0.19921987876E+00  0.18422921572E+00  0.33531722010E+00  0.51100000000E-03 0. -1.
        -11    1    4    4    0    0  0.35875988942E+01  0.15408132726E+02 -0.91604865145E+01  0.18281026595E+02  0.51100000000E-03 0.  1.
        -12    1    4    4    0    0 -0.56363740186E+01  0.84977316405E+01 -0.27330619615E+02  0.29170925999E+02  0.00000000000E+00 0.  1.
</event>
<event>
 8    1  0.2994958E-010  0.9118800E+02  0.7816164E-02  0.1184000E+00
        -11   -1    0    0    0    0  0.00000000000E+00  0.00000000000E+00  0.45593999997E+02  0.45594000000E+02  0.51100000000E-03 0.  1.
         11   -1    0    0    0    0 -0.00000000000E+00 -0.00000000000E+00 -0.45593999997E+02  0.45594000000E+02  0.51100000000E-03 0. -1.
         23    2    1    2    0    0  0.00000000000E+00  0.00000000000E+00  0.83266726847E-16  0.91188000000E+02  0.91188000000E+02 0.  0.
    9900012    2    3    3    0    0  0.43217051507E+02  0.39854849271E+01  0.15941316236E+00  0.47787273697E+02  0.20000012093E+02 0.  0.
        -12    1    3    3    0    0 -0.43217051507E+02 -0.39854849271E+01 -0.15941316236E+00  0.43400726303E+02  0.00000000000E+00 0.  1.
         11    1    4    4    0    0  0.52326417424E+01  0.84371051693E+00  0.52428427074E+01  0.74551852396E+01  0.51100000000E-03 0. -1.
        -11    1    4    4    0    0  0.48440204902E+01  0.41990888278E+01  0.13630318424E+01  0.65539863868E+01  0.51100000000E-03 0.  1.
         12    1    4    4    0    0  0.33140389275E+02 -0.10573144176E+01 -0.64464613874E+01  0.33778102070E+02  0.00000000000E+00 0. -1.
</event>
<event>
 8    1  0.2994958E-010  0.9118800E+02  0.7816164E-02  0.1184000E+00
        -11   -1    0    0    0    0  0.00000000000E+00  0.00000000000E+00  0.45593999997E+02  0.45594000000E+02  0.51100000000E-03 0.  1.
         11   -1    0    0    0    0 -0.00000000000E+00 -0.00000000000E+00 -0.45593999997E+02  0.45594000000E+02  0.51100000000E-03 0. -1.
         23    2    1    2    0    0  0.00000000000E+00  0.00000000000E+00  0.00000000000E+00  0.91188000000E+02  0.91188000000E+02 0.  0.
    9900012    2    3    3    0    0  0.29299942873E+02 -0.28718976208E+02 -0.14154751652E+02  0.47787271421E+02  0.20000001718E+02 0.  0.
         12    1    3    3    0    0 -0.29299942873E+02  0.28718976208E+02  0.14154751652E+02  0.43400728579E+02  0.00000000000E+00 0. -1.
         11    1    4    4    0    0  0.55953247243E+01 -0.82614575706E+01 -0.76892224872E+01  0.12596963232E+02  0.51100000000E-03 0. -1.
        -11    1    4    4    0    0  0.81656178704E+01  0.39928917230E+00 -0.38913754122E+01  0.90542559003E+01  0.51100000000E-03 0.  1.
        -12    1    4    4    0    0  0.15539000278E+02 -0.20856807810E+02 -0.25741537529E+01  0.26136052288E+02  0.00000000000E+00 0.  1.
</event>
<event>
 8    1  0.2994958E-010  0.9118800E+02  0.7816164E-02  0.1184000E+00
        -11   -1    0    0    0    0  0.00000000000E+00  0.00000000000E+00  0.45593999997E+02  0.45594000000E+02  0.51100000000E-03 0. -1.
         11   -1    0    0    0    0 -0.00000000000E+00 -0.00000000000E+00 -0.45593999997E+02  0.45594000000E+02  0.51100000000E-03 0.  1.
         23    2    1    2    0    0  0.00000000000E+00  0.00000000000E+00 -0.44408920985E-15  0.91188000000E+02  0.91188000000E+02 0.  0.
    9900012    2    3    3    0    0  0.40204781318E+02 -0.16118513465E+02  0.27188752914E+01  0.47787271895E+02  0.20000003880E+02 0.  0.
        -12    1    3    3    0    0 -0.40204781318E+02  0.16118513465E+02 -0.27188752914E+01  0.43400728105E+02  0.00000000000E+00 0.  1.
         11    1    4    4    0    0  0.82636602003E+01 -0.53851880161E+01 -0.71455091566E+01  0.12179763185E+02  0.51100000000E-03 0. -1.
        -11    1    4    4    0    0  0.14976256999E+02 -0.79582553682E+01  0.59882939922E+01  0.17985598889E+02  0.51100000000E-03 0.  1.
        -12    1    4    4    0    0  0.16964864119E+02 -0.27750700810E+01  0.38760904558E+01  0.17621909821E+02  0.00000000000E+00 0.  1.
</event>
<event>
 8    1  0.2994958E-010  0.9118800E+02  0.7816164E-02  0.1184000E+00
        -11   -1    0    0    0    0  0.00000000000E+00  0.00000000000E+00  0.45593999997E+02  0.45594000000E+02  0.51100000000E-03 0.  1.
         11   -1    0    0    0    0 -0.00000000000E+00 -0.00000000000E+00 -0.45593999997E+02  0.45594000000E+02  0.51100000000E-03 0. -1.
         23    2    1    2    0    0  0.00000000000E+00  0.44408920985E-15 -0.44408920985E-15  0.91188000000E+02  0.91188000000E+02 0.  0.
    9900012    2    3    3    0    0  0.43217456244E+02 -0.11226126035E+01 -0.38229185678E+01  0.47787268558E+02  0.19999988665E+02 0.  0.
        -12    1    3    3    0    0 -0.43217456244E+02  0.11226126035E+01  0.38229185678E+01  0.43400731442E+02  0.00000000000E+00 0.  1.
         11    1    4    4    0    0  0.20747513994E+02  0.25863842787E+01 -0.47654733409E+01  0.21444310597E+02  0.51100000000E-03 0. -1.
        -11    1    4    4    0    0  0.15676803479E+02  0.18894612834E+01 -0.39432238128E+01  0.16275172674E+02  0.51100000000E-03 0.  1.
        -12    1    4    4    0    0  0.67931387715E+01 -0.55984581656E+01  0.48857785859E+01  0.10067785287E+02  0.00000000000E+00 0.  1.
</event>
<event>
 8    1  0.2994958E-010  0.9118800E+02  0.7816164E-02  0.1184000E+00
        -11   -1    0    0    0    0  0.00000000000E+00  0.00000000000E+00  0.45593999997E+02  0.45594000000E+02  0.51100000000E-03 0. -1.
         11   -1    0    0    0    0 -0.00000000000E+00 -0.00000000000E+00 -0.45593999997E+02  0.45594000000E+02  0.51100000000E-03 0.  1.
         23    2    1    2    0    0  0.35527136788E-14 -0.61062266354E-15 -0.71054273576E-14  0.91188000000E+02  0.91188000000E+02 0.  0.
    9900012    2    3    3    0    0  0.20208157060E+02  0.13138234307E+00  0.38408810677E+02  0.47787267164E+02  0.19999982310E+02 0.  0.
        -12    1    3    3    0    0 -0.20208157060E+02 -0.13138234307E+00 -0.38408810677E+02  0.43400732836E+02  0.00000000000E+00 0.  1.
         11    1    4    4    0    0  0.85114084490E+01  0.82018059013E+01  0.10282515121E+02  0.15666646460E+02  0.51100000000E-03 0. -1.
        -11    1    4    4    0    0  0.39066189075E+01  0.48595820266E+00  0.68030466161E+01  0.78599790193E+01  0.51100000000E-03 0.  1.
        -12    1    4    4    0    0  0.77901297034E+01 -0.85563817608E+01  0.21323248940E+02  0.24260641685E+02  0.00000000000E+00 0.  1.
</event>
<event>
 8    1  0.2994958E-010  0.9118800E+02  0.7816164E-02  0.1184000E+00
        -11   -1    0    0    0    0  0.00000000000E+00  0.00000000000E+00  0.45593999997E+02  0.45594000000E+02  0.51100000000E-03 0. -1.
         11   -1    0    0    0    0 -0.00000000000E+00 -0.00000000000E+00 -0.45593999997E+02  0.45594000000E+02  0.51100000000E-03 0.  1.
         23    2    1    2    0    0 -0.35527136788E-14  0.17763568394E-14  0.00000000000E+00  0.91188000000E+02  0.91188000000E+02 0.  0.
    9900012    2    3    3    0    0  0.25580763631E+02 -0.10046688348E+02 -0.33590348196E+02  0.47787275275E+02  0.20000019290E+02 0.  0.
         12    1    3    3    0    0 -0.25580763631E+02  0.10046688348E+02  0.33590348196E+02  0.43400724725E+02  0.00000000000E+00 0. -1.
         11    1    4    4    0    0  0.16537123342E+02 -0.52262757867E+01 -0.19995058664E+02  0.26468713196E+02  0.51100000000E-03 0.  1.
        -11    1    4    4    0    0  0.80437925627E+01  0.29494306451E+01 -0.65807454422E+01  0.10803145410E+02  0.51100000000E-03 0. -1.
         12    1    4    4    0    0  0.99984772644E+00 -0.77698432066E+01 -0.70145440892E+01  0.10515416668E+02  0.00000000000E+00 0. -1.
</event>
<event>
 8    1  0.2994958E-010  0.9118800E+02  0.7816164E-02  0.1184000E+00
        -11   -1    0    0    0    0  0.00000000000E+00  0.00000000000E+00  0.45593999997E+02  0.45594000000E+02  0.51100000000E-03 0. -1.
         11   -1    0    0    0    0 -0.00000000000E+00 -0.00000000000E+00 -0.45593999997E+02  0.45594000000E+02  0.51100000000E-03 0.  1.
         23    2    1    2    0    0  0.00000000000E+00  0.00000000000E+00  0.00000000000E+00  0.91188000000E+02  0.91188000000E+02 0.  0.
    9900012    2    3    3    0    0  0.16615559066E+02  0.12198168750E+02 -0.38193597249E+02  0.47787274261E+02  0.20000014663E+02 0.  0.
         12    1    3    3    0    0 -0.16615559066E+02 -0.12198168750E+02  0.38193597249E+02  0.43400725739E+02  0.00000000000E+00 0. -1.
         11    1    4    4    0    0 -0.12736954850E+01 -0.23149245573E+00 -0.11789568949E+02  0.11860431072E+02  0.51100000000E-03 0. -1.
        -11    1    4    4    0    0 -0.26173913533E+00 -0.47382975073E+00  0.67576518378E+00  0.86584112421E+00  0.51100000000E-03 0.  1.
        -12    1    4    4    0    0  0.18150993686E+02  0.12903490956E+02 -0.27079793483E+02  0.35061002064E+02  0.00000000000E+00 0.  1.
</event>
<event>
 8    1  0.2994958E-010  0.9118800E+02  0.7816164E-02  0.1184000E+00
        -11   -1    0    0    0    0  0.00000000000E+00  0.00000000000E+00  0.45593999997E+02  0.45594000000E+02  0.51100000000E-03 0. -1.
         11   -1    0    0    0    0 -0.00000000000E+00 -0.00000000000E+00 -0.45593999997E+02  0.45594000000E+02  0.51100000000E-03 0.  1.
         23    2    1    2    0    0  0.00000000000E+00  0.00000000000E+00  0.00000000000E+00  0.91188000000E+02  0.91188000000E+02 0.  0.
    9900012    2    3    3    0    0  0.31607774700E+02  0.22595114071E+02  0.19339920794E+02  0.47787272613E+02  0.20000007152E+02 0.  0.
        -12    1    3    3    0    0 -0.31607774700E+02 -0.22595114071E+02 -0.19339920794E+02  0.43400727387E+02  0.00000000000E+00 0.  1.
         11    1    4    4    0    0  0.14665494392E+02  0.21196751739E+02  0.14772973415E+02  0.29708917076E+02  0.51100000000E-03 0. -1.
        -11    1    4    4    0    0  0.37347166275E+01  0.20650423467E+01  0.11080110487E+01  0.44091038689E+01  0.51100000000E-03 0.  1.
        -12    1    4    4    0    0  0.13207563681E+02 -0.66668001522E+00  0.34589363312E+01  0.13669251668E+02  0.00000000000E+00 0.  1.
</event>
<event>
 8    1  0.2994958E-010  0.9118800E+02  0.7816164E-02  0.1184000E+00
        -11   -1    0    0    0    0  0.00000000000E+00  0.00000000000E+00  0.45593999997E+02  0.45594000000E+02  0.51100000000E-03 0. -1.
         11   -1    0    0    0    0 -0.00000000000E+00 -0.00000000000E+00 -0.45593999997E+02  0.45594000000E+02  0.51100000000E-03 0.  1.
         23    2    1    2    0    0  0.00000000000E+00  0.71054273576E-14  0.00000000000E+00  0.91188000000E+02  0.91188000000E+02 0.  0.
    9900012    2    3    3    0    0 -0.98416780715E+01 -0.37920502794E+02  0.18676190476E+02  0.47787271318E+02  0.20000001249E+02 0.  0.
        -12    1    3    3    0    0  0.98416780715E+01  0.37920502794E+02 -0.18676190476E+02  0.43400728682E+02  0.00000000000E+00 0.  1.
         11    1    4    4    0    0 -0.49629375430E+01 -0.10164400444E+02  0.20055572562E+01  0.11487734572E+02  0.51100000000E-03 0. -1.
        -11    1    4    4    0    0 -0.92279529235E+01 -0.10147535959E+02  0.44134715410E+01  0.14408550673E+02  0.51100000000E-03 0.  1.
         12    1    4    4    0    0  0.43492123950E+01 -0.17608566391E+02  0.12257161679E+02  0.21890986073E+02  0.00000000000E+00 0. -1.
</event>
<event>
 8    1  0.2994958E-010  0.9118800E+02  0.7816164E-02  0.1184000E+00
        -11   -1    0    0    0    0  0.00000000000E+00  0.00000000000E+00  0.45593999997E+02  0.45594000000E+02  0.51100000000E-03 0. -1.
         11   -1    0    0    0    0 -0.00000000000E+00 -0.00000000000E+00 -0.45593999997E+02  0.45594000000E+02  0.51100000000E-03 0.  1.
         23    2    1    2    0    0  0.00000000000E+00  0.17763568394E-14  0.00000000000E+00  0.91188000000E+02  0.91188000000E+02 0.  0.
    9900012    2    3    3    0    0  0.17391874255E+02 -0.15460513413E+02 -0.36634936353E+02  0.47787270436E+02  0.19999997225E+02 0.  0.
         12    1    3    3    0    0 -0.17391874255E+02  0.15460513413E+02  0.36634936353E+02  0.43400729564E+02  0.00000000000E+00 0. -1.
         11    1    4    4    0    0  0.12237229153E+01 -0.96139543432E+01 -0.15339265518E+02  0.18144384332E+02  0.51100000000E-03 0. -1.
        -11    1    4    4    0    0  0.12458369804E+01 -0.97532404961E+00 -0.10436044601E+02  0.10555301699E+02  0.51100000000E-03 0.  1.
         12    1    4    4    0    0  0.14922314360E+02 -0.48712350202E+01 -0.10859626235E+02  0.19087584405E+02  0.00000000000E+00 0. -1.
</event>
<event>
 8    1  0.2994958E-010  0.9118800E+02  0.7816164E-02  0.1184000E+00
        -11   -1    0    0    0    0  0.00000000000E+00  0.00000000000E+00  0.45593999997E+02  0.45594000000E+02  0.51100000000E-03 0. -1.
         11   -1    0    0    0    0 -0.00000000000E+00 -0.00000000000E+00 -0.45593999997E+02  0.45594000000E+02  0.51100000000E-03 0.  1.
         23    2    1    2    0    0  0.00000000000E+00  0.00000000000E+00 -0.35527136788E-14  0.91188000000E+02  0.91188000000E+02 0.  0.
    9900012    2    3    3    0    0 -0.29437727439E+02 -0.17403854165E+02  0.26723585777E+02  0.47787262986E+02  0.19999963259E+02 0.  0.
        -12    1    3    3    0    0  0.29437727439E+02  0.17403854165E+02 -0.26723585777E+02  0.43400737014E+02  0.00000000000E+00 0.  1.
         11    1    4    4    0    0 -0.43728711899E+01 -0.56127175722E+01 -0.98366117017E+00  0.71827703950E+01  0.51100000000E-03 0. -1.
        -11    1    4    4    0    0 -0.64315920040E+01  0.10016488735E+01  0.31569911933E+01  0.72343119803E+01  0.51100000000E-03 0.  1.
         12    1    4    4    0    0 -0.18633264245E+02 -0.12792785466E+02  0.24550255754E+02  0.33370180611E+02  0.00000000000E+00 0. -1.
</event>
<event>
 8    1  0.2994958E-010  0.9118800E+02  0.7816164E-02  0.1184000E+00
        -11   -1    0    0    0    0  0.00000000000E+00  0.00000000000E+00  0.45593999997E+02  0.45594000000E+02  0.51100000000E-03 0. -1.
         11   -1    0    0    0    0 -0.00000000000E+00 -0.00000000000E+00 -0.45593999997E+02  0.45594000000E+02  0.51100000000E-03 0.  1.
         23    2    1    2    0    0 -0.35527136788E-14  0.35527136788E-14 -0.71054273576E-14  0.91188000000E+02  0.91188000000E+02 0.  0.
    9900012    2    3    3    0    0 -0.12382010057E+02  0.18086463837E+02 -0.37459165621E+02  0.47787269175E+02  0.19999991476E+02 0.  0.
         12    1    3    3    0    0  0.12382010057E+02 -0.18086463837E+02  0.37459165621E+02  0.43400730825E+02  0.00000000000E+00 0. -1.
         11    1    4    4    0    0  0.13463305313E+01  0.65617195600E+00 -0.13418423104E-01  0.14977809755E+01  0.51100000000E-03 0. -1.
        -11    1    4    4    0    0 -0.69406622936E+01  0.19006989004E+02 -0.28387887921E+02  0.34861305267E+02  0.51100000000E-03 0.  1.
         12    1    4    4    0    0 -0.67876782949E+01 -0.15766971232E+01 -0.90578592766E+01  0.11428182932E+02  0.00000000000E+00 0. -1.
</event>
<event>
 8    1  0.2994958E-010  0.9118800E+02  0.7816164E-02  0.1184000E+00
        -11   -1    0    0    0    0  0.00000000000E+00  0.00000000000E+00  0.45593999997E+02  0.45594000000E+02  0.51100000000E-03 0. -1.
         11   -1    0    0    0    0 -0.00000000000E+00 -0.00000000000E+00 -0.45593999997E+02  0.45594000000E+02  0.51100000000E-03 0.  1.
         23    2    1    2    0    0  0.00000000000E+00  0.00000000000E+00  0.35527136788E-14  0.91188000000E+02  0.91188000000E+02 0.  0.
    9900012    2    3    3    0    0  0.27514252280E+02  0.17254249086E+02  0.28790277600E+02  0.47787271039E+02  0.19999999974E+02 0.  0.
        -12    1    3    3    0    0 -0.27514252280E+02 -0.17254249086E+02 -0.28790277600E+02  0.43400728961E+02  0.00000000000E+00 0.  1.
         11    1    4    4    0    0  0.11514498376E+02  0.36471420268E+01  0.77710877465E+01  0.14362281255E+02  0.51100000000E-03 0. -1.
        -11    1    4    4    0    0  0.89562763559E+01 -0.14358415557E+01  0.50417424044E+01  0.10377653582E+02  0.51100000000E-03 0.  1.
         12    1    4    4    0    0  0.70434775484E+01  0.15042948615E+02  0.15977447449E+02  0.23047336202E+02  0.00000000000E+00 0. -1.
</event>
<event>
 8    1  0.2994958E-010  0.9118800E+02  0.7816164E-02  0.1184000E+00
        -11   -1    0    0    0    0  0.00000000000E+00  0.00000000000E+00  0.45593999997E+02  0.45594000000E+02  0.51100000000E-03 0. -1.
         11   -1    0    0    0    0 -0.00000000000E+00 -0.00000000000E+00 -0.45593999997E+02  0.45594000000E+02  0.51100000000E-03 0.  1.
         23    2    1    2    0    0  0.00000000000E+00 -0.71054273576E-14  0.00000000000E+00  0.91188000000E+02  0.91188000000E+02 0.  0.
    9900012    2    3    3    0    0 -0.84956377572E+01  0.33114201900E+02 -0.26737547379E+02  0.47787278022E+02  0.20000031812E+02 0.  0.
         12    1    3    3    0    0  0.84956377572E+01 -0.33114201900E+02  0.26737547379E+02  0.43400721978E+02  0.00000000000E+00 0. -1.
         11    1    4    4    0    0  0.21949353784E+01  0.27116561677E+01 -0.33276086945E+01  0.48211824661E+01  0.51100000000E-03 0. -1.
        -11    1    4    4    0    0 -0.68766749610E+01  0.23973394189E+02 -0.25011469090E+02  0.35321181659E+02  0.51100000000E-03 0.  1.
         12    1    4    4    0    0 -0.38138981746E+01  0.64291515430E+01  0.16015304054E+01  0.76449138967E+01  0.00000000000E+00 0. -1.
</event>
<event>
 8    1  0.2994958E-010  0.9118800E+02  0.7816164E-02  0.1184000E+00
        -11   -1    0    0    0    0  0.00000000000E+00  0.00000000000E+00  0.45593999997E+02  0.45594000000E+02  0.51100000000E-03 0. -1.
         11   -1    0    0    0    0 -0.00000000000E+00 -0.00000000000E+00 -0.45593999997E+02  0.45594000000E+02  0.51100000000E-03 0.  1.
         23    2    1    2    0    0 -0.17763568394E-14  0.00000000000E+00  0.00000000000E+00  0.91188000000E+02  0.91188000000E+02 0.  0.
    9900012    2    3    3    0    0  0.14338073737E+02  0.25792940135E+01 -0.40882640352E+02  0.47787269611E+02  0.19999993466E+02 0.  0.
         12    1    3    3    0    0 -0.14338073737E+02 -0.25792940135E+01  0.40882640352E+02  0.43400730389E+02  0.00000000000E+00 0. -1.
         11    1    4    4    0    0 -0.67597687106E+00  0.54066631731E+00 -0.26505259497E+01  0.27882885195E+01  0.51100000000E-03 0. -1.
        -11    1    4    4    0    0  0.18871955030E+02  0.35671576056E+01 -0.27966743292E+02  0.33926597687E+02  0.51100000000E-03 0.  1.
        -12    1    4    4    0    0 -0.38579044219E+01 -0.15285299094E+01 -0.10265371111E+02  0.11072383405E+02  0.00000000000E+00 0.  1.
</event>
<event>
 8    1  0.2994958E-010  0.9118800E+02  0.7816164E-02  0.1184000E+00
        -11   -1    0    0    0    0  0.00000000000E+00  0.00000000000E+00  0.45593999997E+02  0.45594000000E+02  0.51100000000E-03 0. -1.
         11   -1    0    0    0    0 -0.00000000000E+00 -0.00000000000E+00 -0.45593999997E+02  0.45594000000E+02  0.51100000000E-03 0.  1.
         23    2    1    2    0    0  0.88817841970E-15 -0.35527136788E-14 -0.35527136788E-14  0.91188000000E+02  0.91188000000E+02 0.  0.
    9900012    2    3    3    0    0 -0.22623023288E+01  0.31308145027E+02 -0.29971745898E+02  0.47787268335E+02  0.19999987646E+02 0.  0.
         12    1    3    3    0    0  0.22623023288E+01 -0.31308145027E+02  0.29971745898E+02  0.43400731665E+02  0.00000000000E+00 0. -1.
         11    1    4    4    0    0 -0.84827392009E+01  0.16649830624E+02 -0.24203203889E+02  0.30577259572E+02  0.51100000000E-03 0. -1.
        -11    1    4    4    0    0  0.79142658895E+00  0.48165521631E+01 -0.26083023343E+01  0.55343267083E+01  0.51100000000E-03 0.  1.
         12    1    4    4    0    0  0.54290102831E+01  0.98417622398E+01 -0.31602396749E+01  0.11675682055E+02  0.00000000000E+00 0. -1.
</event>
<event>
 8    1  0.3919092E-010  0.9118800E+02  0.7816164E-02  0.1184000E+00
        -11   -1    0    0    0    0  0.00000000000E+00  0.00000000000E+00  0.45593999997E+02  0.45594000000E+02  0.51100000000E-03 0. -1.
         11   -1    0    0    0    0 -0.00000000000E+00 -0.00000000000E+00 -0.45593999997E+02  0.45594000000E+02  0.51100000000E-03 0.  1.
         23    2    1    2    0    0  0.35527136788E-14 -0.17763568394E-14  0.00000000000E+00  0.91188000000E+02  0.91188000000E+02 0.  0.
    9900012    2    3    3    0    0  0.17064349636E+02  0.15417432401E+02  0.36806713729E+02  0.47787269293E+02  0.19999992016E+02 0.  0.
        -12    1    3    3    0    0 -0.17064349636E+02 -0.15417432401E+02 -0.36806713729E+02  0.43400730707E+02  0.00000000000E+00 0.  1.
         11    1    4    4    0    0  0.66147331559E+01  0.29902497985E+00  0.47361828167E+01  0.81409789704E+01  0.51100000000E-03 0. -1.
        -11    1    4    4    0    0  0.57204450578E+01  0.94145207034E+01  0.60018352729E+01  0.12545067502E+02  0.51100000000E-03 0.  1.
         12    1    4    4    0    0  0.47291714222E+01  0.57038867176E+01  0.26068695640E+02  0.27101222821E+02  0.00000000000E+00 0. -1.
</event>
<event>
 8    1  0.2994958E-010  0.9118800E+02  0.7816164E-02  0.1184000E+00
        -11   -1    0    0    0    0  0.00000000000E+00  0.00000000000E+00  0.45593999997E+02  0.45594000000E+02  0.51100000000E-03 0. -1.
         11   -1    0    0    0    0 -0.00000000000E+00 -0.00000000000E+00 -0.45593999997E+02  0.45594000000E+02  0.51100000000E-03 0.  1.
         23    2    1    2    0    0  0.00000000000E+00 -0.17763568394E-14  0.71054273576E-14  0.91188000000E+02  0.91188000000E+02 0.  0.
    9900012    2    3    3    0    0 -0.21776544893E+01  0.14998645886E+02  0.40668437024E+02  0.47787270427E+02  0.19999997184E+02 0.  0.
        -12    1    3    3    0    0  0.21776544893E+01 -0.14998645886E+02 -0.40668437024E+02  0.43400729573E+02  0.00000000000E+00 0.  1.
         11    1    4    4    0    0 -0.10956844532E+01  0.37534270833E+01  0.26204640708E+02  0.26494752956E+02  0.51100000000E-03 0. -1.
        -11    1    4    4    0    0  0.34641795212E+01  0.76539739445E+00  0.63736238306E+01  0.72944810591E+01  0.51100000000E-03 0.  1.
        -12    1    4    4    0    0 -0.45461495573E+01  0.10479821408E+02  0.80901724854E+01  0.13998036412E+02  0.00000000000E+00 0.  1.
</event>
<event>
 8    1  0.2994958E-010  0.9118800E+02  0.7816164E-02  0.1184000E+00
        -11   -1    0    0    0    0  0.00000000000E+00  0.00000000000E+00  0.45593999997E+02  0.45594000000E+02  0.51100000000E-03 0.  1.
         11   -1    0    0    0    0 -0.00000000000E+00 -0.00000000000E+00 -0.45593999997E+02  0.45594000000E+02  0.51100000000E-03 0. -1.
         23    2    1    2    0    0  0.00000000000E+00  0.00000000000E+00  0.00000000000E+00  0.91188000000E+02  0.91188000000E+02 0.  0.
    9900012    2    3    3    0    0  0.29743798382E+02  0.21514288436E+02  0.23153082084E+02  0.47787270062E+02  0.19999995523E+02 0.  0.
        -12    1    3    3    0    0 -0.29743798382E+02 -0.21514288436E+02 -0.23153082084E+02  0.43400729938E+02  0.00000000000E+00 0.  1.
         11    1    4    4    0    0  0.27699398547E+02  0.13645110852E+02  0.12979493728E+02  0.33494969589E+02  0.51100000000E-03 0. -1.
        -11    1    4    4    0    0  0.33258680858E-01  0.67262431367E+00 -0.78140959445E+00  0.10315671682E+01  0.51100000000E-03 0.  1.
         12    1    4    4    0    0  0.20111411543E+01  0.71965532699E+01  0.10954997950E+02  0.13260733305E+02  0.00000000000E+00 0. -1.
</event>
<event>
 8    1  0.2994958E-010  0.9118800E+02  0.7816164E-02  0.1184000E+00
        -11   -1    0    0    0    0  0.00000000000E+00  0.00000000000E+00  0.45593999997E+02  0.45594000000E+02  0.51100000000E-03 0. -1.
         11   -1    0    0    0    0 -0.00000000000E+00 -0.00000000000E+00 -0.45593999997E+02  0.45594000000E+02  0.51100000000E-03 0.  1.
         23    2    1    2    0    0  0.00000000000E+00  0.00000000000E+00  0.35527136788E-14  0.91188000000E+02  0.91188000000E+02 0.  0.
    9900012    2    3    3    0    0 -0.33755704676E+02  0.89580667160E+01 -0.25766813004E+02  0.47787271782E+02  0.20000003363E+02 0.  0.
         12    1    3    3    0    0  0.33755704676E+02 -0.89580667160E+01  0.25766813004E+02  0.43400728218E+02  0.00000000000E+00 0. -1.
         11    1    4    4    0    0 -0.17085664536E+02 -0.17562470884E+01 -0.13469696979E+02  0.21827438545E+02  0.51100000000E-03 0. -1.
        -11    1    4    4    0    0 -0.15231302243E+02  0.36668359199E+01 -0.82256383128E+01  0.17694614424E+02  0.51100000000E-03 0.  1.
        -12    1    4    4    0    0 -0.14387378966E+01  0.70474778845E+01 -0.40714777120E+01  0.82652188130E+01  0.00000000000E+00 0.  1.
</event>
<event>
 8    1  0.2994958E-010  0.9118800E+02  0.7816164E-02  0.1184000E+00
        -11   -1    0    0    0    0  0.00000000000E+00  0.00000000000E+00  0.45593999997E+02  0.45594000000E+02  0.51100000000E-03 0. -1.
         11   -1    0    0    0    0 -0.00000000000E+00 -0.00000000000E+00 -0.45593999997E+02  0.45594000000E+02  0.51100000000E-03 0.  1.
         23    2    1    2    0    0 -0.35527136788E-14  0.00000000000E+00  0.00000000000E+00  0.91188000000E+02  0.91188000000E+02 0.  0.
    9900012    2    3    3    0    0  0.27484588542E+02  0.98881190032E+01  0.32100558893E+02  0.47787269753E+02  0.19999994111E+02 0.  0.
        -12    1    3    3    0    0 -0.27484588542E+02 -0.98881190032E+01 -0.32100558893E+02  0.43400730247E+02  0.00000000000E+00 0.  1.
         11    1    4    4    0    0  0.14770459640E+02  0.33712126010E+01  0.56921717576E+01  0.16184324884E+02  0.51100000000E-03 0. -1.
        -11    1    4    4    0    0  0.51878933982E+01  0.27433165746E+01  0.27303696711E+01  0.64726302645E+01  0.51100000000E-03 0.  1.
         12    1    4    4    0    0  0.75262355033E+01  0.37735898276E+01  0.23678017465E+02  0.25130314604E+02  0.00000000000E+00 0. -1.
</event>
<event>
 8    1  0.2994958E-010  0.9118800E+02  0.7816164E-02  0.1184000E+00
        -11   -1    0    0    0    0  0.00000000000E+00  0.00000000000E+00  0.45593999997E+02  0.45594000000E+02  0.51100000000E-03 0. -1.
         11   -1    0    0    0    0 -0.00000000000E+00 -0.00000000000E+00 -0.45593999997E+02  0.45594000000E+02  0.51100000000E-03 0.  1.
         23    2    1    2    0    0  0.00000000000E+00  0.00000000000E+00  0.00000000000E+00  0.91188000000E+02  0.91188000000E+02 0.  0.
    9900012    2    3    3    0    0  0.28361293662E+01 -0.18620443092E+02 -0.39100616473E+02  0.47787277203E+02  0.20000028080E+02 0.  0.
         12    1    3    3    0    0 -0.28361293662E+01  0.18620443092E+02  0.39100616473E+02  0.43400722797E+02  0.00000000000E+00 0. -1.
         11    1    4    4    0    0  0.52235367531E+00  0.17950377225E+01  0.12770737927E+00  0.18738525084E+01  0.51100000000E-03 0. -1.
        -11    1    4    4    0    0 -0.45638785736E+00 -0.93091532789E+01 -0.68371551283E+01  0.11559209106E+02  0.51100000000E-03 0.  1.
         12    1    4    4    0    0  0.27701635482E+01 -0.11106327536E+02 -0.32391168724E+02  0.34354215589E+02  0.00000000000E+00 0. -1.
</event>
<event>
 8    1  0.2994958E-010  0.9118800E+02  0.7816164E-02  0.1184000E+00
        -11   -1    0    0    0    0  0.00000000000E+00  0.00000000000E+00  0.45593999997E+02  0.45594000000E+02  0.51100000000E-03 0. -1.
         11   -1    0    0    0    0 -0.00000000000E+00 -0.00000000000E+00 -0.45593999997E+02  0.45594000000E+02  0.51100000000E-03 0.  1.
         23    2    1    2    0    0  0.00000000000E+00  0.00000000000E+00  0.00000000000E+00  0.91188000000E+02  0.91188000000E+02 0.  0.
    9900012    2    3    3    0    0  0.13571197263E+02 -0.10518737290E+02 -0.39859787300E+02  0.47787264143E+02  0.19999968534E+02 0.  0.
         12    1    3    3    0    0 -0.13571197263E+02  0.10518737290E+02  0.39859787300E+02  0.43400735857E+02  0.00000000000E+00 0. -1.
         11    1    4    4    0    0 -0.16446176942E+01 -0.47858420212E+01 -0.80386647699E+01  0.94989042924E+01  0.51100000000E-03 0. -1.
        -11    1    4    4    0    0  0.12590153236E+01  0.38631477001E+01 -0.39023812977E+01  0.56336142743E+01  0.51100000000E-03 0.  1.
        -12    1    4    4    0    0  0.13956799634E+02 -0.95960429693E+01 -0.27918741232E+02  0.32654745577E+02  0.00000000000E+00 0.  1.
</event>
<event>
 8    1  0.2994958E-010  0.9118800E+02  0.7816164E-02  0.1184000E+00
        -11   -1    0    0    0    0  0.00000000000E+00  0.00000000000E+00  0.45593999997E+02  0.45594000000E+02  0.51100000000E-03 0. -1.
         11   -1    0    0    0    0 -0.00000000000E+00 -0.00000000000E+00 -0.45593999997E+02  0.45594000000E+02  0.51100000000E-03 0.  1.
         23    2    1    2    0    0  0.00000000000E+00  0.17763568394E-14  0.00000000000E+00  0.91188000000E+02  0.91188000000E+02 0.  0.
    9900012    2    3    3    0    0 -0.74854137496E+01  0.14984350462E+02 -0.40038247556E+02  0.47787269072E+02  0.19999991005E+02 0.  0.
         12    1    3    3    0    0  0.74854137496E+01 -0.14984350462E+02  0.40038247556E+02  0.43400730928E+02  0.00000000000E+00 0. -1.
         11    1    4    4    0    0  0.19108291961E+01  0.67722146339E+01 -0.17873641919E+02  0.19208884272E+02  0.51100000000E-03 0. -1.
        -11    1    4    4    0    0 -0.58783769798E+01  0.77452546779E+01 -0.22966660447E+02  0.24940163959E+02  0.51100000000E-03 0.  1.
         12    1    4    4    0    0 -0.35178659659E+01  0.46688115024E+00  0.80205481092E+00  0.36382208402E+01  0.00000000000E+00 0. -1.
</event>
<event>
 8    1  0.3406717E-010  0.9118800E+02  0.7816164E-02  0.1184000E+00
        -11   -1    0    0    0    0  0.00000000000E+00  0.00000000000E+00  0.45593999997E+02  0.45594000000E+02  0.51100000000E-03 0. -1.
         11   -1    0    0    0    0 -0.00000000000E+00 -0.00000000000E+00 -0.45593999997E+02  0.45594000000E+02  0.51100000000E-03 0.  1.
         23    2    1    2    0    0  0.44408920985E-15  0.00000000000E+00 -0.71054273576E-14  0.91188000000E+02  0.91188000000E+02 0.  0.
    9900012    2    3    3    0    0  0.16038164467E+01 -0.94003431599E+01  0.42340090675E+02  0.47787286215E+02  0.20000069169E+02 0.  0.
        -12    1    3    3    0    0 -0.16038164467E+01  0.94003431599E+01 -0.42340090675E+02  0.43400713785E+02  0.00000000000E+00 0.  1.
         11    1    4    4    0    0  0.37559356315E+01 -0.89108966519E+01  0.24709904742E+02  0.26534704149E+02  0.51100000000E-03 0. -1.
        -11    1    4    4    0    0 -0.20093060501E+01 -0.74096728800E+00 -0.11766433068E+01  0.24435288124E+01  0.51100000000E-03 0.  1.
         12    1    4    4    0    0 -0.14281313475E+00  0.25152078004E+00  0.18806829239E+02  0.18809053254E+02  0.00000000000E+00 0. -1.
</event>
<event>
 8    1  0.2994958E-010  0.9118800E+02  0.7816164E-02  0.1184000E+00
        -11   -1    0    0    0    0  0.00000000000E+00  0.00000000000E+00  0.45593999997E+02  0.45594000000E+02  0.51100000000E-03 0. -1.
         11   -1    0    0    0    0 -0.00000000000E+00 -0.00000000000E+00 -0.45593999997E+02  0.45594000000E+02  0.51100000000E-03 0.  1.
         23    2    1    2    0    0  0.00000000000E+00  0.00000000000E+00  0.00000000000E+00  0.91188000000E+02  0.91188000000E+02 0.  0.
    9900012    2    3    3    0    0 -0.33607310213E+02 -0.16927788202E+02  0.21624665742E+02  0.47787222569E+02  0.19999778980E+02 0.  0.
        -12    1    3    3    0    0  0.33607310213E+02  0.16927788202E+02 -0.21624665742E+02  0.43400777431E+02  0.00000000000E+00 0.  1.
         11    1    4    4    0    0 -0.10361141289E+02 -0.27895659791E+01  0.10463897392E+02  0.14987597408E+02  0.51100000000E-03 0. -1.
        -11    1    4    4    0    0 -0.10168030400E+02 -0.68660516292E-01  0.87972670163E+01  0.13445648504E+02  0.51100000000E-03 0.  1.
        -12    1    4    4    0    0 -0.13078138523E+02 -0.14069561707E+02  0.23635013328E+01  0.19353976656E+02  0.00000000000E+00 0.  1.
</event>
<event>
 8    1  0.2994958E-010  0.9118800E+02  0.7816164E-02  0.1184000E+00
        -11   -1    0    0    0    0  0.00000000000E+00  0.00000000000E+00  0.45593999997E+02  0.45594000000E+02  0.51100000000E-03 0. -1.
         11   -1    0    0    0    0 -0.00000000000E+00 -0.00000000000E+00 -0.45593999997E+02  0.45594000000E+02  0.51100000000E-03 0.  1.
         23    2    1    2    0    0  0.35527136788E-14  0.00000000000E+00 -0.71054273576E-14  0.91188000000E+02  0.91188000000E+02 0.  0.
    9900012    2    3    3    0    0  0.23467952484E+02 -0.65483301726E+01 -0.35916538650E+02  0.47787272236E+02  0.20000005433E+02 0.  0.
         12    1    3    3    0    0 -0.23467952484E+02  0.65483301726E+01  0.35916538650E+02  0.43400727764E+02  0.00000000000E+00 0. -1.
         11    1    4    4    0    0 -0.25536196617E+00  0.17858078648E+01 -0.31250865262E+01  0.36083909878E+01  0.51100000000E-03 0.  1.
        -11    1    4    4    0    0  0.30231810121E+01 -0.43734575294E+01 -0.17088499850E+02  0.17896468411E+02  0.51100000000E-03 0. -1.
         12    1    4    4    0    0  0.20700133438E+02 -0.39606805081E+01 -0.15702952274E+02  0.26282412837E+02  0.00000000000E+00 0. -1.
</event>
<event>
 8    1  0.2994958E-010  0.9118800E+02  0.7816164E-02  0.1184000E+00
        -11   -1    0    0    0    0  0.00000000000E+00  0.00000000000E+00  0.45593999997E+02  0.45594000000E+02  0.51100000000E-03 0. -1.
         11   -1    0    0    0    0 -0.00000000000E+00 -0.00000000000E+00 -0.45593999997E+02  0.45594000000E+02  0.51100000000E-03 0.  1.
         23    2    1    2    0    0  0.00000000000E+00  0.00000000000E+00  0.00000000000E+00  0.91188000000E+02  0.91188000000E+02 0.  0.
    9900012    2    3    3    0    0  0.10620993502E+02 -0.16551368968E+02  0.38689400384E+02  0.47787273972E+02  0.20000013347E+02 0.  0.
        -12    1    3    3    0    0 -0.10620993502E+02  0.16551368968E+02 -0.38689400384E+02  0.43400726028E+02  0.00000000000E+00 0.  1.
         11    1    4    4    0    0  0.59799471096E+01 -0.25147085498E+01  0.57438750337E+01  0.86646192754E+01  0.51100000000E-03 0. -1.
        -11    1    4    4    0    0  0.41117475713E+00  0.32569598329E+01  0.46459908646E+01  0.56887681803E+01  0.51100000000E-03 0.  1.
         12    1    4    4    0    0  0.42298716354E+01 -0.17293620251E+02  0.28299534486E+02  0.33433886516E+02  0.00000000000E+00 0. -1.
</event>
<event>
 8    1  0.2994958E-010  0.9118800E+02  0.7816164E-02  0.1184000E+00
        -11   -1    0    0    0    0  0.00000000000E+00  0.00000000000E+00  0.45593999997E+02  0.45594000000E+02  0.51100000000E-03 0. -1.
         11   -1    0    0    0    0 -0.00000000000E+00 -0.00000000000E+00 -0.45593999997E+02  0.45594000000E+02  0.51100000000E-03 0.  1.
         23    2    1    2    0    0 -0.55511151231E-16  0.00000000000E+00  0.00000000000E+00  0.91188000000E+02  0.91188000000E+02 0.  0.
    9900012    2    3    3    0    0 -0.29965030674E+00  0.40447115016E+02 -0.15734191817E+02  0.47787266186E+02  0.19999977849E+02 0.  0.
         12    1    3    3    0    0  0.29965030674E+00 -0.40447115016E+02  0.15734191817E+02  0.43400733814E+02  0.00000000000E+00 0. -1.
         11    1    4    4    0    0 -0.13894072126E+01  0.63944669124E+01 -0.49451035896E+01  0.82020551857E+01  0.51100000000E-03 0. -1.
        -11    1    4    4    0    0 -0.67223451478E+01  0.15975222761E+02 -0.97004676699E+01  0.19861941995E+02  0.51100000000E-03 0.  1.
         12    1    4    4    0    0  0.78121020537E+01  0.18077425343E+02 -0.10886205574E+01  0.19723269005E+02  0.00000000000E+00 0. -1.
</event>
<event>
 8    1  0.2994958E-010  0.9118800E+02  0.7816164E-02  0.1184000E+00
        -11   -1    0    0    0    0  0.00000000000E+00  0.00000000000E+00  0.45593999997E+02  0.45594000000E+02  0.51100000000E-03 0.  1.
         11   -1    0    0    0    0 -0.00000000000E+00 -0.00000000000E+00 -0.45593999997E+02  0.45594000000E+02  0.51100000000E-03 0. -1.
         23    2    1    2    0    0  0.00000000000E+00 -0.35527136788E-14  0.00000000000E+00  0.91188000000E+02  0.91188000000E+02 0.  0.
    9900012    2    3    3    0    0  0.21260410132E+02 -0.28170039827E+02 -0.25260004151E+02  0.47787262765E+02  0.19999962252E+02 0.  0.
         12    1    3    3    0    0 -0.21260410132E+02  0.28170039827E+02  0.25260004151E+02  0.43400737235E+02  0.00000000000E+00 0. -1.
         11    1    4    4    0    0  0.33377580529E+01 -0.25609888645E+01 -0.58780570486E+01  0.72284747846E+01  0.51100000000E-03 0. -1.
        -11    1    4    4    0    0  0.13207023672E+02 -0.16007080446E+02 -0.21247047876E+02  0.29699985562E+02  0.51100000000E-03 0.  1.
         12    1    4    4    0    0  0.47156284069E+01 -0.96019705162E+01  0.18651007741E+01  0.10858802418E+02  0.00000000000E+00 0. -1.
</event>
<event>
 8    1  0.2994958E-010  0.9118800E+02  0.7816164E-02  0.1184000E+00
        -11   -1    0    0    0    0  0.00000000000E+00  0.00000000000E+00  0.45593999997E+02  0.45594000000E+02  0.51100000000E-03 0. -1.
         11   -1    0    0    0    0 -0.00000000000E+00 -0.00000000000E+00 -0.45593999997E+02  0.45594000000E+02  0.51100000000E-03 0.  1.
         23    2    1    2    0    0  0.00000000000E+00  0.79797279895E-16  0.00000000000E+00  0.91188000000E+02  0.91188000000E+02 0.  0.
    9900012    2    3    3    0    0 -0.23252824181E+02 -0.16883564514E-01 -0.36645998202E+02  0.47787270725E+02  0.19999998542E+02 0.  0.
         12    1    3    3    0    0  0.23252824181E+02  0.16883564514E-01  0.36645998202E+02  0.43400729275E+02  0.00000000000E+00 0. -1.
         11    1    4    4    0    0  0.49409397787E+00  0.29358287708E+00  0.73115589998E+00  0.93000482573E+00  0.51100000000E-03 0.  1.
        -11    1    4    4    0    0 -0.73683084471E+01 -0.58845185423E+01 -0.64658540877E+01  0.11433581993E+02  0.51100000000E-03 0. -1.
        -12    1    4    4    0    0 -0.16378609711E+02  0.55740521007E+01 -0.30911300014E+02  0.35423683906E+02  0.00000000000E+00 0.  1.
</event>
<event>
 8    1  0.2994958E-010  0.9118800E+02  0.7816164E-02  0.1184000E+00
        -11   -1    0    0    0    0  0.00000000000E+00  0.00000000000E+00  0.45593999997E+02  0.45594000000E+02  0.51100000000E-03 0. -1.
         11   -1    0    0    0    0 -0.00000000000E+00 -0.00000000000E+00 -0.45593999997E+02  0.45594000000E+02  0.51100000000E-03 0.  1.
         23    2    1    2    0    0  0.00000000000E+00  0.44408920985E-15 -0.71054273576E-14  0.91188000000E+02  0.91188000000E+02 0.  0.
    9900012    2    3    3    0    0 -0.10874145996E+02 -0.11460873904E+01  0.42000745862E+02  0.47787271660E+02  0.20000002808E+02 0.  0.
        -12    1    3    3    0    0  0.10874145996E+02  0.11460873904E+01 -0.42000745862E+02  0.43400728340E+02  0.00000000000E+00 0.  1.
         11    1    4    4    0    0 -0.10524931997E+02  0.18050800224E+01  0.18107798567E+02  0.21022009338E+02  0.51100000000E-03 0. -1.
        -11    1    4    4    0    0 -0.22592507252E+01  0.14487822859E+01  0.31262077415E+00  0.27020207180E+01  0.51100000000E-03 0.  1.
         12    1    4    4    0    0  0.19100367261E+01 -0.43999496987E+01  0.23580326521E+02  0.24063241604E+02  0.00000000000E+00 0. -1.
</event>
<event>
 8    1  0.2994958E-010  0.9118800E+02  0.7816164E-02  0.1184000E+00
        -11   -1    0    0    0    0  0.00000000000E+00  0.00000000000E+00  0.45593999997E+02  0.45594000000E+02  0.51100000000E-03 0. -1.
         11   -1    0    0    0    0 -0.00000000000E+00 -0.00000000000E+00 -0.45593999997E+02  0.45594000000E+02  0.51100000000E-03 0.  1.
         23    2    1    2    0    0  0.00000000000E+00 -0.17763568394E-14  0.00000000000E+00  0.91188000000E+02  0.91188000000E+02 0.  0.
    9900012    2    3    3    0    0  0.18049379414E+02 -0.11874987257E+02 -0.37640772138E+02  0.47787272509E+02  0.20000006679E+02 0.  0.
         12    1    3    3    0    0 -0.18049379414E+02  0.11874987257E+02  0.37640772138E+02  0.43400727491E+02  0.00000000000E+00 0. -1.
         11    1    4    4    0    0  0.17483897520E+01 -0.90081735235E+00  0.77445489517E+00  0.21137926277E+01  0.51100000000E-03 0. -1.
        -11    1    4    4    0    0  0.32717834123E+01 -0.10162239858E+02 -0.11109835227E+02  0.15407924087E+02  0.51100000000E-03 0.  1.
        -12    1    4    4    0    0  0.13029206250E+02 -0.81193004653E+00 -0.27305391805E+02  0.30265555794E+02  0.00000000000E+00 0.  1.
</event>
<event>
 8    1  0.2994958E-010  0.9118800E+02  0.7816164E-02  0.1184000E+00
        -11   -1    0    0    0    0  0.00000000000E+00  0.00000000000E+00  0.45593999997E+02  0.45594000000E+02  0.51100000000E-03 0. -1.
         11   -1    0    0    0    0 -0.00000000000E+00 -0.00000000000E+00 -0.45593999997E+02  0.45594000000E+02  0.51100000000E-03 0.  1.
         23    2    1    2    0    0  0.71054273576E-14  0.00000000000E+00  0.00000000000E+00  0.91188000000E+02  0.91188000000E+02 0.  0.
    9900012    2    3    3    0    0  0.33331366467E+02 -0.96335219205E+01  0.26073713429E+02  0.47787271123E+02  0.20000000357E+02 0.  0.
        -12    1    3    3    0    0 -0.33331366467E+02  0.96335219205E+01 -0.26073713429E+02  0.43400728877E+02  0.00000000000E+00 0.  1.
         11    1    4    4    0    0  0.19268506013E+02 -0.52353141226E+01  0.12118009358E+02  0.23356583419E+02  0.51100000000E-03 0. -1.
        -11    1    4    4    0    0  0.84169702073E+01  0.39908293028E+01  0.36850882762E+01  0.10017583634E+02  0.51100000000E-03 0.  1.
         12    1    4    4    0    0  0.56458902467E+01 -0.83890371008E+01  0.10270615794E+02  0.14413104070E+02  0.00000000000E+00 0. -1.
</event>
<event>
 8    1  0.2994958E-010  0.9118800E+02  0.7816164E-02  0.1184000E+00
        -11   -1    0    0    0    0  0.00000000000E+00  0.00000000000E+00  0.45593999997E+02  0.45594000000E+02  0.51100000000E-03 0. -1.
         11   -1    0    0    0    0 -0.00000000000E+00 -0.00000000000E+00 -0.45593999997E+02  0.45594000000E+02  0.51100000000E-03 0.  1.
         23    2    1    2    0    0  0.00000000000E+00 -0.88817841970E-15  0.00000000000E+00  0.91188000000E+02  0.91188000000E+02 0.  0.
    9900012    2    3    3    0    0  0.25303420428E+02  0.64872776050E+01  0.34659453756E+02  0.47787244353E+02  0.19999878303E+02 0.  0.
        -12    1    3    3    0    0 -0.25303420428E+02 -0.64872776050E+01 -0.34659453756E+02  0.43400755647E+02  0.00000000000E+00 0.  1.
         11    1    4    4    0    0  0.24016045048E+01 -0.55922412770E+01  0.48186881144E+01  0.77627715478E+01  0.51100000000E-03 0. -1.
        -11    1    4    4    0    0  0.17031282629E+01 -0.28250646441E+00  0.54863658513E+00  0.18114795461E+01  0.51100000000E-03 0.  1.
         12    1    4    4    0    0  0.21198687660E+02  0.12362025346E+02  0.29292129056E+02  0.38212993259E+02  0.00000000000E+00 0. -1.
</event>
<event>
 8    1  0.2994958E-010  0.9118800E+02  0.7816164E-02  0.1184000E+00
        -11   -1    0    0    0    0  0.00000000000E+00  0.00000000000E+00  0.45593999997E+02  0.45594000000E+02  0.51100000000E-03 0. -1.
         11   -1    0    0    0    0 -0.00000000000E+00 -0.00000000000E+00 -0.45593999997E+02  0.45594000000E+02  0.51100000000E-03 0.  1.
         23    2    1    2    0    0  0.17763568394E-14  0.00000000000E+00 -0.17763568394E-14  0.91188000000E+02  0.91188000000E+02 0.  0.
    9900012    2    3    3    0    0 -0.15424805540E+02 -0.39396891764E+02 -0.96738136064E+01  0.47787281386E+02  0.20000047149E+02 0.  0.
         12    1    3    3    0    0  0.15424805540E+02  0.39396891764E+02  0.96738136064E+01  0.43400718614E+02  0.00000000000E+00 0. -1.
         11    1    4    4    0    0 -0.14148179162E+01 -0.25954893884E+01 -0.59961813288E+01  0.66852423808E+01  0.51100000000E-03 0. -1.
        -11    1    4    4    0    0 -0.89310803134E+01 -0.96832835013E+01  0.57987629810E+00  0.13185842093E+02  0.51100000000E-03 0.  1.
        -12    1    4    4    0    0 -0.50789073099E+01 -0.27118118874E+02 -0.42575085757E+01  0.27916196911E+02  0.00000000000E+00 0.  1.
</event>
<event>
 8    1  0.2994958E-010  0.9118800E+02  0.7816164E-02  0.1184000E+00
        -11   -1    0    0    0    0  0.00000000000E+00  0.00000000000E+00  0.45593999997E+02  0.45594000000E+02  0.51100000000E-03 0. -1.
         11   -1    0    0    0    0 -0.00000000000E+00 -0.00000000000E+00 -0.45593999997E+02  0.45594000000E+02  0.51100000000E-03 0.  1.
         23    2    1    2    0    0  0.00000000000E+00  0.00000000000E+00  0.35527136788E-14  0.91188000000E+02  0.91188000000E+02 0.  0.
    9900012    2    3    3    0    0 -0.75819102638E+01 -0.37935853225E+02  0.19672537309E+02  0.47787273654E+02  0.20000011899E+02 0.  0.
        -12    1    3    3    0    0  0.75819102638E+01  0.37935853225E+02 -0.19672537309E+02  0.43400726346E+02  0.00000000000E+00 0.  1.
         11    1    4    4    0    0 -0.15679440712E+00 -0.21962675686E+02  0.12918696609E+02  0.25480903243E+02  0.51100000000E-03 0. -1.
        -11    1    4    4    0    0 -0.53429570236E+01 -0.98627051645E+01  0.10047712120E+02  0.15059105618E+02  0.51100000000E-03 0.  1.
        -12    1    4    4    0    0 -0.20821588330E+01 -0.61104723749E+01 -0.32938714193E+01  0.72472647928E+01  0.00000000000E+00 0.  1.
</event>
<event>
 8    1  0.2994958E-010  0.9118800E+02  0.7816164E-02  0.1184000E+00
        -11   -1    0    0    0    0  0.00000000000E+00  0.00000000000E+00  0.45593999997E+02  0.45594000000E+02  0.51100000000E-03 0.  1.
         11   -1    0    0    0    0 -0.00000000000E+00 -0.00000000000E+00 -0.45593999997E+02  0.45594000000E+02  0.51100000000E-03 0. -1.
         23    2    1    2    0    0  0.00000000000E+00  0.00000000000E+00 -0.35527136788E-14  0.91188000000E+02  0.91188000000E+02 0.  0.
    9900012    2    3    3    0    0 -0.10630093888E+02  0.31950778799E+02  0.27381968350E+02  0.47787270136E+02  0.19999995860E+02 0.  0.
        -12    1    3    3    0    0  0.10630093888E+02 -0.31950778799E+02 -0.27381968350E+02  0.43400729864E+02  0.00000000000E+00 0.  1.
         11    1    4    4    0    0 -0.66727041883E+01  0.18150307240E+02  0.16630742252E+02  0.25505689997E+02  0.51100000000E-03 0. -1.
        -11    1    4    4    0    0  0.10901646444E+01  0.14305914076E+02  0.88885386311E+01  0.16877611080E+02  0.51100000000E-03 0.  1.
        -12    1    4    4    0    0 -0.50475543446E+01 -0.50544251704E+00  0.18626874670E+01  0.54039690598E+01  0.00000000000E+00 0.  1.
</event>
<event>
 8    1  0.2994958E-010  0.9118800E+02  0.7816164E-02  0.1184000E+00
        -11   -1    0    0    0    0  0.00000000000E+00  0.00000000000E+00  0.45593999997E+02  0.45594000000E+02  0.51100000000E-03 0. -1.
         11   -1    0    0    0    0 -0.00000000000E+00 -0.00000000000E+00 -0.45593999997E+02  0.45594000000E+02  0.51100000000E-03 0.  1.
         23    2    1    2    0    0 -0.44408920985E-15 -0.44408920985E-15  0.00000000000E+00  0.91188000000E+02  0.91188000000E+02 0.  0.
    9900012    2    3    3    0    0 -0.36086174574E+01 -0.30612110845E+01 -0.43141984579E+02  0.47787263063E+02  0.19999963608E+02 0.  0.
         12    1    3    3    0    0  0.36086174574E+01  0.30612110845E+01  0.43141984579E+02  0.43400736937E+02  0.00000000000E+00 0. -1.
         11    1    4    4    0    0  0.44695701065E+01  0.51741691179E+01 -0.13943168820E+02  0.15529360579E+02  0.51100000000E-03 0. -1.
        -11    1    4    4    0    0 -0.40921559138E+01  0.47638778259E+00 -0.93879653216E+01  0.10252149944E+02  0.51100000000E-03 0.  1.
         12    1    4    4    0    0 -0.39860316502E+01 -0.87117679850E+01 -0.19810850438E+02  0.22005752539E+02  0.00000000000E+00 0. -1.
</event>
<event>
 8    1  0.2994958E-010  0.9118800E+02  0.7816164E-02  0.1184000E+00
        -11   -1    0    0    0    0  0.00000000000E+00  0.00000000000E+00  0.45593999997E+02  0.45594000000E+02  0.51100000000E-03 0. -1.
         11   -1    0    0    0    0 -0.00000000000E+00 -0.00000000000E+00 -0.45593999997E+02  0.45594000000E+02  0.51100000000E-03 0.  1.
         23    2    1    2    0    0  0.00000000000E+00  0.00000000000E+00 -0.71054273576E-14  0.91188000000E+02  0.91188000000E+02 0.  0.
    9900012    2    3    3    0    0 -0.89800095317E+01 -0.49604232838E+01  0.42170807019E+02  0.47787270341E+02  0.19999996791E+02 0.  0.
        -12    1    3    3    0    0  0.89800095317E+01  0.49604232838E+01 -0.42170807019E+02  0.43400729659E+02  0.00000000000E+00 0.  1.
         11    1    4    4    0    0 -0.32426349173E+01 -0.27127953098E+01  0.28003392601E+02  0.28320733342E+02  0.51100000000E-03 0. -1.
        -11    1    4    4    0    0  0.37621079448E+00  0.40902205466E+01  0.69839209135E+01  0.81022583437E+01  0.51100000000E-03 0.  1.
        -12    1    4    4    0    0 -0.61135854089E+01 -0.63378485206E+01  0.71834935047E+01  0.11364278655E+02  0.00000000000E+00 0.  1.
</event>
<event>
 8    1  0.2994958E-010  0.9118800E+02  0.7816164E-02  0.1184000E+00
        -11   -1    0    0    0    0  0.00000000000E+00  0.00000000000E+00  0.45593999997E+02  0.45594000000E+02  0.51100000000E-03 0. -1.
         11   -1    0    0    0    0 -0.00000000000E+00 -0.00000000000E+00 -0.45593999997E+02  0.45594000000E+02  0.51100000000E-03 0.  1.
         23    2    1    2    0    0 -0.35527136788E-14  0.00000000000E+00 -0.35527136788E-14  0.91188000000E+02  0.91188000000E+02 0.  0.
    9900012    2    3    3    0    0 -0.15482912547E+02  0.28175562618E+02 -0.29155448673E+02  0.47787273081E+02  0.20000009284E+02 0.  0.
         12    1    3    3    0    0  0.15482912547E+02 -0.28175562618E+02  0.29155448673E+02  0.43400726919E+02  0.00000000000E+00 0. -1.
         11    1    4    4    0    0  0.41425624812E+01  0.56138109613E+01 -0.24967470753E+01  0.74100906633E+01  0.51100000000E-03 0. -1.
        -11    1    4    4    0    0 -0.84913355453E+01  0.13112743412E+02 -0.15414841673E+02  0.21946848594E+02  0.51100000000E-03 0.  1.
         12    1    4    4    0    0 -0.11134139483E+02  0.94490082444E+01 -0.11243859925E+02  0.18430333824E+02  0.00000000000E+00 0. -1.
</event>
<event>
 8    1  0.2994958E-010  0.9118800E+02  0.7816164E-02  0.1184000E+00
        -11   -1    0    0    0    0  0.00000000000E+00  0.00000000000E+00  0.45593999997E+02  0.45594000000E+02  0.51100000000E-03 0. -1.
         11   -1    0    0    0    0 -0.00000000000E+00 -0.00000000000E+00 -0.45593999997E+02  0.45594000000E+02  0.51100000000E-03 0.  1.
         23    2    1    2    0    0  0.00000000000E+00  0.00000000000E+00  0.00000000000E+00  0.91188000000E+02  0.91188000000E+02 0.  0.
    9900012    2    3    3    0    0 -0.45817201109E+01 -0.16263603224E+02 -0.39976589872E+02  0.47787254767E+02  0.19999925783E+02 0.  0.
         12    1    3    3    0    0  0.45817201109E+01  0.16263603224E+02  0.39976589872E+02  0.43400745233E+02  0.00000000000E+00 0. -1.
         11    1    4    4    0    0 -0.28277425989E+01 -0.13374349904E+02 -0.23612784783E+02  0.27284298947E+02  0.51100000000E-03 0. -1.
        -11    1    4    4    0    0  0.31001167369E+01 -0.41493241534E+01 -0.24828905834E+01  0.57438976856E+01  0.51100000000E-03 0.  1.
        -12    1    4    4    0    0 -0.48540942488E+01  0.12600708339E+01 -0.13880914506E+02  0.14759058134E+02  0.00000000000E+00 0.  1.
</event>
<event>
 8    1  0.2994958E-010  0.9118800E+02  0.7816164E-02  0.1184000E+00
        -11   -1    0    0    0    0  0.00000000000E+00  0.00000000000E+00  0.45593999997E+02  0.45594000000E+02  0.51100000000E-03 0. -1.
         11   -1    0    0    0    0 -0.00000000000E+00 -0.00000000000E+00 -0.45593999997E+02  0.45594000000E+02  0.51100000000E-03 0.  1.
         23    2    1    2    0    0  0.00000000000E+00  0.00000000000E+00  0.00000000000E+00  0.91188000000E+02  0.91188000000E+02 0.  0.
    9900012    2    3    3    0    0 -0.21273965491E+02 -0.30770826740E+02 -0.22004495412E+02  0.47787271846E+02  0.20000003655E+02 0.  0.
         12    1    3    3    0    0  0.21273965491E+02  0.30770826740E+02  0.22004495412E+02  0.43400728154E+02  0.00000000000E+00 0. -1.
         11    1    4    4    0    0 -0.69276924242E+01 -0.22893434007E+02 -0.96385848537E+01  0.25787682355E+02  0.51100000000E-03 0. -1.
        -11    1    4    4    0    0  0.38697706526E+00 -0.23883868360E+01 -0.11023870045E+01  0.26588343868E+01  0.51100000000E-03 0.  1.
        -12    1    4    4    0    0 -0.14733250132E+02 -0.54890058965E+01 -0.11263523554E+02  0.19340755105E+02  0.00000000000E+00 0.  1.
</event>
<event>
 8    1  0.2994958E-010  0.9118800E+02  0.7816164E-02  0.1184000E+00
        -11   -1    0    0    0    0  0.00000000000E+00  0.00000000000E+00  0.45593999997E+02  0.45594000000E+02  0.51100000000E-03 0. -1.
         11   -1    0    0    0    0 -0.00000000000E+00 -0.00000000000E+00 -0.45593999997E+02  0.45594000000E+02  0.51100000000E-03 0.  1.
         23    2    1    2    0    0  0.00000000000E+00  0.00000000000E+00  0.00000000000E+00  0.91188000000E+02  0.91188000000E+02 0.  0.
    9900012    2    3    3    0    0 -0.87689218198E+01 -0.12744285094E+02 -0.40550120873E+02  0.47787273102E+02  0.20000009383E+02 0.  0.
         12    1    3    3    0    0  0.87689218198E+01  0.12744285094E+02  0.40550120873E+02  0.43400726898E+02  0.00000000000E+00 0. -1.
         11    1    4    4    0    0 -0.22839215914E+00 -0.37459163354E+01 -0.12011927312E+02  0.12584532180E+02  0.51100000000E-03 0. -1.
        -11    1    4    4    0    0 -0.77047374810E+01 -0.64454839131E+01 -0.30345633911E+02  0.31965054986E+02  0.51100000000E-03 0.  1.
         12    1    4    4    0    0 -0.83579217969E+00 -0.25528848458E+01  0.18074403506E+01  0.32376859367E+01  0.00000000000E+00 0. -1.
</event>
<event>
 8    1  0.2994958E-010  0.9118800E+02  0.7816164E-02  0.1184000E+00
        -11   -1    0    0    0    0  0.00000000000E+00  0.00000000000E+00  0.45593999997E+02  0.45594000000E+02  0.51100000000E-03 0. -1.
         11   -1    0    0    0    0 -0.00000000000E+00 -0.00000000000E+00 -0.45593999997E+02  0.45594000000E+02  0.51100000000E-03 0.  1.
         23    2    1    2    0    0  0.00000000000E+00  0.00000000000E+00  0.00000000000E+00  0.91188000000E+02  0.91188000000E+02 0.  0.
    9900012    2    3    3    0    0 -0.40531303960E+02 -0.14705541586E+02 -0.49581700868E+01  0.47787274147E+02  0.20000014145E+02 0.  0.
         12    1    3    3    0    0  0.40531303960E+02  0.14705541586E+02  0.49581700868E+01  0.43400725853E+02  0.00000000000E+00 0. -1.
         11    1    4    4    0    0 -0.65216751200E+01  0.30148567749E+01  0.37341163646E+01  0.80972361352E+01  0.51100000000E-03 0. -1.
        -11    1    4    4    0    0 -0.81279804080E+01 -0.39651307117E+01  0.24806248760E+00  0.90469808408E+01  0.51100000000E-03 0.  1.
         12    1    4    4    0    0 -0.25881648432E+02 -0.13755267649E+02 -0.89403489390E+01  0.30643057171E+02  0.00000000000E+00 0. -1.
</event>
<event>
 8    1  0.2994958E-010  0.9118800E+02  0.7816164E-02  0.1184000E+00
        -11   -1    0    0    0    0  0.00000000000E+00  0.00000000000E+00  0.45593999997E+02  0.45594000000E+02  0.51100000000E-03 0.  1.
         11   -1    0    0    0    0 -0.00000000000E+00 -0.00000000000E+00 -0.45593999997E+02  0.45594000000E+02  0.51100000000E-03 0. -1.
         23    2    1    2    0    0  0.00000000000E+00  0.71054273576E-14  0.00000000000E+00  0.91188000000E+02  0.91188000000E+02 0.  0.
    9900012    2    3    3    0    0  0.12467023098E+02 -0.36556478182E+02 -0.19794459160E+02  0.47787269875E+02  0.19999994668E+02 0.  0.
         12    1    3    3    0    0 -0.12467023098E+02  0.36556478182E+02  0.19794459160E+02  0.43400730125E+02  0.00000000000E+00 0. -1.
         11    1    4    4    0    0  0.86431445169E+00 -0.89304194811E+01  0.44849597118E+00  0.89833501811E+01  0.51100000000E-03 0. -1.
        -11    1    4    4    0    0  0.76634347211E+01 -0.17869805749E+02 -0.46479885725E+01  0.19991547896E+02  0.51100000000E-03 0.  1.
         12    1    4    4    0    0  0.39392739248E+01 -0.97562529511E+01 -0.15594966559E+02  0.18812371798E+02  0.00000000000E+00 0. -1.
</event>
<event>
 8    1  0.2994958E-010  0.9118800E+02  0.7816164E-02  0.1184000E+00
        -11   -1    0    0    0    0  0.00000000000E+00  0.00000000000E+00  0.45593999997E+02  0.45594000000E+02  0.51100000000E-03 0. -1.
         11   -1    0    0    0    0 -0.00000000000E+00 -0.00000000000E+00 -0.45593999997E+02  0.45594000000E+02  0.51100000000E-03 0.  1.
         23    2    1    2    0    0  0.35527136788E-14  0.44408920985E-15  0.00000000000E+00  0.91188000000E+02  0.91188000000E+02 0.  0.
    9900012    2    3    3    0    0  0.25081406384E+02 -0.12009958482E+01 -0.35399208054E+02  0.47787271111E+02  0.20000000303E+02 0.  0.
         12    1    3    3    0    0 -0.25081406384E+02  0.12009958482E+01  0.35399208054E+02  0.43400728889E+02  0.00000000000E+00 0. -1.
         11    1    4    4    0    0  0.47517847229E+01 -0.44054053024E+01 -0.43636639784E+01  0.78120815094E+01  0.51100000000E-03 0. -1.
        -11    1    4    4    0    0  0.15847025351E+02  0.22527246948E+00 -0.11159580220E+02  0.19383374090E+02  0.51100000000E-03 0.  1.
         12    1    4    4    0    0  0.44825963096E+01  0.29791369848E+01 -0.19875963856E+02  0.20591815511E+02  0.00000000000E+00 0. -1.
</event>
<event>
 8    1  0.2994958E-010  0.9118800E+02  0.7816164E-02  0.1184000E+00
        -11   -1    0    0    0    0  0.00000000000E+00  0.00000000000E+00  0.45593999997E+02  0.45594000000E+02  0.51100000000E-03 0. -1.
         11   -1    0    0    0    0 -0.00000000000E+00 -0.00000000000E+00 -0.45593999997E+02  0.45594000000E+02  0.51100000000E-03 0.  1.
         23    2    1    2    0    0  0.00000000000E+00  0.00000000000E+00 -0.88817841970E-15  0.91188000000E+02  0.91188000000E+02 0.  0.
    9900012    2    3    3    0    0 -0.20300977605E+02 -0.37555039331E+02  0.78174384852E+01  0.47787274023E+02  0.20000013579E+02 0.  0.
        -12    1    3    3    0    0  0.20300977605E+02  0.37555039331E+02 -0.78174384852E+01  0.43400725977E+02  0.00000000000E+00 0.  1.
         11    1    4    4    0    0 -0.15297976514E+02 -0.24350703381E+02  0.92791791269E+01  0.30217346113E+02  0.51100000000E-03 0. -1.
        -11    1    4    4    0    0  0.11767673423E+01 -0.41601678762E+01  0.34828862516E+01  0.55517812492E+01  0.51100000000E-03 0.  1.
        -12    1    4    4    0    0 -0.61797684334E+01 -0.90441680736E+01 -0.49446268933E+01  0.12018146660E+02  0.00000000000E+00 0.  1.
</event>
<event>
 8    1  0.2994958E-010  0.9118800E+02  0.7816164E-02  0.1184000E+00
        -11   -1    0    0    0    0  0.00000000000E+00  0.00000000000E+00  0.45593999997E+02  0.45594000000E+02  0.51100000000E-03 0. -1.
         11   -1    0    0    0    0 -0.00000000000E+00 -0.00000000000E+00 -0.45593999997E+02  0.45594000000E+02  0.51100000000E-03 0.  1.
         23    2    1    2    0    0  0.00000000000E+00  0.00000000000E+00  0.00000000000E+00  0.91188000000E+02  0.91188000000E+02 0.  0.
    9900012    2    3    3    0    0  0.11613833329E+02  0.17023783738E+02  0.38195978086E+02  0.47787273286E+02  0.20000010220E+02 0.  0.
        -12    1    3    3    0    0 -0.11613833329E+02 -0.17023783738E+02 -0.38195978086E+02  0.43400726714E+02  0.00000000000E+00 0.  1.
         11    1    4    4    0    0  0.12962815740E+01  0.97018126937E-01 -0.14338480775E+01  0.19353756758E+01  0.51100000000E-03 0. -1.
        -11    1    4    4    0    0  0.77849239570E+01  0.26529185400E+01  0.10725469469E+02  0.13515868947E+02  0.51100000000E-03 0.  1.
         12    1    4    4    0    0  0.25326277976E+01  0.14273847071E+02  0.28904356695E+02  0.32336028663E+02  0.00000000000E+00 0. -1.
</event>
<event>
 8    1  0.2994958E-010  0.9118800E+02  0.7816164E-02  0.1184000E+00
        -11   -1    0    0    0    0  0.00000000000E+00  0.00000000000E+00  0.45593999997E+02  0.45594000000E+02  0.51100000000E-03 0. -1.
         11   -1    0    0    0    0 -0.00000000000E+00 -0.00000000000E+00 -0.45593999997E+02  0.45594000000E+02  0.51100000000E-03 0.  1.
         23    2    1    2    0    0 -0.11102230246E-15  0.00000000000E+00  0.00000000000E+00  0.91188000000E+02  0.91188000000E+02 0.  0.
    9900012    2    3    3    0    0  0.52716477994E+00 -0.35768533622E+02  0.24575544451E+02  0.47787270914E+02  0.19999999404E+02 0.  0.
        -12    1    3    3    0    0 -0.52716477994E+00  0.35768533622E+02 -0.24575544451E+02  0.43400729086E+02  0.00000000000E+00 0.  1.
         11    1    4    4    0    0  0.29175649132E+01 -0.14375303172E+02  0.69397979876E+01  0.16227209332E+02  0.51100000000E-03 0. -1.
        -11    1    4    4    0    0  0.39243139827E+01 -0.18947899815E+02  0.13912334350E+02  0.23832251152E+02  0.51100000000E-03 0.  1.
        -12    1    4    4    0    0 -0.63147141160E+01 -0.24453306336E+01  0.37234121138E+01  0.77278104301E+01  0.00000000000E+00 0.  1.
</event>
<event>
 8    1  0.2994958E-010  0.9118800E+02  0.7816164E-02  0.1184000E+00
        -11   -1    0    0    0    0  0.00000000000E+00  0.00000000000E+00  0.45593999997E+02  0.45594000000E+02  0.51100000000E-03 0. -1.
         11   -1    0    0    0    0 -0.00000000000E+00 -0.00000000000E+00 -0.45593999997E+02  0.45594000000E+02  0.51100000000E-03 0.  1.
         23    2    1    2    0    0 -0.17763568394E-14  0.00000000000E+00 -0.71054273576E-14  0.91188000000E+02  0.91188000000E+02 0.  0.
    9900012    2    3    3    0    0 -0.12406622318E+02  0.17231337154E+02 -0.37852077412E+02  0.47787273948E+02  0.20000013240E+02 0.  0.
         12    1    3    3    0    0  0.12406622318E+02 -0.17231337154E+02  0.37852077412E+02  0.43400726052E+02  0.00000000000E+00 0. -1.
         11    1    4    4    0    0  0.37136262913E+00  0.14833632417E+02 -0.15579482574E+02  0.21514991016E+02  0.51100000000E-03 0. -1.
        -11    1    4    4    0    0 -0.21508698282E+01  0.10068885827E+00 -0.98282166095E+00  0.23669216173E+01  0.51100000000E-03 0.  1.
         12    1    4    4    0    0 -0.10627115118E+02  0.22970158787E+01 -0.21289773177E+02  0.23905361315E+02  0.00000000000E+00 0. -1.
</event>
<event>
 8    1  0.2994958E-010  0.9118800E+02  0.7816164E-02  0.1184000E+00
        -11   -1    0    0    0    0  0.00000000000E+00  0.00000000000E+00  0.45593999997E+02  0.45594000000E+02  0.51100000000E-03 0. -1.
         11   -1    0    0    0    0 -0.00000000000E+00 -0.00000000000E+00 -0.45593999997E+02  0.45594000000E+02  0.51100000000E-03 0.  1.
         23    2    1    2    0    0  0.00000000000E+00  0.44408920985E-15  0.00000000000E+00  0.91188000000E+02  0.91188000000E+02 0.  0.
    9900012    2    3    3    0    0 -0.24167721841E+02 -0.23036677741E+01  0.35975515454E+02  0.47787269864E+02  0.19999994616E+02 0.  0.
        -12    1    3    3    0    0  0.24167721841E+02  0.23036677741E+01 -0.35975515454E+02  0.43400730136E+02  0.00000000000E+00 0.  1.
         11    1    4    4    0    0 -0.24593417804E+01 -0.56567306889E+01  0.48785774989E+01  0.78643170557E+01  0.51100000000E-03 0. -1.
        -11    1    4    4    0    0 -0.94197956043E+00 -0.22474579615E+01  0.79970426193E+01  0.83600887374E+01  0.51100000000E-03 0.  1.
         12    1    4    4    0    0 -0.20766400500E+02  0.56005208763E+01  0.23099895336E+02  0.31562864070E+02  0.00000000000E+00 0. -1.
</event>
<event>
 8    1  0.2994958E-010  0.9118800E+02  0.7816164E-02  0.1184000E+00
        -11   -1    0    0    0    0  0.00000000000E+00  0.00000000000E+00  0.45593999997E+02  0.45594000000E+02  0.51100000000E-03 0. -1.
         11   -1    0    0    0    0 -0.00000000000E+00 -0.00000000000E+00 -0.45593999997E+02  0.45594000000E+02  0.51100000000E-03 0.  1.
         23    2    1    2    0    0  0.00000000000E+00 -0.33306690739E-15  0.00000000000E+00  0.91188000000E+02  0.91188000000E+02 0.  0.
    9900012    2    3    3    0    0 -0.36462499584E+02 -0.50833799296E+00 -0.23534035551E+02  0.47787272901E+02  0.20000008463E+02 0.  0.
         12    1    3    3    0    0  0.36462499584E+02  0.50833799296E+00  0.23534035551E+02  0.43400727099E+02  0.00000000000E+00 0. -1.
         11    1    4    4    0    0 -0.20044904199E+01  0.21999405050E+01  0.15210555427E+01  0.33423540049E+01  0.51100000000E-03 0. -1.
        -11    1    4    4    0    0 -0.13971422277E+01  0.14153619260E+01 -0.54178261741E+01  0.57713167041E+01  0.51100000000E-03 0.  1.
        -12    1    4    4    0    0 -0.33060866936E+02 -0.41236404239E+01 -0.19637264920E+02  0.38673602192E+02  0.00000000000E+00 0.  1.
</event>
<event>
 8    1  0.2994958E-010  0.9118800E+02  0.7816164E-02  0.1184000E+00
        -11   -1    0    0    0    0  0.00000000000E+00  0.00000000000E+00  0.45593999997E+02  0.45594000000E+02  0.51100000000E-03 0. -1.
         11   -1    0    0    0    0 -0.00000000000E+00 -0.00000000000E+00 -0.45593999997E+02  0.45594000000E+02  0.51100000000E-03 0.  1.
         23    2    1    2    0    0  0.17763568394E-14  0.00000000000E+00 -0.71054273576E-14  0.91188000000E+02  0.91188000000E+02 0.  0.
    9900012    2    3    3    0    0  0.86830159901E+01 -0.89398317589E+01  0.41572921702E+02  0.47787272156E+02  0.20000005067E+02 0.  0.
        -12    1    3    3    0    0 -0.86830159901E+01  0.89398317589E+01 -0.41572921702E+02  0.43400727844E+02  0.00000000000E+00 0.  1.
         11    1    4    4    0    0  0.36535569202E+01  0.31428655458E+00  0.12455088391E+02  0.12983700601E+02  0.51100000000E-03 0. -1.
        -11    1    4    4    0    0 -0.57298869332E+01 -0.44049463306E+01  0.10047254127E+02  0.12376690680E+02  0.51100000000E-03 0.  1.
         12    1    4    4    0    0  0.10759346003E+02 -0.48491719829E+01  0.19070579185E+02  0.22426880875E+02  0.00000000000E+00 0. -1.
</event>
<event>
 8    1  0.2994958E-010  0.9118800E+02  0.7816164E-02  0.1184000E+00
        -11   -1    0    0    0    0  0.00000000000E+00  0.00000000000E+00  0.45593999997E+02  0.45594000000E+02  0.51100000000E-03 0. -1.
         11   -1    0    0    0    0 -0.00000000000E+00 -0.00000000000E+00 -0.45593999997E+02  0.45594000000E+02  0.51100000000E-03 0.  1.
         23    2    1    2    0    0  0.00000000000E+00  0.00000000000E+00  0.00000000000E+00  0.91188000000E+02  0.91188000000E+02 0.  0.
    9900012    2    3    3    0    0  0.41510539433E+02  0.11155386491E+02 -0.60046251602E+01  0.47787273565E+02  0.20000011493E+02 0.  0.
         12    1    3    3    0    0 -0.41510539433E+02 -0.11155386491E+02  0.60046251602E+01  0.43400726435E+02  0.00000000000E+00 0. -1.
         11    1    4    4    0    0  0.10406750011E+02 -0.45152372873E+01 -0.48356409547E+01  0.12331716719E+02  0.51100000000E-03 0. -1.
        -11    1    4    4    0    0  0.49745340941E+01  0.32743680894E+01  0.21793767201E+01  0.63417000077E+01  0.51100000000E-03 0.  1.
         12    1    4    4    0    0  0.26129255328E+02  0.12396255689E+02 -0.33483609256E+01  0.29113856838E+02  0.00000000000E+00 0. -1.
</event>
<event>
 8    1  0.2994958E-010  0.9118800E+02  0.7816164E-02  0.1184000E+00
        -11   -1    0    0    0    0  0.00000000000E+00  0.00000000000E+00  0.45593999997E+02  0.45594000000E+02  0.51100000000E-03 0. -1.
         11   -1    0    0    0    0 -0.00000000000E+00 -0.00000000000E+00 -0.45593999997E+02  0.45594000000E+02  0.51100000000E-03 0.  1.
         23    2    1    2    0    0  0.00000000000E+00  0.00000000000E+00 -0.35527136788E-14  0.91188000000E+02  0.91188000000E+02 0.  0.
    9900012    2    3    3    0    0  0.22574767658E+02  0.25187183209E+02  0.27195754045E+02  0.47787269927E+02  0.19999994903E+02 0.  0.
        -12    1    3    3    0    0 -0.22574767658E+02 -0.25187183209E+02 -0.27195754045E+02  0.43400730073E+02  0.00000000000E+00 0.  1.
         11    1    4    4    0    0  0.10029691348E+02  0.44939732701E+01  0.44630247369E+00  0.10999531374E+02  0.51100000000E-03 0. -1.
        -11    1    4    4    0    0  0.59400408298E+01  0.94688049558E+01  0.71949368514E+01  0.13293211384E+02  0.51100000000E-03 0.  1.
         12    1    4    4    0    0  0.66050354804E+01  0.11224404983E+02  0.19554514720E+02  0.23494527168E+02  0.00000000000E+00 0. -1.
</event>
<event>
 8    1  0.2994958E-010  0.9118800E+02  0.7816164E-02  0.1184000E+00
        -11   -1    0    0    0    0  0.00000000000E+00  0.00000000000E+00  0.45593999997E+02  0.45594000000E+02  0.51100000000E-03 0.  1.
         11   -1    0    0    0    0 -0.00000000000E+00 -0.00000000000E+00 -0.45593999997E+02  0.45594000000E+02  0.51100000000E-03 0. -1.
         23    2    1    2    0    0  0.00000000000E+00  0.44408920985E-15  0.35527136788E-14  0.91188000000E+02  0.91188000000E+02 0.  0.
    9900012    2    3    3    0    0 -0.29347150245E+02  0.31972519311E+01  0.31814239035E+02  0.47787268984E+02  0.19999990604E+02 0.  0.
        -12    1    3    3    0    0  0.29347150245E+02 -0.31972519311E+01 -0.31814239035E+02  0.43400731016E+02  0.00000000000E+00 0.  1.
         11    1    4    4    0    0 -0.92025006329E+01 -0.14946931903E+01  0.27123371891E+01  0.97096291855E+01  0.51100000000E-03 0. -1.
        -11    1    4    4    0    0 -0.16408947589E+02  0.20482779104E+01  0.12153177515E+02  0.20521908472E+02  0.51100000000E-03 0.  1.
        -12    1    4    4    0    0 -0.37357020223E+01  0.26436672110E+01  0.16948724331E+02  0.17555731326E+02  0.00000000000E+00 0.  1.
</event>
<event>
 8    1  0.2994958E-010  0.9118800E+02  0.7816164E-02  0.1184000E+00
        -11   -1    0    0    0    0  0.00000000000E+00  0.00000000000E+00  0.45593999997E+02  0.45594000000E+02  0.51100000000E-03 0. -1.
         11   -1    0    0    0    0 -0.00000000000E+00 -0.00000000000E+00 -0.45593999997E+02  0.45594000000E+02  0.51100000000E-03 0.  1.
         23    2    1    2    0    0  0.00000000000E+00  0.00000000000E+00  0.00000000000E+00  0.91188000000E+02  0.91188000000E+02 0.  0.
    9900012    2    3    3    0    0 -0.22768111816E+02  0.20707410489E+02  0.30601298082E+02  0.47787271790E+02  0.20000003402E+02 0.  0.
        -12    1    3    3    0    0  0.22768111816E+02 -0.20707410489E+02 -0.30601298082E+02  0.43400728210E+02  0.00000000000E+00 0.  1.
         11    1    4    4    0    0 -0.11362146564E+02  0.98864871689E+01  0.67168767911E+01  0.16491132077E+02  0.51100000000E-03 0. -1.
        -11    1    4    4    0    0 -0.53488476704E+01  0.56222733337E+01  0.20178505176E+01  0.80182198656E+01  0.51100000000E-03 0.  1.
        -12    1    4    4    0    0 -0.60571175810E+01  0.51986499865E+01  0.21866570773E+02  0.23277919848E+02  0.00000000000E+00 0.  1.
</event>
<event>
 8    1  0.2994958E-010  0.9118800E+02  0.7816164E-02  0.1184000E+00
        -11   -1    0    0    0    0  0.00000000000E+00  0.00000000000E+00  0.45593999997E+02  0.45594000000E+02  0.51100000000E-03 0.  1.
         11   -1    0    0    0    0 -0.00000000000E+00 -0.00000000000E+00 -0.45593999997E+02  0.45594000000E+02  0.51100000000E-03 0. -1.
         23    2    1    2    0    0  0.00000000000E+00  0.71054273576E-14  0.00000000000E+00  0.91188000000E+02  0.91188000000E+02 0.  0.
    9900012    2    3    3    0    0  0.15444347501E+02 -0.39009732302E+02  0.11105691581E+02  0.47787268791E+02  0.19999989724E+02 0.  0.
        -12    1    3    3    0    0 -0.15444347501E+02  0.39009732302E+02 -0.11105691581E+02  0.43400731209E+02  0.00000000000E+00 0.  1.
         11    1    4    4    0    0 -0.85565646278E+00 -0.68640209542E+00  0.13574559621E+01  0.17452744108E+01  0.51100000000E-03 0.  1.
        -11    1    4    4    0    0  0.12470788474E+02 -0.37015515405E+02  0.43582984638E+01  0.39302210010E+02  0.51100000000E-03 0. -1.
         12    1    4    4    0    0  0.38292154896E+01 -0.13078148016E+01  0.53899371552E+01  0.67397843703E+01  0.00000000000E+00 0. -1.
</event>
<event>
 8    1  0.2994958E-010  0.9118800E+02  0.7816164E-02  0.1184000E+00
        -11   -1    0    0    0    0  0.00000000000E+00  0.00000000000E+00  0.45593999997E+02  0.45594000000E+02  0.51100000000E-03 0. -1.
         11   -1    0    0    0    0 -0.00000000000E+00 -0.00000000000E+00 -0.45593999997E+02  0.45594000000E+02  0.51100000000E-03 0.  1.
         23    2    1    2    0    0  0.00000000000E+00 -0.17763568394E-14  0.00000000000E+00  0.91188000000E+02  0.91188000000E+02 0.  0.
    9900012    2    3    3    0    0  0.50381130527E+01 -0.15626271652E+02 -0.40175371107E+02  0.47787269678E+02  0.19999993771E+02 0.  0.
         12    1    3    3    0    0 -0.50381130527E+01  0.15626271652E+02  0.40175371107E+02  0.43400730322E+02  0.00000000000E+00 0. -1.
         11    1    4    4    0    0  0.11723406193E+01 -0.23829122220E+00 -0.31569069037E+01  0.33759778871E+01  0.51100000000E-03 0. -1.
        -11    1    4    4    0    0  0.66839149608E+01 -0.18440410292E+02 -0.25530303035E+02  0.32195027943E+02  0.51100000000E-03 0.  1.
        -12    1    4    4    0    0 -0.28181425274E+01  0.30524298624E+01 -0.11488161168E+02  0.12216263848E+02  0.00000000000E+00 0.  1.
</event>
<event>
 8    1  0.2994958E-010  0.9118800E+02  0.7816164E-02  0.1184000E+00
        -11   -1    0    0    0    0  0.00000000000E+00  0.00000000000E+00  0.45593999997E+02  0.45594000000E+02  0.51100000000E-03 0. -1.
         11   -1    0    0    0    0 -0.00000000000E+00 -0.00000000000E+00 -0.45593999997E+02  0.45594000000E+02  0.51100000000E-03 0.  1.
         23    2    1    2    0    0  0.00000000000E+00  0.35527136788E-14  0.00000000000E+00  0.91188000000E+02  0.91188000000E+02 0.  0.
    9900012    2    3    3    0    0 -0.31648087870E+02 -0.16375752181E+02  0.24776135295E+02  0.47787267224E+02  0.19999982582E+02 0.  0.
        -12    1    3    3    0    0  0.31648087870E+02  0.16375752181E+02 -0.24776135295E+02  0.43400732776E+02  0.00000000000E+00 0.  1.
         11    1    4    4    0    0 -0.16537698974E+02 -0.88369528633E+01  0.11138530381E+02  0.21809495238E+02  0.51100000000E-03 0. -1.
        -11    1    4    4    0    0 -0.14855895780E+02 -0.17063671632E+01  0.54368550008E+01  0.15911276532E+02  0.51100000000E-03 0.  1.
        -12    1    4    4    0    0 -0.25449311685E+00 -0.58324321545E+01  0.82007499136E+01  0.10066495454E+02  0.00000000000E+00 0.  1.
</event>
<event>
 8    1  0.2994958E-010  0.9118800E+02  0.7816164E-02  0.1184000E+00
        -11   -1    0    0    0    0  0.00000000000E+00  0.00000000000E+00  0.45593999997E+02  0.45594000000E+02  0.51100000000E-03 0. -1.
         11   -1    0    0    0    0 -0.00000000000E+00 -0.00000000000E+00 -0.45593999997E+02  0.45594000000E+02  0.51100000000E-03 0.  1.
         23    2    1    2    0    0  0.00000000000E+00  0.00000000000E+00  0.71054273576E-14  0.91188000000E+02  0.91188000000E+02 0.  0.
    9900012    2    3    3    0    0  0.13014422941E+02  0.41095717256E+01 -0.41199018110E+02  0.47787275611E+02  0.20000020822E+02 0.  0.
         12    1    3    3    0    0 -0.13014422941E+02 -0.41095717256E+01  0.41199018110E+02  0.43400724389E+02  0.00000000000E+00 0. -1.
         11    1    4    4    0    0 -0.30856811507E+01 -0.17397482844E+00 -0.12180154772E+02  0.12566139659E+02  0.51100000000E-03 0. -1.
        -11    1    4    4    0    0  0.29096467758E+01  0.98465339106E+00 -0.16353085924E+02  0.16639080689E+02  0.51100000000E-03 0.  1.
         12    1    4    4    0    0  0.13190457316E+02  0.32988931629E+01 -0.12665777413E+02  0.18582055263E+02  0.00000000000E+00 0. -1.
</event>
<event>
 8    1  0.2994958E-010  0.9118800E+02  0.7816164E-02  0.1184000E+00
        -11   -1    0    0    0    0  0.00000000000E+00  0.00000000000E+00  0.45593999997E+02  0.45594000000E+02  0.51100000000E-03 0. -1.
         11   -1    0    0    0    0 -0.00000000000E+00 -0.00000000000E+00 -0.45593999997E+02  0.45594000000E+02  0.51100000000E-03 0.  1.
         23    2    1    2    0    0 -0.17763568394E-14  0.00000000000E+00  0.00000000000E+00  0.91188000000E+02  0.91188000000E+02 0.  0.
    9900012    2    3    3    0    0 -0.13156875221E+02 -0.21870848776E+01  0.41300563812E+02  0.47787271008E+02  0.19999999834E+02 0.  0.
        -12    1    3    3    0    0  0.13156875221E+02  0.21870848776E+01 -0.41300563812E+02  0.43400728992E+02  0.00000000000E+00 0.  1.
         11    1    4    4    0    0 -0.11194455944E+02 -0.20005165806E+01  0.25433313283E+02  0.27859851673E+02  0.51100000000E-03 0. -1.
        -11    1    4    4    0    0 -0.33307076032E-01 -0.47088902902E+01  0.13822450475E+02  0.14602564655E+02  0.51100000000E-03 0.  1.
         12    1    4    4    0    0 -0.19291122013E+01  0.45223219931E+01  0.20448000548E+01  0.53248546796E+01  0.00000000000E+00 0. -1.
</event>
<event>
 8    1  0.2994958E-010  0.9118800E+02  0.7816164E-02  0.1184000E+00
        -11   -1    0    0    0    0  0.00000000000E+00  0.00000000000E+00  0.45593999997E+02  0.45594000000E+02  0.51100000000E-03 0. -1.
         11   -1    0    0    0    0 -0.00000000000E+00 -0.00000000000E+00 -0.45593999997E+02  0.45594000000E+02  0.51100000000E-03 0.  1.
         23    2    1    2    0    0  0.00000000000E+00  0.00000000000E+00  0.00000000000E+00  0.91188000000E+02  0.91188000000E+02 0.  0.
    9900012    2    3    3    0    0  0.85887869900E+01 -0.37042176592E+01 -0.42380815071E+02  0.47787285991E+02  0.20000068147E+02 0.  0.
         12    1    3    3    0    0 -0.85887869900E+01  0.37042176592E+01  0.42380815071E+02  0.43400714009E+02  0.00000000000E+00 0. -1.
         11    1    4    4    0    0 -0.14835334960E+01  0.25624173291E+01 -0.84331977498E+01  0.89378788731E+01  0.51100000000E-03 0. -1.
        -11    1    4    4    0    0 -0.62235068279E+00  0.38403189322E+01 -0.10148201511E+02  0.10868365289E+02  0.51100000000E-03 0.  1.
        -12    1    4    4    0    0  0.10694671169E+02 -0.10106953920E+02 -0.23799415810E+02  0.27981041829E+02  0.00000000000E+00 0.  1.
</event>
<event>
 8    1  0.2994958E-010  0.9118800E+02  0.7816164E-02  0.1184000E+00
        -11   -1    0    0    0    0  0.00000000000E+00  0.00000000000E+00  0.45593999997E+02  0.45594000000E+02  0.51100000000E-03 0. -1.
         11   -1    0    0    0    0 -0.00000000000E+00 -0.00000000000E+00 -0.45593999997E+02  0.45594000000E+02  0.51100000000E-03 0.  1.
         23    2    1    2    0    0 -0.17763568394E-14 -0.35527136788E-14  0.71054273576E-14  0.91188000000E+02  0.91188000000E+02 0.  0.
    9900012    2    3    3    0    0  0.10419637788E+02  0.27099565492E+02 -0.32259380458E+02  0.47787275017E+02  0.20000018112E+02 0.  0.
         12    1    3    3    0    0 -0.10419637788E+02 -0.27099565492E+02  0.32259380458E+02  0.43400724983E+02  0.00000000000E+00 0. -1.
         11    1    4    4    0    0 -0.48906267553E+01  0.61640547353E+01 -0.49632338179E+01  0.93030904022E+01  0.51100000000E-03 0. -1.
        -11    1    4    4    0    0  0.79814474498E+01  0.56033595049E+01 -0.69522095905E+01  0.11976408459E+02  0.51100000000E-03 0.  1.
        -12    1    4    4    0    0  0.73288170935E+01  0.15332151252E+02 -0.20343937050E+02  0.26507776155E+02  0.00000000000E+00 0.  1.
</event>
<event>
 8    1  0.2994958E-010  0.9118800E+02  0.7816164E-02  0.1184000E+00
        -11   -1    0    0    0    0  0.00000000000E+00  0.00000000000E+00  0.45593999997E+02  0.45594000000E+02  0.51100000000E-03 0. -1.
         11   -1    0    0    0    0 -0.00000000000E+00 -0.00000000000E+00 -0.45593999997E+02  0.45594000000E+02  0.51100000000E-03 0.  1.
         23    2    1    2    0    0 -0.17763568394E-14 -0.35527136788E-14  0.00000000000E+00  0.91188000000E+02  0.91188000000E+02 0.  0.
    9900012    2    3    3    0    0 -0.11594518922E+02 -0.22969661132E+02  0.34951182957E+02  0.47787269688E+02  0.19999993813E+02 0.  0.
        -12    1    3    3    0    0  0.11594518922E+02  0.22969661132E+02 -0.34951182957E+02  0.43400730312E+02  0.00000000000E+00 0.  1.
         11    1    4    4    0    0 -0.37543500154E+01 -0.11874567629E+02  0.10815909682E+02  0.16494981144E+02  0.51100000000E-03 0. -1.
        -11    1    4    4    0    0 -0.12123757324E+02 -0.77916193656E+01  0.18865450163E+02  0.23740261880E+02  0.51100000000E-03 0.  1.
         12    1    4    4    0    0  0.42835884175E+01 -0.33034741374E+01  0.52698231119E+01  0.75520266642E+01  0.00000000000E+00 0. -1.
</event>
<event>
 8    1  0.2994958E-010  0.9118800E+02  0.7816164E-02  0.1184000E+00
        -11   -1    0    0    0    0  0.00000000000E+00  0.00000000000E+00  0.45593999997E+02  0.45594000000E+02  0.51100000000E-03 0. -1.
         11   -1    0    0    0    0 -0.00000000000E+00 -0.00000000000E+00 -0.45593999997E+02  0.45594000000E+02  0.51100000000E-03 0.  1.
         23    2    1    2    0    0  0.00000000000E+00 -0.17763568394E-14  0.00000000000E+00  0.91188000000E+02  0.91188000000E+02 0.  0.
    9900012    2    3    3    0    0 -0.14268387533E+02  0.15823077675E+02 -0.37810931778E+02  0.47787271528E+02  0.20000002207E+02 0.  0.
         12    1    3    3    0    0  0.14268387533E+02 -0.15823077675E+02  0.37810931778E+02  0.43400728472E+02  0.00000000000E+00 0. -1.
         11    1    4    4    0    0  0.26674886997E+00  0.51384086087E+01 -0.79670855265E+01  0.94841367576E+01  0.51100000000E-03 0. -1.
        -11    1    4    4    0    0  0.15641836139E+01  0.70498783744E+01 -0.11929441728E+02  0.13944856962E+02  0.51100000000E-03 0.  1.
         12    1    4    4    0    0 -0.16099320017E+02  0.36347906921E+01 -0.17914404523E+02  0.24358277809E+02  0.00000000000E+00 0. -1.
</event>
<event>
 8    1  0.2994958E-010  0.9118800E+02  0.7816164E-02  0.1184000E+00
        -11   -1    0    0    0    0  0.00000000000E+00  0.00000000000E+00  0.45593999997E+02  0.45594000000E+02  0.51100000000E-03 0. -1.
         11   -1    0    0    0    0 -0.00000000000E+00 -0.00000000000E+00 -0.45593999997E+02  0.45594000000E+02  0.51100000000E-03 0.  1.
         23    2    1    2    0    0 -0.71054273576E-14  0.00000000000E+00  0.00000000000E+00  0.91188000000E+02  0.91188000000E+02 0.  0.
    9900012    2    3    3    0    0  0.40473708940E+02  0.87288887414E+01  0.13011835603E+02  0.47787280192E+02  0.20000041709E+02 0.  0.
        -12    1    3    3    0    0 -0.40473708940E+02 -0.87288887414E+01 -0.13011835603E+02  0.43400719808E+02  0.00000000000E+00 0.  1.
         11    1    4    4    0    0  0.24317444209E+02  0.11815690662E+02  0.12584070064E+02  0.29821258496E+02  0.51100000000E-03 0. -1.
        -11    1    4    4    0    0  0.64822468220E+01  0.19353132336E+01 -0.14151259527E+01  0.69114067235E+01  0.51100000000E-03 0.  1.
        -12    1    4    4    0    0  0.96740179094E+01 -0.50221151545E+01  0.18428914921E+01  0.11054614972E+02  0.00000000000E+00 0.  1.
</event>
<event>
 8    1  0.2994958E-010  0.9118800E+02  0.7816164E-02  0.1184000E+00
        -11   -1    0    0    0    0  0.00000000000E+00  0.00000000000E+00  0.45593999997E+02  0.45594000000E+02  0.51100000000E-03 0. -1.
         11   -1    0    0    0    0 -0.00000000000E+00 -0.00000000000E+00 -0.45593999997E+02  0.45594000000E+02  0.51100000000E-03 0.  1.
         23    2    1    2    0    0  0.00000000000E+00  0.17763568394E-14  0.00000000000E+00  0.91188000000E+02  0.91188000000E+02 0.  0.
    9900012    2    3    3    0    0 -0.13756678099E+02  0.15239920421E+02  0.38237728796E+02  0.47787248045E+02  0.19999895135E+02 0.  0.
        -12    1    3    3    0    0  0.13756678099E+02 -0.15239920421E+02 -0.38237728796E+02  0.43400751955E+02  0.00000000000E+00 0.  1.
         11    1    4    4    0    0 -0.31715277747E+01  0.45471790646E+01  0.11037625074E+02  0.12351704069E+02  0.51100000000E-03 0. -1.
        -11    1    4    4    0    0 -0.26075031214E+01 -0.14272463256E+01  0.18024304053E+02  0.18267776041E+02  0.51100000000E-03 0.  1.
        -12    1    4    4    0    0 -0.79776472031E+01  0.12119987682E+02  0.91757996694E+01  0.17167767936E+02  0.00000000000E+00 0.  1.
</event>
<event>
 8    1  0.2994958E-010  0.9118800E+02  0.7816164E-02  0.1184000E+00
        -11   -1    0    0    0    0  0.00000000000E+00  0.00000000000E+00  0.45593999997E+02  0.45594000000E+02  0.51100000000E-03 0.  1.
         11   -1    0    0    0    0 -0.00000000000E+00 -0.00000000000E+00 -0.45593999997E+02  0.45594000000E+02  0.51100000000E-03 0. -1.
         23    2    1    2    0    0  0.00000000000E+00  0.00000000000E+00  0.00000000000E+00  0.91188000000E+02  0.91188000000E+02 0.  0.
    9900012    2    3    3    0    0 -0.10091035979E+01  0.43030207643E+02  0.55683450739E+01  0.47787268131E+02  0.19999986717E+02 0.  0.
         12    1    3    3    0    0  0.10091035979E+01 -0.43030207643E+02 -0.55683450739E+01  0.43400731869E+02  0.00000000000E+00 0. -1.
         11    1    4    4    0    0  0.33297748759E+01  0.18950049356E+01 -0.63632342941E+00  0.38837291613E+01  0.51100000000E-03 0. -1.
        -11    1    4    4    0    0 -0.44614037409E+01  0.14350553735E+02 -0.34725707614E+01  0.15424048229E+02  0.51100000000E-03 0.  1.
         12    1    4    4    0    0  0.12252526704E+00  0.26784648973E+02  0.96772392647E+01  0.28479490740E+02  0.00000000000E+00 0. -1.
</event>
<event>
 8    1  0.2994958E-010  0.9118800E+02  0.7816164E-02  0.1184000E+00
        -11   -1    0    0    0    0  0.00000000000E+00  0.00000000000E+00  0.45593999997E+02  0.45594000000E+02  0.51100000000E-03 0. -1.
         11   -1    0    0    0    0 -0.00000000000E+00 -0.00000000000E+00 -0.45593999997E+02  0.45594000000E+02  0.51100000000E-03 0.  1.
         23    2    1    2    0    0  0.00000000000E+00 -0.17763568394E-14  0.35527136788E-14  0.91188000000E+02  0.91188000000E+02 0.  0.
    9900012    2    3    3    0    0  0.37099072225E+02 -0.13206384758E+02 -0.18244822452E+02  0.47787270690E+02  0.19999998385E+02 0.  0.
         12    1    3    3    0    0 -0.37099072225E+02  0.13206384758E+02  0.18244822452E+02  0.43400729310E+02  0.00000000000E+00 0. -1.
         11    1    4    4    0    0  0.36285349326E+01 -0.59815669467E+01 -0.24511838869E+01  0.74130770671E+01  0.51100000000E-03 0.  1.
        -11    1    4    4    0    0  0.27181376194E+02 -0.10171293710E+02 -0.16514398953E+02  0.33391732518E+02  0.51100000000E-03 0. -1.
         12    1    4    4    0    0  0.62891610986E+01  0.29464758988E+01  0.72076038765E+00  0.69824611049E+01  0.00000000000E+00 0. -1.
</event>
<event>
 8    1  0.2994958E-010  0.9118800E+02  0.7816164E-02  0.1184000E+00
        -11   -1    0    0    0    0  0.00000000000E+00  0.00000000000E+00  0.45593999997E+02  0.45594000000E+02  0.51100000000E-03 0. -1.
         11   -1    0    0    0    0 -0.00000000000E+00 -0.00000000000E+00 -0.45593999997E+02  0.45594000000E+02  0.51100000000E-03 0.  1.
         23    2    1    2    0    0  0.00000000000E+00  0.17763568394E-14  0.00000000000E+00  0.91188000000E+02  0.91188000000E+02 0.  0.
    9900012    2    3    3    0    0 -0.21383499328E+02 -0.13506683358E+02  0.35269509193E+02  0.47787276301E+02  0.20000023968E+02 0.  0.
        -12    1    3    3    0    0  0.21383499328E+02  0.13506683358E+02 -0.35269509193E+02  0.43400723699E+02  0.00000000000E+00 0.  1.
         11    1    4    4    0    0 -0.78739976867E+01 -0.19869376036E+01  0.93990136290E+01  0.12421321108E+02  0.51100000000E-03 0. -1.
        -11    1    4    4    0    0 -0.12968313423E+02 -0.71833545387E+00  0.16903081602E+02  0.21316832006E+02  0.51100000000E-03 0.  1.
        -12    1    4    4    0    0 -0.54118821802E+00 -0.10801410300E+02  0.89674139625E+01  0.14049123187E+02  0.00000000000E+00 0.  1.
</event>
<event>
 8    1  0.2994958E-010  0.9118800E+02  0.7816164E-02  0.1184000E+00
        -11   -1    0    0    0    0  0.00000000000E+00  0.00000000000E+00  0.45593999997E+02  0.45594000000E+02  0.51100000000E-03 0. -1.
         11   -1    0    0    0    0 -0.00000000000E+00 -0.00000000000E+00 -0.45593999997E+02  0.45594000000E+02  0.51100000000E-03 0.  1.
         23    2    1    2    0    0  0.35527136788E-14  0.35527136788E-14  0.00000000000E+00  0.91188000000E+02  0.91188000000E+02 0.  0.
    9900012    2    3    3    0    0 -0.29168309676E+02 -0.27105213149E+02 -0.17266734766E+02  0.47787274214E+02  0.20000014453E+02 0.  0.
         12    1    3    3    0    0  0.29168309676E+02  0.27105213149E+02  0.17266734766E+02  0.43400725786E+02  0.00000000000E+00 0. -1.
         11    1    4    4    0    0 -0.18398947550E+02 -0.26490623821E+02 -0.75852366169E+01  0.33133219527E+02  0.51100000000E-03 0. -1.
        -11    1    4    4    0    0 -0.37834261092E+01 -0.11420072121E+01 -0.28831824443E+01  0.48919561389E+01  0.51100000000E-03 0.  1.
         12    1    4    4    0    0 -0.69859360168E+01  0.52741788422E+00 -0.67983157050E+01  0.97620985490E+01  0.00000000000E+00 0. -1.
</event>
<event>
 8    1  0.2994958E-010  0.9118800E+02  0.7816164E-02  0.1184000E+00
        -11   -1    0    0    0    0  0.00000000000E+00  0.00000000000E+00  0.45593999997E+02  0.45594000000E+02  0.51100000000E-03 0. -1.
         11   -1    0    0    0    0 -0.00000000000E+00 -0.00000000000E+00 -0.45593999997E+02  0.45594000000E+02  0.51100000000E-03 0.  1.
         23    2    1    2    0    0 -0.35527136788E-14  0.00000000000E+00 -0.71054273576E-14  0.91188000000E+02  0.91188000000E+02 0.  0.
    9900012    2    3    3    0    0 -0.26615554985E+02 -0.75411479497E+01 -0.33441992023E+02  0.47787268324E+02  0.19999987596E+02 0.  0.
         12    1    3    3    0    0  0.26615554985E+02  0.75411479497E+01  0.33441992023E+02  0.43400731676E+02  0.00000000000E+00 0. -1.
         11    1    4    4    0    0 -0.15914015643E+02 -0.35433036790E+01 -0.28453672005E+02  0.32793632700E+02  0.51100000000E-03 0. -1.
        -11    1    4    4    0    0  0.13306712374E+01 -0.60667333045E+00 -0.13083579811E+01  0.19622791187E+01  0.51100000000E-03 0.  1.
         12    1    4    4    0    0 -0.12032210579E+02 -0.33911709402E+01 -0.36799620371E+01  0.13031356505E+02  0.00000000000E+00 0. -1.
</event>
<event>
 8    1  0.2994958E-010  0.9118800E+02  0.7816164E-02  0.1184000E+00
        -11   -1    0    0    0    0  0.00000000000E+00  0.00000000000E+00  0.45593999997E+02  0.45594000000E+02  0.51100000000E-03 0. -1.
         11   -1    0    0    0    0 -0.00000000000E+00 -0.00000000000E+00 -0.45593999997E+02  0.45594000000E+02  0.51100000000E-03 0.  1.
         23    2    1    2    0    0 -0.35527136788E-14 -0.17763568394E-14  0.71054273576E-14  0.91188000000E+02  0.91188000000E+02 0.  0.
    9900012    2    3    3    0    0  0.13678150632E+02 -0.15787782716E+02 -0.38043097237E+02  0.47787272642E+02  0.20000007286E+02 0.  0.
         12    1    3    3    0    0 -0.13678150632E+02  0.15787782716E+02  0.38043097237E+02  0.43400727358E+02  0.00000000000E+00 0. -1.
         11    1    4    4    0    0  0.43063154521E+01 -0.10669157519E+01 -0.19646597855E+02  0.20141287683E+02  0.51100000000E-03 0. -1.
        -11    1    4    4    0    0  0.69831457444E+01 -0.10576900327E+02 -0.18984931577E+02  0.22826799431E+02  0.51100000000E-03 0.  1.
         12    1    4    4    0    0  0.23886894356E+01 -0.41439666365E+01  0.58843219543E+00  0.48191855279E+01  0.00000000000E+00 0. -1.
</event>
<event>
 8    1  0.2994958E-010  0.9118800E+02  0.7816164E-02  0.1184000E+00
        -11   -1    0    0    0    0  0.00000000000E+00  0.00000000000E+00  0.45593999997E+02  0.45594000000E+02  0.51100000000E-03 0. -1.
         11   -1    0    0    0    0 -0.00000000000E+00 -0.00000000000E+00 -0.45593999997E+02  0.45594000000E+02  0.51100000000E-03 0.  1.
         23    2    1    2    0    0  0.00000000000E+00  0.35527136788E-14 -0.35527136788E-14  0.91188000000E+02  0.91188000000E+02 0.  0.
    9900012    2    3    3    0    0  0.57069755659E+01  0.29217844642E+02 -0.31581210019E+02  0.47787252980E+02  0.19999917637E+02 0.  0.
         12    1    3    3    0    0 -0.57069755659E+01 -0.29217844642E+02  0.31581210019E+02  0.43400747020E+02  0.00000000000E+00 0. -1.
         11    1    4    4    0    0  0.42998934229E+01  0.13026278344E+02 -0.71298132877E+01  0.15459859272E+02  0.51100000000E-03 0. -1.
        -11    1    4    4    0    0 -0.19843919760E+01  0.17262844429E+02 -0.18399827846E+02  0.25308047619E+02  0.51100000000E-03 0.  1.
        -12    1    4    4    0    0  0.33914741190E+01 -0.10712781309E+01 -0.60515688854E+01  0.70193460883E+01  0.00000000000E+00 0.  1.
</event>
<event>
 8    1  0.5371273E-010  0.9118800E+02  0.7816164E-02  0.1184000E+00
        -11   -1    0    0    0    0  0.00000000000E+00  0.00000000000E+00  0.45593999997E+02  0.45594000000E+02  0.51100000000E-03 0. -1.
         11   -1    0    0    0    0 -0.00000000000E+00 -0.00000000000E+00 -0.45593999997E+02  0.45594000000E+02  0.51100000000E-03 0.  1.
         23    2    1    2    0    0  0.00000000000E+00  0.00000000000E+00  0.00000000000E+00  0.91188000000E+02  0.91188000000E+02 0.  0.
    9900012    2    3    3    0    0 -0.14447232692E+01 -0.10698777208E+01  0.43363481529E+02  0.47787269661E+02  0.19999993693E+02 0.  0.
        -12    1    3    3    0    0  0.14447232692E+01  0.10698777208E+01 -0.43363481529E+02  0.43400730339E+02  0.00000000000E+00 0.  1.
         11    1    4    4    0    0 -0.24699125078E+00  0.12799578683E+01 -0.63348468090E+00  0.14493446535E+01  0.51100000000E-03 0. -1.
        -11    1    4    4    0    0  0.30243068455E+01 -0.33849867990E+01  0.38378408483E+01  0.59442064368E+01  0.51100000000E-03 0.  1.
         12    1    4    4    0    0 -0.42220388639E+01  0.10351512100E+01  0.40159125361E+02  0.40393718571E+02  0.00000000000E+00 0. -1.
</event>
<event>
 8    1  0.2994958E-010  0.9118800E+02  0.7816164E-02  0.1184000E+00
        -11   -1    0    0    0    0  0.00000000000E+00  0.00000000000E+00  0.45593999997E+02  0.45594000000E+02  0.51100000000E-03 0. -1.
         11   -1    0    0    0    0 -0.00000000000E+00 -0.00000000000E+00 -0.45593999997E+02  0.45594000000E+02  0.51100000000E-03 0.  1.
         23    2    1    2    0    0 -0.88817841970E-15  0.35527136788E-14  0.00000000000E+00  0.91188000000E+02  0.91188000000E+02 0.  0.
    9900012    2    3    3    0    0  0.51480701768E+01 -0.21582419613E+02  0.37300392773E+02  0.47787276920E+02  0.20000026787E+02 0.  0.
        -12    1    3    3    0    0 -0.51480701768E+01  0.21582419613E+02 -0.37300392773E+02  0.43400723080E+02  0.00000000000E+00 0.  1.
         11    1    4    4    0    0  0.44767763651E+01 -0.20126852722E+02  0.36055960509E+02  0.41535093783E+02  0.51100000000E-03 0. -1.
        -11    1    4    4    0    0 -0.10044971194E+01 -0.18977144456E+01  0.30626060493E+01  0.37403062247E+01  0.51100000000E-03 0.  1.
        -12    1    4    4    0    0  0.16757909311E+01  0.44214755498E+00 -0.18181737852E+01  0.25118769115E+01  0.00000000000E+00 0.  1.
</event>
<event>
 8    1  0.2994958E-010  0.9118800E+02  0.7816164E-02  0.1184000E+00
        -11   -1    0    0    0    0  0.00000000000E+00  0.00000000000E+00  0.45593999997E+02  0.45594000000E+02  0.51100000000E-03 0. -1.
         11   -1    0    0    0    0 -0.00000000000E+00 -0.00000000000E+00 -0.45593999997E+02  0.45594000000E+02  0.51100000000E-03 0.  1.
         23    2    1    2    0    0  0.00000000000E+00  0.35527136788E-14 -0.35527136788E-14  0.91188000000E+02  0.91188000000E+02 0.  0.
    9900012    2    3    3    0    0 -0.16063356339E+02  0.28730565769E+02 -0.28286866900E+02  0.47787266535E+02  0.19999979439E+02 0.  0.
         12    1    3    3    0    0  0.16063356339E+02 -0.28730565769E+02  0.28286866900E+02  0.43400733465E+02  0.00000000000E+00 0. -1.
         11    1    4    4    0    0 -0.45786237362E+01  0.38060230753E+01 -0.22723556377E+01  0.63728492350E+01  0.51100000000E-03 0. -1.
        -11    1    4    4    0    0  0.30600852804E+01  0.48183270915E+00 -0.37382976724E+00  0.31202617901E+01  0.51100000000E-03 0.  1.
        -12    1    4    4    0    0 -0.14544817884E+02  0.24442709984E+02 -0.25640681495E+02  0.38294155510E+02  0.00000000000E+00 0.  1.
</event>
<event>
 8    1  0.2994958E-010  0.9118800E+02  0.7816164E-02  0.1184000E+00
        -11   -1    0    0    0    0  0.00000000000E+00  0.00000000000E+00  0.45593999997E+02  0.45594000000E+02  0.51100000000E-03 0. -1.
         11   -1    0    0    0    0 -0.00000000000E+00 -0.00000000000E+00 -0.45593999997E+02  0.45594000000E+02  0.51100000000E-03 0.  1.
         23    2    1    2    0    0  0.00000000000E+00 -0.44408920985E-15  0.00000000000E+00  0.91188000000E+02  0.91188000000E+02 0.  0.
    9900012    2    3    3    0    0  0.12610897882E+02 -0.16669466501E+01 -0.41494694854E+02  0.47787272385E+02  0.20000006111E+02 0.  0.
         12    1    3    3    0    0 -0.12610897882E+02  0.16669466501E+01  0.41494694854E+02  0.43400727615E+02  0.00000000000E+00 0. -1.
         11    1    4    4    0    0  0.82668670939E+01  0.15452825695E+01 -0.69405659720E+01  0.10904148112E+02  0.51100000000E-03 0. -1.
        -11    1    4    4    0    0  0.40351599897E+01  0.79186136663E+00 -0.30392004869E+01  0.51133453264E+01  0.51100000000E-03 0.  1.
        -12    1    4    4    0    0  0.30887079822E+00 -0.40040905863E+01 -0.31514928395E+02  0.31769778947E+02  0.00000000000E+00 0.  1.
</event>
<event>
 8    1  0.2994958E-010  0.9118800E+02  0.7816164E-02  0.1184000E+00
        -11   -1    0    0    0    0  0.00000000000E+00  0.00000000000E+00  0.45593999997E+02  0.45594000000E+02  0.51100000000E-03 0.  1.
         11   -1    0    0    0    0 -0.00000000000E+00 -0.00000000000E+00 -0.45593999997E+02  0.45594000000E+02  0.51100000000E-03 0. -1.
         23    2    1    2    0    0  0.17763568394E-14  0.00000000000E+00  0.22204460493E-15  0.91188000000E+02  0.91188000000E+02 0.  0.
    9900012    2    3    3    0    0  0.10264755427E+02 -0.42142702055E+02  0.15001252902E+01  0.47787275164E+02  0.20000018781E+02 0.  0.
         12    1    3    3    0    0 -0.10264755427E+02  0.42142702055E+02 -0.15001252902E+01  0.43400724836E+02  0.00000000000E+00 0. -1.
         11    1    4    4    0    0 -0.62967810125E+00 -0.48273246646E+00  0.10630951383E+01  0.13265355930E+01  0.51100000000E-03 0. -1.
        -11    1    4    4    0    0  0.35518177959E+01 -0.38158684198E+02  0.28953567040E+00  0.38324723359E+02  0.51100000000E-03 0.  1.
        -12    1    4    4    0    0  0.73426157321E+01 -0.35012853904E+01  0.14749448144E+00  0.81360162116E+01  0.00000000000E+00 0.  1.
</event>
<event>
 8    1  0.2994958E-010  0.9118800E+02  0.7816164E-02  0.1184000E+00
        -11   -1    0    0    0    0  0.00000000000E+00  0.00000000000E+00  0.45593999997E+02  0.45594000000E+02  0.51100000000E-03 0. -1.
         11   -1    0    0    0    0 -0.00000000000E+00 -0.00000000000E+00 -0.45593999997E+02  0.45594000000E+02  0.51100000000E-03 0.  1.
         23    2    1    2    0    0  0.17763568394E-14  0.88817841970E-15  0.00000000000E+00  0.91188000000E+02  0.91188000000E+02 0.  0.
    9900012    2    3    3    0    0 -0.15337327365E+02 -0.45970224789E+01 -0.40339277952E+02  0.47787267609E+02  0.19999984337E+02 0.  0.
         12    1    3    3    0    0  0.15337327365E+02  0.45970224789E+01  0.40339277952E+02  0.43400732391E+02  0.00000000000E+00 0. -1.
         11    1    4    4    0    0 -0.48234654258E+01 -0.59219171964E+01 -0.39519657669E+01  0.85995904367E+01  0.51100000000E-03 0. -1.
        -11    1    4    4    0    0 -0.78939950191E+01  0.26842572812E+01 -0.11941530586E+02  0.14564358809E+02  0.51100000000E-03 0.  1.
        -12    1    4    4    0    0 -0.26198669201E+01 -0.13593625637E+01 -0.24445781599E+02  0.24623318364E+02  0.00000000000E+00 0.  1.
</event>
<event>
 8    1  0.2994958E-010  0.9118800E+02  0.7816164E-02  0.1184000E+00
        -11   -1    0    0    0    0  0.00000000000E+00  0.00000000000E+00  0.45593999997E+02  0.45594000000E+02  0.51100000000E-03 0. -1.
         11   -1    0    0    0    0 -0.00000000000E+00 -0.00000000000E+00 -0.45593999997E+02  0.45594000000E+02  0.51100000000E-03 0.  1.
         23    2    1    2    0    0  0.00000000000E+00  0.35527136788E-14  0.00000000000E+00  0.91188000000E+02  0.91188000000E+02 0.  0.
    9900012    2    3    3    0    0  0.47055844146E+01 -0.16984662090E+02 -0.39661090493E+02  0.47787269936E+02  0.19999994945E+02 0.  0.
         12    1    3    3    0    0 -0.47055844146E+01  0.16984662090E+02  0.39661090493E+02  0.43400730064E+02  0.00000000000E+00 0. -1.
         11    1    4    4    0    0 -0.13268866185E+01 -0.11575242313E+02 -0.15698963308E+02  0.19550046340E+02  0.51100000000E-03 0. -1.
        -11    1    4    4    0    0 -0.14866426791E+01 -0.68765273039E+01 -0.14017103757E+02  0.15683619870E+02  0.51100000000E-03 0.  1.
         12    1    4    4    0    0  0.75191137122E+01  0.14671075275E+01 -0.99450234285E+01  0.12553603726E+02  0.00000000000E+00 0. -1.
</event>
<event>
 8    1  0.2994958E-010  0.9118800E+02  0.7816164E-02  0.1184000E+00
        -11   -1    0    0    0    0  0.00000000000E+00  0.00000000000E+00  0.45593999997E+02  0.45594000000E+02  0.51100000000E-03 0. -1.
         11   -1    0    0    0    0 -0.00000000000E+00 -0.00000000000E+00 -0.45593999997E+02  0.45594000000E+02  0.51100000000E-03 0.  1.
         23    2    1    2    0    0  0.00000000000E+00  0.00000000000E+00 -0.22204460493E-15  0.91188000000E+02  0.91188000000E+02 0.  0.
    9900012    2    3    3    0    0 -0.43146793097E+02  0.44445453176E+01  0.14911368150E+01  0.47787271589E+02  0.20000002483E+02 0.  0.
        -12    1    3    3    0    0  0.43146793097E+02 -0.44445453176E+01 -0.14911368150E+01  0.43400728411E+02  0.00000000000E+00 0.  1.
         11    1    4    4    0    0 -0.62411128876E+00  0.27220722437E+01  0.34977882679E+01  0.44759038449E+01  0.51100000000E-03 0. -1.
        -11    1    4    4    0    0 -0.93781017889E+00 -0.12358135687E+01 -0.33954949951E+00  0.15880860279E+01  0.51100000000E-03 0.  1.
         12    1    4    4    0    0 -0.41584871629E+02  0.29582866426E+01 -0.16671019534E+01  0.41723281716E+02  0.00000000000E+00 0. -1.
</event>
<event>
 8    1  0.2994958E-010  0.9118800E+02  0.7816164E-02  0.1184000E+00
        -11   -1    0    0    0    0  0.00000000000E+00  0.00000000000E+00  0.45593999997E+02  0.45594000000E+02  0.51100000000E-03 0. -1.
         11   -1    0    0    0    0 -0.00000000000E+00 -0.00000000000E+00 -0.45593999997E+02  0.45594000000E+02  0.51100000000E-03 0.  1.
         23    2    1    2    0    0  0.00000000000E+00  0.17763568394E-14  0.00000000000E+00  0.91188000000E+02  0.91188000000E+02 0.  0.
    9900012    2    3    3    0    0  0.11200983019E+02  0.10776539955E+02  0.40521932642E+02  0.47787275824E+02  0.20000021791E+02 0.  0.
        -12    1    3    3    0    0 -0.11200983019E+02 -0.10776539955E+02 -0.40521932642E+02  0.43400724176E+02  0.00000000000E+00 0.  1.
         11    1    4    4    0    0 -0.17749672315E-01  0.35335804915E+01  0.93951814106E+01  0.10037725845E+02  0.51100000000E-03 0. -1.
        -11    1    4    4    0    0  0.13307951202E+01  0.70271057442E+01  0.26886433822E+01  0.76406828418E+01  0.51100000000E-03 0.  1.
         12    1    4    4    0    0  0.98879375712E+01  0.21585371915E+00  0.28438107849E+02  0.30108867137E+02  0.00000000000E+00 0. -1.
</event>
<event>
 8    1  0.2994958E-010  0.9118800E+02  0.7816164E-02  0.1184000E+00
        -11   -1    0    0    0    0  0.00000000000E+00  0.00000000000E+00  0.45593999997E+02  0.45594000000E+02  0.51100000000E-03 0. -1.
         11   -1    0    0    0    0 -0.00000000000E+00 -0.00000000000E+00 -0.45593999997E+02  0.45594000000E+02  0.51100000000E-03 0.  1.
         23    2    1    2    0    0  0.00000000000E+00  0.00000000000E+00  0.00000000000E+00  0.91188000000E+02  0.91188000000E+02 0.  0.
    9900012    2    3    3    0    0 -0.43497928596E+01  0.41285096370E+02 -0.12658729927E+02  0.47787270472E+02  0.19999997389E+02 0.  0.
         12    1    3    3    0    0  0.43497928596E+01 -0.41285096370E+02  0.12658729927E+02  0.43400729528E+02  0.00000000000E+00 0. -1.
         11    1    4    4    0    0 -0.24621024938E+00 -0.37159468090E+00 -0.88129703476E+00  0.98761673658E+00  0.51100000000E-03 0. -1.
        -11    1    4    4    0    0  0.86420738598E+00  0.32193274054E+02 -0.19234697938E+01  0.32262261003E+02  0.51100000000E-03 0.  1.
        -12    1    4    4    0    0 -0.49677899962E+01  0.94634169968E+01 -0.98539630981E+01  0.14537392732E+02  0.00000000000E+00 0.  1.
</event>
<event>
 8    1  0.2994958E-010  0.9118800E+02  0.7816164E-02  0.1184000E+00
        -11   -1    0    0    0    0  0.00000000000E+00  0.00000000000E+00  0.45593999997E+02  0.45594000000E+02  0.51100000000E-03 0. -1.
         11   -1    0    0    0    0 -0.00000000000E+00 -0.00000000000E+00 -0.45593999997E+02  0.45594000000E+02  0.51100000000E-03 0.  1.
         23    2    1    2    0    0  0.00000000000E+00  0.00000000000E+00  0.00000000000E+00  0.91188000000E+02  0.91188000000E+02 0.  0.
    9900012    2    3    3    0    0 -0.78736834589E+01  0.28028236463E+02 -0.32187672437E+02  0.47787272042E+02  0.20000004547E+02 0.  0.
         12    1    3    3    0    0  0.78736834589E+01 -0.28028236463E+02  0.32187672437E+02  0.43400727958E+02  0.00000000000E+00 0. -1.
         11    1    4    4    0    0 -0.41511607826E+01  0.33413710071E+01 -0.23013437051E+01  0.58045739861E+01  0.51100000000E-03 0. -1.
        -11    1    4    4    0    0 -0.40303277561E+01  0.26236207064E+01  0.30085902933E-01  0.48091405527E+01  0.51100000000E-03 0.  1.
        -12    1    4    4    0    0  0.30780507980E+00  0.22063244749E+02 -0.29916414634E+02  0.37173557503E+02  0.00000000000E+00 0.  1.
</event>
<event>
 8    1  0.2994958E-010  0.9118800E+02  0.7816164E-02  0.1184000E+00
        -11   -1    0    0    0    0  0.00000000000E+00  0.00000000000E+00  0.45593999997E+02  0.45594000000E+02  0.51100000000E-03 0. -1.
         11   -1    0    0    0    0 -0.00000000000E+00 -0.00000000000E+00 -0.45593999997E+02  0.45594000000E+02  0.51100000000E-03 0.  1.
         23    2    1    2    0    0  0.00000000000E+00  0.00000000000E+00  0.00000000000E+00  0.91188000000E+02  0.91188000000E+02 0.  0.
    9900012    2    3    3    0    0  0.16836082340E+02  0.53631233392E+01  0.39640969598E+02  0.47787271536E+02  0.20000002241E+02 0.  0.
        -12    1    3    3    0    0 -0.16836082340E+02 -0.53631233392E+01 -0.39640969598E+02  0.43400728464E+02  0.00000000000E+00 0.  1.
         11    1    4    4    0    0  0.86502570223E+00 -0.28208275537E+01  0.97935192140E+01  0.10228311513E+02  0.51100000000E-03 0. -1.
        -11    1    4    4    0    0  0.24905346499E+01 -0.14945237999E+01 -0.52206558994E+00  0.29510874220E+01  0.51100000000E-03 0.  1.
         12    1    4    4    0    0  0.13480521988E+02  0.96784746928E+01  0.30369515974E+02  0.34607872601E+02  0.00000000000E+00 0. -1.
</event>
<event>
 8    1  0.3225459E-010  0.9118800E+02  0.7816164E-02  0.1184000E+00
        -11   -1    0    0    0    0  0.00000000000E+00  0.00000000000E+00  0.45593999997E+02  0.45594000000E+02  0.51100000000E-03 0. -1.
         11   -1    0    0    0    0 -0.00000000000E+00 -0.00000000000E+00 -0.45593999997E+02  0.45594000000E+02  0.51100000000E-03 0.  1.
         23    2    1    2    0    0  0.00000000000E+00  0.44408920985E-15  0.00000000000E+00  0.91188000000E+02  0.91188000000E+02 0.  0.
    9900012    2    3    3    0    0 -0.32721904814E+02 -0.31649028932E+01  0.28335146030E+02  0.47787306854E+02  0.20000163271E+02 0.  0.
        -12    1    3    3    0    0  0.32721904814E+02  0.31649028932E+01 -0.28335146030E+02  0.43400693146E+02  0.00000000000E+00 0.  1.
         11    1    4    4    0    0 -0.79962549542E+01  0.33688012259E+01  0.34188124090E+01  0.93261564185E+01  0.51100000000E-03 0. -1.
        -11    1    4    4    0    0 -0.24176683385E+01 -0.23325881421E+01 -0.14588041251E+01  0.36625397434E+01  0.51100000000E-03 0.  1.
         12    1    4    4    0    0 -0.22307981521E+02 -0.42011159770E+01  0.26375137746E+02  0.34798610693E+02  0.00000000000E+00 0. -1.
</event>
<event>
 8    1  0.2994958E-010  0.9118800E+02  0.7816164E-02  0.1184000E+00
        -11   -1    0    0    0    0  0.00000000000E+00  0.00000000000E+00  0.45593999997E+02  0.45594000000E+02  0.51100000000E-03 0. -1.
         11   -1    0    0    0    0 -0.00000000000E+00 -0.00000000000E+00 -0.45593999997E+02  0.45594000000E+02  0.51100000000E-03 0.  1.
         23    2    1    2    0    0 -0.35527136788E-14 -0.35527136788E-14  0.35527136788E-14  0.91188000000E+02  0.91188000000E+02 0.  0.
    9900012    2    3    3    0    0  0.21160458060E+02  0.25139565400E+02  0.28352431627E+02  0.47787272899E+02  0.20000008454E+02 0.  0.
        -12    1    3    3    0    0 -0.21160458060E+02 -0.25139565400E+02 -0.28352431627E+02  0.43400727101E+02  0.00000000000E+00 0.  1.
         11    1    4    4    0    0  0.91010507513E+01  0.15323851116E+02  0.11462056347E+02  0.21190287251E+02  0.51100000000E-03 0. -1.
        -11    1    4    4    0    0 -0.52627210519E+00  0.64504231045E+01  0.19178424614E+01  0.67500400386E+01  0.51100000000E-03 0.  1.
        -12    1    4    4    0    0  0.12585679414E+02  0.33652911794E+01  0.14972532818E+02  0.19846945609E+02  0.00000000000E+00 0.  1.
</event>
<event>
 8    1  0.2994958E-010  0.9118800E+02  0.7816164E-02  0.1184000E+00
        -11   -1    0    0    0    0  0.00000000000E+00  0.00000000000E+00  0.45593999997E+02  0.45594000000E+02  0.51100000000E-03 0. -1.
         11   -1    0    0    0    0 -0.00000000000E+00 -0.00000000000E+00 -0.45593999997E+02  0.45594000000E+02  0.51100000000E-03 0.  1.
         23    2    1    2    0    0  0.00000000000E+00  0.00000000000E+00  0.00000000000E+00  0.91188000000E+02  0.91188000000E+02 0.  0.
    9900012    2    3    3    0    0  0.17650452719E+02  0.20918461268E+02  0.33682360614E+02  0.47787286647E+02  0.20000071138E+02 0.  0.
        -12    1    3    3    0    0 -0.17650452719E+02 -0.20918461268E+02 -0.33682360614E+02  0.43400713353E+02  0.00000000000E+00 0.  1.
         11    1    4    4    0    0  0.39544955329E+01  0.96133890423E+01  0.25685067506E+02  0.27708806846E+02  0.51100000000E-03 0. -1.
        -11    1    4    4    0    0  0.64079407911E+01  0.37708591609E+01  0.56454710951E+01  0.93355464833E+01  0.51100000000E-03 0.  1.
         12    1    4    4    0    0  0.72880163948E+01  0.75342130651E+01  0.23518220133E+01  0.10742933317E+02  0.00000000000E+00 0. -1.
</event>
<event>
 8    1  0.2994958E-010  0.9118800E+02  0.7816164E-02  0.1184000E+00
        -11   -1    0    0    0    0  0.00000000000E+00  0.00000000000E+00  0.45593999997E+02  0.45594000000E+02  0.51100000000E-03 0. -1.
         11   -1    0    0    0    0 -0.00000000000E+00 -0.00000000000E+00 -0.45593999997E+02  0.45594000000E+02  0.51100000000E-03 0.  1.
         23    2    1    2    0    0 -0.44408920985E-15  0.17763568394E-14  0.71054273576E-14  0.91188000000E+02  0.91188000000E+02 0.  0.
    9900012    2    3    3    0    0 -0.30004252176E+01  0.95749958644E+01  0.42224873593E+02  0.47787273656E+02  0.20000011905E+02 0.  0.
        -12    1    3    3    0    0  0.30004252176E+01 -0.95749958644E+01 -0.42224873593E+02  0.43400726344E+02  0.00000000000E+00 0.  1.
         11    1    4    4    0    0  0.24113482376E+01  0.26682563575E+01  0.73759111731E+01  0.82059891669E+01  0.51100000000E-03 0. -1.
        -11    1    4    4    0    0 -0.42059439190E+01  0.12216486867E+01  0.13252273270E+00  0.43817750169E+01  0.51100000000E-03 0.  1.
        -12    1    4    4    0    0 -0.12058295362E+01  0.56850908203E+01  0.34716439687E+02  0.35199509472E+02  0.00000000000E+00 0.  1.
</event>
<event>
 8    1  0.2994958E-010  0.9118800E+02  0.7816164E-02  0.1184000E+00
        -11   -1    0    0    0    0  0.00000000000E+00  0.00000000000E+00  0.45593999997E+02  0.45594000000E+02  0.51100000000E-03 0. -1.
         11   -1    0    0    0    0 -0.00000000000E+00 -0.00000000000E+00 -0.45593999997E+02  0.45594000000E+02  0.51100000000E-03 0.  1.
         23    2    1    2    0    0  0.00000000000E+00 -0.35527136788E-14  0.00000000000E+00  0.91188000000E+02  0.91188000000E+02 0.  0.
    9900012    2    3    3    0    0 -0.20956724609E+02  0.31874207360E+02  0.20699617831E+02  0.47787267523E+02  0.19999983946E+02 0.  0.
        -12    1    3    3    0    0  0.20956724609E+02 -0.31874207360E+02 -0.20699617831E+02  0.43400732477E+02  0.00000000000E+00 0.  1.
         11    1    4    4    0    0  0.47734007379E+00  0.67148004899E+01  0.20141745117E+01  0.70266135791E+01  0.51100000000E-03 0.  1.
        -11    1    4    4    0    0 -0.41460246709E+01  0.15623935880E+02  0.11106651829E+02  0.19612613494E+02  0.51100000000E-03 0. -1.
        -12    1    4    4    0    0 -0.17288040011E+02  0.95354709906E+01  0.75787914902E+01  0.21148040451E+02  0.00000000000E+00 0.  1.
</event>
<event>
 8    1  0.2994958E-010  0.9118800E+02  0.7816164E-02  0.1184000E+00
        -11   -1    0    0    0    0  0.00000000000E+00  0.00000000000E+00  0.45593999997E+02  0.45594000000E+02  0.51100000000E-03 0.  1.
         11   -1    0    0    0    0 -0.00000000000E+00 -0.00000000000E+00 -0.45593999997E+02  0.45594000000E+02  0.51100000000E-03 0. -1.
         23    2    1    2    0    0  0.00000000000E+00  0.00000000000E+00 -0.17763568394E-14  0.91188000000E+02  0.91188000000E+02 0.  0.
    9900012    2    3    3    0    0 -0.21964851289E+02  0.34960026057E+02 -0.13377792581E+02  0.47787269034E+02  0.19999990832E+02 0.  0.
         12    1    3    3    0    0  0.21964851289E+02 -0.34960026057E+02  0.13377792581E+02  0.43400730966E+02  0.00000000000E+00 0. -1.
         11    1    4    4    0    0 -0.47650678561E+01  0.15731622783E+01  0.15431086116E+01  0.52499424449E+01  0.51100000000E-03 0. -1.
        -11    1    4    4    0    0 -0.37352969887E+01  0.11401676928E+02  0.13156461526E+01  0.12069863521E+02  0.51100000000E-03 0.  1.
         12    1    4    4    0    0 -0.13464486445E+02  0.21985186851E+02 -0.16236547345E+02  0.30467463067E+02  0.00000000000E+00 0. -1.
</event>
<event>
 8    1  0.2994958E-010  0.9118800E+02  0.7816164E-02  0.1184000E+00
        -11   -1    0    0    0    0  0.00000000000E+00  0.00000000000E+00  0.45593999997E+02  0.45594000000E+02  0.51100000000E-03 0. -1.
         11   -1    0    0    0    0 -0.00000000000E+00 -0.00000000000E+00 -0.45593999997E+02  0.45594000000E+02  0.51100000000E-03 0.  1.
         23    2    1    2    0    0  0.00000000000E+00  0.17763568394E-14 -0.35527136788E-14  0.91188000000E+02  0.91188000000E+02 0.  0.
    9900012    2    3    3    0    0  0.35417749382E+02  0.14907837495E+02 -0.20173312918E+02  0.47787272539E+02  0.20000006816E+02 0.  0.
         12    1    3    3    0    0 -0.35417749382E+02 -0.14907837495E+02  0.20173312918E+02  0.43400727461E+02  0.00000000000E+00 0. -1.
         11    1    4    4    0    0  0.14663830796E+01  0.52873464786E+01 -0.37307888247E+01  0.66351411166E+01  0.51100000000E-03 0. -1.
        -11    1    4    4    0    0  0.16051111430E+02  0.98124448900E+01 -0.13143555072E+02  0.22949407248E+02  0.51100000000E-03 0.  1.
        -12    1    4    4    0    0  0.17900254872E+02 -0.19195387406E+00 -0.32989690213E+01  0.18202724175E+02  0.00000000000E+00 0.  1.
</event>
<event>
 8    1  0.2994958E-010  0.9118800E+02  0.7816164E-02  0.1184000E+00
        -11   -1    0    0    0    0  0.00000000000E+00  0.00000000000E+00  0.45593999997E+02  0.45594000000E+02  0.51100000000E-03 0. -1.
         11   -1    0    0    0    0 -0.00000000000E+00 -0.00000000000E+00 -0.45593999997E+02  0.45594000000E+02  0.51100000000E-03 0.  1.
         23    2    1    2    0    0  0.00000000000E+00  0.00000000000E+00 -0.35527136788E-14  0.91188000000E+02  0.91188000000E+02 0.  0.
    9900012    2    3    3    0    0  0.28205580006E+02  0.10237217018E+02  0.31357099519E+02  0.47787273670E+02  0.20000011971E+02 0.  0.
        -12    1    3    3    0    0 -0.28205580006E+02 -0.10237217018E+02 -0.31357099519E+02  0.43400726330E+02  0.00000000000E+00 0.  1.
         11    1    4    4    0    0  0.72372622797E+01  0.16849130796E+01 -0.11064063498E+01  0.75127247163E+01  0.51100000000E-03 0. -1.
        -11    1    4    4    0    0  0.52797722574E+00 -0.84566497556E+00  0.33349055064E+00  0.10512494520E+01  0.51100000000E-03 0.  1.
         12    1    4    4    0    0  0.20440340500E+02  0.93979689135E+01  0.32130015318E+02  0.39223299502E+02  0.00000000000E+00 0. -1.
</event>
<event>
 8    1  0.2994958E-010  0.9118800E+02  0.7816164E-02  0.1184000E+00
        -11   -1    0    0    0    0  0.00000000000E+00  0.00000000000E+00  0.45593999997E+02  0.45594000000E+02  0.51100000000E-03 0. -1.
         11   -1    0    0    0    0 -0.00000000000E+00 -0.00000000000E+00 -0.45593999997E+02  0.45594000000E+02  0.51100000000E-03 0.  1.
         23    2    1    2    0    0  0.00000000000E+00  0.00000000000E+00  0.00000000000E+00  0.91188000000E+02  0.91188000000E+02 0.  0.
    9900012    2    3    3    0    0 -0.28261302632E+02  0.92279049301E+01  0.31619108167E+02  0.47787268933E+02  0.19999990374E+02 0.  0.
        -12    1    3    3    0    0  0.28261302632E+02 -0.92279049301E+01 -0.31619108167E+02  0.43400731067E+02  0.00000000000E+00 0.  1.
         11    1    4    4    0    0 -0.52939291050E+01 -0.60187441780E+00  0.10276687164E+02  0.11575760775E+02  0.51100000000E-03 0. -1.
        -11    1    4    4    0    0 -0.18484937461E+02  0.43911187841E+01  0.22075577854E+02  0.29125692695E+02  0.51100000000E-03 0.  1.
        -12    1    4    4    0    0 -0.44824360663E+01  0.54386605638E+01 -0.73315685097E+00  0.70858154637E+01  0.00000000000E+00 0.  1.
</event>
<event>
 8    1  0.2994958E-010  0.9118800E+02  0.7816164E-02  0.1184000E+00
        -11   -1    0    0    0    0  0.00000000000E+00  0.00000000000E+00  0.45593999997E+02  0.45594000000E+02  0.51100000000E-03 0. -1.
         11   -1    0    0    0    0 -0.00000000000E+00 -0.00000000000E+00 -0.45593999997E+02  0.45594000000E+02  0.51100000000E-03 0.  1.
         23    2    1    2    0    0 -0.35527136788E-14  0.00000000000E+00  0.00000000000E+00  0.91188000000E+02  0.91188000000E+02 0.  0.
    9900012    2    3    3    0    0  0.17499313918E+02 -0.12651969416E+02 -0.37647397185E+02  0.47787253088E+02  0.19999918129E+02 0.  0.
         12    1    3    3    0    0 -0.17499313918E+02  0.12651969416E+02  0.37647397185E+02  0.43400746912E+02  0.00000000000E+00 0. -1.
         11    1    4    4    0    0  0.11224723405E+02 -0.79287812255E+01 -0.13530389236E+02  0.19285523596E+02  0.51100000000E-03 0. -1.
        -11    1    4    4    0    0  0.60961107181E+01  0.21707514027E+01 -0.49964114390E+01  0.81755033526E+01  0.51100000000E-03 0.  1.
        -12    1    4    4    0    0  0.17847979496E+00 -0.68939395927E+01 -0.19120596510E+02  0.20326226139E+02  0.00000000000E+00 0.  1.
</event>
<event>
 8    1  0.3736105E-010  0.9118800E+02  0.7816164E-02  0.1184000E+00
        -11   -1    0    0    0    0  0.00000000000E+00  0.00000000000E+00  0.45593999997E+02  0.45594000000E+02  0.51100000000E-03 0. -1.
         11   -1    0    0    0    0 -0.00000000000E+00 -0.00000000000E+00 -0.45593999997E+02  0.45594000000E+02  0.51100000000E-03 0.  1.
         23    2    1    2    0    0  0.00000000000E+00  0.00000000000E+00  0.00000000000E+00  0.91188000000E+02  0.91188000000E+02 0.  0.
    9900012    2    3    3    0    0  0.65055785131E+01  0.22223167329E+02  0.36707385202E+02  0.47787264450E+02  0.19999969932E+02 0.  0.
        -12    1    3    3    0    0 -0.65055785131E+01 -0.22223167329E+02 -0.36707385202E+02  0.43400735550E+02  0.00000000000E+00 0.  1.
         11    1    4    4    0    0  0.42178781941E+01  0.24251160379E+01  0.47871565336E+01  0.68255807222E+01  0.51100000000E-03 0. -1.
        -11    1    4    4    0    0  0.22636391457E+01 -0.23899409270E+01  0.26135236862E+01  0.42031400329E+01  0.51100000000E-03 0.  1.
         12    1    4    4    0    0  0.24061173325E-01  0.22187992219E+02  0.29306704982E+02  0.36758543695E+02  0.00000000000E+00 0. -1.
</event>
<event>
 8    1  0.2994958E-010  0.9118800E+02  0.7816164E-02  0.1184000E+00
        -11   -1    0    0    0    0  0.00000000000E+00  0.00000000000E+00  0.45593999997E+02  0.45594000000E+02  0.51100000000E-03 0. -1.
         11   -1    0    0    0    0 -0.00000000000E+00 -0.00000000000E+00 -0.45593999997E+02  0.45594000000E+02  0.51100000000E-03 0.  1.
         23    2    1    2    0    0  0.00000000000E+00 -0.35527136788E-14  0.00000000000E+00  0.91188000000E+02  0.91188000000E+02 0.  0.
    9900012    2    3    3    0    0 -0.17609940487E+02 -0.30007679872E+02 -0.25943253056E+02  0.47787271499E+02  0.20000002074E+02 0.  0.
         12    1    3    3    0    0  0.17609940487E+02  0.30007679872E+02  0.25943253056E+02  0.43400728501E+02  0.00000000000E+00 0. -1.
         11    1    4    4    0    0  0.27176130297E+01 -0.75650489134E+01 -0.78054796231E+01  0.11204503472E+02  0.51100000000E-03 0. -1.
        -11    1    4    4    0    0 -0.25548594844E+01 -0.92156352651E+01 -0.64416141001E+01  0.11530378693E+02  0.51100000000E-03 0.  1.
        -12    1    4    4    0    0 -0.17772694032E+02 -0.13226995694E+02 -0.11696159333E+02  0.25052389335E+02  0.00000000000E+00 0.  1.
</event>
<event>
 8    1  0.3566666E-010  0.9118800E+02  0.7816164E-02  0.1184000E+00
        -11   -1    0    0    0    0  0.00000000000E+00  0.00000000000E+00  0.45593999997E+02  0.45594000000E+02  0.51100000000E-03 0. -1.
         11   -1    0    0    0    0 -0.00000000000E+00 -0.00000000000E+00 -0.45593999997E+02  0.45594000000E+02  0.51100000000E-03 0.  1.
         23    2    1    2    0    0  0.00000000000E+00  0.44408920985E-15 -0.35527136788E-14  0.91188000000E+02  0.91188000000E+02 0.  0.
    9900012    2    3    3    0    0 -0.31682491816E+02 -0.32148347985E+01  0.29487397400E+02  0.47787285077E+02  0.20000063979E+02 0.  0.
        -12    1    3    3    0    0  0.31682491816E+02  0.32148347985E+01 -0.29487397400E+02  0.43400714923E+02  0.00000000000E+00 0.  1.
         11    1    4    4    0    0 -0.13762047283E+01  0.29161767484E+01  0.24944878793E+01  0.40768242938E+01  0.51100000000E-03 0. -1.
        -11    1    4    4    0    0  0.92124974122E+00 -0.17140322175E+01 -0.34084774537E+00  0.19755467535E+01  0.51100000000E-03 0.  1.
         12    1    4    4    0    0 -0.31227536829E+02 -0.44169793293E+01  0.27333757266E+02  0.41734914029E+02  0.00000000000E+00 0. -1.
</event>
<event>
 8    1  0.2994958E-010  0.9118800E+02  0.7816164E-02  0.1184000E+00
        -11   -1    0    0    0    0  0.00000000000E+00  0.00000000000E+00  0.45593999997E+02  0.45594000000E+02  0.51100000000E-03 0. -1.
         11   -1    0    0    0    0 -0.00000000000E+00 -0.00000000000E+00 -0.45593999997E+02  0.45594000000E+02  0.51100000000E-03 0.  1.
         23    2    1    2    0    0 -0.44408920985E-15  0.00000000000E+00  0.00000000000E+00  0.91188000000E+02  0.91188000000E+02 0.  0.
    9900012    2    3    3    0    0 -0.33514604860E+01 -0.17969900597E+02 -0.39363356097E+02  0.47787269384E+02  0.19999992428E+02 0.  0.
         12    1    3    3    0    0  0.33514604860E+01  0.17969900597E+02  0.39363356097E+02  0.43400730616E+02  0.00000000000E+00 0. -1.
         11    1    4    4    0    0 -0.20705592711E+01 -0.60225292526E+01 -0.24349512264E+01  0.68181421245E+01  0.51100000000E-03 0. -1.
        -11    1    4    4    0    0 -0.39968796048E+01 -0.13112882115E+02 -0.23383690789E+02  0.27105713772E+02  0.51100000000E-03 0.  1.
         12    1    4    4    0    0  0.27159783898E+01  0.11655107703E+01 -0.13544714081E+02  0.13863413487E+02  0.00000000000E+00 0. -1.
</event>
<event>
 8    1  0.2994958E-010  0.9118800E+02  0.7816164E-02  0.1184000E+00
        -11   -1    0    0    0    0  0.00000000000E+00  0.00000000000E+00  0.45593999997E+02  0.45594000000E+02  0.51100000000E-03 0. -1.
         11   -1    0    0    0    0 -0.00000000000E+00 -0.00000000000E+00 -0.45593999997E+02  0.45594000000E+02  0.51100000000E-03 0.  1.
         23    2    1    2    0    0  0.00000000000E+00  0.00000000000E+00 -0.17763568394E-14  0.91188000000E+02  0.91188000000E+02 0.  0.
    9900012    2    3    3    0    0 -0.16197079504E+02  0.39716121883E+02 -0.66262982733E+01  0.47787267856E+02  0.19999985461E+02 0.  0.
        -12    1    3    3    0    0  0.16197079504E+02 -0.39716121883E+02  0.66262982733E+01  0.43400732144E+02  0.00000000000E+00 0.  1.
         11    1    4    4    0    0 -0.12454035864E+02  0.19660143455E+02  0.54807958251E+01  0.23909482912E+02  0.51100000000E-03 0. -1.
        -11    1    4    4    0    0 -0.44988059682E+00  0.28824125619E+01 -0.29085447032E+01  0.41195057082E+01  0.51100000000E-03 0.  1.
         12    1    4    4    0    0 -0.32931630429E+01  0.17173565865E+02 -0.91985493952E+01  0.19758279235E+02  0.00000000000E+00 0. -1.
</event>
<event>
 8    1  0.2994958E-010  0.9118800E+02  0.7816164E-02  0.1184000E+00
        -11   -1    0    0    0    0  0.00000000000E+00  0.00000000000E+00  0.45593999997E+02  0.45594000000E+02  0.51100000000E-03 0. -1.
         11   -1    0    0    0    0 -0.00000000000E+00 -0.00000000000E+00 -0.45593999997E+02  0.45594000000E+02  0.51100000000E-03 0.  1.
         23    2    1    2    0    0 -0.44408920985E-15  0.35527136788E-14  0.71054273576E-14  0.91188000000E+02  0.91188000000E+02 0.  0.
    9900012    2    3    3    0    0  0.27377057935E+01 -0.21449057610E+02 -0.37630659693E+02  0.47787266662E+02  0.19999980017E+02 0.  0.
         12    1    3    3    0    0 -0.27377057935E+01  0.21449057610E+02  0.37630659693E+02  0.43400733338E+02  0.00000000000E+00 0. -1.
         11    1    4    4    0    0 -0.13077711042E+01  0.29133994964E+00 -0.14175185640E+02  0.14238364809E+02  0.51100000000E-03 0. -1.
        -11    1    4    4    0    0 -0.31445277671E+00 -0.99737212452E+01 -0.16277009059E+02  0.19092276454E+02  0.51100000000E-03 0.  1.
         12    1    4    4    0    0  0.43599296744E+01 -0.11766676315E+02 -0.71784649939E+01  0.14456625399E+02  0.00000000000E+00 0. -1.
</event>
<event>
 8    1  0.3333995E-010  0.9118800E+02  0.7816164E-02  0.1184000E+00
        -11   -1    0    0    0    0  0.00000000000E+00  0.00000000000E+00  0.45593999997E+02  0.45594000000E+02  0.51100000000E-03 0. -1.
         11   -1    0    0    0    0 -0.00000000000E+00 -0.00000000000E+00 -0.45593999997E+02  0.45594000000E+02  0.51100000000E-03 0.  1.
         23    2    1    2    0    0  0.00000000000E+00  0.00000000000E+00  0.35527136788E-14  0.91188000000E+02  0.91188000000E+02 0.  0.
    9900012    2    3    3    0    0 -0.14808446626E+02  0.37393255960E+02  0.16311888428E+02  0.47787269743E+02  0.19999994066E+02 0.  0.
        -12    1    3    3    0    0  0.14808446626E+02 -0.37393255960E+02 -0.16311888428E+02  0.43400730257E+02  0.00000000000E+00 0.  1.
         11    1    4    4    0    0 -0.43899057870E+01  0.30708499711E+01 -0.11010727347E+01  0.54693467427E+01  0.51100000000E-03 0.  1.
        -11    1    4    4    0    0  0.69228111268E+00 -0.11609799716E+01  0.29033209673E+00  0.13825413632E+01  0.51100000000E-03 0. -1.
         12    1    4    4    0    0 -0.11110821952E+02  0.35483385960E+02  0.17122629066E+02  0.40935381637E+02  0.00000000000E+00 0. -1.
</event>
<event>
 8    1  0.2994958E-010  0.9118800E+02  0.7816164E-02  0.1184000E+00
        -11   -1    0    0    0    0  0.00000000000E+00  0.00000000000E+00  0.45593999997E+02  0.45594000000E+02  0.51100000000E-03 0. -1.
         11   -1    0    0    0    0 -0.00000000000E+00 -0.00000000000E+00 -0.45593999997E+02  0.45594000000E+02  0.51100000000E-03 0.  1.
         23    2    1    2    0    0  0.00000000000E+00 -0.71054273576E-14 -0.35527136788E-14  0.91188000000E+02  0.91188000000E+02 0.  0.
    9900012    2    3    3    0    0  0.93442206158E+01  0.32381418379E+02  0.27345060989E+02  0.47787273329E+02  0.20000010414E+02 0.  0.
        -12    1    3    3    0    0 -0.93442206158E+01 -0.32381418379E+02 -0.27345060989E+02  0.43400726671E+02  0.00000000000E+00 0.  1.
         11    1    4    4    0    0 -0.98276530290E+00  0.94624473869E+01  0.11204495141E+02  0.14698450593E+02  0.51100000000E-03 0. -1.
        -11    1    4    4    0    0  0.23286178457E+01  0.19225513720E+02  0.14338655933E+02  0.24096470553E+02  0.51100000000E-03 0.  1.
        -12    1    4    4    0    0  0.79983680730E+01  0.36934572716E+01  0.18019099148E+01  0.89923521833E+01  0.00000000000E+00 0.  1.
</event>
<event>
 8    1  0.2994958E-010  0.9118800E+02  0.7816164E-02  0.1184000E+00
        -11   -1    0    0    0    0  0.00000000000E+00  0.00000000000E+00  0.45593999997E+02  0.45594000000E+02  0.51100000000E-03 0. -1.
         11   -1    0    0    0    0 -0.00000000000E+00 -0.00000000000E+00 -0.45593999997E+02  0.45594000000E+02  0.51100000000E-03 0.  1.
         23    2    1    2    0    0  0.00000000000E+00  0.35527136788E-14 -0.71054273576E-14  0.91188000000E+02  0.91188000000E+02 0.  0.
    9900012    2    3    3    0    0 -0.52218586854E+01  0.26474319916E+02 -0.33992146042E+02  0.47787269411E+02  0.19999992551E+02 0.  0.
         12    1    3    3    0    0  0.52218586854E+01 -0.26474319916E+02  0.33992146042E+02  0.43400730589E+02  0.00000000000E+00 0. -1.
         11    1    4    4    0    0  0.32407213381E+01  0.11051504994E+02 -0.97999032081E+01  0.15122041548E+02  0.51100000000E-03 0. -1.
        -11    1    4    4    0    0 -0.17054394038E+01  0.11768442175E+02 -0.21417920696E+02  0.24497593392E+02  0.51100000000E-03 0.  1.
         12    1    4    4    0    0 -0.67571406197E+01  0.36543727463E+01 -0.27743221381E+01  0.81676344708E+01  0.00000000000E+00 0. -1.
</event>
<event>
 8    1  0.2994958E-010  0.9118800E+02  0.7816164E-02  0.1184000E+00
        -11   -1    0    0    0    0  0.00000000000E+00  0.00000000000E+00  0.45593999997E+02  0.45594000000E+02  0.51100000000E-03 0. -1.
         11   -1    0    0    0    0 -0.00000000000E+00 -0.00000000000E+00 -0.45593999997E+02  0.45594000000E+02  0.51100000000E-03 0.  1.
         23    2    1    2    0    0  0.00000000000E+00  0.00000000000E+00  0.00000000000E+00  0.91188000000E+02  0.91188000000E+02 0.  0.
    9900012    2    3    3    0    0  0.23267290213E+02  0.20481874037E+02  0.30376802837E+02  0.47787261428E+02  0.19999956156E+02 0.  0.
        -12    1    3    3    0    0 -0.23267290213E+02 -0.20481874037E+02 -0.30376802837E+02  0.43400738572E+02  0.00000000000E+00 0.  1.
         11    1    4    4    0    0  0.98069633043E+01  0.62444105882E+01  0.11901849331E+02  0.16638005007E+02  0.51100000000E-03 0. -1.
        -11    1    4    4    0    0  0.86754955589E+00 -0.34423168919E+00  0.10096717505E+02  0.10139765398E+02  0.51100000000E-03 0.  1.
        -12    1    4    4    0    0  0.12592777353E+02  0.14581695138E+02  0.83782360013E+01  0.21009491024E+02  0.00000000000E+00 0.  1.
</event>
<event>
 8    1  0.2994958E-010  0.9118800E+02  0.7816164E-02  0.1184000E+00
        -11   -1    0    0    0    0  0.00000000000E+00  0.00000000000E+00  0.45593999997E+02  0.45594000000E+02  0.51100000000E-03 0. -1.
         11   -1    0    0    0    0 -0.00000000000E+00 -0.00000000000E+00 -0.45593999997E+02  0.45594000000E+02  0.51100000000E-03 0.  1.
         23    2    1    2    0    0  0.00000000000E+00  0.00000000000E+00 -0.17763568394E-14  0.91188000000E+02  0.91188000000E+02 0.  0.
    9900012    2    3    3    0    0  0.34644545854E+02  0.25952883078E+02  0.31347426941E+01  0.47787270637E+02  0.19999998143E+02 0.  0.
        -12    1    3    3    0    0 -0.34644545854E+02 -0.25952883078E+02 -0.31347426941E+01  0.43400729363E+02  0.00000000000E+00 0.  1.
         11    1    4    4    0    0  0.40307356447E+01  0.42903005502E+01  0.22035968471E+00  0.58908460598E+01  0.51100000000E-03 0. -1.
        -11    1    4    4    0    0  0.19229179052E+02  0.11980318117E+02  0.10688108586E+02  0.25050449389E+02  0.51100000000E-03 0.  1.
        -12    1    4    4    0    0  0.11384631157E+02  0.96822644107E+01 -0.77737255766E+01  0.16845975188E+02  0.00000000000E+00 0.  1.
</event>
<event>
 8    1  0.2994958E-010  0.9118800E+02  0.7816164E-02  0.1184000E+00
        -11   -1    0    0    0    0  0.00000000000E+00  0.00000000000E+00  0.45593999997E+02  0.45594000000E+02  0.51100000000E-03 0. -1.
         11   -1    0    0    0    0 -0.00000000000E+00 -0.00000000000E+00 -0.45593999997E+02  0.45594000000E+02  0.51100000000E-03 0.  1.
         23    2    1    2    0    0  0.00000000000E+00  0.00000000000E+00 -0.17763568394E-14  0.91188000000E+02  0.91188000000E+02 0.  0.
    9900012    2    3    3    0    0  0.44314783748E+01 -0.41210930514E+02  0.12870296066E+02  0.47787270568E+02  0.19999997828E+02 0.  0.
        -12    1    3    3    0    0 -0.44314783748E+01  0.41210930514E+02 -0.12870296066E+02  0.43400729432E+02  0.00000000000E+00 0.  1.
         11    1    4    4    0    0  0.44581210376E+01 -0.26475117017E+02  0.12049367307E+02  0.29427774584E+02  0.51100000000E-03 0. -1.
        -11    1    4    4    0    0  0.24752731477E+01 -0.81494543256E+00  0.30819250680E+01  0.40360098612E+01  0.51100000000E-03 0.  1.
        -12    1    4    4    0    0 -0.25019158105E+01 -0.13920868064E+02 -0.22609963085E+01  0.14323486122E+02  0.00000000000E+00 0.  1.
</event>
<event>
 8    1  0.2994958E-010  0.9118800E+02  0.7816164E-02  0.1184000E+00
        -11   -1    0    0    0    0  0.00000000000E+00  0.00000000000E+00  0.45593999997E+02  0.45594000000E+02  0.51100000000E-03 0. -1.
         11   -1    0    0    0    0 -0.00000000000E+00 -0.00000000000E+00 -0.45593999997E+02  0.45594000000E+02  0.51100000000E-03 0.  1.
         23    2    1    2    0    0  0.00000000000E+00  0.35527136788E-14  0.35527136788E-14  0.91188000000E+02  0.91188000000E+02 0.  0.
    9900012    2    3    3    0    0  0.32197482455E+02  0.21166426669E+02 -0.19973180618E+02  0.47787269149E+02  0.19999991360E+02 0.  0.
         12    1    3    3    0    0 -0.32197482455E+02 -0.21166426669E+02  0.19973180618E+02  0.43400730851E+02  0.00000000000E+00 0. -1.
         11    1    4    4    0    0  0.24763856666E+02  0.10706132693E+02 -0.12440181675E+02  0.29709055767E+02  0.51100000000E-03 0. -1.
        -11    1    4    4    0    0  0.63548248182E+01  0.65722596955E+01 -0.98390792326E+01  0.13430780930E+02  0.51100000000E-03 0.  1.
         12    1    4    4    0    0  0.10788009707E+01  0.38880342802E+01  0.23060802894E+01  0.46474324524E+01  0.00000000000E+00 0. -1.
</event>
<event>
 8    1  0.2994958E-010  0.9118800E+02  0.7816164E-02  0.1184000E+00
        -11   -1    0    0    0    0  0.00000000000E+00  0.00000000000E+00  0.45593999997E+02  0.45594000000E+02  0.51100000000E-03 0.  1.
         11   -1    0    0    0    0 -0.00000000000E+00 -0.00000000000E+00 -0.45593999997E+02  0.45594000000E+02  0.51100000000E-03 0. -1.
         23    2    1    2    0    0  0.00000000000E+00  0.00000000000E+00  0.24980018054E-15  0.91188000000E+02  0.91188000000E+02 0.  0.
    9900012    2    3    3    0    0 -0.18265582724E+02  0.39369690876E+02  0.13778342463E+00  0.47787273553E+02  0.20000011437E+02 0.  0.
         12    1    3    3    0    0  0.18265582724E+02 -0.39369690876E+02 -0.13778342463E+00  0.43400726447E+02  0.00000000000E+00 0. -1.
         11    1    4    4    0    0 -0.81344662039E+00  0.27934826949E+00 -0.36882451376E+01  0.37871999309E+01  0.51100000000E-03 0. -1.
        -11    1    4    4    0    0 -0.41032368559E+01  0.83701362092E+01 -0.30468336828E+01  0.98070856327E+01  0.51100000000E-03 0.  1.
        -12    1    4    4    0    0 -0.13348899247E+02  0.30720206397E+02  0.68728622451E+01  0.34192987989E+02  0.00000000000E+00 0.  1.
</event>
<event>
 8    1  0.2994958E-010  0.9118800E+02  0.7816164E-02  0.1184000E+00
        -11   -1    0    0    0    0  0.00000000000E+00  0.00000000000E+00  0.45593999997E+02  0.45594000000E+02  0.51100000000E-03 0.  1.
         11   -1    0    0    0    0 -0.00000000000E+00 -0.00000000000E+00 -0.45593999997E+02  0.45594000000E+02  0.51100000000E-03 0. -1.
         23    2    1    2    0    0 -0.17763568394E-14  0.71054273576E-14  0.00000000000E+00  0.91188000000E+02  0.91188000000E+02 0.  0.
    9900012    2    3    3    0    0 -0.11959538987E+02  0.41386997213E+02 -0.52638245664E+01  0.47787286179E+02  0.20000069006E+02 0.  0.
        -12    1    3    3    0    0  0.11959538987E+02 -0.41386997213E+02  0.52638245664E+01  0.43400713821E+02  0.00000000000E+00 0.  1.
         11    1    4    4    0    0 -0.33336568007E+01  0.52605092154E+01 -0.35114156783E+01  0.71495639865E+01  0.51100000000E-03 0. -1.
        -11    1    4    4    0    0  0.23729202502E+01  0.44481204470E+01  0.42224473668E+01  0.65761377762E+01  0.51100000000E-03 0.  1.
         12    1    4    4    0    0 -0.10998802437E+02  0.31678367550E+02 -0.59748562549E+01  0.34061584417E+02  0.00000000000E+00 0. -1.
</event>
<event>
 8    1  0.2994958E-010  0.9118800E+02  0.7816164E-02  0.1184000E+00
        -11   -1    0    0    0    0  0.00000000000E+00  0.00000000000E+00  0.45593999997E+02  0.45594000000E+02  0.51100000000E-03 0. -1.
         11   -1    0    0    0    0 -0.00000000000E+00 -0.00000000000E+00 -0.45593999997E+02  0.45594000000E+02  0.51100000000E-03 0.  1.
         23    2    1    2    0    0  0.00000000000E+00  0.00000000000E+00  0.00000000000E+00  0.91188000000E+02  0.91188000000E+02 0.  0.
    9900012    2    3    3    0    0  0.11537322740E+02 -0.41494726156E+02 -0.53573539562E+01  0.47787270096E+02  0.19999995676E+02 0.  0.
        -12    1    3    3    0    0 -0.11537322740E+02  0.41494726156E+02  0.53573539562E+01  0.43400729904E+02  0.00000000000E+00 0.  1.
         11    1    4    4    0    0  0.32406656221E+01 -0.48720115182E+01 -0.19646293401E+01  0.61723722031E+01  0.51100000000E-03 0. -1.
        -11    1    4    4    0    0  0.32175618188E+01 -0.73976447270E+01  0.64848392596E+01  0.10350410236E+02  0.51100000000E-03 0.  1.
         12    1    4    4    0    0  0.50790952990E+01 -0.29225069911E+02 -0.98775638757E+01  0.31264487657E+02  0.00000000000E+00 0. -1.
</event>
<event>
 8    1  0.2994958E-010  0.9118800E+02  0.7816164E-02  0.1184000E+00
        -11   -1    0    0    0    0  0.00000000000E+00  0.00000000000E+00  0.45593999997E+02  0.45594000000E+02  0.51100000000E-03 0. -1.
         11   -1    0    0    0    0 -0.00000000000E+00 -0.00000000000E+00 -0.45593999997E+02  0.45594000000E+02  0.51100000000E-03 0.  1.
         23    2    1    2    0    0  0.00000000000E+00  0.00000000000E+00  0.00000000000E+00  0.91188000000E+02  0.91188000000E+02 0.  0.
    9900012    2    3    3    0    0 -0.85316088750E+01 -0.37516685579E+02  0.20083148494E+02  0.47787275348E+02  0.20000019622E+02 0.  0.
        -12    1    3    3    0    0  0.85316088750E+01  0.37516685579E+02 -0.20083148494E+02  0.43400724652E+02  0.00000000000E+00 0.  1.
         11    1    4    4    0    0  0.84057543370E+00 -0.11924180861E+02  0.10679857794E+02  0.16029722987E+02  0.51100000000E-03 0. -1.
        -11    1    4    4    0    0  0.23300788951E+01 -0.61564122585E+01  0.58252983271E+01  0.87900387038E+01  0.51100000000E-03 0.  1.
         12    1    4    4    0    0 -0.11702263204E+02 -0.19436092460E+02  0.35779923732E+01  0.22967513658E+02  0.00000000000E+00 0. -1.
</event>
<event>
 8    1  0.2994958E-010  0.9118800E+02  0.7816164E-02  0.1184000E+00
        -11   -1    0    0    0    0  0.00000000000E+00  0.00000000000E+00  0.45593999997E+02  0.45594000000E+02  0.51100000000E-03 0.  1.
         11   -1    0    0    0    0 -0.00000000000E+00 -0.00000000000E+00 -0.45593999997E+02  0.45594000000E+02  0.51100000000E-03 0. -1.
         23    2    1    2    0    0  0.00000000000E+00 -0.35527136788E-14  0.00000000000E+00  0.91188000000E+02  0.91188000000E+02 0.  0.
    9900012    2    3    3    0    0 -0.30978570569E+02  0.23002300410E+02 -0.19870724144E+02  0.47787270322E+02  0.19999996704E+02 0.  0.
         12    1    3    3    0    0  0.30978570569E+02 -0.23002300410E+02  0.19870724144E+02  0.43400729678E+02  0.00000000000E+00 0. -1.
         11    1    4    4    0    0 -0.29963250170E+01  0.10003541611E+01 -0.86280040196E-01  0.31600817334E+01  0.51100000000E-03 0. -1.
        -11    1    4    4    0    0 -0.21741043837E+02  0.22703452144E+02 -0.99743393390E+01  0.32978889792E+02  0.51100000000E-03 0.  1.
         12    1    4    4    0    0 -0.62412017147E+01 -0.70150589541E+00 -0.98101047644E+01  0.11648298797E+02  0.00000000000E+00 0. -1.
</event>
<event>
 8    1  0.3197121E-010  0.9118800E+02  0.7816164E-02  0.1184000E+00
        -11   -1    0    0    0    0  0.00000000000E+00  0.00000000000E+00  0.45593999997E+02  0.45594000000E+02  0.51100000000E-03 0. -1.
         11   -1    0    0    0    0 -0.00000000000E+00 -0.00000000000E+00 -0.45593999997E+02  0.45594000000E+02  0.51100000000E-03 0.  1.
         23    2    1    2    0    0  0.35527136788E-14  0.00000000000E+00  0.00000000000E+00  0.91188000000E+02  0.91188000000E+02 0.  0.
    9900012    2    3    3    0    0  0.31555067797E+02 -0.15817447199E+02  0.25252918147E+02  0.47787264816E+02  0.19999971602E+02 0.  0.
        -12    1    3    3    0    0 -0.31555067797E+02  0.15817447199E+02 -0.25252918147E+02  0.43400735184E+02  0.00000000000E+00 0.  1.
         11    1    4    4    0    0 -0.89947403073E-01  0.15441290384E+01  0.34144118100E+00  0.15839846476E+01  0.51100000000E-03 0. -1.
        -11    1    4    4    0    0  0.74918397513E+01 -0.30416888865E+00  0.11515081087E+02  0.13741079808E+02  0.51100000000E-03 0.  1.
         12    1    4    4    0    0  0.24153175449E+02 -0.17057407349E+02  0.13396395879E+02  0.32462200361E+02  0.00000000000E+00 0. -1.
</event>
<event>
 8    1  0.2994958E-010  0.9118800E+02  0.7816164E-02  0.1184000E+00
        -11   -1    0    0    0    0  0.00000000000E+00  0.00000000000E+00  0.45593999997E+02  0.45594000000E+02  0.51100000000E-03 0. -1.
         11   -1    0    0    0    0 -0.00000000000E+00 -0.00000000000E+00 -0.45593999997E+02  0.45594000000E+02  0.51100000000E-03 0.  1.
         23    2    1    2    0    0  0.00000000000E+00  0.00000000000E+00  0.00000000000E+00  0.91188000000E+02  0.91188000000E+02 0.  0.
    9900012    2    3    3    0    0 -0.77963683525E+01 -0.31242372683E+02  0.29099030501E+02  0.47787276660E+02  0.20000025602E+02 0.  0.
        -12    1    3    3    0    0  0.77963683525E+01  0.31242372683E+02 -0.29099030501E+02  0.43400723340E+02  0.00000000000E+00 0.  1.
         11    1    4    4    0    0 -0.63920768789E-02 -0.18662193959E+02  0.19228653687E+02  0.26795869963E+02  0.51100000000E-03 0. -1.
        -11    1    4    4    0    0  0.28352970376E+01 -0.17868816888E+01  0.22507440717E+01  0.40370415651E+01  0.51100000000E-03 0.  1.
         12    1    4    4    0    0 -0.10625273313E+02 -0.10793297036E+02  0.76196327420E+01  0.16954365131E+02  0.00000000000E+00 0. -1.
</event>
<event>
 8    1  0.2994958E-010  0.9118800E+02  0.7816164E-02  0.1184000E+00
        -11   -1    0    0    0    0  0.00000000000E+00  0.00000000000E+00  0.45593999997E+02  0.45594000000E+02  0.51100000000E-03 0.  1.
         11   -1    0    0    0    0 -0.00000000000E+00 -0.00000000000E+00 -0.45593999997E+02  0.45594000000E+02  0.51100000000E-03 0. -1.
         23    2    1    2    0    0  0.00000000000E+00  0.00000000000E+00  0.00000000000E+00  0.91188000000E+02  0.91188000000E+02 0.  0.
    9900012    2    3    3    0    0 -0.24985410996E+02  0.28885990858E+02  0.20614392849E+02  0.47787257805E+02  0.19999939638E+02 0.  0.
        -12    1    3    3    0    0  0.24985410996E+02 -0.28885990858E+02 -0.20614392849E+02  0.43400742195E+02  0.00000000000E+00 0.  1.
         11    1    4    4    0    0 -0.52672191499E+01  0.97727665161E+00  0.55378309465E+01  0.77049489991E+01  0.51100000000E-03 0. -1.
        -11    1    4    4    0    0 -0.12552357801E+02  0.57640471806E+01  0.66358772436E+01  0.15323863525E+02  0.51100000000E-03 0.  1.
        -12    1    4    4    0    0 -0.71658340453E+01  0.22144667026E+02  0.84406846590E+01  0.24758445282E+02  0.00000000000E+00 0.  1.
</event>
<event>
 8    1  0.2994958E-010  0.9118800E+02  0.7816164E-02  0.1184000E+00
        -11   -1    0    0    0    0  0.00000000000E+00  0.00000000000E+00  0.45593999997E+02  0.45594000000E+02  0.51100000000E-03 0. -1.
         11   -1    0    0    0    0 -0.00000000000E+00 -0.00000000000E+00 -0.45593999997E+02  0.45594000000E+02  0.51100000000E-03 0.  1.
         23    2    1    2    0    0  0.88817841970E-15  0.00000000000E+00  0.00000000000E+00  0.91188000000E+02  0.91188000000E+02 0.  0.
    9900012    2    3    3    0    0  0.78719502994E+01  0.12613134411E+02 -0.40774562545E+02  0.47787265998E+02  0.19999976992E+02 0.  0.
         12    1    3    3    0    0 -0.78719502994E+01 -0.12613134411E+02  0.40774562545E+02  0.43400734002E+02  0.00000000000E+00 0. -1.
         11    1    4    4    0    0  0.18727600448E+01  0.33435583496E+01 -0.30977347028E+01  0.49277350956E+01  0.51100000000E-03 0. -1.
        -11    1    4    4    0    0  0.16415280897E+01 -0.37436418051E+01 -0.20349113324E+02  0.20755622895E+02  0.51100000000E-03 0.  1.
        -12    1    4    4    0    0  0.43576621650E+01  0.13013217867E+02 -0.17327714518E+02  0.22103908007E+02  0.00000000000E+00 0.  1.
</event>
<event>
 8    1  0.2994958E-010  0.9118800E+02  0.7816164E-02  0.1184000E+00
        -11   -1    0    0    0    0  0.00000000000E+00  0.00000000000E+00  0.45593999997E+02  0.45594000000E+02  0.51100000000E-03 0. -1.
         11   -1    0    0    0    0 -0.00000000000E+00 -0.00000000000E+00 -0.45593999997E+02  0.45594000000E+02  0.51100000000E-03 0.  1.
         23    2    1    2    0    0  0.00000000000E+00 -0.35527136788E-14  0.00000000000E+00  0.91188000000E+02  0.91188000000E+02 0.  0.
    9900012    2    3    3    0    0 -0.19668513441E+02  0.30429735181E+02 -0.23891507670E+02  0.47787270249E+02  0.19999996372E+02 0.  0.
         12    1    3    3    0    0  0.19668513441E+02 -0.30429735181E+02  0.23891507670E+02  0.43400729751E+02  0.00000000000E+00 0. -1.
         11    1    4    4    0    0 -0.18604817732E+01  0.15860315093E+01 -0.66513514858E+01  0.70864211860E+01  0.51100000000E-03 0. -1.
        -11    1    4    4    0    0 -0.61599208052E+01  0.51923714966E+01 -0.10954156988E+02  0.13597753552E+02  0.51100000000E-03 0.  1.
         12    1    4    4    0    0 -0.11648110863E+02  0.23651332175E+02 -0.62859991962E+01  0.27103095510E+02  0.00000000000E+00 0. -1.
</event>
<event>
 8    1  0.2994958E-010  0.9118800E+02  0.7816164E-02  0.1184000E+00
        -11   -1    0    0    0    0  0.00000000000E+00  0.00000000000E+00  0.45593999997E+02  0.45594000000E+02  0.51100000000E-03 0. -1.
         11   -1    0    0    0    0 -0.00000000000E+00 -0.00000000000E+00 -0.45593999997E+02  0.45594000000E+02  0.51100000000E-03 0.  1.
         23    2    1    2    0    0  0.00000000000E+00  0.00000000000E+00  0.00000000000E+00  0.91188000000E+02  0.91188000000E+02 0.  0.
    9900012    2    3    3    0    0 -0.17599762108E+02  0.23001192385E+02 -0.32323695327E+02  0.47787219397E+02  0.19999764517E+02 0.  0.
         12    1    3    3    0    0  0.17599762108E+02 -0.23001192385E+02  0.32323695327E+02  0.43400780603E+02  0.00000000000E+00 0. -1.
         11    1    4    4    0    0 -0.13642241656E+02  0.55148307817E+01 -0.12403846031E+02  0.19245246493E+02  0.51100000000E-03 0. -1.
        -11    1    4    4    0    0 -0.64246594136E+01  0.81264824073E+01 -0.74687643611E+01  0.12770998639E+02  0.51100000000E-03 0.  1.
        -12    1    4    4    0    0  0.24671389615E+01  0.93598791960E+01 -0.12451084934E+02  0.15770974265E+02  0.00000000000E+00 0.  1.
</event>
<event>
 8    1  0.2994958E-010  0.9118800E+02  0.7816164E-02  0.1184000E+00
        -11   -1    0    0    0    0  0.00000000000E+00  0.00000000000E+00  0.45593999997E+02  0.45594000000E+02  0.51100000000E-03 0. -1.
         11   -1    0    0    0    0 -0.00000000000E+00 -0.00000000000E+00 -0.45593999997E+02  0.45594000000E+02  0.51100000000E-03 0.  1.
         23    2    1    2    0    0 -0.17763568394E-14  0.00000000000E+00  0.00000000000E+00  0.91188000000E+02  0.91188000000E+02 0.  0.
    9900012    2    3    3    0    0 -0.14989633980E+02 -0.11417242152E+02 -0.39097066067E+02  0.47787272814E+02  0.20000008066E+02 0.  0.
         12    1    3    3    0    0  0.14989633980E+02  0.11417242152E+02  0.39097066067E+02  0.43400727186E+02  0.00000000000E+00 0. -1.
         11    1    4    4    0    0  0.22216634121E+01  0.33232437479E+01 -0.93855502406E+01  0.10201386715E+02  0.51100000000E-03 0. -1.
        -11    1    4    4    0    0 -0.87495831399E+01 -0.74635515951E+01 -0.11764878827E+02  0.16452117846E+02  0.51100000000E-03 0.  1.
         12    1    4    4    0    0 -0.84617142526E+01 -0.72769343049E+01 -0.17946637000E+02  0.21133768253E+02  0.00000000000E+00 0. -1.
</event>
<event>
 8    1  0.2994958E-010  0.9118800E+02  0.7816164E-02  0.1184000E+00
        -11   -1    0    0    0    0  0.00000000000E+00  0.00000000000E+00  0.45593999997E+02  0.45594000000E+02  0.51100000000E-03 0. -1.
         11   -1    0    0    0    0 -0.00000000000E+00 -0.00000000000E+00 -0.45593999997E+02  0.45594000000E+02  0.51100000000E-03 0.  1.
         23    2    1    2    0    0  0.17763568394E-14 -0.35527136788E-14 -0.35527136788E-14  0.91188000000E+02  0.91188000000E+02 0.  0.
    9900012    2    3    3    0    0  0.12358918619E+02 -0.27391778185E+02 -0.31314065898E+02  0.47787272994E+02  0.20000008889E+02 0.  0.
         12    1    3    3    0    0 -0.12358918619E+02  0.27391778185E+02  0.31314065898E+02  0.43400727006E+02  0.00000000000E+00 0. -1.
         11    1    4    4    0    0  0.12919754295E+01 -0.58852119098E+01 -0.15995446682E+02  0.17092666104E+02  0.51100000000E-03 0. -1.
        -11    1    4    4    0    0 -0.16018885919E+01 -0.74180092256E+01 -0.53503197688E+01  0.92854095128E+01  0.51100000000E-03 0.  1.
        -12    1    4    4    0    0  0.12668831782E+02 -0.14088557050E+02 -0.99682994471E+01  0.21409197377E+02  0.00000000000E+00 0.  1.
</event>
<event>
 8    1  0.2994958E-010  0.9118800E+02  0.7816164E-02  0.1184000E+00
        -11   -1    0    0    0    0  0.00000000000E+00  0.00000000000E+00  0.45593999997E+02  0.45594000000E+02  0.51100000000E-03 0. -1.
         11   -1    0    0    0    0 -0.00000000000E+00 -0.00000000000E+00 -0.45593999997E+02  0.45594000000E+02  0.51100000000E-03 0.  1.
         23    2    1    2    0    0  0.35527136788E-14  0.35527136788E-14  0.00000000000E+00  0.91188000000E+02  0.91188000000E+02 0.  0.
    9900012    2    3    3    0    0 -0.19323237344E+02 -0.19411594985E+02 -0.33666391708E+02  0.47787268993E+02  0.19999990648E+02 0.  0.
         12    1    3    3    0    0  0.19323237344E+02  0.19411594985E+02  0.33666391708E+02  0.43400731007E+02  0.00000000000E+00 0. -1.
         11    1    4    4    0    0 -0.33497671844E+01 -0.40930282096E+01 -0.60132660506E+01  0.80083199843E+01  0.51100000000E-03 0. -1.
        -11    1    4    4    0    0 -0.92171191064E+01 -0.10226863466E+02 -0.35264327977E+01  0.14211957976E+02  0.51100000000E-03 0.  1.
         12    1    4    4    0    0 -0.67563510530E+01 -0.50917033090E+01 -0.24126692859E+02  0.25566991033E+02  0.00000000000E+00 0. -1.
</event>
<event>
 8    1  0.2994958E-010  0.9118800E+02  0.7816164E-02  0.1184000E+00
        -11   -1    0    0    0    0  0.00000000000E+00  0.00000000000E+00  0.45593999997E+02  0.45594000000E+02  0.51100000000E-03 0. -1.
         11   -1    0    0    0    0 -0.00000000000E+00 -0.00000000000E+00 -0.45593999997E+02  0.45594000000E+02  0.51100000000E-03 0.  1.
         23    2    1    2    0    0  0.00000000000E+00  0.66613381478E-15  0.00000000000E+00  0.91188000000E+02  0.91188000000E+02 0.  0.
    9900012    2    3    3    0    0 -0.30995969860E+02 -0.34669896885E+00  0.30376856597E+02  0.47787265393E+02  0.19999974233E+02 0.  0.
        -12    1    3    3    0    0  0.30995969860E+02  0.34669896885E+00 -0.30376856597E+02  0.43400734607E+02  0.00000000000E+00 0.  1.
         11    1    4    4    0    0 -0.42899821404E+01 -0.40414235889E+01  0.15744960685E+01  0.61004991206E+01  0.51100000000E-03 0. -1.
        -11    1    4    4    0    0 -0.10246538076E+02 -0.11950866876E+01  0.30909187342E+01  0.10769101802E+02  0.51100000000E-03 0.  1.
         12    1    4    4    0    0 -0.16459449644E+02  0.48898113077E+01  0.25711441794E+02  0.30917664471E+02  0.00000000000E+00 0. -1.
</event>
<event>
 8    1  0.2994958E-010  0.9118800E+02  0.7816164E-02  0.1184000E+00
        -11   -1    0    0    0    0  0.00000000000E+00  0.00000000000E+00  0.45593999997E+02  0.45594000000E+02  0.51100000000E-03 0. -1.
         11   -1    0    0    0    0 -0.00000000000E+00 -0.00000000000E+00 -0.45593999997E+02  0.45594000000E+02  0.51100000000E-03 0.  1.
         23    2    1    2    0    0  0.00000000000E+00  0.00000000000E+00  0.35527136788E-14  0.91188000000E+02  0.91188000000E+02 0.  0.
    9900012    2    3    3    0    0 -0.34375820774E+02  0.12700863660E+02  0.23251115457E+02  0.47787270034E+02  0.19999995391E+02 0.  0.
        -12    1    3    3    0    0  0.34375820774E+02 -0.12700863660E+02 -0.23251115457E+02  0.43400729966E+02  0.00000000000E+00 0.  1.
         11    1    4    4    0    0 -0.18698970110E+02  0.25809054556E+01  0.12265236168E+02  0.22511076711E+02  0.51100000000E-03 0.  1.
        -11    1    4    4    0    0 -0.61835631571E+01  0.23286084586E+01  0.11187853684E+02  0.12993342180E+02  0.51100000000E-03 0. -1.
        -12    1    4    4    0    0 -0.94932875065E+01  0.77913497463E+01 -0.20197439510E+00  0.12282851143E+02  0.00000000000E+00 0.  1.
</event>
<event>
 8    1  0.2994958E-010  0.9118800E+02  0.7816164E-02  0.1184000E+00
        -11   -1    0    0    0    0  0.00000000000E+00  0.00000000000E+00  0.45593999997E+02  0.45594000000E+02  0.51100000000E-03 0. -1.
         11   -1    0    0    0    0 -0.00000000000E+00 -0.00000000000E+00 -0.45593999997E+02  0.45594000000E+02  0.51100000000E-03 0.  1.
         23    2    1    2    0    0  0.99920072216E-15  0.35527136788E-14  0.00000000000E+00  0.91188000000E+02  0.91188000000E+02 0.  0.
    9900012    2    3    3    0    0 -0.58199255464E+00  0.18195616730E+02  0.39398020207E+02  0.47787272129E+02  0.20000004945E+02 0.  0.
        -12    1    3    3    0    0  0.58199255464E+00 -0.18195616730E+02 -0.39398020207E+02  0.43400727871E+02  0.00000000000E+00 0.  1.
         11    1    4    4    0    0 -0.15879173259E+01  0.53599079949E+00 -0.17872153386E+00  0.16854403635E+01  0.51100000000E-03 0.  1.
        -11    1    4    4    0    0 -0.63164935563E+01  0.13915058949E+02  0.23281994206E+02  0.27849204851E+02  0.51100000000E-03 0. -1.
         12    1    4    4    0    0  0.73224183276E+01  0.37445669818E+01  0.16294747535E+02  0.18252626914E+02  0.00000000000E+00 0. -1.
</event>
<event>
 8    1  0.2994958E-010  0.9118800E+02  0.7816164E-02  0.1184000E+00
        -11   -1    0    0    0    0  0.00000000000E+00  0.00000000000E+00  0.45593999997E+02  0.45594000000E+02  0.51100000000E-03 0. -1.
         11   -1    0    0    0    0 -0.00000000000E+00 -0.00000000000E+00 -0.45593999997E+02  0.45594000000E+02  0.51100000000E-03 0.  1.
         23    2    1    2    0    0 -0.88817841970E-15  0.00000000000E+00  0.00000000000E+00  0.91188000000E+02  0.91188000000E+02 0.  0.
    9900012    2    3    3    0    0  0.30091852423E+01  0.20161608643E+02  0.38315495252E+02  0.47787276097E+02  0.20000023038E+02 0.  0.
        -12    1    3    3    0    0 -0.30091852423E+01 -0.20161608643E+02 -0.38315495252E+02  0.43400723903E+02  0.00000000000E+00 0.  1.
         11    1    4    4    0    0 -0.44797285980E+01  0.81754720330E+01  0.63616640899E+01  0.11286145557E+02  0.51100000000E-03 0.  1.
        -11    1    4    4    0    0  0.33115069547E+01  0.86170087143E-01  0.16991112495E+01  0.37229669477E+01  0.51100000000E-03 0. -1.
         12    1    4    4    0    0  0.41774068856E+01  0.11899966523E+02  0.30254719912E+02  0.32778163593E+02  0.00000000000E+00 0. -1.
</event>
<event>
 8    1  0.2994958E-010  0.9118800E+02  0.7816164E-02  0.1184000E+00
        -11   -1    0    0    0    0  0.00000000000E+00  0.00000000000E+00  0.45593999997E+02  0.45594000000E+02  0.51100000000E-03 0. -1.
         11   -1    0    0    0    0 -0.00000000000E+00 -0.00000000000E+00 -0.45593999997E+02  0.45594000000E+02  0.51100000000E-03 0.  1.
         23    2    1    2    0    0  0.00000000000E+00  0.71054273576E-14  0.00000000000E+00  0.91188000000E+02  0.91188000000E+02 0.  0.
    9900012    2    3    3    0    0 -0.74283182405E+01 -0.39604787789E+02 -0.16121539288E+02  0.47787272394E+02  0.20000006154E+02 0.  0.
         12    1    3    3    0    0  0.74283182405E+01  0.39604787789E+02  0.16121539288E+02  0.43400727606E+02  0.00000000000E+00 0. -1.
         11    1    4    4    0    0 -0.11080085526E+02 -0.16119873991E+02 -0.76495900622E+01  0.21003210734E+02  0.51100000000E-03 0. -1.
        -11    1    4    4    0    0 -0.53817106573E+00 -0.66645590980E+00  0.13433549800E+01  0.15932339562E+01  0.51100000000E-03 0.  1.
        -12    1    4    4    0    0  0.41899383510E+01 -0.22818457888E+02 -0.98153042061E+01  0.25190827704E+02  0.00000000000E+00 0.  1.
</event>
<event>
 8    1  0.2994958E-010  0.9118800E+02  0.7816164E-02  0.1184000E+00
        -11   -1    0    0    0    0  0.00000000000E+00  0.00000000000E+00  0.45593999997E+02  0.45594000000E+02  0.51100000000E-03 0. -1.
         11   -1    0    0    0    0 -0.00000000000E+00 -0.00000000000E+00 -0.45593999997E+02  0.45594000000E+02  0.51100000000E-03 0.  1.
         23    2    1    2    0    0  0.17763568394E-14  0.00000000000E+00  0.00000000000E+00  0.91188000000E+02  0.91188000000E+02 0.  0.
    9900012    2    3    3    0    0  0.77905542710E+01  0.14851320698E+02 -0.40029586208E+02  0.47787283021E+02  0.20000054605E+02 0.  0.
         12    1    3    3    0    0 -0.77905542710E+01 -0.14851320698E+02  0.40029586208E+02  0.43400716979E+02  0.00000000000E+00 0. -1.
         11    1    4    4    0    0 -0.10471210557E+01  0.56293368459E+00 -0.40717633608E+01  0.42417701453E+01  0.51100000000E-03 0. -1.
        -11    1    4    4    0    0  0.57035645040E+01  0.13725278696E+00 -0.24254219086E+02  0.24916192127E+02  0.51100000000E-03 0.  1.
        -12    1    4    4    0    0  0.31341108226E+01  0.14151134226E+02 -0.11703603761E+02  0.18629320748E+02  0.00000000000E+00 0.  1.
</event>
<event>
 8    1  0.2994958E-010  0.9118800E+02  0.7816164E-02  0.1184000E+00
        -11   -1    0    0    0    0  0.00000000000E+00  0.00000000000E+00  0.45593999997E+02  0.45594000000E+02  0.51100000000E-03 0. -1.
         11   -1    0    0    0    0 -0.00000000000E+00 -0.00000000000E+00 -0.45593999997E+02  0.45594000000E+02  0.51100000000E-03 0.  1.
         23    2    1    2    0    0  0.00000000000E+00  0.35527136788E-14  0.00000000000E+00  0.91188000000E+02  0.91188000000E+02 0.  0.
    9900012    2    3    3    0    0  0.30223800414E+02  0.26325340362E+02 -0.16646960649E+02  0.47787274712E+02  0.20000016722E+02 0.  0.
         12    1    3    3    0    0 -0.30223800414E+02 -0.26325340362E+02  0.16646960649E+02  0.43400725288E+02  0.00000000000E+00 0. -1.
         11    1    4    4    0    0  0.85588937158E+01  0.17804858598E+02 -0.86963871742E+01  0.21584596393E+02  0.51100000000E-03 0. -1.
        -11    1    4    4    0    0  0.31140806524E+01  0.42714795573E+01  0.63567388728E+00  0.53242011110E+01  0.51100000000E-03 0.  1.
        -12    1    4    4    0    0  0.18550826046E+02  0.42490022071E+01 -0.85862473623E+01  0.20878477208E+02  0.00000000000E+00 0.  1.
</event>
<event>
 8    1  0.2994958E-010  0.9118800E+02  0.7816164E-02  0.1184000E+00
        -11   -1    0    0    0    0  0.00000000000E+00  0.00000000000E+00  0.45593999997E+02  0.45594000000E+02  0.51100000000E-03 0. -1.
         11   -1    0    0    0    0 -0.00000000000E+00 -0.00000000000E+00 -0.45593999997E+02  0.45594000000E+02  0.51100000000E-03 0.  1.
         23    2    1    2    0    0  0.00000000000E+00  0.00000000000E+00 -0.35527136788E-14  0.91188000000E+02  0.91188000000E+02 0.  0.
    9900012    2    3    3    0    0 -0.15563624383E+02 -0.25763314425E+02  0.31267373027E+02  0.47787269705E+02  0.19999993894E+02 0.  0.
        -12    1    3    3    0    0  0.15563624383E+02  0.25763314425E+02 -0.31267373027E+02  0.43400730295E+02  0.00000000000E+00 0.  1.
         11    1    4    4    0    0 -0.47952517634E+01 -0.41658172498E+01  0.11187417727E+01  0.64498105591E+01  0.51100000000E-03 0. -1.
        -11    1    4    4    0    0 -0.76783616185E+01 -0.88145809702E+01  0.45232902655E+01  0.12534521527E+02  0.51100000000E-03 0.  1.
         12    1    4    4    0    0 -0.30900110012E+01 -0.12782916205E+02  0.25625340989E+02  0.28802937619E+02  0.00000000000E+00 0. -1.
</event>
<event>
 8    1  0.2994958E-010  0.9118800E+02  0.7816164E-02  0.1184000E+00
        -11   -1    0    0    0    0  0.00000000000E+00  0.00000000000E+00  0.45593999997E+02  0.45594000000E+02  0.51100000000E-03 0. -1.
         11   -1    0    0    0    0 -0.00000000000E+00 -0.00000000000E+00 -0.45593999997E+02  0.45594000000E+02  0.51100000000E-03 0.  1.
         23    2    1    2    0    0  0.00000000000E+00 -0.44408920985E-15  0.71054273576E-14  0.91188000000E+02  0.91188000000E+02 0.  0.
    9900012    2    3    3    0    0 -0.15912063741E+02  0.26230820697E+01 -0.40293284977E+02  0.47787272514E+02  0.20000006700E+02 0.  0.
         12    1    3    3    0    0  0.15912063741E+02 -0.26230820697E+01  0.40293284977E+02  0.43400727486E+02  0.00000000000E+00 0. -1.
         11    1    4    4    0    0 -0.23273658743E+01 -0.44074564087E+01 -0.80136952998E+01  0.94372462364E+01  0.51100000000E-03 0. -1.
        -11    1    4    4    0    0 -0.87746285721E+00 -0.22117624208E+01 -0.14194136638E+02  0.14392197512E+02  0.51100000000E-03 0.  1.
         12    1    4    4    0    0 -0.12707235010E+02  0.92423008992E+01 -0.18085453040E+02  0.23957828765E+02  0.00000000000E+00 0. -1.
</event>
<event>
 8    1  0.2994958E-010  0.9118800E+02  0.7816164E-02  0.1184000E+00
        -11   -1    0    0    0    0  0.00000000000E+00  0.00000000000E+00  0.45593999997E+02  0.45594000000E+02  0.51100000000E-03 0. -1.
         11   -1    0    0    0    0 -0.00000000000E+00 -0.00000000000E+00 -0.45593999997E+02  0.45594000000E+02  0.51100000000E-03 0.  1.
         23    2    1    2    0    0  0.35527136788E-14  0.00000000000E+00  0.71054273576E-14  0.91188000000E+02  0.91188000000E+02 0.  0.
    9900012    2    3    3    0    0  0.15303172998E+02 -0.19782505688E+02 -0.35469549605E+02  0.47787267468E+02  0.19999983695E+02 0.  0.
         12    1    3    3    0    0 -0.15303172998E+02  0.19782505688E+02  0.35469549605E+02  0.43400732532E+02  0.00000000000E+00 0. -1.
         11    1    4    4    0    0 -0.54960247716E-02 -0.17950954359E+01  0.84054765860E+00  0.19821499585E+01  0.51100000000E-03 0. -1.
        -11    1    4    4    0    0  0.17377635778E+02 -0.15383392359E+02 -0.35447336966E+02  0.42369147784E+02  0.51100000000E-03 0.  1.
         12    1    4    4    0    0 -0.20689667557E+01 -0.26040178936E+01 -0.86276029814E+00  0.34359697260E+01  0.00000000000E+00 0. -1.
</event>
<event>
 8    1  0.2994958E-010  0.9118800E+02  0.7816164E-02  0.1184000E+00
        -11   -1    0    0    0    0  0.00000000000E+00  0.00000000000E+00  0.45593999997E+02  0.45594000000E+02  0.51100000000E-03 0.  1.
         11   -1    0    0    0    0 -0.00000000000E+00 -0.00000000000E+00 -0.45593999997E+02  0.45594000000E+02  0.51100000000E-03 0. -1.
         23    2    1    2    0    0  0.00000000000E+00  0.00000000000E+00  0.00000000000E+00  0.91188000000E+02  0.91188000000E+02 0.  0.
    9900012    2    3    3    0    0  0.37763578390E+02  0.20184624854E+02  0.70793208941E+01  0.47787265933E+02  0.19999976693E+02 0.  0.
        -12    1    3    3    0    0 -0.37763578390E+02 -0.20184624854E+02 -0.70793208941E+01  0.43400734067E+02  0.00000000000E+00 0.  1.
         11    1    4    4    0    0  0.18541725649E+02  0.77861386019E+01 -0.34956029214E+00  0.20113222940E+02  0.51100000000E-03 0. -1.
        -11    1    4    4    0    0  0.83315992382E+01  0.11760017030E+02 -0.11153612517E+00  0.14412702279E+02  0.51100000000E-03 0.  1.
         12    1    4    4    0    0  0.10890253503E+02  0.63846922172E+00  0.75404173114E+01  0.13261340714E+02  0.00000000000E+00 0. -1.
</event>
<event>
 8    1  0.2994958E-010  0.9118800E+02  0.7816164E-02  0.1184000E+00
        -11   -1    0    0    0    0  0.00000000000E+00  0.00000000000E+00  0.45593999997E+02  0.45594000000E+02  0.51100000000E-03 0. -1.
         11   -1    0    0    0    0 -0.00000000000E+00 -0.00000000000E+00 -0.45593999997E+02  0.45594000000E+02  0.51100000000E-03 0.  1.
         23    2    1    2    0    0  0.00000000000E+00  0.00000000000E+00  0.00000000000E+00  0.91188000000E+02  0.91188000000E+02 0.  0.
    9900012    2    3    3    0    0 -0.17573357226E+02  0.35166911587E+02 -0.18387212383E+02  0.47787261135E+02  0.19999954820E+02 0.  0.
         12    1    3    3    0    0  0.17573357226E+02 -0.35166911587E+02  0.18387212383E+02  0.43400738865E+02  0.00000000000E+00 0. -1.
         11    1    4    4    0    0 -0.71293428082E+00 -0.32050732651E-01  0.26248317248E+01  0.27201184501E+01  0.51100000000E-03 0. -1.
        -11    1    4    4    0    0 -0.48183736877E+01  0.60258863401E+01 -0.74187433901E+01  0.10703540766E+02  0.51100000000E-03 0.  1.
        -12    1    4    4    0    0 -0.12042049257E+02  0.29173075980E+02 -0.13593300718E+02  0.34363601919E+02  0.00000000000E+00 0.  1.
</event>
<event>
 8    1  0.2994958E-010  0.9118800E+02  0.7816164E-02  0.1184000E+00
        -11   -1    0    0    0    0  0.00000000000E+00  0.00000000000E+00  0.45593999997E+02  0.45594000000E+02  0.51100000000E-03 0.  1.
         11   -1    0    0    0    0 -0.00000000000E+00 -0.00000000000E+00 -0.45593999997E+02  0.45594000000E+02  0.51100000000E-03 0. -1.
         23    2    1    2    0    0  0.00000000000E+00  0.00000000000E+00  0.17763568394E-14  0.91188000000E+02  0.91188000000E+02 0.  0.
    9900012    2    3    3    0    0  0.41132193412E+02  0.43295901465E+01  0.13153738314E+02  0.47787268240E+02  0.19999987212E+02 0.  0.
        -12    1    3    3    0    0 -0.41132193412E+02 -0.43295901465E+01 -0.13153738314E+02  0.43400731760E+02  0.00000000000E+00 0.  1.
         11    1    4    4    0    0  0.12212868926E+02  0.88804133532E+00  0.11708372828E+02  0.16941923721E+02  0.51100000000E-03 0. -1.
        -11    1    4    4    0    0  0.15487296031E+02 -0.92876795375E+00  0.49615888644E+01  0.16289147080E+02  0.51100000000E-03 0.  1.
        -12    1    4    4    0    0  0.13432028454E+02  0.43703167649E+01 -0.35162233784E+01  0.14556197438E+02  0.00000000000E+00 0.  1.
</event>
<event>
 8    1  0.2994958E-010  0.9118800E+02  0.7816164E-02  0.1184000E+00
        -11   -1    0    0    0    0  0.00000000000E+00  0.00000000000E+00  0.45593999997E+02  0.45594000000E+02  0.51100000000E-03 0. -1.
         11   -1    0    0    0    0 -0.00000000000E+00 -0.00000000000E+00 -0.45593999997E+02  0.45594000000E+02  0.51100000000E-03 0.  1.
         23    2    1    2    0    0  0.00000000000E+00 -0.35527136788E-14  0.71054273576E-14  0.91188000000E+02  0.91188000000E+02 0.  0.
    9900012    2    3    3    0    0  0.40333856515E+01  0.19155189324E+02 -0.38735432235E+02  0.47787272031E+02  0.20000004496E+02 0.  0.
         12    1    3    3    0    0 -0.40333856515E+01 -0.19155189324E+02  0.38735432235E+02  0.43400727969E+02  0.00000000000E+00 0. -1.
         11    1    4    4    0    0 -0.20780102584E+01 -0.22159486065E+01 -0.12054362684E+02  0.12431259584E+02  0.51100000000E-03 0. -1.
        -11    1    4    4    0    0  0.42968446909E+01  0.55305000218E+01 -0.10646333741E+02  0.12743379739E+02  0.51100000000E-03 0.  1.
         12    1    4    4    0    0  0.18145512190E+01  0.15840637909E+02 -0.16034735810E+02  0.22612632708E+02  0.00000000000E+00 0. -1.
</event>
<event>
 8    1  0.2994958E-010  0.9118800E+02  0.7816164E-02  0.1184000E+00
        -11   -1    0    0    0    0  0.00000000000E+00  0.00000000000E+00  0.45593999997E+02  0.45594000000E+02  0.51100000000E-03 0. -1.
         11   -1    0    0    0    0 -0.00000000000E+00 -0.00000000000E+00 -0.45593999997E+02  0.45594000000E+02  0.51100000000E-03 0.  1.
         23    2    1    2    0    0  0.00000000000E+00  0.00000000000E+00  0.00000000000E+00  0.91188000000E+02  0.91188000000E+02 0.  0.
    9900012    2    3    3    0    0 -0.32226890126E+01 -0.16800557530E+02  0.39887077345E+02  0.47787269627E+02  0.19999993538E+02 0.  0.
        -12    1    3    3    0    0  0.32226890126E+01  0.16800557530E+02 -0.39887077345E+02  0.43400730373E+02  0.00000000000E+00 0.  1.
         11    1    4    4    0    0 -0.12982265054E+00 -0.79902597348E+01  0.14190546961E+02  0.16285967207E+02  0.51100000000E-03 0. -1.
        -11    1    4    4    0    0 -0.33725791712E+01 -0.75362303318E+01  0.27814401202E+02  0.29013961680E+02  0.51100000000E-03 0.  1.
        -12    1    4    4    0    0  0.27971280910E+00 -0.12740674634E+01 -0.21178708180E+01  0.24873407403E+01  0.00000000000E+00 0.  1.
</event>
<event>
 8    1  0.2994958E-010  0.9118800E+02  0.7816164E-02  0.1184000E+00
        -11   -1    0    0    0    0  0.00000000000E+00  0.00000000000E+00  0.45593999997E+02  0.45594000000E+02  0.51100000000E-03 0. -1.
         11   -1    0    0    0    0 -0.00000000000E+00 -0.00000000000E+00 -0.45593999997E+02  0.45594000000E+02  0.51100000000E-03 0.  1.
         23    2    1    2    0    0  0.17763568394E-14 -0.71054273576E-14 -0.17763568394E-14  0.91188000000E+02  0.91188000000E+02 0.  0.
    9900012    2    3    3    0    0  0.81111284348E+01 -0.40288562481E+02 -0.13952243427E+02  0.47787265352E+02  0.19999974048E+02 0.  0.
         12    1    3    3    0    0 -0.81111284348E+01  0.40288562481E+02  0.13952243427E+02  0.43400734648E+02  0.00000000000E+00 0. -1.
         11    1    4    4    0    0  0.25738568136E+01 -0.16736980705E+01  0.21359861434E+01  0.37401124574E+01  0.51100000000E-03 0. -1.
        -11    1    4    4    0    0  0.81994314490E+01 -0.13997232541E+02 -0.70550334961E+01  0.17689734107E+02  0.51100000000E-03 0.  1.
         12    1    4    4    0    0 -0.26621598278E+01 -0.24617631870E+02 -0.90331960742E+01  0.26357418788E+02  0.00000000000E+00 0. -1.
</event>
<event>
 8    1  0.2994958E-010  0.9118800E+02  0.7816164E-02  0.1184000E+00
        -11   -1    0    0    0    0  0.00000000000E+00  0.00000000000E+00  0.45593999997E+02  0.45594000000E+02  0.51100000000E-03 0. -1.
         11   -1    0    0    0    0 -0.00000000000E+00 -0.00000000000E+00 -0.45593999997E+02  0.45594000000E+02  0.51100000000E-03 0.  1.
         23    2    1    2    0    0  0.00000000000E+00  0.17763568394E-14  0.00000000000E+00  0.91188000000E+02  0.91188000000E+02 0.  0.
    9900012    2    3    3    0    0  0.12085044977E+02  0.12443388256E+02  0.39783625109E+02  0.47787273621E+02  0.20000011748E+02 0.  0.
        -12    1    3    3    0    0 -0.12085044977E+02 -0.12443388256E+02 -0.39783625109E+02  0.43400726379E+02  0.00000000000E+00 0.  1.
         11    1    4    4    0    0 -0.96685890676E+00 -0.12981013001E+01  0.61316745860E+01  0.63417124360E+01  0.51100000000E-03 0. -1.
        -11    1    4    4    0    0 -0.12041313974E+01  0.23435608438E+01 -0.53749390368E+00  0.26890722951E+01  0.51100000000E-03 0.  1.
         12    1    4    4    0    0  0.14256035281E+02  0.11397928712E+02  0.34189444427E+02  0.38756488890E+02  0.00000000000E+00 0. -1.
</event>
<event>
 8    1  0.2994958E-010  0.9118800E+02  0.7816164E-02  0.1184000E+00
        -11   -1    0    0    0    0  0.00000000000E+00  0.00000000000E+00  0.45593999997E+02  0.45594000000E+02  0.51100000000E-03 0. -1.
         11   -1    0    0    0    0 -0.00000000000E+00 -0.00000000000E+00 -0.45593999997E+02  0.45594000000E+02  0.51100000000E-03 0.  1.
         23    2    1    2    0    0  0.00000000000E+00  0.35527136788E-14 -0.71054273576E-14  0.91188000000E+02  0.91188000000E+02 0.  0.
    9900012    2    3    3    0    0 -0.12447342336E+02  0.23986600229E+02 -0.33960714427E+02  0.47787269060E+02  0.19999990951E+02 0.  0.
         12    1    3    3    0    0  0.12447342336E+02 -0.23986600229E+02  0.33960714427E+02  0.43400730940E+02  0.00000000000E+00 0. -1.
         11    1    4    4    0    0 -0.10474392446E+02  0.11584489901E+02 -0.13866709732E+02  0.20885376282E+02  0.51100000000E-03 0. -1.
        -11    1    4    4    0    0 -0.30398876066E+01  0.13967890936E+02 -0.20472911350E+02  0.24969641433E+02  0.51100000000E-03 0.  1.
         12    1    4    4    0    0  0.10669377169E+01 -0.15657806085E+01  0.37890665578E+00  0.19322513448E+01  0.00000000000E+00 0. -1.
</event>
<event>
 8    1  0.2994958E-010  0.9118800E+02  0.7816164E-02  0.1184000E+00
        -11   -1    0    0    0    0  0.00000000000E+00  0.00000000000E+00  0.45593999997E+02  0.45594000000E+02  0.51100000000E-03 0. -1.
         11   -1    0    0    0    0 -0.00000000000E+00 -0.00000000000E+00 -0.45593999997E+02  0.45594000000E+02  0.51100000000E-03 0.  1.
         23    2    1    2    0    0  0.00000000000E+00  0.00000000000E+00 -0.35527136788E-14  0.91188000000E+02  0.91188000000E+02 0.  0.
    9900012    2    3    3    0    0  0.35399270854E+02 -0.13020717193E+02 -0.21470323711E+02  0.47787282800E+02  0.20000053598E+02 0.  0.
         12    1    3    3    0    0 -0.35399270854E+02  0.13020717193E+02  0.21470323711E+02  0.43400717200E+02  0.00000000000E+00 0. -1.
         11    1    4    4    0    0 -0.14538044555E+01  0.12629899654E+01 -0.25486118839E+01  0.31943878668E+01  0.51100000000E-03 0. -1.
        -11    1    4    4    0    0  0.10658110147E+02 -0.64181059609E+01 -0.95407316207E+01  0.15678423267E+02  0.51100000000E-03 0.  1.
         12    1    4    4    0    0  0.26194965163E+02 -0.78656011972E+01 -0.93809802065E+01  0.28914471666E+02  0.00000000000E+00 0. -1.
</event>
<event>
 8    1  0.2994958E-010  0.9118800E+02  0.7816164E-02  0.1184000E+00
        -11   -1    0    0    0    0  0.00000000000E+00  0.00000000000E+00  0.45593999997E+02  0.45594000000E+02  0.51100000000E-03 0. -1.
         11   -1    0    0    0    0 -0.00000000000E+00 -0.00000000000E+00 -0.45593999997E+02  0.45594000000E+02  0.51100000000E-03 0.  1.
         23    2    1    2    0    0  0.00000000000E+00  0.00000000000E+00  0.00000000000E+00  0.91188000000E+02  0.91188000000E+02 0.  0.
    9900012    2    3    3    0    0 -0.34746497010E+02  0.97019768397E+01  0.24128313963E+02  0.47787274847E+02  0.20000017338E+02 0.  0.
        -12    1    3    3    0    0  0.34746497010E+02 -0.97019768397E+01 -0.24128313963E+02  0.43400725153E+02  0.00000000000E+00 0.  1.
         11    1    4    4    0    0 -0.32162750615E+02  0.28453392913E+01  0.15962784032E+02  0.36018730643E+02  0.51100000000E-03 0. -1.
        -11    1    4    4    0    0 -0.22210349283E+01  0.21776438801E+01  0.11258889521E+01  0.33079835573E+01  0.51100000000E-03 0.  1.
         12    1    4    4    0    0 -0.36271146722E+00  0.46789936682E+01  0.70396409787E+01  0.84605606472E+01  0.00000000000E+00 0. -1.
</event>
<event>
 8    1  0.2994958E-010  0.9118800E+02  0.7816164E-02  0.1184000E+00
        -11   -1    0    0    0    0  0.00000000000E+00  0.00000000000E+00  0.45593999997E+02  0.45594000000E+02  0.51100000000E-03 0. -1.
         11   -1    0    0    0    0 -0.00000000000E+00 -0.00000000000E+00 -0.45593999997E+02  0.45594000000E+02  0.51100000000E-03 0.  1.
         23    2    1    2    0    0  0.35527136788E-14  0.00000000000E+00  0.00000000000E+00  0.91188000000E+02  0.91188000000E+02 0.  0.
    9900012    2    3    3    0    0 -0.30699268345E+02  0.10860106708E+02 -0.28692098686E+02  0.47787268190E+02  0.19999986986E+02 0.  0.
         12    1    3    3    0    0  0.30699268345E+02 -0.10860106708E+02  0.28692098686E+02  0.43400731810E+02  0.00000000000E+00 0. -1.
         11    1    4    4    0    0 -0.62669044224E+01  0.57291327358E+01 -0.15336968874E+01  0.86283995821E+01  0.51100000000E-03 0. -1.
        -11    1    4    4    0    0 -0.20656864018E+02  0.33034104343E+01 -0.13563665982E+02  0.24931738541E+02  0.51100000000E-03 0.  1.
        -12    1    4    4    0    0 -0.37754999045E+01  0.18275635382E+01 -0.13594735817E+02  0.14227130067E+02  0.00000000000E+00 0.  1.
</event>
<event>
 8    1  0.2994958E-010  0.9118800E+02  0.7816164E-02  0.1184000E+00
        -11   -1    0    0    0    0  0.00000000000E+00  0.00000000000E+00  0.45593999997E+02  0.45594000000E+02  0.51100000000E-03 0. -1.
         11   -1    0    0    0    0 -0.00000000000E+00 -0.00000000000E+00 -0.45593999997E+02  0.45594000000E+02  0.51100000000E-03 0.  1.
         23    2    1    2    0    0  0.00000000000E+00  0.00000000000E+00  0.00000000000E+00  0.91188000000E+02  0.91188000000E+02 0.  0.
    9900012    2    3    3    0    0 -0.26723342822E+02  0.76489091549E+01  0.33331311131E+02  0.47787318386E+02  0.20000215847E+02 0.  0.
        -12    1    3    3    0    0  0.26723342822E+02 -0.76489091549E+01 -0.33331311131E+02  0.43400681614E+02  0.00000000000E+00 0.  1.
         11    1    4    4    0    0 -0.11631312863E+02 -0.23735276795E+01  0.16303875844E+02  0.20167732653E+02  0.51100000000E-03 0. -1.
        -11    1    4    4    0    0 -0.72695974393E+01  0.48578926810E+01  0.15943566429E+02  0.18183604674E+02  0.51100000000E-03 0.  1.
         12    1    4    4    0    0 -0.78224325198E+01  0.51645441534E+01  0.10838688590E+01  0.94359810588E+01  0.00000000000E+00 0. -1.
</event>
<event>
 8    1  0.2994958E-010  0.9118800E+02  0.7816164E-02  0.1184000E+00
        -11   -1    0    0    0    0  0.00000000000E+00  0.00000000000E+00  0.45593999997E+02  0.45594000000E+02  0.51100000000E-03 0. -1.
         11   -1    0    0    0    0 -0.00000000000E+00 -0.00000000000E+00 -0.45593999997E+02  0.45594000000E+02  0.51100000000E-03 0.  1.
         23    2    1    2    0    0 -0.17763568394E-14  0.71054273576E-14 -0.35527136788E-14  0.91188000000E+02  0.91188000000E+02 0.  0.
    9900012    2    3    3    0    0 -0.10253093211E+02  0.32774844331E+02 -0.26538767301E+02  0.47787279832E+02  0.20000040065E+02 0.  0.
         12    1    3    3    0    0  0.10253093211E+02 -0.32774844331E+02  0.26538767301E+02  0.43400720168E+02  0.00000000000E+00 0. -1.
         11    1    4    4    0    0 -0.93446240712E+01  0.94640123567E+01 -0.13576327261E+02  0.19005425307E+02  0.51100000000E-03 0. -1.
        -11    1    4    4    0    0  0.21659702509E+01  0.11427934396E+01 -0.39658740624E+01  0.46610686879E+01  0.51100000000E-03 0.  1.
         12    1    4    4    0    0 -0.30744393909E+01  0.22168038534E+02 -0.89965659768E+01  0.24120785837E+02  0.00000000000E+00 0. -1.
</event>
<event>
 8    1  0.2994958E-010  0.9118800E+02  0.7816164E-02  0.1184000E+00
        -11   -1    0    0    0    0  0.00000000000E+00  0.00000000000E+00  0.45593999997E+02  0.45594000000E+02  0.51100000000E-03 0. -1.
         11   -1    0    0    0    0 -0.00000000000E+00 -0.00000000000E+00 -0.45593999997E+02  0.45594000000E+02  0.51100000000E-03 0.  1.
         23    2    1    2    0    0  0.44408920985E-15  0.33306690739E-15  0.00000000000E+00  0.91188000000E+02  0.91188000000E+02 0.  0.
    9900012    2    3    3    0    0  0.20936612538E+01  0.68389695081E+00 -0.43344804715E+02  0.47787271570E+02  0.20000002396E+02 0.  0.
         12    1    3    3    0    0 -0.20936612538E+01 -0.68389695081E+00  0.43344804715E+02  0.43400728430E+02  0.00000000000E+00 0. -1.
         11    1    4    4    0    0  0.39735616748E+01  0.92625976614E+01 -0.27249064828E+02  0.29053337881E+02  0.51100000000E-03 0. -1.
        -11    1    4    4    0    0  0.74842377941E+00 -0.80947772797E+00 -0.37769587279E+01  0.39345660293E+01  0.51100000000E-03 0.  1.
         12    1    4    4    0    0 -0.26283242004E+01 -0.77692229826E+01 -0.12318781159E+02  0.14799367659E+02  0.00000000000E+00 0. -1.
</event>
<event>
 8    1  0.2994958E-010  0.9118800E+02  0.7816164E-02  0.1184000E+00
        -11   -1    0    0    0    0  0.00000000000E+00  0.00000000000E+00  0.45593999997E+02  0.45594000000E+02  0.51100000000E-03 0. -1.
         11   -1    0    0    0    0 -0.00000000000E+00 -0.00000000000E+00 -0.45593999997E+02  0.45594000000E+02  0.51100000000E-03 0.  1.
         23    2    1    2    0    0  0.00000000000E+00  0.00000000000E+00  0.00000000000E+00  0.91188000000E+02  0.91188000000E+02 0.  0.
    9900012    2    3    3    0    0 -0.54632966787E+01  0.96404220356E+01  0.41962340975E+02  0.47787269502E+02  0.19999992970E+02 0.  0.
        -12    1    3    3    0    0  0.54632966787E+01 -0.96404220356E+01 -0.41962340975E+02  0.43400730498E+02  0.00000000000E+00 0.  1.
         11    1    4    4    0    0 -0.72184829005E+00 -0.72180095097E+00  0.10149056932E+02  0.10200265606E+02  0.51100000000E-03 0. -1.
        -11    1    4    4    0    0 -0.78607701853E+00 -0.23328576506E+01  0.18872520981E+02  0.19032398439E+02  0.51100000000E-03 0.  1.
         12    1    4    4    0    0 -0.39553713701E+01  0.12695080637E+02  0.12940763062E+02  0.18554605458E+02  0.00000000000E+00 0. -1.
</event>
<event>
 8    1  0.2994958E-010  0.9118800E+02  0.7816164E-02  0.1184000E+00
        -11   -1    0    0    0    0  0.00000000000E+00  0.00000000000E+00  0.45593999997E+02  0.45594000000E+02  0.51100000000E-03 0. -1.
         11   -1    0    0    0    0 -0.00000000000E+00 -0.00000000000E+00 -0.45593999997E+02  0.45594000000E+02  0.51100000000E-03 0.  1.
         23    2    1    2    0    0  0.00000000000E+00  0.35527136788E-14  0.00000000000E+00  0.91188000000E+02  0.91188000000E+02 0.  0.
    9900012    2    3    3    0    0  0.80267383372E+01  0.30873193659E+02  0.29428574285E+02  0.47787267293E+02  0.19999982896E+02 0.  0.
        -12    1    3    3    0    0 -0.80267383372E+01 -0.30873193659E+02 -0.29428574285E+02  0.43400732707E+02  0.00000000000E+00 0.  1.
         11    1    4    4    0    0  0.17221247074E+01  0.16678573689E+02  0.26354593563E+02  0.31236279163E+02  0.51100000000E-03 0. -1.
        -11    1    4    4    0    0 -0.64594800524E-01  0.32926328816E+01  0.20593046788E+01  0.38841137731E+01  0.51100000000E-03 0.  1.
        -12    1    4    4    0    0  0.63692084303E+01  0.10901987088E+02  0.10146760432E+01  0.12666874357E+02  0.00000000000E+00 0.  1.
</event>
<event>
 8    1  0.2994958E-010  0.9118800E+02  0.7816164E-02  0.1184000E+00
        -11   -1    0    0    0    0  0.00000000000E+00  0.00000000000E+00  0.45593999997E+02  0.45594000000E+02  0.51100000000E-03 0.  1.
         11   -1    0    0    0    0 -0.00000000000E+00 -0.00000000000E+00 -0.45593999997E+02  0.45594000000E+02  0.51100000000E-03 0. -1.
         23    2    1    2    0    0  0.35527136788E-14  0.00000000000E+00  0.17763568394E-14  0.91188000000E+02  0.91188000000E+02 0.  0.
    9900012    2    3    3    0    0  0.20315018741E+02  0.36240755767E+02  0.12551126127E+02  0.47787272678E+02  0.20000007448E+02 0.  0.
        -12    1    3    3    0    0 -0.20315018741E+02 -0.36240755767E+02 -0.12551126127E+02  0.43400727322E+02  0.00000000000E+00 0.  1.
         11    1    4    4    0    0  0.39692257413E+01  0.68766809610E+01 -0.42438785404E+01  0.90029994642E+01  0.51100000000E-03 0. -1.
        -11    1    4    4    0    0  0.66527267356E+01  0.16345079714E+02  0.39459933660E+01  0.18082899872E+02  0.51100000000E-03 0.  1.
        -12    1    4    4    0    0  0.96930662640E+01  0.13018995092E+02  0.12849011302E+02  0.20701373342E+02  0.00000000000E+00 0.  1.
</event>
<event>
 8    1  0.2994958E-010  0.9118800E+02  0.7816164E-02  0.1184000E+00
        -11   -1    0    0    0    0  0.00000000000E+00  0.00000000000E+00  0.45593999997E+02  0.45594000000E+02  0.51100000000E-03 0. -1.
         11   -1    0    0    0    0 -0.00000000000E+00 -0.00000000000E+00 -0.45593999997E+02  0.45594000000E+02  0.51100000000E-03 0.  1.
         23    2    1    2    0    0 -0.77715611724E-15  0.35527136788E-14  0.00000000000E+00  0.91188000000E+02  0.91188000000E+02 0.  0.
    9900012    2    3    3    0    0  0.82419469641E+00 -0.17403823046E+02 -0.39749855344E+02  0.47787270129E+02  0.19999995825E+02 0.  0.
         12    1    3    3    0    0 -0.82419469641E+00  0.17403823046E+02  0.39749855344E+02  0.43400729871E+02  0.00000000000E+00 0. -1.
         11    1    4    4    0    0  0.42523244542E+01 -0.10121809455E+02 -0.60341423222E+01  0.12527735778E+02  0.51100000000E-03 0. -1.
        -11    1    4    4    0    0  0.58803401222E+00 -0.36762593309E+00 -0.93742952486E-01  0.69980056335E+00  0.51100000000E-03 0.  1.
        -12    1    4    4    0    0 -0.40161637700E+01 -0.69143876578E+01 -0.33621970069E+02  0.34559733787E+02  0.00000000000E+00 0.  1.
</event>
<event>
 8    1  0.2994958E-010  0.9118800E+02  0.7816164E-02  0.1184000E+00
        -11   -1    0    0    0    0  0.00000000000E+00  0.00000000000E+00  0.45593999997E+02  0.45594000000E+02  0.51100000000E-03 0. -1.
         11   -1    0    0    0    0 -0.00000000000E+00 -0.00000000000E+00 -0.45593999997E+02  0.45594000000E+02  0.51100000000E-03 0.  1.
         23    2    1    2    0    0 -0.17763568394E-14  0.17763568394E-14  0.00000000000E+00  0.91188000000E+02  0.91188000000E+02 0.  0.
    9900012    2    3    3    0    0  0.10442138239E+02 -0.14760063342E+02 -0.39455363294E+02  0.47787269436E+02  0.19999992665E+02 0.  0.
         12    1    3    3    0    0 -0.10442138239E+02  0.14760063342E+02  0.39455363294E+02  0.43400730564E+02  0.00000000000E+00 0. -1.
         11    1    4    4    0    0  0.36664023646E+01 -0.91349782798E+00 -0.95865587316E+01  0.10304324003E+02  0.51100000000E-03 0. -1.
        -11    1    4    4    0    0  0.10266533577E+02 -0.23967963131E+01 -0.11974532040E+02  0.15954176948E+02  0.51100000000E-03 0.  1.
         12    1    4    4    0    0 -0.34907977025E+01 -0.11449769201E+02 -0.17894272522E+02  0.21528768484E+02  0.00000000000E+00 0. -1.
</event>
<event>
 8    1  0.2994958E-010  0.9118800E+02  0.7816164E-02  0.1184000E+00
        -11   -1    0    0    0    0  0.00000000000E+00  0.00000000000E+00  0.45593999997E+02  0.45594000000E+02  0.51100000000E-03 0.  1.
         11   -1    0    0    0    0 -0.00000000000E+00 -0.00000000000E+00 -0.45593999997E+02  0.45594000000E+02  0.51100000000E-03 0. -1.
         23    2    1    2    0    0  0.00000000000E+00  0.00000000000E+00  0.00000000000E+00  0.91188000000E+02  0.91188000000E+02 0.  0.
    9900012    2    3    3    0    0 -0.17827866072E+02  0.37309903702E+02  0.13181857866E+02  0.47787273050E+02  0.20000009146E+02 0.  0.
        -12    1    3    3    0    0  0.17827866072E+02 -0.37309903702E+02 -0.13181857866E+02  0.43400726950E+02  0.00000000000E+00 0.  1.
         11    1    4    4    0    0 -0.45516661641E+00  0.16148556503E+02  0.61334664304E+01  0.17280117606E+02  0.51100000000E-03 0. -1.
        -11    1    4    4    0    0 -0.67232000437E+00 -0.14297071704E+01  0.53733309981E+00  0.16687731729E+01  0.51100000000E-03 0.  1.
         12    1    4    4    0    0 -0.16700379451E+02  0.22591054370E+02  0.65110583357E+01  0.28838382271E+02  0.00000000000E+00 0. -1.
</event>
<event>
 8    1  0.2994958E-010  0.9118800E+02  0.7816164E-02  0.1184000E+00
        -11   -1    0    0    0    0  0.00000000000E+00  0.00000000000E+00  0.45593999997E+02  0.45594000000E+02  0.51100000000E-03 0. -1.
         11   -1    0    0    0    0 -0.00000000000E+00 -0.00000000000E+00 -0.45593999997E+02  0.45594000000E+02  0.51100000000E-03 0.  1.
         23    2    1    2    0    0  0.00000000000E+00  0.44408920985E-15  0.00000000000E+00  0.91188000000E+02  0.91188000000E+02 0.  0.
    9900012    2    3    3    0    0 -0.17197784467E+02  0.20104448783E+01 -0.39797205805E+02  0.47787271100E+02  0.20000000255E+02 0.  0.
         12    1    3    3    0    0  0.17197784467E+02 -0.20104448783E+01  0.39797205805E+02  0.43400728900E+02  0.00000000000E+00 0. -1.
         11    1    4    4    0    0 -0.57506315926E+01  0.80647184642E+00 -0.36931304613E+01  0.68818146893E+01  0.51100000000E-03 0. -1.
        -11    1    4    4    0    0 -0.85808691292E+01 -0.58516108564E+01 -0.13372516853E+02  0.16932125439E+02  0.51100000000E-03 0.  1.
        -12    1    4    4    0    0 -0.28662837448E+01  0.70555838882E+01 -0.22731558490E+02  0.23973330972E+02  0.00000000000E+00 0.  1.
</event>
<event>
 8    1  0.2994958E-010  0.9118800E+02  0.7816164E-02  0.1184000E+00
        -11   -1    0    0    0    0  0.00000000000E+00  0.00000000000E+00  0.45593999997E+02  0.45594000000E+02  0.51100000000E-03 0. -1.
         11   -1    0    0    0    0 -0.00000000000E+00 -0.00000000000E+00 -0.45593999997E+02  0.45594000000E+02  0.51100000000E-03 0.  1.
         23    2    1    2    0    0  0.00000000000E+00  0.00000000000E+00  0.71054273576E-14  0.91188000000E+02  0.91188000000E+02 0.  0.
    9900012    2    3    3    0    0 -0.17650894461E+02  0.78623163293E+01 -0.38861976744E+02  0.47787270400E+02  0.19999997062E+02 0.  0.
         12    1    3    3    0    0  0.17650894461E+02 -0.78623163293E+01  0.38861976744E+02  0.43400729600E+02  0.00000000000E+00 0. -1.
         11    1    4    4    0    0 -0.54086905456E+01  0.83553086628E+01 -0.16904318977E+02  0.19616857970E+02  0.51100000000E-03 0. -1.
        -11    1    4    4    0    0 -0.48623711582E+01  0.39981311056E+01 -0.23067515506E+01  0.67043872647E+01  0.51100000000E-03 0.  1.
         12    1    4    4    0    0 -0.73798327570E+01 -0.44911234391E+01 -0.19650906216E+02  0.21466025165E+02  0.00000000000E+00 0. -1.
</event>
<event>
 8    1  0.2994958E-010  0.9118800E+02  0.7816164E-02  0.1184000E+00
        -11   -1    0    0    0    0  0.00000000000E+00  0.00000000000E+00  0.45593999997E+02  0.45594000000E+02  0.51100000000E-03 0.  1.
         11   -1    0    0    0    0 -0.00000000000E+00 -0.00000000000E+00 -0.45593999997E+02  0.45594000000E+02  0.51100000000E-03 0. -1.
         23    2    1    2    0    0 -0.71054273576E-14  0.00000000000E+00  0.88817841970E-15  0.91188000000E+02  0.91188000000E+02 0.  0.
    9900012    2    3    3    0    0  0.41960246358E+02 -0.94474204881E+01  0.58057928369E+01  0.47787271218E+02  0.20000000793E+02 0.  0.
        -12    1    3    3    0    0 -0.41960246358E+02  0.94474204881E+01 -0.58057928369E+01  0.43400728782E+02  0.00000000000E+00 0.  1.
         11    1    4    4    0    0  0.34756934639E+02 -0.28421595073E+01  0.21190815820E+01  0.34937270688E+02  0.51100000000E-03 0. -1.
        -11    1    4    4    0    0  0.83063539226E+01 -0.43970117546E+01  0.14320036748E+01  0.95068324190E+01  0.51100000000E-03 0.  1.
        -12    1    4    4    0    0 -0.11030422030E+01 -0.22082492263E+01  0.22547075801E+01  0.33431681110E+01  0.00000000000E+00 0.  1.
</event>
<event>
 8    1  0.2994958E-010  0.9118800E+02  0.7816164E-02  0.1184000E+00
        -11   -1    0    0    0    0  0.00000000000E+00  0.00000000000E+00  0.45593999997E+02  0.45594000000E+02  0.51100000000E-03 0. -1.
         11   -1    0    0    0    0 -0.00000000000E+00 -0.00000000000E+00 -0.45593999997E+02  0.45594000000E+02  0.51100000000E-03 0.  1.
         23    2    1    2    0    0 -0.11102230246E-15  0.00000000000E+00 -0.35527136788E-14  0.91188000000E+02  0.91188000000E+02 0.  0.
    9900012    2    3    3    0    0  0.47450739331E+00 -0.36535701176E+02 -0.23420948464E+02  0.47787269077E+02  0.19999991031E+02 0.  0.
         12    1    3    3    0    0 -0.47450739331E+00  0.36535701176E+02  0.23420948464E+02  0.43400730923E+02  0.00000000000E+00 0. -1.
         11    1    4    4    0    0 -0.31049858358E+00 -0.10868701009E+02 -0.32465885423E+01  0.11347484673E+02  0.51100000000E-03 0.  1.
        -11    1    4    4    0    0  0.61462908018E+01 -0.16285303715E+02 -0.55768743497E+01  0.18278116300E+02  0.51100000000E-03 0. -1.
         12    1    4    4    0    0 -0.53612848249E+01 -0.93816964528E+01 -0.14597485572E+02  0.18161668104E+02  0.00000000000E+00 0. -1.
</event>
<event>
 8    1  0.2994958E-010  0.9118800E+02  0.7816164E-02  0.1184000E+00
        -11   -1    0    0    0    0  0.00000000000E+00  0.00000000000E+00  0.45593999997E+02  0.45594000000E+02  0.51100000000E-03 0.  1.
         11   -1    0    0    0    0 -0.00000000000E+00 -0.00000000000E+00 -0.45593999997E+02  0.45594000000E+02  0.51100000000E-03 0. -1.
         23    2    1    2    0    0  0.00000000000E+00  0.00000000000E+00 -0.13322676296E-14  0.91188000000E+02  0.91188000000E+02 0.  0.
    9900012    2    3    3    0    0 -0.16780503696E+02 -0.39927922228E+02  0.27926692622E+01  0.47787270981E+02  0.19999999711E+02 0.  0.
         12    1    3    3    0    0  0.16780503696E+02  0.39927922228E+02 -0.27926692622E+01  0.43400729019E+02  0.00000000000E+00 0. -1.
         11    1    4    4    0    0 -0.46695677139E+00 -0.48314052108E+01 -0.36762964066E+01  0.60889802485E+01  0.51100000000E-03 0. -1.
        -11    1    4    4    0    0 -0.59941840026E+01 -0.93974208830E+01 -0.43518080439E+01  0.11965784330E+02  0.51100000000E-03 0.  1.
         12    1    4    4    0    0 -0.10319362922E+02 -0.25699096135E+02  0.10820773713E+02  0.29732506403E+02  0.00000000000E+00 0. -1.
</event>
<event>
 8    1  0.2994958E-010  0.9118800E+02  0.7816164E-02  0.1184000E+00
        -11   -1    0    0    0    0  0.00000000000E+00  0.00000000000E+00  0.45593999997E+02  0.45594000000E+02  0.51100000000E-03 0. -1.
         11   -1    0    0    0    0 -0.00000000000E+00 -0.00000000000E+00 -0.45593999997E+02  0.45594000000E+02  0.51100000000E-03 0.  1.
         23    2    1    2    0    0  0.00000000000E+00  0.22204460493E-15  0.71054273576E-14  0.91188000000E+02  0.91188000000E+02 0.  0.
    9900012    2    3    3    0    0  0.15757781168E+02  0.16667968344E+01 -0.40404668753E+02  0.47787272632E+02  0.20000007239E+02 0.  0.
         12    1    3    3    0    0 -0.15757781168E+02 -0.16667968344E+01  0.40404668753E+02  0.43400727368E+02  0.00000000000E+00 0. -1.
         11    1    4    4    0    0  0.63452792840E+01 -0.10700385910E+01 -0.18555182163E+02  0.19639305923E+02  0.51100000000E-03 0. -1.
        -11    1    4    4    0    0  0.59583851008E+01  0.78532380818E+01 -0.18877994483E+02  0.21296816131E+02  0.51100000000E-03 0.  1.
         12    1    4    4    0    0  0.34541167836E+01 -0.51164026563E+01 -0.29714921069E+01  0.68511505777E+01  0.00000000000E+00 0. -1.
</event>
<event>
 8    1  0.2994958E-010  0.9118800E+02  0.7816164E-02  0.1184000E+00
        -11   -1    0    0    0    0  0.00000000000E+00  0.00000000000E+00  0.45593999997E+02  0.45594000000E+02  0.51100000000E-03 0. -1.
         11   -1    0    0    0    0 -0.00000000000E+00 -0.00000000000E+00 -0.45593999997E+02  0.45594000000E+02  0.51100000000E-03 0.  1.
         23    2    1    2    0    0  0.00000000000E+00  0.00000000000E+00 -0.17763568394E-14  0.91188000000E+02  0.91188000000E+02 0.  0.
    9900012    2    3    3    0    0 -0.39334371922E+02 -0.10533692099E+02  0.15015722876E+02  0.47787269393E+02  0.19999992470E+02 0.  0.
        -12    1    3    3    0    0  0.39334371922E+02  0.10533692099E+02 -0.15015722876E+02  0.43400730607E+02  0.00000000000E+00 0.  1.
         11    1    4    4    0    0 -0.35453027472E+01 -0.77830216700E+01  0.20245839590E+01  0.87888303177E+01  0.51100000000E-03 0. -1.
        -11    1    4    4    0    0 -0.24074006745E+02 -0.40897122278E+01  0.55060907449E+01  0.25031991179E+02  0.51100000000E-03 0.  1.
        -12    1    4    4    0    0 -0.11715062430E+02  0.13390417989E+01  0.74850481724E+01  0.13966447896E+02  0.00000000000E+00 0.  1.
</event>
<event>
 8    1  0.2994958E-010  0.9118800E+02  0.7816164E-02  0.1184000E+00
        -11   -1    0    0    0    0  0.00000000000E+00  0.00000000000E+00  0.45593999997E+02  0.45594000000E+02  0.51100000000E-03 0. -1.
         11   -1    0    0    0    0 -0.00000000000E+00 -0.00000000000E+00 -0.45593999997E+02  0.45594000000E+02  0.51100000000E-03 0.  1.
         23    2    1    2    0    0  0.00000000000E+00  0.00000000000E+00  0.00000000000E+00  0.91188000000E+02  0.91188000000E+02 0.  0.
    9900012    2    3    3    0    0  0.35327064170E+02  0.86537940468E+01 -0.23679799670E+02  0.47787279652E+02  0.20000039246E+02 0.  0.
         12    1    3    3    0    0 -0.35327064170E+02 -0.86537940468E+01  0.23679799670E+02  0.43400720348E+02  0.00000000000E+00 0. -1.
         11    1    4    4    0    0  0.10773452096E+01  0.16348062761E+01 -0.66823340098E+01  0.69632501277E+01  0.51100000000E-03 0. -1.
        -11    1    4    4    0    0  0.13555827123E+02  0.63294072335E+01 -0.12818452651E+02  0.19701131275E+02  0.51100000000E-03 0.  1.
        -12    1    4    4    0    0  0.20693891838E+02  0.68958053725E+00 -0.41790130095E+01  0.21122898249E+02  0.00000000000E+00 0.  1.
</event>
<event>
 8    1  0.2994958E-010  0.9118800E+02  0.7816164E-02  0.1184000E+00
        -11   -1    0    0    0    0  0.00000000000E+00  0.00000000000E+00  0.45593999997E+02  0.45594000000E+02  0.51100000000E-03 0. -1.
         11   -1    0    0    0    0 -0.00000000000E+00 -0.00000000000E+00 -0.45593999997E+02  0.45594000000E+02  0.51100000000E-03 0.  1.
         23    2    1    2    0    0 -0.66613381478E-15  0.00000000000E+00  0.00000000000E+00  0.91188000000E+02  0.91188000000E+02 0.  0.
    9900012    2    3    3    0    0 -0.10763738597E+01 -0.16824437600E+02 -0.39992539718E+02  0.47787268274E+02  0.19999987370E+02 0.  0.
         12    1    3    3    0    0  0.10763738597E+01  0.16824437600E+02  0.39992539718E+02  0.43400731726E+02  0.00000000000E+00 0. -1.
         11    1    4    4    0    0 -0.81511560073E+01 -0.10760826123E+02 -0.30931212876E+02  0.33748728174E+02  0.51100000000E-03 0.  1.
        -11    1    4    4    0    0  0.61956292098E+00 -0.37103994464E+01 -0.40966036550E+01  0.55617518852E+01  0.51100000000E-03 0. -1.
        -12    1    4    4    0    0  0.64552192266E+01 -0.23532120305E+01 -0.49647231870E+01  0.84767882154E+01  0.00000000000E+00 0.  1.
</event>
<event>
 8    1  0.2994958E-010  0.9118800E+02  0.7816164E-02  0.1184000E+00
        -11   -1    0    0    0    0  0.00000000000E+00  0.00000000000E+00  0.45593999997E+02  0.45594000000E+02  0.51100000000E-03 0. -1.
         11   -1    0    0    0    0 -0.00000000000E+00 -0.00000000000E+00 -0.45593999997E+02  0.45594000000E+02  0.51100000000E-03 0.  1.
         23    2    1    2    0    0  0.00000000000E+00  0.00000000000E+00  0.00000000000E+00  0.91188000000E+02  0.91188000000E+02 0.  0.
    9900012    2    3    3    0    0 -0.18487066441E+02 -0.31863370832E+02 -0.22947272116E+02  0.47787270468E+02  0.19999997370E+02 0.  0.
         12    1    3    3    0    0  0.18487066441E+02  0.31863370832E+02  0.22947272116E+02  0.43400729532E+02  0.00000000000E+00 0. -1.
         11    1    4    4    0    0  0.64179882842E+00 -0.12086716935E+02 -0.28407040696E+01  0.12432627714E+02  0.51100000000E-03 0. -1.
        -11    1    4    4    0    0 -0.14867149543E+01 -0.30988524463E+01 -0.69213533636E+01  0.77277642617E+01  0.51100000000E-03 0.  1.
        -12    1    4    4    0    0 -0.17642150315E+02 -0.16677801451E+02 -0.13185214682E+02  0.27626878492E+02  0.00000000000E+00 0.  1.
</event>
<event>
 8    1  0.2994958E-010  0.9118800E+02  0.7816164E-02  0.1184000E+00
        -11   -1    0    0    0    0  0.00000000000E+00  0.00000000000E+00  0.45593999997E+02  0.45594000000E+02  0.51100000000E-03 0. -1.
         11   -1    0    0    0    0 -0.00000000000E+00 -0.00000000000E+00 -0.45593999997E+02  0.45594000000E+02  0.51100000000E-03 0.  1.
         23    2    1    2    0    0  0.00000000000E+00  0.35527136788E-14  0.00000000000E+00  0.91188000000E+02  0.91188000000E+02 0.  0.
    9900012    2    3    3    0    0 -0.36463443761E+02 -0.16937554946E+02 -0.16345015751E+02  0.47787273758E+02  0.20000012371E+02 0.  0.
         12    1    3    3    0    0  0.36463443761E+02  0.16937554946E+02  0.16345015751E+02  0.43400726242E+02  0.00000000000E+00 0. -1.
         11    1    4    4    0    0 -0.53642750865E+01 -0.53988303997E+01 -0.96121261869E+01  0.12260333885E+02  0.51100000000E-03 0. -1.
        -11    1    4    4    0    0 -0.17414581952E+02 -0.11311622097E+02 -0.13160507055E+01  0.20807509432E+02  0.51100000000E-03 0.  1.
         12    1    4    4    0    0 -0.13684586722E+02 -0.22710244993E+00 -0.54168388585E+01  0.14719430440E+02  0.00000000000E+00 0. -1.
</event>
<event>
 8    1  0.2994958E-010  0.9118800E+02  0.7816164E-02  0.1184000E+00
        -11   -1    0    0    0    0  0.00000000000E+00  0.00000000000E+00  0.45593999997E+02  0.45594000000E+02  0.51100000000E-03 0. -1.
         11   -1    0    0    0    0 -0.00000000000E+00 -0.00000000000E+00 -0.45593999997E+02  0.45594000000E+02  0.51100000000E-03 0.  1.
         23    2    1    2    0    0  0.35527136788E-14  0.71054273576E-14  0.00000000000E+00  0.91188000000E+02  0.91188000000E+02 0.  0.
    9900012    2    3    3    0    0  0.27008421178E+02 -0.26457246448E+02 -0.21311576286E+02  0.47787262818E+02  0.19999962492E+02 0.  0.
         12    1    3    3    0    0 -0.27008421178E+02  0.26457246448E+02  0.21311576286E+02  0.43400737182E+02  0.00000000000E+00 0. -1.
         11    1    4    4    0    0  0.17079613279E+02 -0.18236222546E+02 -0.37905379767E+01  0.25271350992E+02  0.51100000000E-03 0. -1.
        -11    1    4    4    0    0  0.29126442450E+01  0.44475668433E+00 -0.44257088349E+01  0.53167851150E+01  0.51100000000E-03 0.  1.
         12    1    4    4    0    0  0.70161636539E+01 -0.86657805864E+01 -0.13095329474E+02  0.17199126711E+02  0.00000000000E+00 0. -1.
</event>
<event>
 8    1  0.2994958E-010  0.9118800E+02  0.7816164E-02  0.1184000E+00
        -11   -1    0    0    0    0  0.00000000000E+00  0.00000000000E+00  0.45593999997E+02  0.45594000000E+02  0.51100000000E-03 0. -1.
         11   -1    0    0    0    0 -0.00000000000E+00 -0.00000000000E+00 -0.45593999997E+02  0.45594000000E+02  0.51100000000E-03 0.  1.
         23    2    1    2    0    0  0.00000000000E+00  0.11102230246E-15 -0.71054273576E-14  0.91188000000E+02  0.91188000000E+02 0.  0.
    9900012    2    3    3    0    0 -0.21592301208E+02 -0.99026805557E+00  0.37635287097E+02  0.47787274923E+02  0.20000017686E+02 0.  0.
        -12    1    3    3    0    0  0.21592301208E+02  0.99026805557E+00 -0.37635287097E+02  0.43400725077E+02  0.00000000000E+00 0.  1.
         11    1    4    4    0    0  0.73306928471E+00  0.12618034805E+01  0.13022608657E+02  0.13104116723E+02  0.51100000000E-03 0. -1.
        -11    1    4    4    0    0  0.29861695095E+00 -0.19248901967E+00 -0.62994778509E+00  0.72322788880E+00  0.51100000000E-03 0.  1.
        -12    1    4    4    0    0 -0.22623987444E+02 -0.20595825164E+01  0.25242626225E+02  0.33959930311E+02  0.00000000000E+00 0.  1.
</event>
<event>
 8    1  0.2994958E-010  0.9118800E+02  0.7816164E-02  0.1184000E+00
        -11   -1    0    0    0    0  0.00000000000E+00  0.00000000000E+00  0.45593999997E+02  0.45594000000E+02  0.51100000000E-03 0. -1.
         11   -1    0    0    0    0 -0.00000000000E+00 -0.00000000000E+00 -0.45593999997E+02  0.45594000000E+02  0.51100000000E-03 0.  1.
         23    2    1    2    0    0  0.00000000000E+00  0.00000000000E+00  0.71054273576E-14  0.91188000000E+02  0.91188000000E+02 0.  0.
    9900012    2    3    3    0    0 -0.33412965631E+01  0.36765356966E+01 -0.43115454259E+02  0.47787267593E+02  0.19999984266E+02 0.  0.
         12    1    3    3    0    0  0.33412965631E+01 -0.36765356966E+01  0.43115454259E+02  0.43400732407E+02  0.00000000000E+00 0. -1.
         11    1    4    4    0    0  0.11862841078E+01  0.39399458789E+01 -0.52273080460E+01  0.66524576799E+01  0.51100000000E-03 0. -1.
        -11    1    4    4    0    0  0.35158013424E+01 -0.66901332802E+00 -0.28676671293E+02  0.28899133458E+02  0.51100000000E-03 0.  1.
         12    1    4    4    0    0 -0.80433820134E+01  0.40560314573E+00 -0.92114749203E+01  0.12235676456E+02  0.00000000000E+00 0. -1.
</event>
<event>
 8    1  0.2994958E-010  0.9118800E+02  0.7816164E-02  0.1184000E+00
        -11   -1    0    0    0    0  0.00000000000E+00  0.00000000000E+00  0.45593999997E+02  0.45594000000E+02  0.51100000000E-03 0. -1.
         11   -1    0    0    0    0 -0.00000000000E+00 -0.00000000000E+00 -0.45593999997E+02  0.45594000000E+02  0.51100000000E-03 0.  1.
         23    2    1    2    0    0  0.00000000000E+00  0.00000000000E+00  0.00000000000E+00  0.91188000000E+02  0.91188000000E+02 0.  0.
    9900012    2    3    3    0    0  0.52602521942E+01  0.13043542321E+02 -0.41058729554E+02  0.47787268185E+02  0.19999986964E+02 0.  0.
         12    1    3    3    0    0 -0.52602521942E+01 -0.13043542321E+02  0.41058729554E+02  0.43400731815E+02  0.00000000000E+00 0. -1.
         11    1    4    4    0    0  0.68278579657E+01  0.88507411062E+01 -0.74473034761E+01  0.13431961579E+02  0.51100000000E-03 0. -1.
        -11    1    4    4    0    0 -0.78998730058E+00  0.20448174108E+00 -0.42316583943E+00  0.91921831264E+00  0.51100000000E-03 0.  1.
        -12    1    4    4    0    0 -0.77761847091E+00  0.39883194738E+01 -0.33188260239E+02  0.33436088294E+02  0.00000000000E+00 0.  1.
</event>
<event>
 8    1  0.2994958E-010  0.9118800E+02  0.7816164E-02  0.1184000E+00
        -11   -1    0    0    0    0  0.00000000000E+00  0.00000000000E+00  0.45593999997E+02  0.45594000000E+02  0.51100000000E-03 0. -1.
         11   -1    0    0    0    0 -0.00000000000E+00 -0.00000000000E+00 -0.45593999997E+02  0.45594000000E+02  0.51100000000E-03 0.  1.
         23    2    1    2    0    0  0.00000000000E+00  0.88817841970E-15  0.00000000000E+00  0.91188000000E+02  0.91188000000E+02 0.  0.
    9900012    2    3    3    0    0  0.98062859386E+01  0.79913915022E+01  0.41516236770E+02  0.47787268467E+02  0.19999988248E+02 0.  0.
        -12    1    3    3    0    0 -0.98062859386E+01 -0.79913915022E+01 -0.41516236770E+02  0.43400731533E+02  0.00000000000E+00 0.  1.
         11    1    4    4    0    0  0.67471816638E+01  0.64227685153E+01  0.72676744413E+01  0.11815054289E+02  0.51100000000E-03 0. -1.
        -11    1    4    4    0    0  0.23000424462E+01 -0.95612096680E+00  0.11066814005E+01  0.27256387400E+01  0.51100000000E-03 0.  1.
        -12    1    4    4    0    0  0.75906182857E+00  0.25247439538E+01  0.33141880928E+02  0.33246575438E+02  0.00000000000E+00 0.  1.
</event>
<event>
 8    1  0.2994958E-010  0.9118800E+02  0.7816164E-02  0.1184000E+00
        -11   -1    0    0    0    0  0.00000000000E+00  0.00000000000E+00  0.45593999997E+02  0.45594000000E+02  0.51100000000E-03 0. -1.
         11   -1    0    0    0    0 -0.00000000000E+00 -0.00000000000E+00 -0.45593999997E+02  0.45594000000E+02  0.51100000000E-03 0.  1.
         23    2    1    2    0    0  0.00000000000E+00 -0.17763568394E-14  0.00000000000E+00  0.91188000000E+02  0.91188000000E+02 0.  0.
    9900012    2    3    3    0    0  0.35678114127E+02  0.70968941868E+01 -0.23671306605E+02  0.47787257021E+02  0.19999936059E+02 0.  0.
         12    1    3    3    0    0 -0.35678114127E+02 -0.70968941868E+01  0.23671306605E+02  0.43400742979E+02  0.00000000000E+00 0. -1.
         11    1    4    4    0    0  0.15142330276E+02  0.10594555578E+02 -0.92543842819E+01  0.20668294627E+02  0.51100000000E-03 0. -1.
        -11    1    4    4    0    0  0.32229492450E+01  0.35779876611E-02  0.13002079031E+01  0.34753353061E+01  0.51100000000E-03 0.  1.
        -12    1    4    4    0    0  0.17312834606E+02 -0.35012393791E+01 -0.15717130227E+02  0.23643627087E+02  0.00000000000E+00 0.  1.
</event>
<event>
 8    1  0.2994958E-010  0.9118800E+02  0.7816164E-02  0.1184000E+00
        -11   -1    0    0    0    0  0.00000000000E+00  0.00000000000E+00  0.45593999997E+02  0.45594000000E+02  0.51100000000E-03 0. -1.
         11   -1    0    0    0    0 -0.00000000000E+00 -0.00000000000E+00 -0.45593999997E+02  0.45594000000E+02  0.51100000000E-03 0.  1.
         23    2    1    2    0    0 -0.35527136788E-14  0.00000000000E+00  0.35527136788E-14  0.91188000000E+02  0.91188000000E+02 0.  0.
    9900012    2    3    3    0    0 -0.25416707186E+02  0.31003337433E+02 -0.16625494916E+02  0.47787273999E+02  0.20000013472E+02 0.  0.
         12    1    3    3    0    0  0.25416707186E+02 -0.31003337433E+02  0.16625494916E+02  0.43400726001E+02  0.00000000000E+00 0. -1.
         11    1    4    4    0    0 -0.11390809874E+02  0.41781002332E+01 -0.71696357961E+01  0.14092932585E+02  0.51100000000E-03 0. -1.
        -11    1    4    4    0    0 -0.12921787525E+02  0.12801050153E+02 -0.65305274450E+01  0.19325818658E+02  0.51100000000E-03 0.  1.
         12    1    4    4    0    0 -0.11041097873E+01  0.14024187047E+02 -0.29253316748E+01  0.14368522755E+02  0.00000000000E+00 0. -1.
</event>
<event>
 8    1  0.2994958E-010  0.9118800E+02  0.7816164E-02  0.1184000E+00
        -11   -1    0    0    0    0  0.00000000000E+00  0.00000000000E+00  0.45593999997E+02  0.45594000000E+02  0.51100000000E-03 0. -1.
         11   -1    0    0    0    0 -0.00000000000E+00 -0.00000000000E+00 -0.45593999997E+02  0.45594000000E+02  0.51100000000E-03 0.  1.
         23    2    1    2    0    0  0.00000000000E+00 -0.44408920985E-15  0.00000000000E+00  0.91188000000E+02  0.91188000000E+02 0.  0.
    9900012    2    3    3    0    0  0.27808491806E+02 -0.33523261263E+01  0.33152269990E+02  0.47787270600E+02  0.19999997974E+02 0.  0.
        -12    1    3    3    0    0 -0.27808491806E+02  0.33523261263E+01 -0.33152269990E+02  0.43400729400E+02  0.00000000000E+00 0.  1.
         11    1    4    4    0    0  0.13238648472E+02  0.17961278105E+01  0.10842333839E+02  0.17205931879E+02  0.51100000000E-03 0. -1.
        -11    1    4    4    0    0  0.10513643830E+02 -0.15495276246E+01  0.37883354514E+01  0.11282252798E+02  0.51100000000E-03 0.  1.
         12    1    4    4    0    0  0.40561995041E+01 -0.35989263122E+01  0.18521600700E+02  0.19299085924E+02  0.00000000000E+00 0. -1.
</event>
<event>
 8    1  0.5302552E-010  0.9118800E+02  0.7816164E-02  0.1184000E+00
        -11   -1    0    0    0    0  0.00000000000E+00  0.00000000000E+00  0.45593999997E+02  0.45594000000E+02  0.51100000000E-03 0. -1.
         11   -1    0    0    0    0 -0.00000000000E+00 -0.00000000000E+00 -0.45593999997E+02  0.45594000000E+02  0.51100000000E-03 0.  1.
         23    2    1    2    0    0  0.00000000000E+00  0.00000000000E+00  0.00000000000E+00  0.91188000000E+02  0.91188000000E+02 0.  0.
    9900012    2    3    3    0    0 -0.74188414127E+01 -0.51157747631E+01  0.42454833304E+02  0.47787271547E+02  0.20000002293E+02 0.  0.
        -12    1    3    3    0    0  0.74188414127E+01  0.51157747631E+01 -0.42454833304E+02  0.43400728453E+02  0.00000000000E+00 0.  1.
         11    1    4    4    0    0 -0.51819163740E+00 -0.18403353670E+01 -0.76639442168E+00  0.20597857915E+01  0.51100000000E-03 0. -1.
        -11    1    4    4    0    0  0.19092372596E-02 -0.55437816022E+01  0.78039769081E+01  0.95726471752E+01  0.51100000000E-03 0.  1.
         12    1    4    4    0    0 -0.69025590126E+01  0.22683422062E+01  0.35417250818E+02  0.36154838581E+02  0.00000000000E+00 0. -1.
</event>
<event>
 8    1  0.2994958E-010  0.9118800E+02  0.7816164E-02  0.1184000E+00
        -11   -1    0    0    0    0  0.00000000000E+00  0.00000000000E+00  0.45593999997E+02  0.45594000000E+02  0.51100000000E-03 0. -1.
         11   -1    0    0    0    0 -0.00000000000E+00 -0.00000000000E+00 -0.45593999997E+02  0.45594000000E+02  0.51100000000E-03 0.  1.
         23    2    1    2    0    0  0.00000000000E+00  0.88817841970E-15  0.00000000000E+00  0.91188000000E+02  0.91188000000E+02 0.  0.
    9900012    2    3    3    0    0 -0.87948085574E+01  0.50663021588E+01 -0.42197244689E+02  0.47787268042E+02  0.19999986310E+02 0.  0.
         12    1    3    3    0    0  0.87948085574E+01 -0.50663021588E+01  0.42197244689E+02  0.43400731958E+02  0.00000000000E+00 0. -1.
         11    1    4    4    0    0 -0.47283550324E+01 -0.29366143665E+01 -0.11493515057E+02  0.12770353710E+02  0.51100000000E-03 0. -1.
        -11    1    4    4    0    0 -0.27764534875E+01 -0.28084253882E+01 -0.17315854479E+02  0.17760483207E+02  0.51100000000E-03 0.  1.
         12    1    4    4    0    0 -0.12900000374E+01  0.10811341913E+02 -0.13387875153E+02  0.17256431125E+02  0.00000000000E+00 0. -1.
</event>
<event>
 8    1  0.2994958E-010  0.9118800E+02  0.7816164E-02  0.1184000E+00
        -11   -1    0    0    0    0  0.00000000000E+00  0.00000000000E+00  0.45593999997E+02  0.45594000000E+02  0.51100000000E-03 0.  1.
         11   -1    0    0    0    0 -0.00000000000E+00 -0.00000000000E+00 -0.45593999997E+02  0.45594000000E+02  0.51100000000E-03 0. -1.
         23    2    1    2    0    0  0.00000000000E+00  0.00000000000E+00  0.00000000000E+00  0.91188000000E+02  0.91188000000E+02 0.  0.
    9900012    2    3    3    0    0 -0.30635139860E+02  0.30376582501E+02 -0.47302348270E+01  0.47787266363E+02  0.19999978656E+02 0.  0.
         12    1    3    3    0    0  0.30635139860E+02 -0.30376582501E+02  0.47302348270E+01  0.43400733637E+02  0.00000000000E+00 0. -1.
         11    1    4    4    0    0 -0.40740441305E+01  0.75933939975E+01  0.30376522160E+01  0.91370016540E+01  0.51100000000E-03 0. -1.
        -11    1    4    4    0    0 -0.25079066844E+02  0.21336309671E+02 -0.25375861152E+01  0.33024794438E+02  0.51100000000E-03 0.  1.
         12    1    4    4    0    0 -0.14820288857E+01  0.14468788331E+01 -0.52303009278E+01  0.56254702711E+01  0.00000000000E+00 0. -1.
</event>
<event>
 8    1  0.2994958E-010  0.9118800E+02  0.7816164E-02  0.1184000E+00
        -11   -1    0    0    0    0  0.00000000000E+00  0.00000000000E+00  0.45593999997E+02  0.45594000000E+02  0.51100000000E-03 0. -1.
         11   -1    0    0    0    0 -0.00000000000E+00 -0.00000000000E+00 -0.45593999997E+02  0.45594000000E+02  0.51100000000E-03 0.  1.
         23    2    1    2    0    0  0.00000000000E+00  0.00000000000E+00  0.71054273576E-14  0.91188000000E+02  0.91188000000E+02 0.  0.
    9900012    2    3    3    0    0 -0.21043284938E+02  0.56103618623E+01  0.37541026707E+02  0.47787254760E+02  0.19999925753E+02 0.  0.
        -12    1    3    3    0    0  0.21043284938E+02 -0.56103618623E+01 -0.37541026707E+02  0.43400745240E+02  0.00000000000E+00 0.  1.
         11    1    4    4    0    0 -0.96330461437E+01  0.95123154258E+01  0.27761730929E+02  0.30886784022E+02  0.51100000000E-03 0. -1.
        -11    1    4    4    0    0 -0.23888124579E+01  0.18515826401E+01  0.28398176600E+01  0.41472096445E+01  0.51100000000E-03 0.  1.
        -12    1    4    4    0    0 -0.90214263360E+01 -0.57535362036E+01  0.69394781177E+01  0.12753261094E+02  0.00000000000E+00 0.  1.
</event>
<event>
 8    1  0.2994958E-010  0.9118800E+02  0.7816164E-02  0.1184000E+00
        -11   -1    0    0    0    0  0.00000000000E+00  0.00000000000E+00  0.45593999997E+02  0.45594000000E+02  0.51100000000E-03 0. -1.
         11   -1    0    0    0    0 -0.00000000000E+00 -0.00000000000E+00 -0.45593999997E+02  0.45594000000E+02  0.51100000000E-03 0.  1.
         23    2    1    2    0    0  0.00000000000E+00  0.00000000000E+00  0.00000000000E+00  0.91188000000E+02  0.91188000000E+02 0.  0.
    9900012    2    3    3    0    0 -0.79934682267E+01 -0.21015548451E+01  0.42606470620E+02  0.47787269525E+02  0.19999993071E+02 0.  0.
        -12    1    3    3    0    0  0.79934682267E+01  0.21015548451E+01 -0.42606470620E+02  0.43400730475E+02  0.00000000000E+00 0.  1.
         11    1    4    4    0    0  0.78765156498E+00 -0.43198364125E+01  0.15061308609E+02  0.15688352332E+02  0.51100000000E-03 0. -1.
        -11    1    4    4    0    0 -0.12953319137E+01 -0.45092137842E+01  0.29956648026E+01  0.55664083204E+01  0.51100000000E-03 0.  1.
        -12    1    4    4    0    0 -0.74857878780E+01  0.67274953515E+01  0.24549497209E+02  0.26532508872E+02  0.00000000000E+00 0.  1.
</event>
<event>
 8    1  0.2994958E-010  0.9118800E+02  0.7816164E-02  0.1184000E+00
        -11   -1    0    0    0    0  0.00000000000E+00  0.00000000000E+00  0.45593999997E+02  0.45594000000E+02  0.51100000000E-03 0. -1.
         11   -1    0    0    0    0 -0.00000000000E+00 -0.00000000000E+00 -0.45593999997E+02  0.45594000000E+02  0.51100000000E-03 0.  1.
         23    2    1    2    0    0  0.35527136788E-14  0.00000000000E+00  0.35527136788E-14  0.91188000000E+02  0.91188000000E+02 0.  0.
    9900012    2    3    3    0    0  0.31906846470E+02  0.83990578323E+01  0.28196316174E+02  0.47787271090E+02  0.20000000208E+02 0.  0.
        -12    1    3    3    0    0 -0.31906846470E+02 -0.83990578323E+01 -0.28196316174E+02  0.43400728910E+02  0.00000000000E+00 0.  1.
         11    1    4    4    0    0  0.26812101726E+01  0.25479262296E+01  0.72860809811E+01  0.81711561229E+01  0.51100000000E-03 0. -1.
        -11    1    4    4    0    0  0.16921111824E+02  0.56623110027E+01  0.20672013159E+02  0.27307836230E+02  0.51100000000E-03 0.  1.
         12    1    4    4    0    0  0.12304524473E+02  0.18882059997E+00  0.23822203384E+00  0.12308278737E+02  0.00000000000E+00 0. -1.
</event>
<event>
 8    1  0.2994958E-010  0.9118800E+02  0.7816164E-02  0.1184000E+00
        -11   -1    0    0    0    0  0.00000000000E+00  0.00000000000E+00  0.45593999997E+02  0.45594000000E+02  0.51100000000E-03 0. -1.
         11   -1    0    0    0    0 -0.00000000000E+00 -0.00000000000E+00 -0.45593999997E+02  0.45594000000E+02  0.51100000000E-03 0.  1.
         23    2    1    2    0    0 -0.35527136788E-14 -0.35527136788E-14  0.35527136788E-14  0.91188000000E+02  0.91188000000E+02 0.  0.
    9900012    2    3    3    0    0  0.31915541601E+02 -0.18487374741E+02 -0.22874405846E+02  0.47787271166E+02  0.20000000553E+02 0.  0.
         12    1    3    3    0    0 -0.31915541601E+02  0.18487374741E+02  0.22874405846E+02  0.43400728834E+02  0.00000000000E+00 0. -1.
         11    1    4    4    0    0  0.12011130256E+02 -0.70426736288E+01 -0.67435938492E+01  0.15470700053E+02  0.51100000000E-03 0. -1.
        -11    1    4    4    0    0  0.15931621149E+02 -0.15365708543E+02 -0.14644447923E+02  0.26540184753E+02  0.51100000000E-03 0.  1.
         12    1    4    4    0    0  0.39727901968E+01  0.39210074309E+01 -0.14863640740E+01  0.57763863602E+01  0.00000000000E+00 0. -1.
</event>
<event>
 8    1  0.2994958E-010  0.9118800E+02  0.7816164E-02  0.1184000E+00
        -11   -1    0    0    0    0  0.00000000000E+00  0.00000000000E+00  0.45593999997E+02  0.45594000000E+02  0.51100000000E-03 0. -1.
         11   -1    0    0    0    0 -0.00000000000E+00 -0.00000000000E+00 -0.45593999997E+02  0.45594000000E+02  0.51100000000E-03 0.  1.
         23    2    1    2    0    0 -0.88817841970E-15  0.00000000000E+00  0.00000000000E+00  0.91188000000E+02  0.91188000000E+02 0.  0.
    9900012    2    3    3    0    0  0.78851757453E+01  0.15412018279E+02  0.39798447918E+02  0.47787276957E+02  0.20000026957E+02 0.  0.
        -12    1    3    3    0    0 -0.78851757453E+01 -0.15412018279E+02 -0.39798447918E+02  0.43400723043E+02  0.00000000000E+00 0.  1.
         11    1    4    4    0    0  0.39842047201E+01  0.21024074100E+01  0.12425063110E+02  0.13216512313E+02  0.51100000000E-03 0. -1.
        -11    1    4    4    0    0  0.29235472896E+01  0.43746106462E+01  0.24611584972E+02  0.25167726599E+02  0.51100000000E-03 0.  1.
        -12    1    4    4    0    0  0.97742373569E+00  0.89350002227E+01  0.27617998360E+01  0.94030380448E+01  0.00000000000E+00 0.  1.
</event>
<event>
 8    1  0.2994958E-010  0.9118800E+02  0.7816164E-02  0.1184000E+00
        -11   -1    0    0    0    0  0.00000000000E+00  0.00000000000E+00  0.45593999997E+02  0.45594000000E+02  0.51100000000E-03 0. -1.
         11   -1    0    0    0    0 -0.00000000000E+00 -0.00000000000E+00 -0.45593999997E+02  0.45594000000E+02  0.51100000000E-03 0.  1.
         23    2    1    2    0    0  0.00000000000E+00 -0.35527136788E-14  0.71054273576E-14  0.91188000000E+02  0.91188000000E+02 0.  0.
    9900012    2    3    3    0    0 -0.94945816715E+01  0.12830945289E+02 -0.40358927027E+02  0.47787271562E+02  0.20000002361E+02 0.  0.
         12    1    3    3    0    0  0.94945816715E+01 -0.12830945289E+02  0.40358927027E+02  0.43400728438E+02  0.00000000000E+00 0. -1.
         11    1    4    4    0    0 -0.72687698928E+00  0.44179337841E+01 -0.22765259757E+02  0.23201369381E+02  0.51100000000E-03 0. -1.
        -11    1    4    4    0    0 -0.10166384868E+01  0.80579562817E+01 -0.13646261625E+02  0.15880323355E+02  0.51100000000E-03 0.  1.
         12    1    4    4    0    0 -0.77510661955E+01  0.35505522313E+00 -0.39474056450E+01  0.87055788265E+01  0.00000000000E+00 0. -1.
</event>
<event>
 8    1  0.2994958E-010  0.9118800E+02  0.7816164E-02  0.1184000E+00
        -11   -1    0    0    0    0  0.00000000000E+00  0.00000000000E+00  0.45593999997E+02  0.45594000000E+02  0.51100000000E-03 0. -1.
         11   -1    0    0    0    0 -0.00000000000E+00 -0.00000000000E+00 -0.45593999997E+02  0.45594000000E+02  0.51100000000E-03 0.  1.
         23    2    1    2    0    0  0.00000000000E+00  0.35527136788E-14 -0.17763568394E-14  0.91188000000E+02  0.91188000000E+02 0.  0.
    9900012    2    3    3    0    0 -0.29418140577E+02 -0.29487062376E+02 -0.12194647115E+02  0.47787271194E+02  0.20000000684E+02 0.  0.
         12    1    3    3    0    0  0.29418140577E+02  0.29487062376E+02  0.12194647115E+02  0.43400728806E+02  0.00000000000E+00 0. -1.
         11    1    4    4    0    0 -0.72702371030E+00  0.67896328656E+00 -0.38343068142E+00  0.10661022317E+01  0.51100000000E-03 0.  1.
        -11    1    4    4    0    0 -0.15654989635E+02 -0.86042445677E+01  0.20212410698E+01  0.17977684522E+02  0.51100000000E-03 0. -1.
        -12    1    4    4    0    0 -0.13036127231E+02 -0.21561781095E+02 -0.13832457504E+02  0.28743484440E+02  0.00000000000E+00 0.  1.
</event>
<event>
 8    1  0.2994958E-010  0.9118800E+02  0.7816164E-02  0.1184000E+00
        -11   -1    0    0    0    0  0.00000000000E+00  0.00000000000E+00  0.45593999997E+02  0.45594000000E+02  0.51100000000E-03 0. -1.
         11   -1    0    0    0    0 -0.00000000000E+00 -0.00000000000E+00 -0.45593999997E+02  0.45594000000E+02  0.51100000000E-03 0.  1.
         23    2    1    2    0    0  0.00000000000E+00 -0.13322676296E-14 -0.71054273576E-14  0.91188000000E+02  0.91188000000E+02 0.  0.
    9900012    2    3    3    0    0  0.12676773701E+02  0.26508310433E+01 -0.41423369188E+02  0.47787274066E+02  0.20000013778E+02 0.  0.
         12    1    3    3    0    0 -0.12676773701E+02 -0.26508310433E+01  0.41423369188E+02  0.43400725934E+02  0.00000000000E+00 0. -1.
         11    1    4    4    0    0  0.19774410319E+01 -0.51686999511E+01 -0.16242218684E+02  0.17159120031E+02  0.51100000000E-03 0. -1.
        -11    1    4    4    0    0  0.71295560352E+01 -0.16433613691E+01 -0.10206543257E+02  0.12558054442E+02  0.51100000000E-03 0.  1.
         12    1    4    4    0    0  0.35697766341E+01  0.94628923635E+01 -0.14974607247E+02  0.18070099593E+02  0.00000000000E+00 0. -1.
</event>
<event>
 8    1  0.2994958E-010  0.9118800E+02  0.7816164E-02  0.1184000E+00
        -11   -1    0    0    0    0  0.00000000000E+00  0.00000000000E+00  0.45593999997E+02  0.45594000000E+02  0.51100000000E-03 0. -1.
         11   -1    0    0    0    0 -0.00000000000E+00 -0.00000000000E+00 -0.45593999997E+02  0.45594000000E+02  0.51100000000E-03 0.  1.
         23    2    1    2    0    0  0.00000000000E+00  0.22204460493E-15  0.00000000000E+00  0.91188000000E+02  0.91188000000E+02 0.  0.
    9900012    2    3    3    0    0  0.26482564322E+02  0.15098794388E+01  0.34351374247E+02  0.47787275794E+02  0.20000021655E+02 0.  0.
        -12    1    3    3    0    0 -0.26482564322E+02 -0.15098794388E+01 -0.34351374247E+02  0.43400724206E+02  0.00000000000E+00 0.  1.
         11    1    4    4    0    0  0.66881805364E+01 -0.18663869548E+01  0.17068137360E+02  0.18426515469E+02  0.51100000000E-03 0.  1.
        -11    1    4    4    0    0  0.15605543086E+02  0.48009042629E+01  0.18595100256E+02  0.24745896842E+02  0.51100000000E-03 0. -1.
        -12    1    4    4    0    0  0.41888406992E+01 -0.14246378693E+01 -0.13118633687E+01  0.46148634823E+01  0.00000000000E+00 0.  1.
</event>
<event>
 8    1  0.2994958E-010  0.9118800E+02  0.7816164E-02  0.1184000E+00
        -11   -1    0    0    0    0  0.00000000000E+00  0.00000000000E+00  0.45593999997E+02  0.45594000000E+02  0.51100000000E-03 0. -1.
         11   -1    0    0    0    0 -0.00000000000E+00 -0.00000000000E+00 -0.45593999997E+02  0.45594000000E+02  0.51100000000E-03 0.  1.
         23    2    1    2    0    0  0.00000000000E+00 -0.44408920985E-15  0.00000000000E+00  0.91188000000E+02  0.91188000000E+02 0.  0.
    9900012    2    3    3    0    0 -0.24039267619E+02  0.18188125872E+01  0.36089213070E+02  0.47787242324E+02  0.19999869051E+02 0.  0.
        -12    1    3    3    0    0  0.24039267619E+02 -0.18188125872E+01 -0.36089213070E+02  0.43400757676E+02  0.00000000000E+00 0.  1.
         11    1    4    4    0    0 -0.58506118508E+01  0.52696852124E+01  0.53978047961E+01  0.95464934999E+01  0.51100000000E-03 0. -1.
        -11    1    4    4    0    0  0.13001951092E+01 -0.30508232990E+01  0.42528727601E+01  0.53930471070E+01  0.51100000000E-03 0.  1.
         12    1    4    4    0    0 -0.19488850877E+02 -0.40004932621E+00  0.26438535514E+02  0.32847701717E+02  0.00000000000E+00 0. -1.
</event>
<event>
 8    1  0.2994958E-010  0.9118800E+02  0.7816164E-02  0.1184000E+00
        -11   -1    0    0    0    0  0.00000000000E+00  0.00000000000E+00  0.45593999997E+02  0.45594000000E+02  0.51100000000E-03 0. -1.
         11   -1    0    0    0    0 -0.00000000000E+00 -0.00000000000E+00 -0.45593999997E+02  0.45594000000E+02  0.51100000000E-03 0.  1.
         23    2    1    2    0    0  0.00000000000E+00  0.71054273576E-14 -0.71054273576E-14  0.91188000000E+02  0.91188000000E+02 0.  0.
    9900012    2    3    3    0    0 -0.18773728286E+02  0.28118403114E+02 -0.27212603292E+02  0.47787271373E+02  0.20000001497E+02 0.  0.
         12    1    3    3    0    0  0.18773728286E+02 -0.28118403114E+02  0.27212603292E+02  0.43400728627E+02  0.00000000000E+00 0. -1.
         11    1    4    4    0    0 -0.76089278130E+01  0.14397533983E+02 -0.18300122899E+02  0.24496515377E+02  0.51100000000E-03 0. -1.
        -11    1    4    4    0    0 -0.82786514100E+00  0.10662124451E+02 -0.51816446969E+01  0.11883421246E+02  0.51100000000E-03 0.  1.
         12    1    4    4    0    0 -0.10336935332E+02  0.30587446794E+01 -0.37308356967E+01  0.11407334749E+02  0.00000000000E+00 0. -1.
</event>
<event>
 8    1  0.2994958E-010  0.9118800E+02  0.7816164E-02  0.1184000E+00
        -11   -1    0    0    0    0  0.00000000000E+00  0.00000000000E+00  0.45593999997E+02  0.45594000000E+02  0.51100000000E-03 0.  1.
         11   -1    0    0    0    0 -0.00000000000E+00 -0.00000000000E+00 -0.45593999997E+02  0.45594000000E+02  0.51100000000E-03 0. -1.
         23    2    1    2    0    0 -0.71054273576E-14  0.17763568394E-14  0.17763568394E-14  0.91188000000E+02  0.91188000000E+02 0.  0.
    9900012    2    3    3    0    0  0.41052488906E+02 -0.80684992558E+01 -0.11541909962E+02  0.47787271767E+02  0.20000003295E+02 0.  0.
         12    1    3    3    0    0 -0.41052488906E+02  0.80684992558E+01  0.11541909962E+02  0.43400728233E+02  0.00000000000E+00 0. -1.
         11    1    4    4    0    0  0.13341900678E+02 -0.11830126758E+01 -0.94387351732E+01  0.16385833962E+02  0.51100000000E-03 0. -1.
        -11    1    4    4    0    0  0.11208566731E+02  0.35130128228E+01  0.29258009530E+00  0.11749843855E+02  0.51100000000E-03 0.  1.
        -12    1    4    4    0    0  0.16502021497E+02 -0.10398499403E+02 -0.23957548836E+01  0.19651593950E+02  0.00000000000E+00 0.  1.
</event>
<event>
 8    1  0.2994958E-010  0.9118800E+02  0.7816164E-02  0.1184000E+00
        -11   -1    0    0    0    0  0.00000000000E+00  0.00000000000E+00  0.45593999997E+02  0.45594000000E+02  0.51100000000E-03 0. -1.
         11   -1    0    0    0    0 -0.00000000000E+00 -0.00000000000E+00 -0.45593999997E+02  0.45594000000E+02  0.51100000000E-03 0.  1.
         23    2    1    2    0    0  0.00000000000E+00  0.00000000000E+00 -0.35527136788E-14  0.91188000000E+02  0.91188000000E+02 0.  0.
    9900012    2    3    3    0    0  0.26036939096E+01 -0.36722633532E+02  0.22984608949E+02  0.47787270928E+02  0.19999999468E+02 0.  0.
        -12    1    3    3    0    0 -0.26036939096E+01  0.36722633532E+02 -0.22984608949E+02  0.43400729072E+02  0.00000000000E+00 0.  1.
         11    1    4    4    0    0  0.26798908560E+01 -0.58654420765E+01  0.62461765963E+01  0.89777473838E+01  0.51100000000E-03 0. -1.
        -11    1    4    4    0    0 -0.52599258209E+00 -0.32887298247E+02  0.16184157851E+02  0.36657577931E+02  0.51100000000E-03 0.  1.
        -12    1    4    4    0    0  0.44979563568E+00  0.20301067913E+01  0.55427450099E+00  0.21519456128E+01  0.00000000000E+00 0.  1.
</event>
<event>
 8    1  0.2994958E-010  0.9118800E+02  0.7816164E-02  0.1184000E+00
        -11   -1    0    0    0    0  0.00000000000E+00  0.00000000000E+00  0.45593999997E+02  0.45594000000E+02  0.51100000000E-03 0. -1.
         11   -1    0    0    0    0 -0.00000000000E+00 -0.00000000000E+00 -0.45593999997E+02  0.45594000000E+02  0.51100000000E-03 0.  1.
         23    2    1    2    0    0 -0.88817841970E-15 -0.17763568394E-14  0.00000000000E+00  0.91188000000E+02  0.91188000000E+02 0.  0.
    9900012    2    3    3    0    0  0.75094936302E+01 -0.10964185399E+02 -0.41316068669E+02  0.47787269750E+02  0.19999994097E+02 0.  0.
         12    1    3    3    0    0 -0.75094936302E+01  0.10964185399E+02  0.41316068669E+02  0.43400730250E+02  0.00000000000E+00 0. -1.
         11    1    4    4    0    0  0.19454599723E+01 -0.18789531014E+01 -0.88471780389E+01  0.92513695621E+01  0.51100000000E-03 0. -1.
        -11    1    4    4    0    0  0.65311706014E+01 -0.13944162641E+02 -0.20978294175E+02  0.26022772488E+02  0.51100000000E-03 0.  1.
         12    1    4    4    0    0 -0.96713694357E+00  0.48589303439E+01 -0.11490596454E+02  0.12513127700E+02  0.00000000000E+00 0. -1.
</event>
<event>
 8    1  0.2994958E-010  0.9118800E+02  0.7816164E-02  0.1184000E+00
        -11   -1    0    0    0    0  0.00000000000E+00  0.00000000000E+00  0.45593999997E+02  0.45594000000E+02  0.51100000000E-03 0. -1.
         11   -1    0    0    0    0 -0.00000000000E+00 -0.00000000000E+00 -0.45593999997E+02  0.45594000000E+02  0.51100000000E-03 0.  1.
         23    2    1    2    0    0  0.00000000000E+00  0.00000000000E+00  0.00000000000E+00  0.91188000000E+02  0.91188000000E+02 0.  0.
    9900012    2    3    3    0    0  0.11245287673E+02  0.16346751827E+02 -0.38599885661E+02  0.47787263103E+02  0.19999963792E+02 0.  0.
         12    1    3    3    0    0 -0.11245287673E+02 -0.16346751827E+02  0.38599885661E+02  0.43400736897E+02  0.00000000000E+00 0. -1.
         11    1    4    4    0    0  0.38971211282E+01  0.59003472907E+01 -0.16119375931E+01  0.72525853531E+01  0.51100000000E-03 0. -1.
        -11    1    4    4    0    0 -0.15574968879E+01  0.33071883562E+01 -0.31568082527E+01  0.48299824000E+01  0.51100000000E-03 0.  1.
        -12    1    4    4    0    0  0.89056634325E+01  0.71392161804E+01 -0.33831139815E+02  0.35704695350E+02  0.00000000000E+00 0.  1.
</event>
<event>
 8    1  0.2994958E-010  0.9118800E+02  0.7816164E-02  0.1184000E+00
        -11   -1    0    0    0    0  0.00000000000E+00  0.00000000000E+00  0.45593999997E+02  0.45594000000E+02  0.51100000000E-03 0. -1.
         11   -1    0    0    0    0 -0.00000000000E+00 -0.00000000000E+00 -0.45593999997E+02  0.45594000000E+02  0.51100000000E-03 0.  1.
         23    2    1    2    0    0 -0.17763568394E-14 -0.44408920985E-15  0.00000000000E+00  0.91188000000E+02  0.91188000000E+02 0.  0.
    9900012    2    3    3    0    0 -0.14742517020E+02  0.35999621143E+01  0.40661064468E+02  0.47787266146E+02  0.19999977668E+02 0.  0.
        -12    1    3    3    0    0  0.14742517020E+02 -0.35999621143E+01 -0.40661064468E+02  0.43400733854E+02  0.00000000000E+00 0.  1.
         11    1    4    4    0    0 -0.42964228678E+01  0.16401976462E+01  0.12765022234E+02  0.13568171973E+02  0.51100000000E-03 0. -1.
        -11    1    4    4    0    0 -0.68807282293E+01  0.80313189548E+01  0.84479398658E+01  0.13535663758E+02  0.51100000000E-03 0.  1.
        -12    1    4    4    0    0 -0.35653659233E+01 -0.60715544866E+01  0.19448102368E+02  0.20683430416E+02  0.00000000000E+00 0.  1.
</event>
<event>
 8    1  0.3887755E-010  0.9118800E+02  0.7816164E-02  0.1184000E+00
        -11   -1    0    0    0    0  0.00000000000E+00  0.00000000000E+00  0.45593999997E+02  0.45594000000E+02  0.51100000000E-03 0. -1.
         11   -1    0    0    0    0 -0.00000000000E+00 -0.00000000000E+00 -0.45593999997E+02  0.45594000000E+02  0.51100000000E-03 0.  1.
         23    2    1    2    0    0  0.00000000000E+00  0.00000000000E+00  0.00000000000E+00  0.91188000000E+02  0.91188000000E+02 0.  0.
    9900012    2    3    3    0    0 -0.30350083034E+02 -0.11556790044E+02  0.28791253912E+02  0.47787271456E+02  0.20000001878E+02 0.  0.
        -12    1    3    3    0    0  0.30350083034E+02  0.11556790044E+02 -0.28791253912E+02  0.43400728544E+02  0.00000000000E+00 0.  1.
         11    1    4    4    0    0 -0.61600969508E+01 -0.48689729820E+01  0.76657825452E+00  0.78893177667E+01  0.51100000000E-03 0. -1.
        -11    1    4    4    0    0  0.27839287832E-02 -0.68076821927E+00  0.77131306968E+01  0.77431155567E+01  0.51100000000E-03 0.  1.
         12    1    4    4    0    0 -0.24192770012E+02 -0.60070488431E+01  0.20311544961E+02  0.32154838133E+02  0.00000000000E+00 0. -1.
</event>
<event>
 8    1  0.2994958E-010  0.9118800E+02  0.7816164E-02  0.1184000E+00
        -11   -1    0    0    0    0  0.00000000000E+00  0.00000000000E+00  0.45593999997E+02  0.45594000000E+02  0.51100000000E-03 0. -1.
         11   -1    0    0    0    0 -0.00000000000E+00 -0.00000000000E+00 -0.45593999997E+02  0.45594000000E+02  0.51100000000E-03 0.  1.
         23    2    1    2    0    0  0.00000000000E+00  0.35527136788E-14  0.71054273576E-14  0.91188000000E+02  0.91188000000E+02 0.  0.
    9900012    2    3    3    0    0 -0.10496535337E+02 -0.25854671929E+02 -0.33241265309E+02  0.47787273809E+02  0.20000012603E+02 0.  0.
         12    1    3    3    0    0  0.10496535337E+02  0.25854671929E+02  0.33241265309E+02  0.43400726191E+02  0.00000000000E+00 0. -1.
         11    1    4    4    0    0 -0.18458314074E+01  0.97058392091E+00  0.39730875393E+00  0.21229651997E+01  0.51100000000E-03 0. -1.
        -11    1    4    4    0    0 -0.53709964134E+01 -0.70014895391E+01 -0.36120541394E+01  0.95349564029E+01  0.51100000000E-03 0.  1.
         12    1    4    4    0    0 -0.32797075160E+01 -0.19823766311E+02 -0.30026519923E+02  0.36129352206E+02  0.00000000000E+00 0. -1.
</event>
<event>
 8    1  0.3452964E-010  0.9118800E+02  0.7816164E-02  0.1184000E+00
        -11   -1    0    0    0    0  0.00000000000E+00  0.00000000000E+00  0.45593999997E+02  0.45594000000E+02  0.51100000000E-03 0. -1.
         11   -1    0    0    0    0 -0.00000000000E+00 -0.00000000000E+00 -0.45593999997E+02  0.45594000000E+02  0.51100000000E-03 0.  1.
         23    2    1    2    0    0  0.00000000000E+00 -0.88817841970E-15  0.00000000000E+00  0.91188000000E+02  0.91188000000E+02 0.  0.
    9900012    2    3    3    0    0 -0.17821158163E+02 -0.67697832806E+01  0.38989725561E+02  0.47787281766E+02  0.20000048883E+02 0.  0.
        -12    1    3    3    0    0  0.17821158163E+02  0.67697832806E+01 -0.38989725561E+02  0.43400718234E+02  0.00000000000E+00 0.  1.
         11    1    4    4    0    0 -0.15902452955E+02  0.27554188990E+01  0.28827623346E+02  0.33038041881E+02  0.51100000000E-03 0. -1.
        -11    1    4    4    0    0 -0.96327495329E+00 -0.15511067739E+01  0.37666798518E-01  0.18262666586E+01  0.51100000000E-03 0.  1.
         12    1    4    4    0    0 -0.95543025493E+00 -0.79740954057E+01  0.10124435416E+02  0.12922973226E+02  0.00000000000E+00 0. -1.
</event>
<event>
 8    1  0.2994958E-010  0.9118800E+02  0.7816164E-02  0.1184000E+00
        -11   -1    0    0    0    0  0.00000000000E+00  0.00000000000E+00  0.45593999997E+02  0.45594000000E+02  0.51100000000E-03 0. -1.
         11   -1    0    0    0    0 -0.00000000000E+00 -0.00000000000E+00 -0.45593999997E+02  0.45594000000E+02  0.51100000000E-03 0.  1.
         23    2    1    2    0    0  0.00000000000E+00  0.00000000000E+00  0.00000000000E+00  0.91188000000E+02  0.91188000000E+02 0.  0.
    9900012    2    3    3    0    0 -0.61099605951E+01  0.40275909445E+02  0.14971404393E+02  0.47787269020E+02  0.19999990769E+02 0.  0.
        -12    1    3    3    0    0  0.61099605951E+01 -0.40275909445E+02 -0.14971404393E+02  0.43400730980E+02  0.00000000000E+00 0.  1.
         11    1    4    4    0    0  0.42352750509E+01  0.10262243584E+02  0.14477077287E+01  0.11195849949E+02  0.51100000000E-03 0. -1.
        -11    1    4    4    0    0 -0.28899546728E+00  0.73522445023E+01 -0.16275982795E+01  0.75357875516E+01  0.51100000000E-03 0.  1.
        -12    1    4    4    0    0 -0.10056240179E+02  0.22661421359E+02  0.15151294944E+02  0.29055631519E+02  0.00000000000E+00 0.  1.
</event>
<event>
 8    1  0.2994958E-010  0.9118800E+02  0.7816164E-02  0.1184000E+00
        -11   -1    0    0    0    0  0.00000000000E+00  0.00000000000E+00  0.45593999997E+02  0.45594000000E+02  0.51100000000E-03 0. -1.
         11   -1    0    0    0    0 -0.00000000000E+00 -0.00000000000E+00 -0.45593999997E+02  0.45594000000E+02  0.51100000000E-03 0.  1.
         23    2    1    2    0    0 -0.26645352591E-14  0.35527136788E-14  0.00000000000E+00  0.91188000000E+02  0.91188000000E+02 0.  0.
    9900012    2    3    3    0    0 -0.43169300905E+01  0.17168946770E+02 -0.39625934571E+02  0.47787270637E+02  0.19999998142E+02 0.  0.
         12    1    3    3    0    0  0.43169300905E+01 -0.17168946770E+02  0.39625934571E+02  0.43400729363E+02  0.00000000000E+00 0. -1.
         11    1    4    4    0    0 -0.47277367533E+01  0.87549102939E+01 -0.20512132704E+02  0.22797972221E+02  0.51100000000E-03 0. -1.
        -11    1    4    4    0    0 -0.56836545302E+01  0.28123441238E+01 -0.13705262544E+02  0.15101239352E+02  0.51100000000E-03 0.  1.
         12    1    4    4    0    0  0.60944611930E+01  0.56016923523E+01 -0.54085393228E+01  0.98880590638E+01  0.00000000000E+00 0. -1.
</event>
<event>
 8    1  0.2994958E-010  0.9118800E+02  0.7816164E-02  0.1184000E+00
        -11   -1    0    0    0    0  0.00000000000E+00  0.00000000000E+00  0.45593999997E+02  0.45594000000E+02  0.51100000000E-03 0. -1.
         11   -1    0    0    0    0 -0.00000000000E+00 -0.00000000000E+00 -0.45593999997E+02  0.45594000000E+02  0.51100000000E-03 0.  1.
         23    2    1    2    0    0  0.00000000000E+00  0.00000000000E+00  0.00000000000E+00  0.91188000000E+02  0.91188000000E+02 0.  0.
    9900012    2    3    3    0    0 -0.82280114343E+01  0.21761628782E+02  0.36638159219E+02  0.47787269933E+02  0.19999994931E+02 0.  0.
        -12    1    3    3    0    0  0.82280114343E+01 -0.21761628782E+02 -0.36638159219E+02  0.43400730067E+02  0.00000000000E+00 0.  1.
         11    1    4    4    0    0  0.16219434235E+01  0.57635851619E+01  0.68356410768E+01  0.90871119493E+01  0.51100000000E-03 0. -1.
        -11    1    4    4    0    0  0.14514559474E+00  0.10235331313E+02  0.51006836605E+01  0.11436784880E+02  0.51100000000E-03 0.  1.
         12    1    4    4    0    0 -0.99951004525E+01  0.57627123069E+01  0.24701834482E+02  0.27263373103E+02  0.00000000000E+00 0. -1.
</event>
<event>
 8    1  0.2994958E-010  0.9118800E+02  0.7816164E-02  0.1184000E+00
        -11   -1    0    0    0    0  0.00000000000E+00  0.00000000000E+00  0.45593999997E+02  0.45594000000E+02  0.51100000000E-03 0. -1.
         11   -1    0    0    0    0 -0.00000000000E+00 -0.00000000000E+00 -0.45593999997E+02  0.45594000000E+02  0.51100000000E-03 0.  1.
         23    2    1    2    0    0  0.00000000000E+00 -0.35527136788E-14  0.17763568394E-14  0.91188000000E+02  0.91188000000E+02 0.  0.
    9900012    2    3    3    0    0 -0.35605264773E+02  0.20263637343E+02 -0.14327360842E+02  0.47787272510E+02  0.20000006684E+02 0.  0.
         12    1    3    3    0    0  0.35605264773E+02 -0.20263637343E+02  0.14327360842E+02  0.43400727490E+02  0.00000000000E+00 0. -1.
         11    1    4    4    0    0 -0.16207950817E+02  0.74729627249E+01 -0.12664298861E+01  0.17892643363E+02  0.51100000000E-03 0. -1.
        -11    1    4    4    0    0 -0.20805357465E+02  0.12499635733E+02 -0.95178543435E+01  0.26070929102E+02  0.51100000000E-03 0.  1.
         12    1    4    4    0    0  0.14080435090E+01  0.29103888488E+00 -0.35430766122E+01  0.38237000452E+01  0.00000000000E+00 0. -1.
</event>
<event>
 8    1  0.2994958E-010  0.9118800E+02  0.7816164E-02  0.1184000E+00
        -11   -1    0    0    0    0  0.00000000000E+00  0.00000000000E+00  0.45593999997E+02  0.45594000000E+02  0.51100000000E-03 0. -1.
         11   -1    0    0    0    0 -0.00000000000E+00 -0.00000000000E+00 -0.45593999997E+02  0.45594000000E+02  0.51100000000E-03 0.  1.
         23    2    1    2    0    0 -0.17763568394E-14  0.17763568394E-14  0.00000000000E+00  0.91188000000E+02  0.91188000000E+02 0.  0.
    9900012    2    3    3    0    0 -0.14462516697E+02  0.90641702486E+01  0.39903626349E+02  0.47787274576E+02  0.20000016104E+02 0.  0.
        -12    1    3    3    0    0  0.14462516697E+02 -0.90641702486E+01 -0.39903626349E+02  0.43400725424E+02  0.00000000000E+00 0.  1.
         11    1    4    4    0    0 -0.14741342366E+02  0.29010321877E+01  0.32714643248E+02  0.35999597853E+02  0.51100000000E-03 0. -1.
        -11    1    4    4    0    0 -0.23311943457E+00  0.32276060333E+01  0.80581726540E+01  0.86836589154E+01  0.51100000000E-03 0.  1.
         12    1    4    4    0    0  0.51194510300E+00  0.29355320275E+01 -0.86918955297E+00  0.31040178080E+01  0.00000000000E+00 0. -1.
</event>
<event>
 8    1  0.2994958E-010  0.9118800E+02  0.7816164E-02  0.1184000E+00
        -11   -1    0    0    0    0  0.00000000000E+00  0.00000000000E+00  0.45593999997E+02  0.45594000000E+02  0.51100000000E-03 0. -1.
         11   -1    0    0    0    0 -0.00000000000E+00 -0.00000000000E+00 -0.45593999997E+02  0.45594000000E+02  0.51100000000E-03 0.  1.
         23    2    1    2    0    0  0.00000000000E+00 -0.35527136788E-14  0.00000000000E+00  0.91188000000E+02  0.91188000000E+02 0.  0.
    9900012    2    3    3    0    0  0.67462834581E+01  0.19975740629E+02 -0.37935231749E+02  0.47787258509E+02  0.19999942844E+02 0.  0.
         12    1    3    3    0    0 -0.67462834581E+01 -0.19975740629E+02  0.37935231749E+02  0.43400741491E+02  0.00000000000E+00 0. -1.
         11    1    4    4    0    0 -0.54827386589E+00  0.43520127230E+00 -0.39233981698E+00  0.80245571375E+00  0.51100000000E-03 0. -1.
        -11    1    4    4    0    0  0.91975355456E+01  0.45027408756E+01 -0.25963982799E+02  0.27910530962E+02  0.51100000000E-03 0.  1.
         12    1    4    4    0    0 -0.19029782216E+01  0.15037798481E+02 -0.11578909132E+02  0.19074271833E+02  0.00000000000E+00 0. -1.
</event>
<event>
 8    1  0.2994958E-010  0.9118800E+02  0.7816164E-02  0.1184000E+00
        -11   -1    0    0    0    0  0.00000000000E+00  0.00000000000E+00  0.45593999997E+02  0.45594000000E+02  0.51100000000E-03 0. -1.
         11   -1    0    0    0    0 -0.00000000000E+00 -0.00000000000E+00 -0.45593999997E+02  0.45594000000E+02  0.51100000000E-03 0.  1.
         23    2    1    2    0    0 -0.35527136788E-14  0.00000000000E+00  0.71054273576E-14  0.91188000000E+02  0.91188000000E+02 0.  0.
    9900012    2    3    3    0    0  0.26080749215E+02 -0.12643680302E+02 -0.32304099977E+02  0.47787274125E+02  0.20000014046E+02 0.  0.
         12    1    3    3    0    0 -0.26080749215E+02  0.12643680302E+02  0.32304099977E+02  0.43400725875E+02  0.00000000000E+00 0. -1.
         11    1    4    4    0    0  0.27346725932E+01  0.72069261989E+00 -0.19220477470E+01  0.34193712649E+01  0.51100000000E-03 0. -1.
        -11    1    4    4    0    0  0.32232311071E+01 -0.55815063368E+01 -0.18812828146E+02  0.19886300181E+02  0.51100000000E-03 0.  1.
        -12    1    4    4    0    0  0.20122845514E+02 -0.77828665848E+01 -0.11569224083E+02  0.24481602680E+02  0.00000000000E+00 0.  1.
</event>
<event>
 8    1  0.2994958E-010  0.9118800E+02  0.7816164E-02  0.1184000E+00
        -11   -1    0    0    0    0  0.00000000000E+00  0.00000000000E+00  0.45593999997E+02  0.45594000000E+02  0.51100000000E-03 0. -1.
         11   -1    0    0    0    0 -0.00000000000E+00 -0.00000000000E+00 -0.45593999997E+02  0.45594000000E+02  0.51100000000E-03 0.  1.
         23    2    1    2    0    0  0.17763568394E-14  0.00000000000E+00  0.00000000000E+00  0.91188000000E+02  0.91188000000E+02 0.  0.
    9900012    2    3    3    0    0 -0.12939590949E+02  0.16760616785E+02  0.37884984622E+02  0.47787270181E+02  0.19999996065E+02 0.  0.
        -12    1    3    3    0    0  0.12939590949E+02 -0.16760616785E+02 -0.37884984622E+02  0.43400729819E+02  0.00000000000E+00 0.  1.
         11    1    4    4    0    0 -0.61626573970E+01 -0.16571079481E+00  0.13091983979E+02  0.14470862138E+02  0.51100000000E-03 0. -1.
        -11    1    4    4    0    0 -0.12454979502E+01 -0.13974794912E+01  0.67769312360E+01  0.70307191176E+01  0.51100000000E-03 0.  1.
        -12    1    4    4    0    0 -0.55314356019E+01  0.18323807071E+02  0.18016069408E+02  0.26285688926E+02  0.00000000000E+00 0.  1.
</event>
<event>
 8    1  0.2994958E-010  0.9118800E+02  0.7816164E-02  0.1184000E+00
        -11   -1    0    0    0    0  0.00000000000E+00  0.00000000000E+00  0.45593999997E+02  0.45594000000E+02  0.51100000000E-03 0.  1.
         11   -1    0    0    0    0 -0.00000000000E+00 -0.00000000000E+00 -0.45593999997E+02  0.45594000000E+02  0.51100000000E-03 0. -1.
         23    2    1    2    0    0  0.00000000000E+00  0.00000000000E+00  0.00000000000E+00  0.91188000000E+02  0.91188000000E+02 0.  0.
    9900012    2    3    3    0    0 -0.31175073302E+02  0.16391807441E+02  0.25358359364E+02  0.47787274935E+02  0.20000017737E+02 0.  0.
         12    1    3    3    0    0  0.31175073302E+02 -0.16391807441E+02 -0.25358359364E+02  0.43400725065E+02  0.00000000000E+00 0. -1.
         11    1    4    4    0    0 -0.91776816905E+01  0.13162965474E+02  0.68183194525E+01  0.17435107734E+02  0.51100000000E-03 0. -1.
        -11    1    4    4    0    0 -0.14290993728E+02  0.64471848072E+01  0.12294680414E+02  0.19923801355E+02  0.51100000000E-03 0.  1.
         12    1    4    4    0    0 -0.77063978835E+01 -0.32183428397E+01  0.62453594972E+01  0.10428365846E+02  0.00000000000E+00 0. -1.
</event>
<event>
 8    1  0.2994958E-010  0.9118800E+02  0.7816164E-02  0.1184000E+00
        -11   -1    0    0    0    0  0.00000000000E+00  0.00000000000E+00  0.45593999997E+02  0.45594000000E+02  0.51100000000E-03 0. -1.
         11   -1    0    0    0    0 -0.00000000000E+00 -0.00000000000E+00 -0.45593999997E+02  0.45594000000E+02  0.51100000000E-03 0.  1.
         23    2    1    2    0    0  0.00000000000E+00  0.35527136788E-14  0.00000000000E+00  0.91188000000E+02  0.91188000000E+02 0.  0.
    9900012    2    3    3    0    0  0.31759283911E+02 -0.22380861610E+02 -0.19340853424E+02  0.47787266225E+02  0.19999978028E+02 0.  0.
         12    1    3    3    0    0 -0.31759283911E+02  0.22380861610E+02  0.19340853424E+02  0.43400733775E+02  0.00000000000E+00 0. -1.
         11    1    4    4    0    0  0.22621336920E+02 -0.10295560105E+02 -0.11767204491E+02  0.27498918955E+02  0.51100000000E-03 0. -1.
        -11    1    4    4    0    0  0.74578065582E+01 -0.74202381841E+01 -0.10220629220E+02  0.14667654048E+02  0.51100000000E-03 0.  1.
        -12    1    4    4    0    0  0.16801404336E+01 -0.46650633210E+01  0.26469802857E+01  0.56206932222E+01  0.00000000000E+00 0.  1.
</event>
<event>
 8    1  0.2994958E-010  0.9118800E+02  0.7816164E-02  0.1184000E+00
        -11   -1    0    0    0    0  0.00000000000E+00  0.00000000000E+00  0.45593999997E+02  0.45594000000E+02  0.51100000000E-03 0. -1.
         11   -1    0    0    0    0 -0.00000000000E+00 -0.00000000000E+00 -0.45593999997E+02  0.45594000000E+02  0.51100000000E-03 0.  1.
         23    2    1    2    0    0  0.00000000000E+00  0.00000000000E+00 -0.71054273576E-14  0.91188000000E+02  0.91188000000E+02 0.  0.
    9900012    2    3    3    0    0  0.20473234980E+02 -0.16455467162E+02  0.34549772905E+02  0.47787279293E+02  0.20000037610E+02 0.  0.
        -12    1    3    3    0    0 -0.20473234980E+02  0.16455467162E+02 -0.34549772905E+02  0.43400720707E+02  0.00000000000E+00 0.  1.
         11    1    4    4    0    0  0.14226402476E+02  0.29046533977E+00  0.17699915775E+02  0.22710392252E+02  0.51100000000E-03 0.  1.
        -11    1    4    4    0    0  0.22716704431E+01 -0.33354703872E+01  0.14878964032E+01  0.43011260472E+01  0.51100000000E-03 0. -1.
        -12    1    4    4    0    0  0.39751620613E+01 -0.13410462114E+02  0.15361960727E+02  0.20775760995E+02  0.00000000000E+00 0.  1.
</event>
<event>
 8    1  0.2994958E-010  0.9118800E+02  0.7816164E-02  0.1184000E+00
        -11   -1    0    0    0    0  0.00000000000E+00  0.00000000000E+00  0.45593999997E+02  0.45594000000E+02  0.51100000000E-03 0. -1.
         11   -1    0    0    0    0 -0.00000000000E+00 -0.00000000000E+00 -0.45593999997E+02  0.45594000000E+02  0.51100000000E-03 0.  1.
         23    2    1    2    0    0  0.00000000000E+00  0.88817841970E-15  0.35527136788E-14  0.91188000000E+02  0.91188000000E+02 0.  0.
    9900012    2    3    3    0    0  0.36401580830E+02  0.51744539751E+01  0.23060214838E+02  0.47787267642E+02  0.19999984485E+02 0.  0.
        -12    1    3    3    0    0 -0.36401580830E+02 -0.51744539751E+01 -0.23060214838E+02  0.43400732358E+02  0.00000000000E+00 0.  1.
         11    1    4    4    0    0  0.64165869061E+01 -0.10952296350E+01  0.47714983798E+00  0.65268512857E+01  0.51100000000E-03 0.  1.
        -11    1    4    4    0    0  0.21188513116E+02 -0.18045105383E+01  0.19675355628E+02  0.28971174738E+02  0.51100000000E-03 0. -1.
         12    1    4    4    0    0  0.87964808079E+01  0.80741941484E+01  0.29077093721E+01  0.12289241618E+02  0.00000000000E+00 0. -1.
</event>
<event>
 8    1  0.2994958E-010  0.9118800E+02  0.7816164E-02  0.1184000E+00
        -11   -1    0    0    0    0  0.00000000000E+00  0.00000000000E+00  0.45593999997E+02  0.45594000000E+02  0.51100000000E-03 0. -1.
         11   -1    0    0    0    0 -0.00000000000E+00 -0.00000000000E+00 -0.45593999997E+02  0.45594000000E+02  0.51100000000E-03 0.  1.
         23    2    1    2    0    0  0.11102230246E-14  0.00000000000E+00  0.00000000000E+00  0.91188000000E+02  0.91188000000E+02 0.  0.
    9900012    2    3    3    0    0 -0.18522668234E+01  0.26040359224E+01  0.43282937820E+02  0.47787255746E+02  0.19999930249E+02 0.  0.
        -12    1    3    3    0    0  0.18522668234E+01 -0.26040359224E+01 -0.43282937820E+02  0.43400744254E+02  0.00000000000E+00 0.  1.
         11    1    4    4    0    0 -0.32214491898E+01  0.19528516256E+01  0.75901238558E+01  0.84735674165E+01  0.51100000000E-03 0. -1.
        -11    1    4    4    0    0  0.69155012304E+01 -0.16594807096E+01  0.69295963581E+01  0.99296192999E+01  0.51100000000E-03 0.  1.
        -12    1    4    4    0    0 -0.55463188640E+01  0.23106650065E+01  0.28763217606E+02  0.29384069030E+02  0.00000000000E+00 0.  1.
</event>
<event>
 8    1  0.2994958E-010  0.9118800E+02  0.7816164E-02  0.1184000E+00
        -11   -1    0    0    0    0  0.00000000000E+00  0.00000000000E+00  0.45593999997E+02  0.45594000000E+02  0.51100000000E-03 0. -1.
         11   -1    0    0    0    0 -0.00000000000E+00 -0.00000000000E+00 -0.45593999997E+02  0.45594000000E+02  0.51100000000E-03 0.  1.
         23    2    1    2    0    0 -0.88817841970E-15 -0.88817841970E-15  0.00000000000E+00  0.91188000000E+02  0.91188000000E+02 0.  0.
    9900012    2    3    3    0    0  0.55918389825E+01  0.34918866181E+01  0.42897136394E+02  0.47787236802E+02  0.19999843876E+02 0.  0.
        -12    1    3    3    0    0 -0.55918389825E+01 -0.34918866181E+01 -0.42897136394E+02  0.43400763198E+02  0.00000000000E+00 0.  1.
         11    1    4    4    0    0 -0.34523889509E+01  0.19702875168E+01  0.14618395945E+02  0.15149208647E+02  0.51100000000E-03 0. -1.
        -11    1    4    4    0    0 -0.10061756530E+01 -0.32216944360E+01  0.15961937044E+01  0.37335692155E+01  0.51100000000E-03 0.  1.
        -12    1    4    4    0    0  0.10050403586E+02  0.47432935374E+01  0.26682546744E+02  0.28904458939E+02  0.00000000000E+00 0.  1.
</event>
<event>
 8    1  0.2994958E-010  0.9118800E+02  0.7816164E-02  0.1184000E+00
        -11   -1    0    0    0    0  0.00000000000E+00  0.00000000000E+00  0.45593999997E+02  0.45594000000E+02  0.51100000000E-03 0. -1.
         11   -1    0    0    0    0 -0.00000000000E+00 -0.00000000000E+00 -0.45593999997E+02  0.45594000000E+02  0.51100000000E-03 0.  1.
         23    2    1    2    0    0  0.00000000000E+00 -0.88817841970E-15  0.00000000000E+00  0.91188000000E+02  0.91188000000E+02 0.  0.
    9900012    2    3    3    0    0  0.12646811419E+02  0.59904986350E+01 -0.41082789406E+02  0.47787268458E+02  0.19999988209E+02 0.  0.
         12    1    3    3    0    0 -0.12646811419E+02 -0.59904986350E+01  0.41082789406E+02  0.43400731542E+02  0.00000000000E+00 0. -1.
         11    1    4    4    0    0 -0.60970901399E+00  0.52710616660E+01 -0.13510861534E+02  0.14515481935E+02  0.51100000000E-03 0. -1.
        -11    1    4    4    0    0  0.15808949055E+01 -0.36252469294E+01 -0.15231551701E+02  0.15736639142E+02  0.51100000000E-03 0.  1.
        -12    1    4    4    0    0  0.11675625527E+02  0.43446838983E+01 -0.12340376171E+02  0.17535147381E+02  0.00000000000E+00 0.  1.
</event>
<event>
 8    1  0.2994958E-010  0.9118800E+02  0.7816164E-02  0.1184000E+00
        -11   -1    0    0    0    0  0.00000000000E+00  0.00000000000E+00  0.45593999997E+02  0.45594000000E+02  0.51100000000E-03 0. -1.
         11   -1    0    0    0    0 -0.00000000000E+00 -0.00000000000E+00 -0.45593999997E+02  0.45594000000E+02  0.51100000000E-03 0.  1.
         23    2    1    2    0    0  0.35527136788E-14  0.35527136788E-14 -0.35527136788E-14  0.91188000000E+02  0.91188000000E+02 0.  0.
    9900012    2    3    3    0    0 -0.25314251845E+02 -0.30127340159E+02  0.18307253518E+02  0.47787268406E+02  0.19999987971E+02 0.  0.
        -12    1    3    3    0    0  0.25314251845E+02  0.30127340159E+02 -0.18307253518E+02  0.43400731594E+02  0.00000000000E+00 0.  1.
         11    1    4    4    0    0 -0.24876840843E+02 -0.19437991893E+02  0.12056226733E+02  0.33794161366E+02  0.51100000000E-03 0. -1.
        -11    1    4    4    0    0 -0.12959445388E+00 -0.16321488588E+01 -0.13834526778E+01  0.21435125829E+01  0.51100000000E-03 0.  1.
         12    1    4    4    0    0 -0.30781654818E+00 -0.90571994070E+01  0.76344794630E+01  0.11849594457E+02  0.00000000000E+00 0. -1.
</event>
<event>
 8    1  0.3035260E-010  0.9118800E+02  0.7816164E-02  0.1184000E+00
        -11   -1    0    0    0    0  0.00000000000E+00  0.00000000000E+00  0.45593999997E+02  0.45594000000E+02  0.51100000000E-03 0. -1.
         11   -1    0    0    0    0 -0.00000000000E+00 -0.00000000000E+00 -0.45593999997E+02  0.45594000000E+02  0.51100000000E-03 0.  1.
         23    2    1    2    0    0  0.17763568394E-14  0.00000000000E+00  0.00000000000E+00  0.91188000000E+02  0.91188000000E+02 0.  0.
    9900012    2    3    3    0    0 -0.12683523868E+02  0.29331747515E+02  0.29366660222E+02  0.47787263571E+02  0.19999965926E+02 0.  0.
        -12    1    3    3    0    0  0.12683523868E+02 -0.29331747515E+02 -0.29366660222E+02  0.43400736429E+02  0.00000000000E+00 0.  1.
         11    1    4    4    0    0 -0.63302565024E+00  0.12761984272E+02  0.11071517990E+02  0.16907024424E+02  0.51100000000E-03 0. -1.
        -11    1    4    4    0    0  0.18672302633E+01  0.47694042982E+01  0.11622751538E+00  0.51232094738E+01  0.51100000000E-03 0.  1.
         12    1    4    4    0    0 -0.13917728481E+02  0.11800358945E+02  0.18178914716E+02  0.25757029673E+02  0.00000000000E+00 0. -1.
</event>
<event>
 8    1  0.2994958E-010  0.9118800E+02  0.7816164E-02  0.1184000E+00
        -11   -1    0    0    0    0  0.00000000000E+00  0.00000000000E+00  0.45593999997E+02  0.45594000000E+02  0.51100000000E-03 0. -1.
         11   -1    0    0    0    0 -0.00000000000E+00 -0.00000000000E+00 -0.45593999997E+02  0.45594000000E+02  0.51100000000E-03 0.  1.
         23    2    1    2    0    0  0.00000000000E+00  0.44408920985E-15 -0.71054273576E-14  0.91188000000E+02  0.91188000000E+02 0.  0.
    9900012    2    3    3    0    0  0.19656790179E+02  0.21509765466E+01  0.38634275989E+02  0.47787269805E+02  0.19999994351E+02 0.  0.
        -12    1    3    3    0    0 -0.19656790179E+02 -0.21509765466E+01 -0.38634275989E+02  0.43400730195E+02  0.00000000000E+00 0.  1.
         11    1    4    4    0    0  0.11579033321E+02 -0.55395682665E+01  0.11175396242E+02  0.17019116036E+02  0.51100000000E-03 0. -1.
        -11    1    4    4    0    0  0.68324476725E+01  0.10936863746E+01  0.16826916441E+02  0.18194054200E+02  0.51100000000E-03 0.  1.
        -12    1    4    4    0    0  0.12453091856E+01  0.65968584385E+01  0.10631963306E+02  0.12574099569E+02  0.00000000000E+00 0.  1.
</event>
<event>
 8    1  0.2994958E-010  0.9118800E+02  0.7816164E-02  0.1184000E+00
        -11   -1    0    0    0    0  0.00000000000E+00  0.00000000000E+00  0.45593999997E+02  0.45594000000E+02  0.51100000000E-03 0. -1.
         11   -1    0    0    0    0 -0.00000000000E+00 -0.00000000000E+00 -0.45593999997E+02  0.45594000000E+02  0.51100000000E-03 0.  1.
         23    2    1    2    0    0  0.00000000000E+00  0.35527136788E-14  0.00000000000E+00  0.91188000000E+02  0.91188000000E+02 0.  0.
    9900012    2    3    3    0    0  0.20345668036E+02  0.16671109327E+02 -0.34521747245E+02  0.47787272738E+02  0.20000007722E+02 0.  0.
         12    1    3    3    0    0 -0.20345668036E+02 -0.16671109327E+02  0.34521747245E+02  0.43400727262E+02  0.00000000000E+00 0. -1.
         11    1    4    4    0    0  0.88116857606E+01  0.31808105381E+01 -0.35421170450E+01  0.10015485762E+02  0.51100000000E-03 0. -1.
        -11    1    4    4    0    0  0.11443625740E+02  0.10555521265E+02 -0.15330113513E+02  0.21849210050E+02  0.51100000000E-03 0.  1.
         12    1    4    4    0    0  0.90356535689E-01  0.29347775235E+01 -0.15649516687E+02  0.15922576926E+02  0.00000000000E+00 0. -1.
</event>
<event>
 8    1  0.2994958E-010  0.9118800E+02  0.7816164E-02  0.1184000E+00
        -11   -1    0    0    0    0  0.00000000000E+00  0.00000000000E+00  0.45593999997E+02  0.45594000000E+02  0.51100000000E-03 0. -1.
         11   -1    0    0    0    0 -0.00000000000E+00 -0.00000000000E+00 -0.45593999997E+02  0.45594000000E+02  0.51100000000E-03 0.  1.
         23    2    1    2    0    0  0.00000000000E+00  0.00000000000E+00  0.00000000000E+00  0.91188000000E+02  0.91188000000E+02 0.  0.
    9900012    2    3    3    0    0 -0.89637274311E+01 -0.46331349531E+01 -0.42211475511E+02  0.47787274041E+02  0.20000013663E+02 0.  0.
         12    1    3    3    0    0  0.89637274311E+01  0.46331349531E+01  0.42211475511E+02  0.43400725959E+02  0.00000000000E+00 0. -1.
         11    1    4    4    0    0  0.12574981637E+01 -0.36716671920E+01 -0.21722697454E+02  0.22066672303E+02  0.51100000000E-03 0. -1.
        -11    1    4    4    0    0 -0.28268316407E+01  0.18110805673E+01 -0.16566215352E+02  0.16902972558E+02  0.51100000000E-03 0.  1.
        -12    1    4    4    0    0 -0.73943939541E+01 -0.27725483283E+01 -0.39225627052E+01  0.88176291801E+01  0.00000000000E+00 0.  1.
</event>
<event>
 8    1  0.2994958E-010  0.9118800E+02  0.7816164E-02  0.1184000E+00
        -11   -1    0    0    0    0  0.00000000000E+00  0.00000000000E+00  0.45593999997E+02  0.45594000000E+02  0.51100000000E-03 0.  1.
         11   -1    0    0    0    0 -0.00000000000E+00 -0.00000000000E+00 -0.45593999997E+02  0.45594000000E+02  0.51100000000E-03 0. -1.
         23    2    1    2    0    0  0.00000000000E+00  0.00000000000E+00  0.00000000000E+00  0.91188000000E+02  0.91188000000E+02 0.  0.
    9900012    2    3    3    0    0  0.32496435269E+02 -0.24899952901E+02 -0.14408202513E+02  0.47787282733E+02  0.20000053291E+02 0.  0.
        -12    1    3    3    0    0 -0.32496435269E+02  0.24899952901E+02  0.14408202513E+02  0.43400717267E+02  0.00000000000E+00 0.  1.
         11    1    4    4    0    0  0.15261653926E+02 -0.16852804198E+02 -0.11251842767E+01  0.22764031493E+02  0.51100000000E-03 0.  1.
        -11    1    4    4    0    0  0.92037330429E+01 -0.69300246134E+01 -0.29574793318E+01  0.11894562931E+02  0.51100000000E-03 0. -1.
        -12    1    4    4    0    0  0.80310483006E+01 -0.11171240893E+01 -0.10325538904E+02  0.13128688308E+02  0.00000000000E+00 0.  1.
</event>
<event>
 8    1  0.2994958E-010  0.9118800E+02  0.7816164E-02  0.1184000E+00
        -11   -1    0    0    0    0  0.00000000000E+00  0.00000000000E+00  0.45593999997E+02  0.45594000000E+02  0.51100000000E-03 0. -1.
         11   -1    0    0    0    0 -0.00000000000E+00 -0.00000000000E+00 -0.45593999997E+02  0.45594000000E+02  0.51100000000E-03 0.  1.
         23    2    1    2    0    0 -0.17763568394E-14  0.00000000000E+00 -0.71054273576E-14  0.91188000000E+02  0.91188000000E+02 0.  0.
    9900012    2    3    3    0    0 -0.15390748106E+02  0.19442241573E+02 -0.35619482041E+02  0.47787269758E+02  0.19999994136E+02 0.  0.
         12    1    3    3    0    0  0.15390748106E+02 -0.19442241573E+02  0.35619482041E+02  0.43400730242E+02  0.00000000000E+00 0. -1.
         11    1    4    4    0    0 -0.13607862004E+02  0.16676013080E+02 -0.24959317871E+02  0.32958016770E+02  0.51100000000E-03 0. -1.
        -11    1    4    4    0    0 -0.14813315861E+00  0.17676437191E+01 -0.12226671542E+02  0.12354675431E+02  0.51100000000E-03 0.  1.
         12    1    4    4    0    0 -0.16347529436E+01  0.99858477412E+00  0.15665073725E+01  0.24745775570E+01  0.00000000000E+00 0. -1.
</event>
<event>
 8    1  0.2994958E-010  0.9118800E+02  0.7816164E-02  0.1184000E+00
        -11   -1    0    0    0    0  0.00000000000E+00  0.00000000000E+00  0.45593999997E+02  0.45594000000E+02  0.51100000000E-03 0. -1.
         11   -1    0    0    0    0 -0.00000000000E+00 -0.00000000000E+00 -0.45593999997E+02  0.45594000000E+02  0.51100000000E-03 0.  1.
         23    2    1    2    0    0  0.17763568394E-14 -0.17763568394E-14  0.00000000000E+00  0.91188000000E+02  0.91188000000E+02 0.  0.
    9900012    2    3    3    0    0  0.11567390406E+02 -0.11360417916E+02  0.40258657385E+02  0.47787272927E+02  0.20000008582E+02 0.  0.
        -12    1    3    3    0    0 -0.11567390406E+02  0.11360417916E+02 -0.40258657385E+02  0.43400727073E+02  0.00000000000E+00 0.  1.
         11    1    4    4    0    0  0.16414377737E+01  0.52086691063E+00  0.87900679027E+00  0.19334615336E+01  0.51100000000E-03 0. -1.
        -11    1    4    4    0    0  0.78391082377E+01  0.24616469349E+01  0.89560106718E+01  0.12154071376E+02  0.51100000000E-03 0.  1.
         12    1    4    4    0    0  0.20868443942E+01 -0.14342931762E+02  0.30423639923E+02  0.33699740017E+02  0.00000000000E+00 0. -1.
</event>
<event>
 8    1  0.2994958E-010  0.9118800E+02  0.7816164E-02  0.1184000E+00
        -11   -1    0    0    0    0  0.00000000000E+00  0.00000000000E+00  0.45593999997E+02  0.45594000000E+02  0.51100000000E-03 0. -1.
         11   -1    0    0    0    0 -0.00000000000E+00 -0.00000000000E+00 -0.45593999997E+02  0.45594000000E+02  0.51100000000E-03 0.  1.
         23    2    1    2    0    0  0.00000000000E+00  0.00000000000E+00  0.00000000000E+00  0.91188000000E+02  0.91188000000E+02 0.  0.
    9900012    2    3    3    0    0 -0.27343988287E+01  0.14291431216E+02 -0.40888886609E+02  0.47787274300E+02  0.20000014844E+02 0.  0.
         12    1    3    3    0    0  0.27343988287E+01 -0.14291431216E+02  0.40888886609E+02  0.43400725700E+02  0.00000000000E+00 0. -1.
         11    1    4    4    0    0 -0.55307684608E+01 -0.22249618974E+00 -0.10668304819E+02  0.12018803280E+02  0.51100000000E-03 0. -1.
        -11    1    4    4    0    0 -0.23218103568E+01  0.57469834970E+01 -0.33531247815E+01  0.70471319492E+01  0.51100000000E-03 0.  1.
        -12    1    4    4    0    0  0.51181799889E+01  0.87669439087E+01 -0.26867457009E+02  0.28721339071E+02  0.00000000000E+00 0.  1.
</event>
<event>
 8    1  0.2994958E-010  0.9118800E+02  0.7816164E-02  0.1184000E+00
        -11   -1    0    0    0    0  0.00000000000E+00  0.00000000000E+00  0.45593999997E+02  0.45594000000E+02  0.51100000000E-03 0. -1.
         11   -1    0    0    0    0 -0.00000000000E+00 -0.00000000000E+00 -0.45593999997E+02  0.45594000000E+02  0.51100000000E-03 0.  1.
         23    2    1    2    0    0  0.00000000000E+00  0.00000000000E+00  0.00000000000E+00  0.91188000000E+02  0.91188000000E+02 0.  0.
    9900012    2    3    3    0    0  0.27695945449E+02  0.26867458002E+02  0.19866996448E+02  0.47787271416E+02  0.20000001693E+02 0.  0.
        -12    1    3    3    0    0 -0.27695945449E+02 -0.26867458002E+02 -0.19866996448E+02  0.43400728584E+02  0.00000000000E+00 0.  1.
         11    1    4    4    0    0  0.58990809444E+01  0.10399574867E+02  0.69246254951E+01  0.13816683825E+02  0.51100000000E-03 0. -1.
        -11    1    4    4    0    0  0.11529898281E+01  0.42505114324E+01  0.85018564199E+01  0.95748522613E+01  0.51100000000E-03 0.  1.
         12    1    4    4    0    0  0.20643874676E+02  0.12217371703E+02  0.44405145325E+01  0.24395735330E+02  0.00000000000E+00 0. -1.
</event>
<event>
 8    1  0.2994958E-010  0.9118800E+02  0.7816164E-02  0.1184000E+00
        -11   -1    0    0    0    0  0.00000000000E+00  0.00000000000E+00  0.45593999997E+02  0.45594000000E+02  0.51100000000E-03 0. -1.
         11   -1    0    0    0    0 -0.00000000000E+00 -0.00000000000E+00 -0.45593999997E+02  0.45594000000E+02  0.51100000000E-03 0.  1.
         23    2    1    2    0    0  0.35527136788E-14  0.00000000000E+00  0.00000000000E+00  0.91188000000E+02  0.91188000000E+02 0.  0.
    9900012    2    3    3    0    0 -0.31369030843E+02  0.18136145887E+02 -0.23889061479E+02  0.47787272563E+02  0.20000006924E+02 0.  0.
         12    1    3    3    0    0  0.31369030843E+02 -0.18136145887E+02  0.23889061479E+02  0.43400727437E+02  0.00000000000E+00 0. -1.
         11    1    4    4    0    0  0.78974580774E+00  0.27822305895E+01 -0.27163129855E+01  0.39677275599E+01  0.51100000000E-03 0. -1.
        -11    1    4    4    0    0 -0.43733669350E+00  0.49379352468E+01 -0.32191301203E+01  0.59107754887E+01  0.51100000000E-03 0.  1.
        -12    1    4    4    0    0 -0.31721439958E+02  0.10415980051E+02 -0.17953618374E+02  0.37908769515E+02  0.00000000000E+00 0.  1.
</event>
<event>
 8    1  0.2994958E-010  0.9118800E+02  0.7816164E-02  0.1184000E+00
        -11   -1    0    0    0    0  0.00000000000E+00  0.00000000000E+00  0.45593999997E+02  0.45594000000E+02  0.51100000000E-03 0. -1.
         11   -1    0    0    0    0 -0.00000000000E+00 -0.00000000000E+00 -0.45593999997E+02  0.45594000000E+02  0.51100000000E-03 0.  1.
         23    2    1    2    0    0  0.88817841970E-15  0.00000000000E+00 -0.17763568394E-14  0.91188000000E+02  0.91188000000E+02 0.  0.
    9900012    2    3    3    0    0  0.73156326167E+01 -0.40541052475E+02 -0.13657518645E+02  0.47787271528E+02  0.20000002204E+02 0.  0.
         12    1    3    3    0    0 -0.73156326167E+01  0.40541052475E+02  0.13657518645E+02  0.43400728472E+02  0.00000000000E+00 0. -1.
         11    1    4    4    0    0  0.66958235224E+01 -0.34461018911E+02 -0.48809300442E+01  0.35443184894E+02  0.51100000000E-03 0. -1.
        -11    1    4    4    0    0  0.25836983214E+01 -0.52091255873E+01 -0.38617534743E+01  0.69802311250E+01  0.51100000000E-03 0.  1.
        -12    1    4    4    0    0 -0.19638892272E+01 -0.87090797647E+00 -0.49148351266E+01  0.53638555090E+01  0.00000000000E+00 0.  1.
</event>
<event>
 8    1  0.2994958E-010  0.9118800E+02  0.7816164E-02  0.1184000E+00
        -11   -1    0    0    0    0  0.00000000000E+00  0.00000000000E+00  0.45593999997E+02  0.45594000000E+02  0.51100000000E-03 0. -1.
         11   -1    0    0    0    0 -0.00000000000E+00 -0.00000000000E+00 -0.45593999997E+02  0.45594000000E+02  0.51100000000E-03 0.  1.
         23    2    1    2    0    0  0.88817841970E-15  0.33306690739E-15  0.00000000000E+00  0.91188000000E+02  0.91188000000E+02 0.  0.
    9900012    2    3    3    0    0 -0.65231686761E+01 -0.57428229210E+00 -0.42903867318E+02  0.47787270046E+02  0.19999995446E+02 0.  0.
         12    1    3    3    0    0  0.65231686761E+01  0.57428229210E+00  0.42903867318E+02  0.43400729954E+02  0.00000000000E+00 0. -1.
         11    1    4    4    0    0  0.34635800766E+00 -0.41757208169E+01 -0.13564559455E+02  0.14196967341E+02  0.51100000000E-03 0.  1.
        -11    1    4    4    0    0  0.22829754525E+01  0.20465997914E+01 -0.27385935359E+00  0.30782376175E+01  0.51100000000E-03 0. -1.
        -12    1    4    4    0    0 -0.91525021362E+01  0.15548387334E+01 -0.29065448510E+02  0.30512065088E+02  0.00000000000E+00 0.  1.
</event>
<event>
 8    1  0.2994958E-010  0.9118800E+02  0.7816164E-02  0.1184000E+00
        -11   -1    0    0    0    0  0.00000000000E+00  0.00000000000E+00  0.45593999997E+02  0.45594000000E+02  0.51100000000E-03 0. -1.
         11   -1    0    0    0    0 -0.00000000000E+00 -0.00000000000E+00 -0.45593999997E+02  0.45594000000E+02  0.51100000000E-03 0.  1.
         23    2    1    2    0    0  0.00000000000E+00  0.00000000000E+00  0.00000000000E+00  0.91188000000E+02  0.91188000000E+02 0.  0.
    9900012    2    3    3    0    0 -0.14719666907E+02  0.22121450465E+02  0.34316111549E+02  0.47787277928E+02  0.20000031384E+02 0.  0.
        -12    1    3    3    0    0  0.14719666907E+02 -0.22121450465E+02 -0.34316111549E+02  0.43400722072E+02  0.00000000000E+00 0.  1.
         11    1    4    4    0    0 -0.36254904147E+00  0.69052211783E+00 -0.66909195880E+00  0.10275927759E+01  0.51100000000E-03 0. -1.
        -11    1    4    4    0    0 -0.12869127802E+02  0.13698932576E+02  0.33966648297E+02  0.38820206090E+02  0.51100000000E-03 0.  1.
        -12    1    4    4    0    0 -0.14879900635E+01  0.77319957722E+01  0.10185552105E+01  0.79394790614E+01  0.00000000000E+00 0.  1.
</event>
<event>
 8    1  0.2994958E-010  0.9118800E+02  0.7816164E-02  0.1184000E+00
        -11   -1    0    0    0    0  0.00000000000E+00  0.00000000000E+00  0.45593999997E+02  0.45594000000E+02  0.51100000000E-03 0. -1.
         11   -1    0    0    0    0 -0.00000000000E+00 -0.00000000000E+00 -0.45593999997E+02  0.45594000000E+02  0.51100000000E-03 0.  1.
         23    2    1    2    0    0  0.00000000000E+00  0.17763568394E-14  0.00000000000E+00  0.91188000000E+02  0.91188000000E+02 0.  0.
    9900012    2    3    3    0    0 -0.93292001039E+01  0.51536924202E+01  0.42071700294E+02  0.47787280124E+02  0.20000041396E+02 0.  0.
        -12    1    3    3    0    0  0.93292001039E+01 -0.51536924202E+01 -0.42071700294E+02  0.43400719876E+02  0.00000000000E+00 0.  1.
         11    1    4    4    0    0 -0.34212938005E+01  0.28957696798E+01  0.98022740748E+01  0.10778465132E+02  0.51100000000E-03 0. -1.
        -11    1    4    4    0    0  0.21255324841E+01  0.79546357674E+01  0.15893972215E+02  0.17900069038E+02  0.51100000000E-03 0.  1.
         12    1    4    4    0    0 -0.80334387875E+01 -0.56967130270E+01  0.16375454004E+02  0.19108745953E+02  0.00000000000E+00 0. -1.
</event>
<event>
 8    1  0.2994958E-010  0.9118800E+02  0.7816164E-02  0.1184000E+00
        -11   -1    0    0    0    0  0.00000000000E+00  0.00000000000E+00  0.45593999997E+02  0.45594000000E+02  0.51100000000E-03 0. -1.
         11   -1    0    0    0    0 -0.00000000000E+00 -0.00000000000E+00 -0.45593999997E+02  0.45594000000E+02  0.51100000000E-03 0.  1.
         23    2    1    2    0    0 -0.17763568394E-14  0.00000000000E+00  0.00000000000E+00  0.91188000000E+02  0.91188000000E+02 0.  0.
    9900012    2    3    3    0    0  0.10803364916E+02  0.10594533343E+02 -0.40677591939E+02  0.47787270556E+02  0.19999997774E+02 0.  0.
         12    1    3    3    0    0 -0.10803364916E+02 -0.10594533343E+02  0.40677591939E+02  0.43400729444E+02  0.00000000000E+00 0. -1.
         11    1    4    4    0    0  0.93185407016E+01  0.12893845447E+01 -0.21748513168E+02  0.23695897084E+02  0.51100000000E-03 0. -1.
        -11    1    4    4    0    0  0.60805699134E+00  0.25271381040E+01 -0.16702207358E+02  0.16903250906E+02  0.51100000000E-03 0.  1.
         12    1    4    4    0    0  0.87676722328E+00  0.67780106947E+01 -0.22268714134E+01  0.71881225667E+01  0.00000000000E+00 0. -1.
</event>
<event>
 8    1  0.2994958E-010  0.9118800E+02  0.7816164E-02  0.1184000E+00
        -11   -1    0    0    0    0  0.00000000000E+00  0.00000000000E+00  0.45593999997E+02  0.45594000000E+02  0.51100000000E-03 0. -1.
         11   -1    0    0    0    0 -0.00000000000E+00 -0.00000000000E+00 -0.45593999997E+02  0.45594000000E+02  0.51100000000E-03 0.  1.
         23    2    1    2    0    0  0.71054273576E-14  0.00000000000E+00  0.00000000000E+00  0.91188000000E+02  0.91188000000E+02 0.  0.
    9900012    2    3    3    0    0 -0.37145864258E+02 -0.41892228013E+01  0.22051309181E+02  0.47787250516E+02  0.19999906404E+02 0.  0.
        -12    1    3    3    0    0  0.37145864258E+02  0.41892228013E+01 -0.22051309181E+02  0.43400749484E+02  0.00000000000E+00 0.  1.
         11    1    4    4    0    0  0.29361580495E+00 -0.21876769106E+00 -0.78602841842E-01  0.37449727828E+00  0.51100000000E-03 0. -1.
        -11    1    4    4    0    0 -0.46508543514E+01 -0.76287810020E+01  0.44311707912E+01  0.99731650250E+01  0.51100000000E-03 0.  1.
         12    1    4    4    0    0 -0.32788625712E+02  0.36583258917E+01  0.17698741231E+02  0.37439588213E+02  0.00000000000E+00 0. -1.
</event>
<event>
 8    1  0.2994958E-010  0.9118800E+02  0.7816164E-02  0.1184000E+00
        -11   -1    0    0    0    0  0.00000000000E+00  0.00000000000E+00  0.45593999997E+02  0.45594000000E+02  0.51100000000E-03 0. -1.
         11   -1    0    0    0    0 -0.00000000000E+00 -0.00000000000E+00 -0.45593999997E+02  0.45594000000E+02  0.51100000000E-03 0.  1.
         23    2    1    2    0    0 -0.71054273576E-14 -0.11102230246E-14  0.44408920985E-15  0.91188000000E+02  0.91188000000E+02 0.  0.
    9900012    2    3    3    0    0 -0.43279959281E+02 -0.72803531348E+00  0.31522663477E+01  0.47787289246E+02  0.20000082989E+02 0.  0.
        -12    1    3    3    0    0  0.43279959281E+02  0.72803531348E+00 -0.31522663477E+01  0.43400710754E+02  0.00000000000E+00 0.  1.
         11    1    4    4    0    0 -0.23672039088E+02  0.83370553900E+01  0.33267052523E+01  0.25316771028E+02  0.51100000000E-03 0. -1.
        -11    1    4    4    0    0 -0.31832569753E+01 -0.15165211804E+01  0.23231370191E+01  0.42225498614E+01  0.51100000000E-03 0.  1.
        -12    1    4    4    0    0 -0.16424663218E+02 -0.75485695231E+01 -0.24975759237E+01  0.18247968357E+02  0.00000000000E+00 0.  1.
</event>
<event>
 8    1  0.2994958E-010  0.9118800E+02  0.7816164E-02  0.1184000E+00
        -11   -1    0    0    0    0  0.00000000000E+00  0.00000000000E+00  0.45593999997E+02  0.45594000000E+02  0.51100000000E-03 0. -1.
         11   -1    0    0    0    0 -0.00000000000E+00 -0.00000000000E+00 -0.45593999997E+02  0.45594000000E+02  0.51100000000E-03 0.  1.
         23    2    1    2    0    0  0.00000000000E+00  0.00000000000E+00  0.35527136788E-14  0.91188000000E+02  0.91188000000E+02 0.  0.
    9900012    2    3    3    0    0 -0.28062678872E+02 -0.22236674473E+02 -0.24528348729E+02  0.47787268112E+02  0.19999986629E+02 0.  0.
         12    1    3    3    0    0  0.28062678872E+02  0.22236674473E+02  0.24528348729E+02  0.43400731888E+02  0.00000000000E+00 0. -1.
         11    1    4    4    0    0 -0.26098400240E+01  0.22425939974E+01 -0.21634389383E+01  0.40645985151E+01  0.51100000000E-03 0. -1.
        -11    1    4    4    0    0 -0.64595849921E+01 -0.16175049718E+01 -0.88414774626E+01  0.11068617104E+02  0.51100000000E-03 0.  1.
        -12    1    4    4    0    0 -0.18993253856E+02 -0.22861763498E+02 -0.13523432328E+02  0.32654052493E+02  0.00000000000E+00 0.  1.
</event>
<event>
 8    1  0.2994958E-010  0.9118800E+02  0.7816164E-02  0.1184000E+00
        -11   -1    0    0    0    0  0.00000000000E+00  0.00000000000E+00  0.45593999997E+02  0.45594000000E+02  0.51100000000E-03 0. -1.
         11   -1    0    0    0    0 -0.00000000000E+00 -0.00000000000E+00 -0.45593999997E+02  0.45594000000E+02  0.51100000000E-03 0.  1.
         23    2    1    2    0    0 -0.71054273576E-14  0.44408920985E-15  0.00000000000E+00  0.91188000000E+02  0.91188000000E+02 0.  0.
    9900012    2    3    3    0    0 -0.38520944971E+02  0.34322227138E+01 -0.19697202280E+02  0.47787272680E+02  0.20000007458E+02 0.  0.
         12    1    3    3    0    0  0.38520944971E+02 -0.34322227138E+01  0.19697202280E+02  0.43400727320E+02  0.00000000000E+00 0. -1.
         11    1    4    4    0    0 -0.19480079498E+01  0.21164686722E+00  0.16431486194E+01  0.25572381616E+01  0.51100000000E-03 0. -1.
        -11    1    4    4    0    0 -0.21482053062E+02  0.70620532338E+01 -0.60553547309E+01  0.23409795403E+02  0.51100000000E-03 0.  1.
         12    1    4    4    0    0 -0.15090883959E+02 -0.38414773871E+01 -0.15284996168E+02  0.21820239116E+02  0.00000000000E+00 0. -1.
</event>
<event>
 8    1  0.2994958E-010  0.9118800E+02  0.7816164E-02  0.1184000E+00
        -11   -1    0    0    0    0  0.00000000000E+00  0.00000000000E+00  0.45593999997E+02  0.45594000000E+02  0.51100000000E-03 0.  1.
         11   -1    0    0    0    0 -0.00000000000E+00 -0.00000000000E+00 -0.45593999997E+02  0.45594000000E+02  0.51100000000E-03 0. -1.
         23    2    1    2    0    0  0.00000000000E+00  0.35527136788E-14  0.88817841970E-15  0.91188000000E+02  0.91188000000E+02 0.  0.
    9900012    2    3    3    0    0 -0.30053022689E+02  0.31241063346E+02  0.21060145068E+01  0.47787268337E+02  0.19999987657E+02 0.  0.
         12    1    3    3    0    0  0.30053022689E+02 -0.31241063346E+02 -0.21060145068E+01  0.43400731663E+02  0.00000000000E+00 0. -1.
         11    1    4    4    0    0  0.15914659457E+01  0.33444160022E+01  0.11772307936E+01  0.38863549574E+01  0.51100000000E-03 0. -1.
        -11    1    4    4    0    0 -0.16000978079E+02  0.19967337344E+02  0.45596000930E+01  0.25990687051E+02  0.51100000000E-03 0.  1.
        -12    1    4    4    0    0 -0.15643510556E+02  0.79293099999E+01 -0.36308163798E+01  0.17910226329E+02  0.00000000000E+00 0.  1.
</event>
<event>
 8    1  0.2994958E-010  0.9118800E+02  0.7816164E-02  0.1184000E+00
        -11   -1    0    0    0    0  0.00000000000E+00  0.00000000000E+00  0.45593999997E+02  0.45594000000E+02  0.51100000000E-03 0. -1.
         11   -1    0    0    0    0 -0.00000000000E+00 -0.00000000000E+00 -0.45593999997E+02  0.45594000000E+02  0.51100000000E-03 0.  1.
         23    2    1    2    0    0 -0.17763568394E-14  0.00000000000E+00  0.00000000000E+00  0.91188000000E+02  0.91188000000E+02 0.  0.
    9900012    2    3    3    0    0  0.14369520153E+02 -0.16222491277E+02 -0.37602801460E+02  0.47787274081E+02  0.20000013843E+02 0.  0.
         12    1    3    3    0    0 -0.14369520153E+02  0.16222491277E+02  0.37602801460E+02  0.43400725919E+02  0.00000000000E+00 0. -1.
         11    1    4    4    0    0 -0.54053510906E+00  0.19460424776E+01 -0.41080535556E+00  0.20610727377E+01  0.51100000000E-03 0. -1.
        -11    1    4    4    0    0  0.92799832459E+01 -0.93831137192E+01 -0.98705178545E+01  0.16479928249E+02  0.51100000000E-03 0.  1.
        -12    1    4    4    0    0  0.56300720164E+01 -0.87854200353E+01 -0.27321478250E+02  0.29246273094E+02  0.00000000000E+00 0.  1.
</event>
<event>
 8    1  0.2994958E-010  0.9118800E+02  0.7816164E-02  0.1184000E+00
        -11   -1    0    0    0    0  0.00000000000E+00  0.00000000000E+00  0.45593999997E+02  0.45594000000E+02  0.51100000000E-03 0. -1.
         11   -1    0    0    0    0 -0.00000000000E+00 -0.00000000000E+00 -0.45593999997E+02  0.45594000000E+02  0.51100000000E-03 0.  1.
         23    2    1    2    0    0 -0.17763568394E-14  0.00000000000E+00  0.00000000000E+00  0.91188000000E+02  0.91188000000E+02 0.  0.
    9900012    2    3    3    0    0 -0.94102399424E+01 -0.21193212877E+01 -0.42315239946E+02  0.47787266479E+02  0.19999979184E+02 0.  0.
         12    1    3    3    0    0  0.94102399424E+01  0.21193212877E+01  0.42315239946E+02  0.43400733521E+02  0.00000000000E+00 0. -1.
         11    1    4    4    0    0  0.16037041945E+01  0.45865600923E+01 -0.51360332894E+01  0.70701654037E+01  0.51100000000E-03 0. -1.
        -11    1    4    4    0    0 -0.58235311190E+01  0.21969607948E+01 -0.15866416148E+02  0.17043571019E+02  0.51100000000E-03 0.  1.
         12    1    4    4    0    0 -0.51904130179E+01 -0.89028421749E+01 -0.21312790508E+02  0.23673530057E+02  0.00000000000E+00 0. -1.
</event>
<event>
 8    1  0.2994958E-010  0.9118800E+02  0.7816164E-02  0.1184000E+00
        -11   -1    0    0    0    0  0.00000000000E+00  0.00000000000E+00  0.45593999997E+02  0.45594000000E+02  0.51100000000E-03 0. -1.
         11   -1    0    0    0    0 -0.00000000000E+00 -0.00000000000E+00 -0.45593999997E+02  0.45594000000E+02  0.51100000000E-03 0.  1.
         23    2    1    2    0    0  0.00000000000E+00  0.00000000000E+00  0.71054273576E-14  0.91188000000E+02  0.91188000000E+02 0.  0.
    9900012    2    3    3    0    0  0.83597356961E+01  0.25933833665E+02  0.33781271504E+02  0.47787271735E+02  0.20000003150E+02 0.  0.
        -12    1    3    3    0    0 -0.83597356961E+01 -0.25933833665E+02 -0.33781271504E+02  0.43400728265E+02  0.00000000000E+00 0.  1.
         11    1    4    4    0    0 -0.37913425853E+01  0.45667544448E+01  0.31222211246E+01  0.67065482754E+01  0.51100000000E-03 0. -1.
        -11    1    4    4    0    0 -0.12341877461E+01 -0.18616926502E+00  0.43731159939E+01  0.45477491295E+01  0.51100000000E-03 0.  1.
         12    1    4    4    0    0  0.13385266028E+02  0.21553248486E+02  0.26285934385E+02  0.36532974330E+02  0.00000000000E+00 0. -1.
</event>
<event>
 8    1  0.2994958E-010  0.9118800E+02  0.7816164E-02  0.1184000E+00
        -11   -1    0    0    0    0  0.00000000000E+00  0.00000000000E+00  0.45593999997E+02  0.45594000000E+02  0.51100000000E-03 0. -1.
         11   -1    0    0    0    0 -0.00000000000E+00 -0.00000000000E+00 -0.45593999997E+02  0.45594000000E+02  0.51100000000E-03 0.  1.
         23    2    1    2    0    0  0.00000000000E+00  0.00000000000E+00 -0.71054273576E-14  0.91188000000E+02  0.91188000000E+02 0.  0.
    9900012    2    3    3    0    0 -0.15437314253E+02  0.19966635812E+02  0.35307873457E+02  0.47787272529E+02  0.20000006767E+02 0.  0.
        -12    1    3    3    0    0  0.15437314253E+02 -0.19966635812E+02 -0.35307873457E+02  0.43400727471E+02  0.00000000000E+00 0.  1.
         11    1    4    4    0    0 -0.25354995082E+01  0.12459473405E+00  0.10855426865E+02  0.11148299166E+02  0.51100000000E-03 0. -1.
        -11    1    4    4    0    0 -0.79028147681E+01  0.44961393570E+01  0.25702679027E+01  0.94485992469E+01  0.51100000000E-03 0.  1.
         12    1    4    4    0    0 -0.49989999769E+01  0.15345901721E+02  0.21882178689E+02  0.27190374116E+02  0.00000000000E+00 0. -1.
</event>
<event>
 8    1  0.2994958E-010  0.9118800E+02  0.7816164E-02  0.1184000E+00
        -11   -1    0    0    0    0  0.00000000000E+00  0.00000000000E+00  0.45593999997E+02  0.45594000000E+02  0.51100000000E-03 0. -1.
         11   -1    0    0    0    0 -0.00000000000E+00 -0.00000000000E+00 -0.45593999997E+02  0.45594000000E+02  0.51100000000E-03 0.  1.
         23    2    1    2    0    0  0.00000000000E+00  0.00000000000E+00  0.71054273576E-14  0.91188000000E+02  0.91188000000E+02 0.  0.
    9900012    2    3    3    0    0  0.62191826105E+01  0.86551289445E+01  0.42071770040E+02  0.47787270470E+02  0.19999997382E+02 0.  0.
        -12    1    3    3    0    0 -0.62191826105E+01 -0.86551289445E+01 -0.42071770040E+02  0.43400729530E+02  0.00000000000E+00 0.  1.
         11    1    4    4    0    0  0.82909335513E+01  0.54024902646E+01  0.19436122629E+02  0.21810303604E+02  0.51100000000E-03 0. -1.
        -11    1    4    4    0    0  0.24567565367E+01  0.44631181299E+01  0.19916747789E+02  0.20558013496E+02  0.51100000000E-03 0.  1.
        -12    1    4    4    0    0 -0.45285074776E+01 -0.12104794500E+01  0.27188996222E+01  0.54189533703E+01  0.00000000000E+00 0.  1.
</event>
<event>
 8    1  0.2994958E-010  0.9118800E+02  0.7816164E-02  0.1184000E+00
        -11   -1    0    0    0    0  0.00000000000E+00  0.00000000000E+00  0.45593999997E+02  0.45594000000E+02  0.51100000000E-03 0. -1.
         11   -1    0    0    0    0 -0.00000000000E+00 -0.00000000000E+00 -0.45593999997E+02  0.45594000000E+02  0.51100000000E-03 0.  1.
         23    2    1    2    0    0  0.00000000000E+00  0.00000000000E+00  0.00000000000E+00  0.91188000000E+02  0.91188000000E+02 0.  0.
    9900012    2    3    3    0    0  0.95921960766E+01  0.38925239479E+02  0.16626445001E+02  0.47787272270E+02  0.20000005589E+02 0.  0.
        -12    1    3    3    0    0 -0.95921960766E+01 -0.38925239479E+02 -0.16626445001E+02  0.43400727730E+02  0.00000000000E+00 0.  1.
         11    1    4    4    0    0  0.21958337161E+01  0.20520433841E+02  0.78019991696E+01  0.22063115873E+02  0.51100000000E-03 0. -1.
        -11    1    4    4    0    0  0.37925440422E+01  0.12155983335E+02  0.12311254871E+02  0.17712095244E+02  0.51100000000E-03 0.  1.
         12    1    4    4    0    0  0.36038183182E+01  0.62488223028E+01 -0.34868090396E+01  0.80120611531E+01  0.00000000000E+00 0. -1.
</event>
<event>
 8    1  0.2994958E-010  0.9118800E+02  0.7816164E-02  0.1184000E+00
        -11   -1    0    0    0    0  0.00000000000E+00  0.00000000000E+00  0.45593999997E+02  0.45594000000E+02  0.51100000000E-03 0. -1.
         11   -1    0    0    0    0 -0.00000000000E+00 -0.00000000000E+00 -0.45593999997E+02  0.45594000000E+02  0.51100000000E-03 0.  1.
         23    2    1    2    0    0  0.00000000000E+00  0.00000000000E+00  0.71054273576E-14  0.91188000000E+02  0.91188000000E+02 0.  0.
    9900012    2    3    3    0    0 -0.13579454969E+02  0.11819047451E+02  0.39490910767E+02  0.47787268288E+02  0.19999987432E+02 0.  0.
        -12    1    3    3    0    0  0.13579454969E+02 -0.11819047451E+02 -0.39490910767E+02  0.43400731712E+02  0.00000000000E+00 0.  1.
         11    1    4    4    0    0 -0.49546527059E+01  0.84476086890E+01  0.26256888707E+02  0.28023827019E+02  0.51100000000E-03 0. -1.
        -11    1    4    4    0    0 -0.23490984771E+01  0.68095698918E+01  0.86876096698E+01  0.11285524702E+02  0.51100000000E-03 0.  1.
        -12    1    4    4    0    0 -0.62757037864E+01 -0.34381311300E+01  0.45464123909E+01  0.84779165666E+01  0.00000000000E+00 0.  1.
</event>
<event>
 8    1  0.2994958E-010  0.9118800E+02  0.7816164E-02  0.1184000E+00
        -11   -1    0    0    0    0  0.00000000000E+00  0.00000000000E+00  0.45593999997E+02  0.45594000000E+02  0.51100000000E-03 0. -1.
         11   -1    0    0    0    0 -0.00000000000E+00 -0.00000000000E+00 -0.45593999997E+02  0.45594000000E+02  0.51100000000E-03 0.  1.
         23    2    1    2    0    0  0.00000000000E+00  0.71054273576E-14  0.35527136788E-14  0.91188000000E+02  0.91188000000E+02 0.  0.
    9900012    2    3    3    0    0 -0.29310752390E+01  0.34569967820E+02 -0.26075846561E+02  0.47787266700E+02  0.19999980190E+02 0.  0.
         12    1    3    3    0    0  0.29310752390E+01 -0.34569967820E+02  0.26075846561E+02  0.43400733300E+02  0.00000000000E+00 0. -1.
         11    1    4    4    0    0 -0.49993986599E+00  0.14702974056E+02 -0.98638791906E+01  0.17712241498E+02  0.51100000000E-03 0. -1.
        -11    1    4    4    0    0 -0.66588404912E+01  0.18689612468E+02 -0.16312334574E+02  0.25685288209E+02  0.51100000000E-03 0.  1.
         12    1    4    4    0    0  0.42277051182E+01  0.11773812962E+01  0.10036720283E+00  0.43897369920E+01  0.00000000000E+00 0. -1.
</event>
<event>
 8    1  0.2994958E-010  0.9118800E+02  0.7816164E-02  0.1184000E+00
        -11   -1    0    0    0    0  0.00000000000E+00  0.00000000000E+00  0.45593999997E+02  0.45594000000E+02  0.51100000000E-03 0. -1.
         11   -1    0    0    0    0 -0.00000000000E+00 -0.00000000000E+00 -0.45593999997E+02  0.45594000000E+02  0.51100000000E-03 0.  1.
         23    2    1    2    0    0 -0.44408920985E-15 -0.17763568394E-14  0.00000000000E+00  0.91188000000E+02  0.91188000000E+02 0.  0.
    9900012    2    3    3    0    0 -0.33846459311E+01  0.13047834233E+02  0.41254350984E+02  0.47787270958E+02  0.19999999607E+02 0.  0.
        -12    1    3    3    0    0  0.33846459311E+01 -0.13047834233E+02 -0.41254350984E+02  0.43400729042E+02  0.00000000000E+00 0.  1.
         11    1    4    4    0    0 -0.12273632278E+01  0.87655004314E+01  0.18998893816E+02  0.20959446195E+02  0.51100000000E-03 0. -1.
        -11    1    4    4    0    0  0.39557544093E+01  0.64678386310E+01  0.16473176335E+02  0.18134124416E+02  0.51100000000E-03 0.  1.
        -12    1    4    4    0    0 -0.61130371125E+01 -0.21855048294E+01  0.57822808331E+01  0.86937003474E+01  0.00000000000E+00 0.  1.
</event>
<event>
 8    1  0.2994958E-010  0.9118800E+02  0.7816164E-02  0.1184000E+00
        -11   -1    0    0    0    0  0.00000000000E+00  0.00000000000E+00  0.45593999997E+02  0.45594000000E+02  0.51100000000E-03 0. -1.
         11   -1    0    0    0    0 -0.00000000000E+00 -0.00000000000E+00 -0.45593999997E+02  0.45594000000E+02  0.51100000000E-03 0.  1.
         23    2    1    2    0    0 -0.35527136788E-14 -0.88817841970E-15  0.71054273576E-14  0.91188000000E+02  0.91188000000E+02 0.  0.
    9900012    2    3    3    0    0  0.23904816098E+02  0.77820489683E+01 -0.35378283854E+02  0.47787268585E+02  0.19999988788E+02 0.  0.
         12    1    3    3    0    0 -0.23904816098E+02 -0.77820489683E+01  0.35378283854E+02  0.43400731415E+02  0.00000000000E+00 0. -1.
         11    1    4    4    0    0  0.19241066977E+02  0.40495574537E+01 -0.12422643292E+02  0.23258109136E+02  0.51100000000E-03 0. -1.
        -11    1    4    4    0    0  0.73046580876E+00 -0.16217853741E+01 -0.29029049359E+01  0.34045007601E+01  0.51100000000E-03 0.  1.
        -12    1    4    4    0    0  0.39332833130E+01  0.53542768887E+01 -0.20052735627E+02  0.21124658689E+02  0.00000000000E+00 0.  1.
</event>
<event>
 8    1  0.2994958E-010  0.9118800E+02  0.7816164E-02  0.1184000E+00
        -11   -1    0    0    0    0  0.00000000000E+00  0.00000000000E+00  0.45593999997E+02  0.45594000000E+02  0.51100000000E-03 0. -1.
         11   -1    0    0    0    0 -0.00000000000E+00 -0.00000000000E+00 -0.45593999997E+02  0.45594000000E+02  0.51100000000E-03 0.  1.
         23    2    1    2    0    0  0.17763568394E-14  0.71054273576E-14  0.00000000000E+00  0.91188000000E+02  0.91188000000E+02 0.  0.
    9900012    2    3    3    0    0  0.11045278279E+02  0.33426530594E+02  0.25382912237E+02  0.47787270128E+02  0.19999995821E+02 0.  0.
        -12    1    3    3    0    0 -0.11045278279E+02 -0.33426530594E+02 -0.25382912237E+02  0.43400729872E+02  0.00000000000E+00 0.  1.
         11    1    4    4    0    0  0.84357752033E+01  0.22037610275E+02  0.11453022127E+02  0.26229568926E+02  0.51100000000E-03 0. -1.
        -11    1    4    4    0    0  0.70003063543E+01  0.53704956217E+01  0.59562676187E+01  0.10645357508E+02  0.51100000000E-03 0.  1.
        -12    1    4    4    0    0 -0.43908032785E+01  0.60184246972E+01  0.79736224905E+01  0.10912343694E+02  0.00000000000E+00 0.  1.
</event>
<event>
 8    1  0.2994958E-010  0.9118800E+02  0.7816164E-02  0.1184000E+00
        -11   -1    0    0    0    0  0.00000000000E+00  0.00000000000E+00  0.45593999997E+02  0.45594000000E+02  0.51100000000E-03 0. -1.
         11   -1    0    0    0    0 -0.00000000000E+00 -0.00000000000E+00 -0.45593999997E+02  0.45594000000E+02  0.51100000000E-03 0.  1.
         23    2    1    2    0    0  0.35527136788E-14  0.00000000000E+00  0.00000000000E+00  0.91188000000E+02  0.91188000000E+02 0.  0.
    9900012    2    3    3    0    0 -0.24760953094E+02  0.23470432408E+02  0.26826403103E+02  0.47787286884E+02  0.20000072219E+02 0.  0.
        -12    1    3    3    0    0  0.24760953094E+02 -0.23470432408E+02 -0.26826403103E+02  0.43400713116E+02  0.00000000000E+00 0.  1.
         11    1    4    4    0    0 -0.34818321071E+01  0.12592463462E+01  0.14542902302E+01  0.39779161023E+01  0.51100000000E-03 0. -1.
        -11    1    4    4    0    0 -0.15337184292E+02  0.46229831708E+01  0.63558381688E+01  0.17233626272E+02  0.51100000000E-03 0.  1.
         12    1    4    4    0    0 -0.59419366950E+01  0.17588202891E+02  0.19016274704E+02  0.26575744509E+02  0.00000000000E+00 0. -1.
</event>
<event>
 8    1  0.2994958E-010  0.9118800E+02  0.7816164E-02  0.1184000E+00
        -11   -1    0    0    0    0  0.00000000000E+00  0.00000000000E+00  0.45593999997E+02  0.45594000000E+02  0.51100000000E-03 0. -1.
         11   -1    0    0    0    0 -0.00000000000E+00 -0.00000000000E+00 -0.45593999997E+02  0.45594000000E+02  0.51100000000E-03 0.  1.
         23    2    1    2    0    0  0.00000000000E+00  0.00000000000E+00 -0.22204460493E-14  0.91188000000E+02  0.91188000000E+02 0.  0.
    9900012    2    3    3    0    0  0.34541711297E+02 -0.26188025620E+02  0.21636057717E+01  0.47787266191E+02  0.19999977872E+02 0.  0.
         12    1    3    3    0    0 -0.34541711297E+02  0.26188025620E+02 -0.21636057717E+01  0.43400733809E+02  0.00000000000E+00 0. -1.
         11    1    4    4    0    0  0.27624386262E+02 -0.15444147311E+02  0.79041747221E+01  0.32620612821E+02  0.51100000000E-03 0.  1.
        -11    1    4    4    0    0 -0.73944053947E+00 -0.14790625883E+01  0.35314334081E+00  0.16908899821E+01  0.51100000000E-03 0. -1.
         12    1    4    4    0    0  0.76567655748E+01 -0.92648157200E+01 -0.60937122913E+01  0.13475763388E+02  0.00000000000E+00 0. -1.
</event>
<event>
 8    1  0.2994958E-010  0.9118800E+02  0.7816164E-02  0.1184000E+00
        -11   -1    0    0    0    0  0.00000000000E+00  0.00000000000E+00  0.45593999997E+02  0.45594000000E+02  0.51100000000E-03 0. -1.
         11   -1    0    0    0    0 -0.00000000000E+00 -0.00000000000E+00 -0.45593999997E+02  0.45594000000E+02  0.51100000000E-03 0.  1.
         23    2    1    2    0    0  0.00000000000E+00 -0.17763568394E-14 -0.17763568394E-14  0.91188000000E+02  0.91188000000E+02 0.  0.
    9900012    2    3    3    0    0 -0.39016563428E+02  0.10603255339E+02  0.15776632703E+02  0.47787269765E+02  0.19999994165E+02 0.  0.
        -12    1    3    3    0    0  0.39016563428E+02 -0.10603255339E+02 -0.15776632703E+02  0.43400730235E+02  0.00000000000E+00 0.  1.
         11    1    4    4    0    0 -0.31867828935E+02  0.13094539949E+02  0.14342268215E+02  0.37319246447E+02  0.51100000000E-03 0. -1.
        -11    1    4    4    0    0 -0.14852609110E+01  0.23840114307E+01  0.10037196073E+01  0.29827778641E+01  0.51100000000E-03 0.  1.
        -12    1    4    4    0    0 -0.56634735815E+01 -0.48752960406E+01  0.43064488056E+00  0.74852454539E+01  0.00000000000E+00 0.  1.
</event>
<event>
 8    1  0.2994958E-010  0.9118800E+02  0.7816164E-02  0.1184000E+00
        -11   -1    0    0    0    0  0.00000000000E+00  0.00000000000E+00  0.45593999997E+02  0.45594000000E+02  0.51100000000E-03 0. -1.
         11   -1    0    0    0    0 -0.00000000000E+00 -0.00000000000E+00 -0.45593999997E+02  0.45594000000E+02  0.51100000000E-03 0.  1.
         23    2    1    2    0    0  0.00000000000E+00  0.00000000000E+00 -0.35527136788E-14  0.91188000000E+02  0.91188000000E+02 0.  0.
    9900012    2    3    3    0    0  0.25346589192E+01 -0.40269905614E+02 -0.15985419358E+02  0.47787269292E+02  0.19999992008E+02 0.  0.
         12    1    3    3    0    0 -0.25346589192E+01  0.40269905614E+02  0.15985419358E+02  0.43400730708E+02  0.00000000000E+00 0. -1.
         11    1    4    4    0    0 -0.96618273307E+00 -0.66867110403E+01  0.16033821052E+01  0.69438064523E+01  0.51100000000E-03 0.  1.
        -11    1    4    4    0    0  0.80876512468E+01 -0.23044512283E+02 -0.16104775683E+02  0.29254460328E+02  0.51100000000E-03 0. -1.
         12    1    4    4    0    0 -0.45868095946E+01 -0.10538682291E+02 -0.14840257804E+01  0.11589002511E+02  0.00000000000E+00 0. -1.
</event>
<event>
 8    1  0.2994958E-010  0.9118800E+02  0.7816164E-02  0.1184000E+00
        -11   -1    0    0    0    0  0.00000000000E+00  0.00000000000E+00  0.45593999997E+02  0.45594000000E+02  0.51100000000E-03 0. -1.
         11   -1    0    0    0    0 -0.00000000000E+00 -0.00000000000E+00 -0.45593999997E+02  0.45594000000E+02  0.51100000000E-03 0.  1.
         23    2    1    2    0    0  0.00000000000E+00  0.00000000000E+00 -0.35527136788E-14  0.91188000000E+02  0.91188000000E+02 0.  0.
    9900012    2    3    3    0    0  0.33980551104E+02  0.40592281332E+01 -0.26692091853E+02  0.47787274731E+02  0.20000016810E+02 0.  0.
         12    1    3    3    0    0 -0.33980551104E+02 -0.40592281332E+01  0.26692091853E+02  0.43400725269E+02  0.00000000000E+00 0. -1.
         11    1    4    4    0    0  0.17637439508E+01 -0.37358181601E+00  0.15899665566E+01  0.24038198787E+01  0.51100000000E-03 0. -1.
        -11    1    4    4    0    0  0.12900390458E+01  0.28313913657E+01  0.44464224035E+00  0.31430375098E+01  0.51100000000E-03 0.  1.
        -12    1    4    4    0    0  0.30926768107E+02  0.16014185836E+01 -0.28726700650E+02  0.42240417343E+02  0.00000000000E+00 0.  1.
</event>
<event>
 8    1  0.2994958E-010  0.9118800E+02  0.7816164E-02  0.1184000E+00
        -11   -1    0    0    0    0  0.00000000000E+00  0.00000000000E+00  0.45593999997E+02  0.45594000000E+02  0.51100000000E-03 0. -1.
         11   -1    0    0    0    0 -0.00000000000E+00 -0.00000000000E+00 -0.45593999997E+02  0.45594000000E+02  0.51100000000E-03 0.  1.
         23    2    1    2    0    0  0.88817841970E-15  0.00000000000E+00 -0.97144514655E-16  0.91188000000E+02  0.91188000000E+02 0.  0.
    9900012    2    3    3    0    0  0.78513398121E+01  0.42684646875E+02 -0.27077633837E-01  0.47787270180E+02  0.19999996059E+02 0.  0.
         12    1    3    3    0    0 -0.78513398121E+01 -0.42684646875E+02  0.27077633837E-01  0.43400729820E+02  0.00000000000E+00 0. -1.
         11    1    4    4    0    0  0.80527644676E+00  0.54929677498E+01  0.12910962506E+01  0.56998328612E+01  0.51100000000E-03 0. -1.
        -11    1    4    4    0    0  0.11084401967E+02  0.15358667013E+02  0.37609748298E+01  0.19310555438E+02  0.51100000000E-03 0.  1.
         12    1    4    4    0    0 -0.40383386020E+01  0.21833012112E+02 -0.50791487143E+01  0.22776881881E+02  0.00000000000E+00 0. -1.
</event>
<event>
 8    1  0.2994958E-010  0.9118800E+02  0.7816164E-02  0.1184000E+00
        -11   -1    0    0    0    0  0.00000000000E+00  0.00000000000E+00  0.45593999997E+02  0.45594000000E+02  0.51100000000E-03 0. -1.
         11   -1    0    0    0    0 -0.00000000000E+00 -0.00000000000E+00 -0.45593999997E+02  0.45594000000E+02  0.51100000000E-03 0.  1.
         23    2    1    2    0    0  0.00000000000E+00  0.17763568394E-14  0.00000000000E+00  0.91188000000E+02  0.91188000000E+02 0.  0.
    9900012    2    3    3    0    0 -0.35480479331E+02  0.15001866671E+02  0.19992587443E+02  0.47787263026E+02  0.19999963442E+02 0.  0.
        -12    1    3    3    0    0  0.35480479331E+02 -0.15001866671E+02 -0.19992587443E+02  0.43400736974E+02  0.00000000000E+00 0.  1.
         11    1    4    4    0    0 -0.23606563157E+01  0.25615056886E+01  0.86212946809E+01  0.92984263115E+01  0.51100000000E-03 0. -1.
        -11    1    4    4    0    0 -0.34285337366E+01 -0.35811858850E+00  0.40861663683E+01  0.53460123790E+01  0.51100000000E-03 0.  1.
         12    1    4    4    0    0 -0.29691289279E+02  0.12798479571E+02  0.72851263941E+01  0.33142824336E+02  0.00000000000E+00 0. -1.
</event>
<event>
 8    1  0.2994958E-010  0.9118800E+02  0.7816164E-02  0.1184000E+00
        -11   -1    0    0    0    0  0.00000000000E+00  0.00000000000E+00  0.45593999997E+02  0.45594000000E+02  0.51100000000E-03 0. -1.
         11   -1    0    0    0    0 -0.00000000000E+00 -0.00000000000E+00 -0.45593999997E+02  0.45594000000E+02  0.51100000000E-03 0.  1.
         23    2    1    2    0    0  0.35527136788E-14  0.00000000000E+00  0.00000000000E+00  0.91188000000E+02  0.91188000000E+02 0.  0.
    9900012    2    3    3    0    0 -0.20160099931E+02 -0.43459291807E+01  0.38187774202E+02  0.47787276179E+02  0.20000023412E+02 0.  0.
        -12    1    3    3    0    0  0.20160099931E+02  0.43459291807E+01 -0.38187774202E+02  0.43400723821E+02  0.00000000000E+00 0.  1.
         11    1    4    4    0    0 -0.41852925192E+01 -0.20509300074E+01  0.13017592452E+01  0.48391698421E+01  0.51100000000E-03 0. -1.
        -11    1    4    4    0    0 -0.11911537195E+02  0.16163878162E+01  0.10483613404E+02  0.15950033799E+02  0.51100000000E-03 0.  1.
         12    1    4    4    0    0 -0.40632702168E+01 -0.39113869895E+01  0.26402401552E+02  0.26998072538E+02  0.00000000000E+00 0. -1.
</event>
<event>
 8    1  0.2994958E-010  0.9118800E+02  0.7816164E-02  0.1184000E+00
        -11   -1    0    0    0    0  0.00000000000E+00  0.00000000000E+00  0.45593999997E+02  0.45594000000E+02  0.51100000000E-03 0. -1.
         11   -1    0    0    0    0 -0.00000000000E+00 -0.00000000000E+00 -0.45593999997E+02  0.45594000000E+02  0.51100000000E-03 0.  1.
         23    2    1    2    0    0  0.35527136788E-14 -0.35527136788E-14  0.00000000000E+00  0.91188000000E+02  0.91188000000E+02 0.  0.
    9900012    2    3    3    0    0  0.30211493454E+02 -0.28801163173E+02  0.11890417395E+02  0.47787270022E+02  0.19999995337E+02 0.  0.
        -12    1    3    3    0    0 -0.30211493454E+02  0.28801163173E+02 -0.11890417395E+02  0.43400729978E+02  0.00000000000E+00 0.  1.
         11    1    4    4    0    0  0.88293235668E+01 -0.67389583168E+01  0.30216993987E+01  0.11510915748E+02  0.51100000000E-03 0. -1.
        -11    1    4    4    0    0 -0.20177734412E+01  0.87987219424E-01 -0.14013896420E+01  0.24582604827E+01  0.51100000000E-03 0.  1.
        -12    1    4    4    0    0  0.23399943328E+02 -0.22150192075E+02  0.10270107638E+02  0.33818093791E+02  0.00000000000E+00 0.  1.
</event>
<event>
 8    1  0.2994958E-010  0.9118800E+02  0.7816164E-02  0.1184000E+00
        -11   -1    0    0    0    0  0.00000000000E+00  0.00000000000E+00  0.45593999997E+02  0.45594000000E+02  0.51100000000E-03 0. -1.
         11   -1    0    0    0    0 -0.00000000000E+00 -0.00000000000E+00 -0.45593999997E+02  0.45594000000E+02  0.51100000000E-03 0.  1.
         23    2    1    2    0    0 -0.44408920985E-15 -0.35527136788E-14 -0.71054273576E-14  0.91188000000E+02  0.91188000000E+02 0.  0.
    9900012    2    3    3    0    0 -0.30141942658E+01 -0.19115497546E+02 -0.38847540263E+02  0.47787320305E+02  0.20000224597E+02 0.  0.
         12    1    3    3    0    0  0.30141942658E+01  0.19115497546E+02  0.38847540263E+02  0.43400679695E+02  0.00000000000E+00 0. -1.
         11    1    4    4    0    0  0.16788766412E+01 -0.58962100978E+01 -0.50538565884E+01  0.79451486437E+01  0.51100000000E-03 0. -1.
        -11    1    4    4    0    0 -0.95811725239E+01 -0.12993270012E+02 -0.27217673488E+02  0.31645310599E+02  0.51100000000E-03 0.  1.
        -12    1    4    4    0    0  0.48881016170E+01 -0.22601743633E+00 -0.65760101867E+01  0.81968610624E+01  0.00000000000E+00 0.  1.
</event>
<event>
 8    1  0.2994958E-010  0.9118800E+02  0.7816164E-02  0.1184000E+00
        -11   -1    0    0    0    0  0.00000000000E+00  0.00000000000E+00  0.45593999997E+02  0.45594000000E+02  0.51100000000E-03 0. -1.
         11   -1    0    0    0    0 -0.00000000000E+00 -0.00000000000E+00 -0.45593999997E+02  0.45594000000E+02  0.51100000000E-03 0.  1.
         23    2    1    2    0    0  0.00000000000E+00  0.17763568394E-14  0.35527136788E-14  0.91188000000E+02  0.91188000000E+02 0.  0.
    9900012    2    3    3    0    0 -0.29176375478E+02 -0.65431847788E+01 -0.31457097826E+02  0.47787272394E+02  0.20000006153E+02 0.  0.
         12    1    3    3    0    0  0.29176375478E+02  0.65431847788E+01  0.31457097826E+02  0.43400727606E+02  0.00000000000E+00 0. -1.
         11    1    4    4    0    0 -0.19142258341E+01  0.21917032230E+01 -0.24798377016E+01  0.38232733160E+01  0.51100000000E-03 0. -1.
        -11    1    4    4    0    0 -0.60964415160E+01 -0.87920989328E+01 -0.45057803812E+01  0.11609033547E+02  0.51100000000E-03 0.  1.
         12    1    4    4    0    0 -0.21165708128E+02  0.57210931026E-01 -0.24471479743E+02  0.32354965530E+02  0.00000000000E+00 0. -1.
</event>
<event>
 8    1  0.2994958E-010  0.9118800E+02  0.7816164E-02  0.1184000E+00
        -11   -1    0    0    0    0  0.00000000000E+00  0.00000000000E+00  0.45593999997E+02  0.45594000000E+02  0.51100000000E-03 0. -1.
         11   -1    0    0    0    0 -0.00000000000E+00 -0.00000000000E+00 -0.45593999997E+02  0.45594000000E+02  0.51100000000E-03 0.  1.
         23    2    1    2    0    0  0.35527136788E-14  0.35527136788E-14  0.00000000000E+00  0.91188000000E+02  0.91188000000E+02 0.  0.
    9900012    2    3    3    0    0  0.20293994194E+02  0.26792522319E+02 -0.27457929997E+02  0.47787269911E+02  0.19999994831E+02 0.  0.
         12    1    3    3    0    0 -0.20293994194E+02 -0.26792522319E+02  0.27457929997E+02  0.43400730089E+02  0.00000000000E+00 0. -1.
         11    1    4    4    0    0 -0.64779106767E+00  0.80416550495E+00  0.74754348546E+00  0.12748085937E+01  0.51100000000E-03 0. -1.
        -11    1    4    4    0    0  0.17132256947E+02  0.12377896343E+02 -0.97755910149E+01  0.23287093548E+02  0.51100000000E-03 0.  1.
         12    1    4    4    0    0  0.38095283142E+01  0.13610460471E+02 -0.18429882468E+02  0.23225367769E+02  0.00000000000E+00 0. -1.
</event>
<event>
 8    1  0.2994958E-010  0.9118800E+02  0.7816164E-02  0.1184000E+00
        -11   -1    0    0    0    0  0.00000000000E+00  0.00000000000E+00  0.45593999997E+02  0.45594000000E+02  0.51100000000E-03 0. -1.
         11   -1    0    0    0    0 -0.00000000000E+00 -0.00000000000E+00 -0.45593999997E+02  0.45594000000E+02  0.51100000000E-03 0.  1.
         23    2    1    2    0    0 -0.44408920985E-15  0.35527136788E-14  0.00000000000E+00  0.91188000000E+02  0.91188000000E+02 0.  0.
    9900012    2    3    3    0    0  0.11763411322E+01 -0.16298166426E+02  0.40207082272E+02  0.47787268760E+02  0.19999989585E+02 0.  0.
        -12    1    3    3    0    0 -0.11763411322E+01  0.16298166426E+02 -0.40207082272E+02  0.43400731240E+02  0.00000000000E+00 0.  1.
         11    1    4    4    0    0 -0.97585241635E+00 -0.15211426448E+02  0.22505782194E+02  0.27181795654E+02  0.51100000000E-03 0. -1.
        -11    1    4    4    0    0  0.28245106582E+01 -0.44980302061E+01  0.45230003488E+01  0.69762216571E+01  0.51100000000E-03 0.  1.
         12    1    4    4    0    0 -0.67231710968E+00  0.34112902281E+01  0.13178299729E+02  0.13629251449E+02  0.00000000000E+00 0. -1.
</event>
<event>
 8    1  0.2994958E-010  0.9118800E+02  0.7816164E-02  0.1184000E+00
        -11   -1    0    0    0    0  0.00000000000E+00  0.00000000000E+00  0.45593999997E+02  0.45594000000E+02  0.51100000000E-03 0. -1.
         11   -1    0    0    0    0 -0.00000000000E+00 -0.00000000000E+00 -0.45593999997E+02  0.45594000000E+02  0.51100000000E-03 0.  1.
         23    2    1    2    0    0  0.35527136788E-14 -0.17763568394E-14  0.00000000000E+00  0.91188000000E+02  0.91188000000E+02 0.  0.
    9900012    2    3    3    0    0 -0.26149405907E+02  0.15462535018E+02  0.30995820397E+02  0.47787282257E+02  0.20000051123E+02 0.  0.
        -12    1    3    3    0    0  0.26149405907E+02 -0.15462535018E+02 -0.30995820397E+02  0.43400717743E+02  0.00000000000E+00 0.  1.
         11    1    4    4    0    0 -0.13324336149E+02  0.48086930240E+01  0.10272209604E+02  0.17497992822E+02  0.51100000000E-03 0. -1.
        -11    1    4    4    0    0 -0.66005209522E+01  0.14264754278E+01 -0.14552354381E-01  0.67529194441E+01  0.51100000000E-03 0.  1.
        -12    1    4    4    0    0 -0.62245488065E+01  0.92273665664E+01  0.20738163148E+02  0.23536369991E+02  0.00000000000E+00 0.  1.
</event>
<event>
 8    1  0.2994958E-010  0.9118800E+02  0.7816164E-02  0.1184000E+00
        -11   -1    0    0    0    0  0.00000000000E+00  0.00000000000E+00  0.45593999997E+02  0.45594000000E+02  0.51100000000E-03 0. -1.
         11   -1    0    0    0    0 -0.00000000000E+00 -0.00000000000E+00 -0.45593999997E+02  0.45594000000E+02  0.51100000000E-03 0.  1.
         23    2    1    2    0    0  0.00000000000E+00  0.00000000000E+00  0.35527136788E-14  0.91188000000E+02  0.91188000000E+02 0.  0.
    9900012    2    3    3    0    0  0.74381365635E+01  0.33148279760E+02  0.27009052221E+02  0.47787271568E+02  0.20000002386E+02 0.  0.
        -12    1    3    3    0    0 -0.74381365635E+01 -0.33148279760E+02 -0.27009052221E+02  0.43400728432E+02  0.00000000000E+00 0.  1.
         11    1    4    4    0    0  0.44670029073E+01  0.43124997228E+01  0.87844159608E+00  0.62708395556E+01  0.51100000000E-03 0.  1.
        -11    1    4    4    0    0  0.24145343968E+01  0.11792498853E+02  0.23670626282E+01  0.12267680763E+02  0.51100000000E-03 0. -1.
         12    1    4    4    0    0  0.55659925937E+00  0.17043281184E+02  0.23763547996E+02  0.29248751249E+02  0.00000000000E+00 0. -1.
</event>
<event>
 8    1  0.2994958E-010  0.9118800E+02  0.7816164E-02  0.1184000E+00
        -11   -1    0    0    0    0  0.00000000000E+00  0.00000000000E+00  0.45593999997E+02  0.45594000000E+02  0.51100000000E-03 0. -1.
         11   -1    0    0    0    0 -0.00000000000E+00 -0.00000000000E+00 -0.45593999997E+02  0.45594000000E+02  0.51100000000E-03 0.  1.
         23    2    1    2    0    0 -0.33306690739E-15  0.22204460493E-15  0.00000000000E+00  0.91188000000E+02  0.91188000000E+02 0.  0.
    9900012    2    3    3    0    0  0.68583455598E+00 -0.10636655362E+01 -0.43382272120E+02  0.47787270885E+02  0.19999999274E+02 0.  0.
         12    1    3    3    0    0 -0.68583455598E+00  0.10636655362E+01  0.43382272120E+02  0.43400729115E+02  0.00000000000E+00 0. -1.
         11    1    4    4    0    0  0.91938911896E+00  0.89369015556E+00 -0.11080835332E+02  0.11154768952E+02  0.51100000000E-03 0. -1.
        -11    1    4    4    0    0  0.75046404725E+01  0.81494782758E+00 -0.23061485172E+02  0.24265528372E+02  0.51100000000E-03 0.  1.
         12    1    4    4    0    0 -0.77381950354E+01 -0.27723035193E+01 -0.92399516161E+01  0.12366973562E+02  0.00000000000E+00 0. -1.
</event>
<event>
 8    1  0.2994958E-010  0.9118800E+02  0.7816164E-02  0.1184000E+00
        -11   -1    0    0    0    0  0.00000000000E+00  0.00000000000E+00  0.45593999997E+02  0.45594000000E+02  0.51100000000E-03 0. -1.
         11   -1    0    0    0    0 -0.00000000000E+00 -0.00000000000E+00 -0.45593999997E+02  0.45594000000E+02  0.51100000000E-03 0.  1.
         23    2    1    2    0    0  0.00000000000E+00  0.00000000000E+00  0.71054273576E-14  0.91188000000E+02  0.91188000000E+02 0.  0.
    9900012    2    3    3    0    0 -0.14806543794E+02  0.14714083377E+01  0.40770389769E+02  0.47787268860E+02  0.19999990040E+02 0.  0.
        -12    1    3    3    0    0  0.14806543794E+02 -0.14714083377E+01 -0.40770389769E+02  0.43400731140E+02  0.00000000000E+00 0.  1.
         11    1    4    4    0    0 -0.89532248290E+01  0.65866429348E+00  0.49700686689E+01  0.10261367176E+02  0.51100000000E-03 0. -1.
        -11    1    4    4    0    0 -0.43735356797E+01 -0.36569988236E+01  0.12278340468E+02  0.13537322470E+02  0.51100000000E-03 0.  1.
        -12    1    4    4    0    0 -0.14797832849E+01  0.44697428678E+01  0.23521980632E+02  0.23988579214E+02  0.00000000000E+00 0.  1.
</event>
<event>
 8    1  0.2994958E-010  0.9118800E+02  0.7816164E-02  0.1184000E+00
        -11   -1    0    0    0    0  0.00000000000E+00  0.00000000000E+00  0.45593999997E+02  0.45594000000E+02  0.51100000000E-03 0. -1.
         11   -1    0    0    0    0 -0.00000000000E+00 -0.00000000000E+00 -0.45593999997E+02  0.45594000000E+02  0.51100000000E-03 0.  1.
         23    2    1    2    0    0  0.00000000000E+00 -0.35527136788E-14  0.00000000000E+00  0.91188000000E+02  0.91188000000E+02 0.  0.
    9900012    2    3    3    0    0 -0.23588508920E+02  0.31936317689E+02  0.17529337098E+02  0.47787264987E+02  0.19999972383E+02 0.  0.
        -12    1    3    3    0    0  0.23588508920E+02 -0.31936317689E+02 -0.17529337098E+02  0.43400735013E+02  0.00000000000E+00 0.  1.
         11    1    4    4    0    0 -0.16344697708E+01  0.70128128500E+01  0.55250968807E+01  0.90762178964E+01  0.51100000000E-03 0. -1.
        -11    1    4    4    0    0 -0.14599834045E+01  0.12028966002E+02  0.69742552664E+01  0.13980980345E+02  0.51100000000E-03 0.  1.
         12    1    4    4    0    0 -0.20494055744E+02  0.12894538837E+02  0.50299849507E+01  0.24730066746E+02  0.00000000000E+00 0. -1.
</event>
<event>
 8    1  0.2994958E-010  0.9118800E+02  0.7816164E-02  0.1184000E+00
        -11   -1    0    0    0    0  0.00000000000E+00  0.00000000000E+00  0.45593999997E+02  0.45594000000E+02  0.51100000000E-03 0. -1.
         11   -1    0    0    0    0 -0.00000000000E+00 -0.00000000000E+00 -0.45593999997E+02  0.45594000000E+02  0.51100000000E-03 0.  1.
         23    2    1    2    0    0 -0.17763568394E-14 -0.17763568394E-14  0.71054273576E-14  0.91188000000E+02  0.91188000000E+02 0.  0.
    9900012    2    3    3    0    0  0.10912654482E+02  0.62863964871E+01  0.41533342860E+02  0.47787269847E+02  0.19999994542E+02 0.  0.
        -12    1    3    3    0    0 -0.10912654482E+02 -0.62863964871E+01 -0.41533342860E+02  0.43400730153E+02  0.00000000000E+00 0.  1.
         11    1    4    4    0    0  0.40067574253E+00  0.66211398455E+01  0.98790638463E+01  0.11899409088E+02  0.51100000000E-03 0. -1.
        -11    1    4    4    0    0  0.88413581806E+01  0.44351936443E+01  0.11785273241E+02  0.15386137357E+02  0.51100000000E-03 0.  1.
        -12    1    4    4    0    0  0.16706205593E+01 -0.47699370026E+01  0.19869005773E+02  0.20501723402E+02  0.00000000000E+00 0.  1.
</event>
<event>
 8    1  0.2994958E-010  0.9118800E+02  0.7816164E-02  0.1184000E+00
        -11   -1    0    0    0    0  0.00000000000E+00  0.00000000000E+00  0.45593999997E+02  0.45594000000E+02  0.51100000000E-03 0. -1.
         11   -1    0    0    0    0 -0.00000000000E+00 -0.00000000000E+00 -0.45593999997E+02  0.45594000000E+02  0.51100000000E-03 0.  1.
         23    2    1    2    0    0  0.00000000000E+00  0.71054273576E-14  0.35527136788E-14  0.91188000000E+02  0.91188000000E+02 0.  0.
    9900012    2    3    3    0    0  0.21041090280E+02 -0.22136190548E+02 -0.30836417025E+02  0.47787273888E+02  0.20000012963E+02 0.  0.
         12    1    3    3    0    0 -0.21041090280E+02  0.22136190548E+02  0.30836417025E+02  0.43400726112E+02  0.00000000000E+00 0. -1.
         11    1    4    4    0    0  0.87445515478E+01 -0.15869393865E+02 -0.19215655391E+02  0.26411100995E+02  0.51100000000E-03 0. -1.
        -11    1    4    4    0    0  0.13739266163E+01 -0.68535361946E+01 -0.41315457429E+01  0.81196245729E+01  0.51100000000E-03 0.  1.
         12    1    4    4    0    0  0.10922612115E+02  0.58673951137E+00 -0.74892158911E+01  0.13256548319E+02  0.00000000000E+00 0. -1.
</event>
<event>
 8    1  0.2994958E-010  0.9118800E+02  0.7816164E-02  0.1184000E+00
        -11   -1    0    0    0    0  0.00000000000E+00  0.00000000000E+00  0.45593999997E+02  0.45594000000E+02  0.51100000000E-03 0. -1.
         11   -1    0    0    0    0 -0.00000000000E+00 -0.00000000000E+00 -0.45593999997E+02  0.45594000000E+02  0.51100000000E-03 0.  1.
         23    2    1    2    0    0  0.00000000000E+00  0.00000000000E+00  0.00000000000E+00  0.91188000000E+02  0.91188000000E+02 0.  0.
    9900012    2    3    3    0    0 -0.23211699823E+02 -0.32241190366E+02 -0.17474151549E+02  0.47787270314E+02  0.19999996670E+02 0.  0.
         12    1    3    3    0    0  0.23211699823E+02  0.32241190366E+02  0.17474151549E+02  0.43400729686E+02  0.00000000000E+00 0. -1.
         11    1    4    4    0    0 -0.10422393996E+02 -0.16002203413E+01 -0.54575065523E+01  0.11873136897E+02  0.51100000000E-03 0. -1.
        -11    1    4    4    0    0 -0.29728122904E+01 -0.32430024486E+01 -0.34054634160E+01  0.55634395057E+01  0.51100000000E-03 0.  1.
        -12    1    4    4    0    0 -0.98164935366E+01 -0.27397967576E+02 -0.86111815811E+01  0.30350693911E+02  0.00000000000E+00 0.  1.
</event>
<event>
 8    1  0.2994958E-010  0.9118800E+02  0.7816164E-02  0.1184000E+00
        -11   -1    0    0    0    0  0.00000000000E+00  0.00000000000E+00  0.45593999997E+02  0.45594000000E+02  0.51100000000E-03 0. -1.
         11   -1    0    0    0    0 -0.00000000000E+00 -0.00000000000E+00 -0.45593999997E+02  0.45594000000E+02  0.51100000000E-03 0.  1.
         23    2    1    2    0    0 -0.88817841970E-15 -0.35527136788E-14  0.71054273576E-14  0.91188000000E+02  0.91188000000E+02 0.  0.
    9900012    2    3    3    0    0 -0.55373367738E+01 -0.26344734947E+02  0.34042858223E+02  0.47787270122E+02  0.19999995793E+02 0.  0.
        -12    1    3    3    0    0  0.55373367738E+01  0.26344734947E+02 -0.34042858223E+02  0.43400729878E+02  0.00000000000E+00 0.  1.
         11    1    4    4    0    0 -0.26535507059E+01 -0.15522086368E+01  0.37504356053E+01  0.48493762993E+01  0.51100000000E-03 0.  1.
        -11    1    4    4    0    0 -0.15313163249E+01 -0.81445300916E+01  0.23479362055E+02  0.24898970719E+02  0.51100000000E-03 0. -1.
         12    1    4    4    0    0 -0.13524697430E+01 -0.16647996218E+02  0.68130605624E+01  0.18038923103E+02  0.00000000000E+00 0. -1.
</event>
<event>
 8    1  0.2994958E-010  0.9118800E+02  0.7816164E-02  0.1184000E+00
        -11   -1    0    0    0    0  0.00000000000E+00  0.00000000000E+00  0.45593999997E+02  0.45594000000E+02  0.51100000000E-03 0. -1.
         11   -1    0    0    0    0 -0.00000000000E+00 -0.00000000000E+00 -0.45593999997E+02  0.45594000000E+02  0.51100000000E-03 0.  1.
         23    2    1    2    0    0 -0.35527136788E-14  0.00000000000E+00  0.00000000000E+00  0.91188000000E+02  0.91188000000E+02 0.  0.
    9900012    2    3    3    0    0  0.20127368685E+02  0.52460217312E+01 -0.38091865220E+02  0.47787286756E+02  0.20000071634E+02 0.  0.
         12    1    3    3    0    0 -0.20127368685E+02 -0.52460217312E+01  0.38091865220E+02  0.43400713244E+02  0.00000000000E+00 0. -1.
         11    1    4    4    0    0  0.15808131918E+02  0.41024615013E+01 -0.38922767598E+02  0.42210295697E+02  0.51100000000E-03 0.  1.
        -11    1    4    4    0    0  0.75319343840E+00  0.16673277691E+01 -0.16681306927E+00  0.18371470019E+01  0.51100000000E-03 0. -1.
        -12    1    4    4    0    0  0.35660433283E+01 -0.52376753931E+00  0.99771544712E+00  0.37398440567E+01  0.00000000000E+00 0.  1.
</event>
<event>
 8    1  0.2994958E-010  0.9118800E+02  0.7816164E-02  0.1184000E+00
        -11   -1    0    0    0    0  0.00000000000E+00  0.00000000000E+00  0.45593999997E+02  0.45594000000E+02  0.51100000000E-03 0.  1.
         11   -1    0    0    0    0 -0.00000000000E+00 -0.00000000000E+00 -0.45593999997E+02  0.45594000000E+02  0.51100000000E-03 0. -1.
         23    2    1    2    0    0  0.35527136788E-14  0.00000000000E+00  0.00000000000E+00  0.91188000000E+02  0.91188000000E+02 0.  0.
    9900012    2    3    3    0    0 -0.26440168309E+02 -0.26788368309E+02 -0.21608443900E+02  0.47787262395E+02  0.19999960563E+02 0.  0.
         12    1    3    3    0    0  0.26440168309E+02  0.26788368309E+02  0.21608443900E+02  0.43400737605E+02  0.00000000000E+00 0. -1.
         11    1    4    4    0    0 -0.23528013715E+01  0.22605240401E+00 -0.55176439700E+01  0.60025968734E+01  0.51100000000E-03 0. -1.
        -11    1    4    4    0    0 -0.35210024852E+01  0.10556764100E+01 -0.73281123718E+00  0.37481893968E+01  0.51100000000E-03 0.  1.
        -12    1    4    4    0    0 -0.20566364453E+02 -0.28070097123E+02 -0.15357988692E+02  0.38036476125E+02  0.00000000000E+00 0.  1.
</event>
<event>
 8    1  0.2994958E-010  0.9118800E+02  0.7816164E-02  0.1184000E+00
        -11   -1    0    0    0    0  0.00000000000E+00  0.00000000000E+00  0.45593999997E+02  0.45594000000E+02  0.51100000000E-03 0. -1.
         11   -1    0    0    0    0 -0.00000000000E+00 -0.00000000000E+00 -0.45593999997E+02  0.45594000000E+02  0.51100000000E-03 0.  1.
         23    2    1    2    0    0  0.00000000000E+00  0.35527136788E-14 -0.14210854715E-13  0.91188000000E+02  0.91188000000E+02 0.  0.
    9900012    2    3    3    0    0 -0.26885237718E+02  0.18082201637E+02 -0.28876317465E+02  0.47787265749E+02  0.19999975855E+02 0.  0.
         12    1    3    3    0    0  0.26885237718E+02 -0.18082201637E+02  0.28876317465E+02  0.43400734251E+02  0.00000000000E+00 0. -1.
         11    1    4    4    0    0 -0.16790884701E+02  0.15270416844E+02 -0.17089668053E+02  0.28410846416E+02  0.51100000000E-03 0. -1.
        -11    1    4    4    0    0 -0.10619960798E+02  0.49538985001E+01 -0.12425859994E+02  0.17080008037E+02  0.51100000000E-03 0.  1.
         12    1    4    4    0    0  0.52560778094E+00 -0.21421137066E+01  0.63921058209E+00  0.22964112958E+01  0.00000000000E+00 0. -1.
</event>
<event>
 8    1  0.2994958E-010  0.9118800E+02  0.7816164E-02  0.1184000E+00
        -11   -1    0    0    0    0  0.00000000000E+00  0.00000000000E+00  0.45593999997E+02  0.45594000000E+02  0.51100000000E-03 0. -1.
         11   -1    0    0    0    0 -0.00000000000E+00 -0.00000000000E+00 -0.45593999997E+02  0.45594000000E+02  0.51100000000E-03 0.  1.
         23    2    1    2    0    0  0.00000000000E+00  0.00000000000E+00  0.35527136788E-14  0.91188000000E+02  0.91188000000E+02 0.  0.
    9900012    2    3    3    0    0  0.32955534573E+02 -0.72134710225E+01  0.27304247157E+02  0.47787270329E+02  0.19999996739E+02 0.  0.
        -12    1    3    3    0    0 -0.32955534573E+02  0.72134710225E+01 -0.27304247157E+02  0.43400729671E+02  0.00000000000E+00 0.  1.
         11    1    4    4    0    0  0.88697411175E+01 -0.79183436269E+01  0.82477248602E+01  0.14470571479E+02  0.51100000000E-03 0. -1.
        -11    1    4    4    0    0  0.10590412597E+02 -0.53015283497E+00  0.87416440075E+00  0.10639645890E+02  0.51100000000E-03 0.  1.
         12    1    4    4    0    0  0.13495380858E+02  0.12350254394E+01  0.18182357896E+02  0.22677052961E+02  0.00000000000E+00 0. -1.
</event>
<event>
 8    1  0.2994958E-010  0.9118800E+02  0.7816164E-02  0.1184000E+00
        -11   -1    0    0    0    0  0.00000000000E+00  0.00000000000E+00  0.45593999997E+02  0.45594000000E+02  0.51100000000E-03 0. -1.
         11   -1    0    0    0    0 -0.00000000000E+00 -0.00000000000E+00 -0.45593999997E+02  0.45594000000E+02  0.51100000000E-03 0.  1.
         23    2    1    2    0    0  0.88817841970E-15  0.00000000000E+00  0.00000000000E+00  0.91188000000E+02  0.91188000000E+02 0.  0.
    9900012    2    3    3    0    0 -0.68373583838E+01  0.53869655618E+01 -0.42518869026E+02  0.47787273152E+02  0.20000009611E+02 0.  0.
         12    1    3    3    0    0  0.68373583838E+01 -0.53869655618E+01  0.42518869026E+02  0.43400726848E+02  0.00000000000E+00 0. -1.
         11    1    4    4    0    0  0.42580586963E+01  0.13175510536E+01 -0.30022636141E+01  0.53740665896E+01  0.51100000000E-03 0. -1.
        -11    1    4    4    0    0 -0.38434515353E+01  0.16037293170E+01 -0.30789951262E+01  0.51792160289E+01  0.51100000000E-03 0.  1.
        -12    1    4    4    0    0 -0.72519655448E+01  0.24656851913E+01 -0.36437610286E+02  0.37233990534E+02  0.00000000000E+00 0.  1.
</event>
<event>
 8    1  0.2994958E-010  0.9118800E+02  0.7816164E-02  0.1184000E+00
        -11   -1    0    0    0    0  0.00000000000E+00  0.00000000000E+00  0.45593999997E+02  0.45594000000E+02  0.51100000000E-03 0. -1.
         11   -1    0    0    0    0 -0.00000000000E+00 -0.00000000000E+00 -0.45593999997E+02  0.45594000000E+02  0.51100000000E-03 0.  1.
         23    2    1    2    0    0  0.00000000000E+00  0.00000000000E+00  0.00000000000E+00  0.91188000000E+02  0.91188000000E+02 0.  0.
    9900012    2    3    3    0    0  0.99159136522E+01  0.92664836826E+01  0.41224145062E+02  0.47787271901E+02  0.20000003907E+02 0.  0.
        -12    1    3    3    0    0 -0.99159136522E+01 -0.92664836826E+01 -0.41224145062E+02  0.43400728099E+02  0.00000000000E+00 0.  1.
         11    1    4    4    0    0  0.10881179340E+02 -0.15088531108E+01  0.11299083753E+02  0.15758997286E+02  0.51100000000E-03 0. -1.
        -11    1    4    4    0    0 -0.10251445324E+01  0.15615598916E+01  0.26754236980E+01  0.32630174429E+01  0.51100000000E-03 0.  1.
        -12    1    4    4    0    0  0.59878844551E-01  0.92137769018E+01  0.27249637611E+02  0.28765257172E+02  0.00000000000E+00 0.  1.
</event>
<event>
 8    1  0.2994958E-010  0.9118800E+02  0.7816164E-02  0.1184000E+00
        -11   -1    0    0    0    0  0.00000000000E+00  0.00000000000E+00  0.45593999997E+02  0.45594000000E+02  0.51100000000E-03 0. -1.
         11   -1    0    0    0    0 -0.00000000000E+00 -0.00000000000E+00 -0.45593999997E+02  0.45594000000E+02  0.51100000000E-03 0.  1.
         23    2    1    2    0    0  0.00000000000E+00  0.00000000000E+00  0.00000000000E+00  0.91188000000E+02  0.91188000000E+02 0.  0.
    9900012    2    3    3    0    0  0.60700743244E+01  0.25296277059E+02  0.34740128031E+02  0.47787263475E+02  0.19999965487E+02 0.  0.
        -12    1    3    3    0    0 -0.60700743244E+01 -0.25296277059E+02 -0.34740128031E+02  0.43400736525E+02  0.00000000000E+00 0.  1.
         11    1    4    4    0    0  0.17235310923E+01  0.24273003925E+02  0.25635026315E+02  0.35345492689E+02  0.51100000000E-03 0. -1.
        -11    1    4    4    0    0  0.29469617041E-01  0.21872448629E+01 -0.11945477435E+00  0.21907026847E+01  0.51100000000E-03 0.  1.
        -12    1    4    4    0    0  0.43170736151E+01 -0.11639717294E+01  0.92245564898E+01  0.10251068101E+02  0.00000000000E+00 0.  1.
</event>
<event>
 8    1  0.2994958E-010  0.9118800E+02  0.7816164E-02  0.1184000E+00
        -11   -1    0    0    0    0  0.00000000000E+00  0.00000000000E+00  0.45593999997E+02  0.45594000000E+02  0.51100000000E-03 0. -1.
         11   -1    0    0    0    0 -0.00000000000E+00 -0.00000000000E+00 -0.45593999997E+02  0.45594000000E+02  0.51100000000E-03 0.  1.
         23    2    1    2    0    0  0.00000000000E+00 -0.35527136788E-14  0.00000000000E+00  0.91188000000E+02  0.91188000000E+02 0.  0.
    9900012    2    3    3    0    0  0.21101219639E+02  0.31187943619E+02 -0.21579481835E+02  0.47787270355E+02  0.19999996858E+02 0.  0.
         12    1    3    3    0    0 -0.21101219639E+02 -0.31187943619E+02  0.21579481835E+02  0.43400729645E+02  0.00000000000E+00 0. -1.
         11    1    4    4    0    0 -0.19024706656E+00 -0.10923195951E+01 -0.30475365243E+01  0.32429670322E+01  0.51100000000E-03 0. -1.
        -11    1    4    4    0    0  0.56580747797E+01  0.16322506596E+01 -0.43951980398E+01  0.73481847077E+01  0.51100000000E-03 0.  1.
         12    1    4    4    0    0  0.15633391926E+02  0.30648012555E+02 -0.14136747271E+02  0.37196118615E+02  0.00000000000E+00 0. -1.
</event>
<event>
 8    1  0.2994958E-010  0.9118800E+02  0.7816164E-02  0.1184000E+00
        -11   -1    0    0    0    0  0.00000000000E+00  0.00000000000E+00  0.45593999997E+02  0.45594000000E+02  0.51100000000E-03 0. -1.
         11   -1    0    0    0    0 -0.00000000000E+00 -0.00000000000E+00 -0.45593999997E+02  0.45594000000E+02  0.51100000000E-03 0.  1.
         23    2    1    2    0    0  0.00000000000E+00  0.00000000000E+00 -0.71054273576E-14  0.91188000000E+02  0.91188000000E+02 0.  0.
    9900012    2    3    3    0    0 -0.20659163333E+02  0.12601655249E+02 -0.36028054592E+02  0.47787268874E+02  0.19999990102E+02 0.  0.
         12    1    3    3    0    0  0.20659163333E+02 -0.12601655249E+02  0.36028054592E+02  0.43400731126E+02  0.00000000000E+00 0. -1.
         11    1    4    4    0    0 -0.14124608297E+01 -0.16592602799E+01 -0.10597028110E+02  0.10818742778E+02  0.51100000000E-03 0. -1.
        -11    1    4    4    0    0 -0.10181896094E+02  0.12757951986E+01 -0.59459630027E+01  0.11859727558E+02  0.51100000000E-03 0.  1.
         12    1    4    4    0    0 -0.90648064100E+01  0.12985120330E+02 -0.19485063479E+02  0.25108798538E+02  0.00000000000E+00 0. -1.
</event>
<event>
 8    1  0.2994958E-010  0.9118800E+02  0.7816164E-02  0.1184000E+00
        -11   -1    0    0    0    0  0.00000000000E+00  0.00000000000E+00  0.45593999997E+02  0.45594000000E+02  0.51100000000E-03 0. -1.
         11   -1    0    0    0    0 -0.00000000000E+00 -0.00000000000E+00 -0.45593999997E+02  0.45594000000E+02  0.51100000000E-03 0.  1.
         23    2    1    2    0    0  0.44408920985E-15  0.00000000000E+00  0.00000000000E+00  0.91188000000E+02  0.91188000000E+02 0.  0.
    9900012    2    3    3    0    0  0.29910975047E+01 -0.23653542120E+02  0.36265541998E+02  0.47787236694E+02  0.19999843384E+02 0.  0.
        -12    1    3    3    0    0 -0.29910975047E+01  0.23653542120E+02 -0.36265541998E+02  0.43400763306E+02  0.00000000000E+00 0.  1.
         11    1    4    4    0    0  0.59402490652E-01 -0.50501568587E+01 -0.13164979205E+01  0.52192700629E+01  0.51100000000E-03 0.  1.
        -11    1    4    4    0    0 -0.20985349251E+01 -0.36130342508E+01  0.77380633173E+01  0.87940598982E+01  0.51100000000E-03 0. -1.
        -12    1    4    4    0    0  0.50302299391E+01 -0.14990351011E+02  0.29843976601E+02  0.33773906733E+02  0.00000000000E+00 0.  1.
</event>
<event>
 8    1  0.2994958E-010  0.9118800E+02  0.7816164E-02  0.1184000E+00
        -11   -1    0    0    0    0  0.00000000000E+00  0.00000000000E+00  0.45593999997E+02  0.45594000000E+02  0.51100000000E-03 0. -1.
         11   -1    0    0    0    0 -0.00000000000E+00 -0.00000000000E+00 -0.45593999997E+02  0.45594000000E+02  0.51100000000E-03 0.  1.
         23    2    1    2    0    0  0.35527136788E-14  0.35527136788E-14  0.00000000000E+00  0.91188000000E+02  0.91188000000E+02 0.  0.
    9900012    2    3    3    0    0 -0.21500009928E+02 -0.28882948105E+02 -0.24231137439E+02  0.47787272590E+02  0.20000007047E+02 0.  0.
         12    1    3    3    0    0  0.21500009928E+02  0.28882948105E+02  0.24231137439E+02  0.43400727410E+02  0.00000000000E+00 0. -1.
         11    1    4    4    0    0 -0.33076307487E+01  0.13035907787E+01  0.46211538956E+00  0.35851528535E+01  0.51100000000E-03 0. -1.
        -11    1    4    4    0    0  0.84268148851E+00 -0.26451933593E+01 -0.39140360197E+01  0.47986287858E+01  0.51100000000E-03 0.  1.
        -12    1    4    4    0    0 -0.19035060667E+02 -0.27541345525E+02 -0.20779216809E+02  0.39403490951E+02  0.00000000000E+00 0.  1.
</event>
<event>
 8    1  0.2994958E-010  0.9118800E+02  0.7816164E-02  0.1184000E+00
        -11   -1    0    0    0    0  0.00000000000E+00  0.00000000000E+00  0.45593999997E+02  0.45594000000E+02  0.51100000000E-03 0. -1.
         11   -1    0    0    0    0 -0.00000000000E+00 -0.00000000000E+00 -0.45593999997E+02  0.45594000000E+02  0.51100000000E-03 0.  1.
         23    2    1    2    0    0  0.00000000000E+00  0.00000000000E+00 -0.71054273576E-14  0.91188000000E+02  0.91188000000E+02 0.  0.
    9900012    2    3    3    0    0  0.25505048160E+01 -0.28515057383E+01 -0.43231780373E+02  0.47787274268E+02  0.20000014700E+02 0.  0.
         12    1    3    3    0    0 -0.25505048160E+01  0.28515057383E+01  0.43231780373E+02  0.43400725732E+02  0.00000000000E+00 0. -1.
         11    1    4    4    0    0  0.18603360074E+01  0.24633071158E+01 -0.23182583120E+01  0.38604473665E+01  0.51100000000E-03 0. -1.
        -11    1    4    4    0    0  0.53153005964E+01  0.25352193063E+01 -0.24037142091E+02  0.24748009163E+02  0.51100000000E-03 0.  1.
         12    1    4    4    0    0 -0.46251317878E+01 -0.78500321604E+01 -0.16876379970E+02  0.19178817739E+02  0.00000000000E+00 0. -1.
</event>
<event>
 8    1  0.2994958E-010  0.9118800E+02  0.7816164E-02  0.1184000E+00
        -11   -1    0    0    0    0  0.00000000000E+00  0.00000000000E+00  0.45593999997E+02  0.45594000000E+02  0.51100000000E-03 0. -1.
         11   -1    0    0    0    0 -0.00000000000E+00 -0.00000000000E+00 -0.45593999997E+02  0.45594000000E+02  0.51100000000E-03 0.  1.
         23    2    1    2    0    0  0.00000000000E+00  0.00000000000E+00  0.00000000000E+00  0.91188000000E+02  0.91188000000E+02 0.  0.
    9900012    2    3    3    0    0 -0.29809847050E+02  0.22949714829E+02  0.21640397239E+02  0.47787272074E+02  0.20000004693E+02 0.  0.
        -12    1    3    3    0    0  0.29809847050E+02 -0.22949714829E+02 -0.21640397239E+02  0.43400727926E+02  0.00000000000E+00 0.  1.
         11    1    4    4    0    0 -0.15729421423E+02  0.80848344547E+01  0.10506501493E+02  0.20570994637E+02  0.51100000000E-03 0. -1.
        -11    1    4    4    0    0 -0.12273766247E+02  0.37012243803E+01  0.26800559306E+01  0.13096835490E+02  0.51100000000E-03 0.  1.
        -12    1    4    4    0    0 -0.18066593796E+01  0.11163655994E+02  0.84538398151E+01  0.14119441947E+02  0.00000000000E+00 0.  1.
</event>
<event>
 8    1  0.2994958E-010  0.9118800E+02  0.7816164E-02  0.1184000E+00
        -11   -1    0    0    0    0  0.00000000000E+00  0.00000000000E+00  0.45593999997E+02  0.45594000000E+02  0.51100000000E-03 0. -1.
         11   -1    0    0    0    0 -0.00000000000E+00 -0.00000000000E+00 -0.45593999997E+02  0.45594000000E+02  0.51100000000E-03 0.  1.
         23    2    1    2    0    0  0.00000000000E+00  0.00000000000E+00  0.71054273576E-14  0.91188000000E+02  0.91188000000E+02 0.  0.
    9900012    2    3    3    0    0  0.14364239232E+02 -0.21727272337E+02  0.34716244173E+02  0.47787270266E+02  0.19999996451E+02 0.  0.
        -12    1    3    3    0    0 -0.14364239232E+02  0.21727272337E+02 -0.34716244173E+02  0.43400729734E+02  0.00000000000E+00 0.  1.
         11    1    4    4    0    0  0.71194585259E+01 -0.10398783089E+02  0.98753081337E+01  0.16010717986E+02  0.51100000000E-03 0. -1.
        -11    1    4    4    0    0  0.81260577580E+01 -0.17561076357E+01  0.49272952435E+01  0.96641071699E+01  0.51100000000E-03 0.  1.
        -12    1    4    4    0    0 -0.88127705158E+00 -0.95723816122E+01  0.19913640796E+02  0.22112445110E+02  0.00000000000E+00 0.  1.
</event>
<event>
 8    1  0.2994958E-010  0.9118800E+02  0.7816164E-02  0.1184000E+00
        -11   -1    0    0    0    0  0.00000000000E+00  0.00000000000E+00  0.45593999997E+02  0.45594000000E+02  0.51100000000E-03 0. -1.
         11   -1    0    0    0    0 -0.00000000000E+00 -0.00000000000E+00 -0.45593999997E+02  0.45594000000E+02  0.51100000000E-03 0.  1.
         23    2    1    2    0    0 -0.71054273576E-14 -0.35527136788E-14 -0.44408920985E-15  0.91188000000E+02  0.91188000000E+02 0.  0.
    9900012    2    3    3    0    0 -0.31719063554E+02 -0.29554047850E+02 -0.20205823987E+01  0.47787268552E+02  0.19999988635E+02 0.  0.
         12    1    3    3    0    0  0.31719063554E+02  0.29554047850E+02  0.20205823987E+01  0.43400731448E+02  0.00000000000E+00 0. -1.
         11    1    4    4    0    0 -0.21883608639E+01 -0.43410474172E+01  0.16122554903E+01  0.51218145199E+01  0.51100000000E-03 0. -1.
        -11    1    4    4    0    0 -0.24645485853E+02 -0.21293203443E+02 -0.96608452569E+01  0.33972524445E+02  0.51100000000E-03 0.  1.
        -12    1    4    4    0    0 -0.48852168368E+01 -0.39197969891E+01  0.60280073679E+01  0.86929295871E+01  0.00000000000E+00 0.  1.
</event>
<event>
 8    1  0.2994958E-010  0.9118800E+02  0.7816164E-02  0.1184000E+00
        -11   -1    0    0    0    0  0.00000000000E+00  0.00000000000E+00  0.45593999997E+02  0.45594000000E+02  0.51100000000E-03 0. -1.
         11   -1    0    0    0    0 -0.00000000000E+00 -0.00000000000E+00 -0.45593999997E+02  0.45594000000E+02  0.51100000000E-03 0.  1.
         23    2    1    2    0    0  0.00000000000E+00 -0.66613381478E-15  0.00000000000E+00  0.91188000000E+02  0.91188000000E+02 0.  0.
    9900012    2    3    3    0    0 -0.17592353973E+02  0.16866204486E+01  0.39639476867E+02  0.47787265753E+02  0.19999975875E+02 0.  0.
        -12    1    3    3    0    0  0.17592353973E+02 -0.16866204486E+01 -0.39639476867E+02  0.43400734247E+02  0.00000000000E+00 0.  1.
         11    1    4    4    0    0 -0.32975871446E+01 -0.73037934613E+00  0.27092080541E+02  0.27301801466E+02  0.51100000000E-03 0. -1.
        -11    1    4    4    0    0 -0.23903509708E+01 -0.21648677354E+01  0.12927755778E+01  0.34744350665E+01  0.51100000000E-03 0.  1.
        -12    1    4    4    0    0 -0.11904415857E+02  0.45818675301E+01  0.11254620748E+02  0.17011029221E+02  0.00000000000E+00 0.  1.
</event>
<event>
 8    1  0.2994958E-010  0.9118800E+02  0.7816164E-02  0.1184000E+00
        -11   -1    0    0    0    0  0.00000000000E+00  0.00000000000E+00  0.45593999997E+02  0.45594000000E+02  0.51100000000E-03 0. -1.
         11   -1    0    0    0    0 -0.00000000000E+00 -0.00000000000E+00 -0.45593999997E+02  0.45594000000E+02  0.51100000000E-03 0.  1.
         23    2    1    2    0    0  0.00000000000E+00  0.35527136788E-14  0.00000000000E+00  0.91188000000E+02  0.91188000000E+02 0.  0.
    9900012    2    3    3    0    0 -0.20001914327E+02  0.21971247132E+02 -0.31635597488E+02  0.47787270678E+02  0.19999998327E+02 0.  0.
         12    1    3    3    0    0  0.20001914327E+02 -0.21971247132E+02  0.31635597488E+02  0.43400729322E+02  0.00000000000E+00 0. -1.
         11    1    4    4    0    0 -0.31207557733E+00  0.52013622709E+01 -0.69815610447E+01  0.87117022172E+01  0.51100000000E-03 0. -1.
        -11    1    4    4    0    0 -0.67868625067E+01 -0.20872113464E+01 -0.85899059303E+01  0.11144704484E+02  0.51100000000E-03 0.  1.
        -12    1    4    4    0    0 -0.12902976243E+02  0.18857096207E+02 -0.16064130513E+02  0.27930863976E+02  0.00000000000E+00 0.  1.
</event>
<event>
 8    1  0.2994958E-010  0.9118800E+02  0.7816164E-02  0.1184000E+00
        -11   -1    0    0    0    0  0.00000000000E+00  0.00000000000E+00  0.45593999997E+02  0.45594000000E+02  0.51100000000E-03 0. -1.
         11   -1    0    0    0    0 -0.00000000000E+00 -0.00000000000E+00 -0.45593999997E+02  0.45594000000E+02  0.51100000000E-03 0.  1.
         23    2    1    2    0    0 -0.17763568394E-14 -0.35527136788E-14  0.35527136788E-14  0.91188000000E+02  0.91188000000E+02 0.  0.
    9900012    2    3    3    0    0  0.13991261648E+02  0.26807502907E+02 -0.31132386958E+02  0.47787272676E+02  0.20000007437E+02 0.  0.
         12    1    3    3    0    0 -0.13991261648E+02 -0.26807502907E+02  0.31132386958E+02  0.43400727324E+02  0.00000000000E+00 0. -1.
         11    1    4    4    0    0  0.48501288882E+01  0.10951324351E+02 -0.43531439441E+01  0.12743826652E+02  0.51100000000E-03 0. -1.
        -11    1    4    4    0    0  0.61647888096E+01  0.30009866692E+00 -0.42094343855E+01  0.74708780196E+01  0.51100000000E-03 0.  1.
        -12    1    4    4    0    0  0.29763439504E+01  0.15556079889E+02 -0.22569808628E+02  0.27572568004E+02  0.00000000000E+00 0.  1.
</event>
<event>
 8    1  0.2994958E-010  0.9118800E+02  0.7816164E-02  0.1184000E+00
        -11   -1    0    0    0    0  0.00000000000E+00  0.00000000000E+00  0.45593999997E+02  0.45594000000E+02  0.51100000000E-03 0. -1.
         11   -1    0    0    0    0 -0.00000000000E+00 -0.00000000000E+00 -0.45593999997E+02  0.45594000000E+02  0.51100000000E-03 0.  1.
         23    2    1    2    0    0 -0.35527136788E-14  0.71054273576E-14  0.44408920985E-15  0.91188000000E+02  0.91188000000E+02 0.  0.
    9900012    2    3    3    0    0  0.20414142500E+02 -0.38155919005E+02 -0.33184412485E+01  0.47787269345E+02  0.19999992249E+02 0.  0.
         12    1    3    3    0    0 -0.20414142500E+02  0.38155919005E+02  0.33184412485E+01  0.43400730655E+02  0.00000000000E+00 0. -1.
         11    1    4    4    0    0  0.48248952512E+01 -0.14782400475E+02  0.40461255924E+00  0.15555149938E+02  0.51100000000E-03 0. -1.
        -11    1    4    4    0    0  0.10783202981E+02 -0.21691091697E+02 -0.80747202868E+01  0.25533938856E+02  0.51100000000E-03 0.  1.
         12    1    4    4    0    0  0.48060442674E+01 -0.16824268328E+01  0.43516664791E+01  0.66981805509E+01  0.00000000000E+00 0. -1.
</event>
<event>
 8    1  0.2994958E-010  0.9118800E+02  0.7816164E-02  0.1184000E+00
        -11   -1    0    0    0    0  0.00000000000E+00  0.00000000000E+00  0.45593999997E+02  0.45594000000E+02  0.51100000000E-03 0.  1.
         11   -1    0    0    0    0 -0.00000000000E+00 -0.00000000000E+00 -0.45593999997E+02  0.45594000000E+02  0.51100000000E-03 0. -1.
         23    2    1    2    0    0  0.00000000000E+00  0.00000000000E+00  0.00000000000E+00  0.91188000000E+02  0.91188000000E+02 0.  0.
    9900012    2    3    3    0    0  0.14751240200E+02 -0.40184061542E+02 -0.71600226746E+01  0.47787264820E+02  0.19999971620E+02 0.  0.
        -12    1    3    3    0    0 -0.14751240200E+02  0.40184061542E+02  0.71600226746E+01  0.43400735180E+02  0.00000000000E+00 0.  1.
         11    1    4    4    0    0  0.80159675460E+01 -0.10300507196E+02 -0.42982649971E+01  0.13741588934E+02  0.51100000000E-03 0. -1.
        -11    1    4    4    0    0  0.81879463518E+00  0.91593053187E+00  0.19613698844E+01  0.23143736687E+01  0.51100000000E-03 0.  1.
         12    1    4    4    0    0  0.59164780188E+01 -0.30799484878E+02 -0.48231275619E+01  0.31731302217E+02  0.00000000000E+00 0. -1.
</event>
<event>
 8    1  0.2994958E-010  0.9118800E+02  0.7816164E-02  0.1184000E+00
        -11   -1    0    0    0    0  0.00000000000E+00  0.00000000000E+00  0.45593999997E+02  0.45594000000E+02  0.51100000000E-03 0. -1.
         11   -1    0    0    0    0 -0.00000000000E+00 -0.00000000000E+00 -0.45593999997E+02  0.45594000000E+02  0.51100000000E-03 0.  1.
         23    2    1    2    0    0  0.11102230246E-15 -0.17763568394E-14  0.71054273576E-14  0.91188000000E+02  0.91188000000E+02 0.  0.
    9900012    2    3    3    0    0  0.21730680961E+00 -0.15544601144E+02  0.40520876264E+02  0.47787271203E+02  0.20000000721E+02 0.  0.
        -12    1    3    3    0    0 -0.21730680961E+00  0.15544601144E+02 -0.40520876264E+02  0.43400728797E+02  0.00000000000E+00 0.  1.
         11    1    4    4    0    0 -0.49767775600E+01 -0.90346011769E-01  0.11775378161E+02  0.12784209338E+02  0.51100000000E-03 0. -1.
        -11    1    4    4    0    0 -0.23604807941E+01 -0.10467295839E+02  0.13166083339E+02  0.16984755003E+02  0.51100000000E-03 0.  1.
         12    1    4    4    0    0  0.75545651637E+01 -0.49869592928E+01  0.15579414763E+02  0.18018306862E+02  0.00000000000E+00 0. -1.
</event>
<event>
 8    1  0.2994958E-010  0.9118800E+02  0.7816164E-02  0.1184000E+00
        -11   -1    0    0    0    0  0.00000000000E+00  0.00000000000E+00  0.45593999997E+02  0.45594000000E+02  0.51100000000E-03 0. -1.
         11   -1    0    0    0    0 -0.00000000000E+00 -0.00000000000E+00 -0.45593999997E+02  0.45594000000E+02  0.51100000000E-03 0.  1.
         23    2    1    2    0    0  0.00000000000E+00  0.17763568394E-14 -0.35527136788E-14  0.91188000000E+02  0.91188000000E+02 0.  0.
    9900012    2    3    3    0    0 -0.34854190193E+02 -0.96372431952E+01  0.23998589363E+02  0.47787270493E+02  0.19999997484E+02 0.  0.
        -12    1    3    3    0    0  0.34854190193E+02  0.96372431952E+01 -0.23998589363E+02  0.43400729507E+02  0.00000000000E+00 0.  1.
         11    1    4    4    0    0 -0.13505917615E+02 -0.56650775714E+01  0.39023598762E+01  0.15156890426E+02  0.51100000000E-03 0. -1.
        -11    1    4    4    0    0 -0.71661782914E+01 -0.78681810433E+01  0.11159289381E+02  0.15420509848E+02  0.51100000000E-03 0.  1.
         12    1    4    4    0    0 -0.14182094286E+02  0.38960154196E+01  0.89369401058E+01  0.17209870219E+02  0.00000000000E+00 0. -1.
</event>
<event>
 8    1  0.2994958E-010  0.9118800E+02  0.7816164E-02  0.1184000E+00
        -11   -1    0    0    0    0  0.00000000000E+00  0.00000000000E+00  0.45593999997E+02  0.45594000000E+02  0.51100000000E-03 0. -1.
         11   -1    0    0    0    0 -0.00000000000E+00 -0.00000000000E+00 -0.45593999997E+02  0.45594000000E+02  0.51100000000E-03 0.  1.
         23    2    1    2    0    0 -0.35527136788E-14  0.00000000000E+00  0.00000000000E+00  0.91188000000E+02  0.91188000000E+02 0.  0.
    9900012    2    3    3    0    0  0.28691632578E+02  0.21157087812E+02  0.24754609029E+02  0.47787276356E+02  0.20000024216E+02 0.  0.
        -12    1    3    3    0    0 -0.28691632578E+02 -0.21157087812E+02 -0.24754609029E+02  0.43400723644E+02  0.00000000000E+00 0.  1.
         11    1    4    4    0    0  0.44998110756E+01 -0.39353826150E-01  0.54893613093E+01  0.70980938487E+01  0.51100000000E-03 0. -1.
        -11    1    4    4    0    0  0.11806214569E+02  0.87337866588E+00  0.84645418000E+01  0.14553280073E+02  0.51100000000E-03 0.  1.
         12    1    4    4    0    0  0.12385606933E+02  0.20323062972E+02  0.10800705920E+02  0.26135902434E+02  0.00000000000E+00 0. -1.
</event>
<event>
 8    1  0.2994958E-010  0.9118800E+02  0.7816164E-02  0.1184000E+00
        -11   -1    0    0    0    0  0.00000000000E+00  0.00000000000E+00  0.45593999997E+02  0.45594000000E+02  0.51100000000E-03 0. -1.
         11   -1    0    0    0    0 -0.00000000000E+00 -0.00000000000E+00 -0.45593999997E+02  0.45594000000E+02  0.51100000000E-03 0.  1.
         23    2    1    2    0    0  0.35527136788E-14  0.00000000000E+00  0.00000000000E+00  0.91188000000E+02  0.91188000000E+02 0.  0.
    9900012    2    3    3    0    0  0.21957170558E+02  0.17659885549E+02 -0.33009602689E+02  0.47787276894E+02  0.20000026669E+02 0.  0.
         12    1    3    3    0    0 -0.21957170558E+02 -0.17659885549E+02  0.33009602689E+02  0.43400723106E+02  0.00000000000E+00 0. -1.
         11    1    4    4    0    0  0.12020327912E+01  0.78297157533E+01 -0.64550740154E+01  0.10218478968E+02  0.51100000000E-03 0. -1.
        -11    1    4    4    0    0  0.12134764178E+02  0.11468761455E+02 -0.22185470141E+02  0.27766527990E+02  0.51100000000E-03 0.  1.
         12    1    4    4    0    0  0.86203735890E+01 -0.16385916599E+01 -0.43690585319E+01  0.98022699359E+01  0.00000000000E+00 0. -1.
</event>
<event>
 8    1  0.2994958E-010  0.9118800E+02  0.7816164E-02  0.1184000E+00
        -11   -1    0    0    0    0  0.00000000000E+00  0.00000000000E+00  0.45593999997E+02  0.45594000000E+02  0.51100000000E-03 0. -1.
         11   -1    0    0    0    0 -0.00000000000E+00 -0.00000000000E+00 -0.45593999997E+02  0.45594000000E+02  0.51100000000E-03 0.  1.
         23    2    1    2    0    0  0.00000000000E+00  0.00000000000E+00  0.00000000000E+00  0.91188000000E+02  0.91188000000E+02 0.  0.
    9900012    2    3    3    0    0 -0.10015528954E+02  0.28788106803E+02  0.30895930287E+02  0.47787257819E+02  0.19999939701E+02 0.  0.
        -12    1    3    3    0    0  0.10015528954E+02 -0.28788106803E+02 -0.30895930287E+02  0.43400742181E+02  0.00000000000E+00 0.  1.
         11    1    4    4    0    0  0.59818271176E+00  0.54152907923E+01  0.93511172449E+01  0.10822503911E+02  0.51100000000E-03 0. -1.
        -11    1    4    4    0    0 -0.56509679638E+01  0.26830271794E+00  0.12025095027E+01  0.57837232508E+01  0.51100000000E-03 0.  1.
        -12    1    4    4    0    0 -0.49627437024E+01  0.23104513293E+02  0.20342303539E+02  0.31181030657E+02  0.00000000000E+00 0.  1.
</event>
<event>
 8    1  0.2994958E-010  0.9118800E+02  0.7816164E-02  0.1184000E+00
        -11   -1    0    0    0    0  0.00000000000E+00  0.00000000000E+00  0.45593999997E+02  0.45594000000E+02  0.51100000000E-03 0. -1.
         11   -1    0    0    0    0 -0.00000000000E+00 -0.00000000000E+00 -0.45593999997E+02  0.45594000000E+02  0.51100000000E-03 0.  1.
         23    2    1    2    0    0  0.00000000000E+00 -0.17763568394E-14  0.00000000000E+00  0.91188000000E+02  0.91188000000E+02 0.  0.
    9900012    2    3    3    0    0  0.96601006465E+01 -0.93080139537E+01  0.41275495060E+02  0.47787272348E+02  0.20000005945E+02 0.  0.
        -12    1    3    3    0    0 -0.96601006465E+01  0.93080139537E+01 -0.41275495060E+02  0.43400727652E+02  0.00000000000E+00 0.  1.
         11    1    4    4    0    0 -0.19569621644E+01 -0.52093111213E+00  0.21119008637E+02  0.21215880755E+02  0.51100000000E-03 0. -1.
        -11    1    4    4    0    0 -0.33557730819E+00 -0.10268231741E+01 -0.71739383101E+00  0.12967775949E+01  0.51100000000E-03 0.  1.
        -12    1    4    4    0    0  0.11952640119E+02 -0.77602596675E+01  0.20873880253E+02  0.25274613998E+02  0.00000000000E+00 0.  1.
</event>
<event>
 8    1  0.2994958E-010  0.9118800E+02  0.7816164E-02  0.1184000E+00
        -11   -1    0    0    0    0  0.00000000000E+00  0.00000000000E+00  0.45593999997E+02  0.45594000000E+02  0.51100000000E-03 0. -1.
         11   -1    0    0    0    0 -0.00000000000E+00 -0.00000000000E+00 -0.45593999997E+02  0.45594000000E+02  0.51100000000E-03 0.  1.
         23    2    1    2    0    0  0.88817841970E-15  0.00000000000E+00  0.00000000000E+00  0.91188000000E+02  0.91188000000E+02 0.  0.
    9900012    2    3    3    0    0 -0.68893552273E+01  0.38369988226E+02  0.19076233688E+02  0.47787286830E+02  0.20000071973E+02 0.  0.
        -12    1    3    3    0    0  0.68893552273E+01 -0.38369988226E+02 -0.19076233688E+02  0.43400713170E+02  0.00000000000E+00 0.  1.
         11    1    4    4    0    0  0.38205156536E+01  0.17263649702E+01  0.30419921858E+00  0.42034763346E+01  0.51100000000E-03 0.  1.
        -11    1    4    4    0    0 -0.10505319605E+01  0.72703307825E+01  0.79492797900E+01  0.10823695142E+02  0.51100000000E-03 0. -1.
         12    1    4    4    0    0 -0.96593389204E+01  0.29373292474E+02  0.10822754680E+02  0.32760115353E+02  0.00000000000E+00 0. -1.
</event>
<event>
 8    1  0.2994958E-010  0.9118800E+02  0.7816164E-02  0.1184000E+00
        -11   -1    0    0    0    0  0.00000000000E+00  0.00000000000E+00  0.45593999997E+02  0.45594000000E+02  0.51100000000E-03 0. -1.
         11   -1    0    0    0    0 -0.00000000000E+00 -0.00000000000E+00 -0.45593999997E+02  0.45594000000E+02  0.51100000000E-03 0.  1.
         23    2    1    2    0    0  0.00000000000E+00  0.00000000000E+00  0.00000000000E+00  0.91188000000E+02  0.91188000000E+02 0.  0.
    9900012    2    3    3    0    0  0.19011338672E+01  0.44277064670E+01  0.43132442913E+02  0.47787233576E+02  0.19999829165E+02 0.  0.
        -12    1    3    3    0    0 -0.19011338672E+01 -0.44277064670E+01 -0.43132442913E+02  0.43400766424E+02  0.00000000000E+00 0.  1.
         11    1    4    4    0    0  0.28229814154E+01 -0.44449143758E+01  0.11023093487E+02  0.12216180998E+02  0.51100000000E-03 0. -1.
        -11    1    4    4    0    0 -0.16758268164E+01 -0.73856388964E+00  0.20042136229E+02  0.20125632835E+02  0.51100000000E-03 0.  1.
         12    1    4    4    0    0  0.75397926819E+00  0.96111847324E+01  0.12067213197E+02  0.15445419743E+02  0.00000000000E+00 0. -1.
</event>
<event>
 8    1  0.2994958E-010  0.9118800E+02  0.7816164E-02  0.1184000E+00
        -11   -1    0    0    0    0  0.00000000000E+00  0.00000000000E+00  0.45593999997E+02  0.45594000000E+02  0.51100000000E-03 0. -1.
         11   -1    0    0    0    0 -0.00000000000E+00 -0.00000000000E+00 -0.45593999997E+02  0.45594000000E+02  0.51100000000E-03 0.  1.
         23    2    1    2    0    0  0.00000000000E+00  0.00000000000E+00  0.00000000000E+00  0.91188000000E+02  0.91188000000E+02 0.  0.
    9900012    2    3    3    0    0 -0.23967193288E+02  0.18624033478E+02 -0.31021640043E+02  0.47787272724E+02  0.20000007659E+02 0.  0.
         12    1    3    3    0    0  0.23967193288E+02 -0.18624033478E+02  0.31021640043E+02  0.43400727276E+02  0.00000000000E+00 0. -1.
         11    1    4    4    0    0  0.96099303299E+00  0.74751830979E+00  0.16228616756E+01  0.20287857236E+01  0.51100000000E-03 0. -1.
        -11    1    4    4    0    0 -0.38656953663E+01  0.47177057836E+01 -0.12008897683E+02  0.13469000422E+02  0.51100000000E-03 0.  1.
        -12    1    4    4    0    0 -0.21062490955E+02  0.13158809385E+02 -0.20635604035E+02  0.32289486579E+02  0.00000000000E+00 0.  1.
</event>
<event>
 8    1  0.2994958E-010  0.9118800E+02  0.7816164E-02  0.1184000E+00
        -11   -1    0    0    0    0  0.00000000000E+00  0.00000000000E+00  0.45593999997E+02  0.45594000000E+02  0.51100000000E-03 0. -1.
         11   -1    0    0    0    0 -0.00000000000E+00 -0.00000000000E+00 -0.45593999997E+02  0.45594000000E+02  0.51100000000E-03 0.  1.
         23    2    1    2    0    0 -0.17763568394E-14  0.17763568394E-14 -0.71054273576E-14  0.91188000000E+02  0.91188000000E+02 0.  0.
    9900012    2    3    3    0    0  0.90864153535E+01 -0.14180699547E+02  0.39999604490E+02  0.47787267945E+02  0.19999985866E+02 0.  0.
        -12    1    3    3    0    0 -0.90864153535E+01  0.14180699547E+02 -0.39999604490E+02  0.43400732055E+02  0.00000000000E+00 0.  1.
         11    1    4    4    0    0  0.22431040680E+00 -0.76600837767E+00  0.41518271636E+01  0.42278544264E+01  0.51100000000E-03 0. -1.
        -11    1    4    4    0    0  0.43555166684E+00 -0.21673846005E+01 -0.21268367140E+01  0.30676857613E+01  0.51100000000E-03 0.  1.
         12    1    4    4    0    0  0.84265532798E+01 -0.11247306568E+02  0.37974614040E+02  0.40491727757E+02  0.00000000000E+00 0. -1.
</event>
<event>
 8    1  0.2994958E-010  0.9118800E+02  0.7816164E-02  0.1184000E+00
        -11   -1    0    0    0    0  0.00000000000E+00  0.00000000000E+00  0.45593999997E+02  0.45594000000E+02  0.51100000000E-03 0. -1.
         11   -1    0    0    0    0 -0.00000000000E+00 -0.00000000000E+00 -0.45593999997E+02  0.45594000000E+02  0.51100000000E-03 0.  1.
         23    2    1    2    0    0 -0.88817841970E-15  0.44408920985E-15 -0.71054273576E-14  0.91188000000E+02  0.91188000000E+02 0.  0.
    9900012    2    3    3    0    0 -0.63035437957E+01  0.21636217845E+01 -0.42885938282E+02  0.47787313071E+02  0.20000191613E+02 0.  0.
         12    1    3    3    0    0  0.63035437957E+01 -0.21636217845E+01  0.42885938282E+02  0.43400686929E+02  0.00000000000E+00 0. -1.
         11    1    4    4    0    0 -0.41589391684E+01 -0.38286938706E+01 -0.81820393418E+01  0.99449203020E+01  0.51100000000E-03 0. -1.
        -11    1    4    4    0    0  0.36343803775E+01 -0.19405749367E+01 -0.45823012110E+01  0.61621454432E+01  0.51100000000E-03 0.  1.
         12    1    4    4    0    0 -0.57789850049E+01  0.79328905917E+01 -0.30121597729E+02  0.31680247325E+02  0.00000000000E+00 0. -1.
</event>
<event>
 8    1  0.2994958E-010  0.9118800E+02  0.7816164E-02  0.1184000E+00
        -11   -1    0    0    0    0  0.00000000000E+00  0.00000000000E+00  0.45593999997E+02  0.45594000000E+02  0.51100000000E-03 0. -1.
         11   -1    0    0    0    0 -0.00000000000E+00 -0.00000000000E+00 -0.45593999997E+02  0.45594000000E+02  0.51100000000E-03 0.  1.
         23    2    1    2    0    0  0.00000000000E+00 -0.35527136788E-14  0.00000000000E+00  0.91188000000E+02  0.91188000000E+02 0.  0.
    9900012    2    3    3    0    0 -0.22634251305E+02 -0.22626932753E+02  0.29314443905E+02  0.47787262225E+02  0.19999959789E+02 0.  0.
        -12    1    3    3    0    0  0.22634251305E+02  0.22626932753E+02 -0.29314443905E+02  0.43400737775E+02  0.00000000000E+00 0.  1.
         11    1    4    4    0    0 -0.52378316351E+01 -0.62318605432E+01  0.71896153569E+01  0.10861009866E+02  0.51100000000E-03 0. -1.
        -11    1    4    4    0    0 -0.11063317311E+01 -0.36448718721E+01 -0.26576530837E+01  0.46445862074E+01  0.51100000000E-03 0.  1.
         12    1    4    4    0    0 -0.16290087939E+02 -0.12750200338E+02  0.24782481631E+02  0.32281666152E+02  0.00000000000E+00 0. -1.
</event>
<event>
 8    1  0.2994958E-010  0.9118800E+02  0.7816164E-02  0.1184000E+00
        -11   -1    0    0    0    0  0.00000000000E+00  0.00000000000E+00  0.45593999997E+02  0.45594000000E+02  0.51100000000E-03 0. -1.
         11   -1    0    0    0    0 -0.00000000000E+00 -0.00000000000E+00 -0.45593999997E+02  0.45594000000E+02  0.51100000000E-03 0.  1.
         23    2    1    2    0    0 -0.35527136788E-14  0.35527136788E-14  0.00000000000E+00  0.91188000000E+02  0.91188000000E+02 0.  0.
    9900012    2    3    3    0    0 -0.21178876140E+02  0.29659337182E+02  0.23567007628E+02  0.47787252021E+02  0.19999913262E+02 0.  0.
        -12    1    3    3    0    0  0.21178876140E+02 -0.29659337182E+02 -0.23567007628E+02  0.43400747979E+02  0.00000000000E+00 0.  1.
         11    1    4    4    0    0 -0.16965179361E+02  0.12359672441E+02  0.20746810487E+02  0.29512860913E+02  0.51100000000E-03 0. -1.
        -11    1    4    4    0    0 -0.10101125261E+01  0.45621284343E+01 -0.57653846216E+00  0.47080505547E+01  0.51100000000E-03 0.  1.
         12    1    4    4    0    0 -0.32035842531E+01  0.12737536307E+02  0.33967356024E+01  0.13566340553E+02  0.00000000000E+00 0. -1.
</event>
<event>
 8    1  0.2994958E-010  0.9118800E+02  0.7816164E-02  0.1184000E+00
        -11   -1    0    0    0    0  0.00000000000E+00  0.00000000000E+00  0.45593999997E+02  0.45594000000E+02  0.51100000000E-03 0.  1.
         11   -1    0    0    0    0 -0.00000000000E+00 -0.00000000000E+00 -0.45593999997E+02  0.45594000000E+02  0.51100000000E-03 0. -1.
         23    2    1    2    0    0  0.00000000000E+00  0.71054273576E-14  0.17763568394E-14  0.91188000000E+02  0.91188000000E+02 0.  0.
    9900012    2    3    3    0    0 -0.18617167607E+02 -0.37375692657E+02 -0.11835846195E+02  0.47787209841E+02  0.19999720947E+02 0.  0.
         12    1    3    3    0    0  0.18617167607E+02  0.37375692657E+02  0.11835846195E+02  0.43400790159E+02  0.00000000000E+00 0. -1.
         11    1    4    4    0    0  0.18196227601E+01 -0.18837124689E+01  0.14120663412E+01  0.29754548001E+01  0.51100000000E-03 0. -1.
        -11    1    4    4    0    0 -0.81545277945E+01 -0.75915959632E+01  0.95328947133E+00  0.11182012963E+02  0.51100000000E-03 0.  1.
         12    1    4    4    0    0 -0.12282262573E+02 -0.27900384225E+02 -0.14201202008E+02  0.33629742078E+02  0.00000000000E+00 0. -1.
</event>
<event>
 8    1  0.2994958E-010  0.9118800E+02  0.7816164E-02  0.1184000E+00
        -11   -1    0    0    0    0  0.00000000000E+00  0.00000000000E+00  0.45593999997E+02  0.45594000000E+02  0.51100000000E-03 0. -1.
         11   -1    0    0    0    0 -0.00000000000E+00 -0.00000000000E+00 -0.45593999997E+02  0.45594000000E+02  0.51100000000E-03 0.  1.
         23    2    1    2    0    0  0.00000000000E+00 -0.88817841970E-15  0.00000000000E+00  0.91188000000E+02  0.91188000000E+02 0.  0.
    9900012    2    3    3    0    0  0.17116755278E+02  0.72374328797E+01 -0.39220652392E+02  0.47787270513E+02  0.19999997579E+02 0.  0.
         12    1    3    3    0    0 -0.17116755278E+02 -0.72374328797E+01  0.39220652392E+02  0.43400729487E+02  0.00000000000E+00 0. -1.
         11    1    4    4    0    0  0.42628604309E+01  0.24661942270E+01 -0.21929149286E+01  0.53910081769E+01  0.51100000000E-03 0. -1.
        -11    1    4    4    0    0  0.11363222726E+02  0.10026332741E+02 -0.28240550675E+02  0.32049631537E+02  0.51100000000E-03 0.  1.
         12    1    4    4    0    0  0.14906721209E+01 -0.52550940886E+01 -0.87871867880E+01  0.10346630799E+02  0.00000000000E+00 0. -1.
</event>
<event>
 8    1  0.2994958E-010  0.9118800E+02  0.7816164E-02  0.1184000E+00
        -11   -1    0    0    0    0  0.00000000000E+00  0.00000000000E+00  0.45593999997E+02  0.45594000000E+02  0.51100000000E-03 0. -1.
         11   -1    0    0    0    0 -0.00000000000E+00 -0.00000000000E+00 -0.45593999997E+02  0.45594000000E+02  0.51100000000E-03 0.  1.
         23    2    1    2    0    0 -0.17763568394E-14  0.17763568394E-14 -0.71054273576E-14  0.91188000000E+02  0.91188000000E+02 0.  0.
    9900012    2    3    3    0    0 -0.70550547396E+01 -0.14683170666E+02 -0.40227521030E+02  0.47787277121E+02  0.20000027705E+02 0.  0.
         12    1    3    3    0    0  0.70550547396E+01  0.14683170666E+02  0.40227521030E+02  0.43400722879E+02  0.00000000000E+00 0. -1.
         11    1    4    4    0    0 -0.59207218818E+01 -0.34354197882E+01 -0.16518649491E+02  0.17880795228E+02  0.51100000000E-03 0. -1.
        -11    1    4    4    0    0 -0.74835299927E+01 -0.82168426831E+01 -0.15852837271E+02  0.19360583014E+02  0.51100000000E-03 0.  1.
         12    1    4    4    0    0  0.63491971349E+01 -0.30309081950E+01 -0.78560342676E+01  0.10545898879E+02  0.00000000000E+00 0. -1.
</event>
<event>
 8    1  0.2994958E-010  0.9118800E+02  0.7816164E-02  0.1184000E+00
        -11   -1    0    0    0    0  0.00000000000E+00  0.00000000000E+00  0.45593999997E+02  0.45594000000E+02  0.51100000000E-03 0. -1.
         11   -1    0    0    0    0 -0.00000000000E+00 -0.00000000000E+00 -0.45593999997E+02  0.45594000000E+02  0.51100000000E-03 0.  1.
         23    2    1    2    0    0  0.35527136788E-14  0.00000000000E+00  0.35527136788E-14  0.91188000000E+02  0.91188000000E+02 0.  0.
    9900012    2    3    3    0    0  0.25584464788E+02  0.29972058795E+02  0.18186103002E+02  0.47787268563E+02  0.19999988684E+02 0.  0.
        -12    1    3    3    0    0 -0.25584464788E+02 -0.29972058795E+02 -0.18186103002E+02  0.43400731437E+02  0.00000000000E+00 0.  1.
         11    1    4    4    0    0 -0.15439099298E+01  0.32762514797E+00  0.18822165041E+01  0.24563662875E+01  0.51100000000E-03 0. -1.
        -11    1    4    4    0    0  0.80172818261E+01  0.37038125062E+01  0.83263362198E+01  0.12137664935E+02  0.51100000000E-03 0.  1.
         12    1    4    4    0    0  0.19111092892E+02  0.25940621141E+02  0.79775502781E+01  0.33193237340E+02  0.00000000000E+00 0. -1.
</event>
<event>
 8    1  0.2994958E-010  0.9118800E+02  0.7816164E-02  0.1184000E+00
        -11   -1    0    0    0    0  0.00000000000E+00  0.00000000000E+00  0.45593999997E+02  0.45594000000E+02  0.51100000000E-03 0.  1.
         11   -1    0    0    0    0 -0.00000000000E+00 -0.00000000000E+00 -0.45593999997E+02  0.45594000000E+02  0.51100000000E-03 0. -1.
         23    2    1    2    0    0 -0.71054273576E-14  0.00000000000E+00  0.00000000000E+00  0.91188000000E+02  0.91188000000E+02 0.  0.
    9900012    2    3    3    0    0  0.41720317609E+02 -0.21551104439E+01  0.11764098962E+02  0.47787269282E+02  0.19999991967E+02 0.  0.
        -12    1    3    3    0    0 -0.41720317609E+02  0.21551104439E+01 -0.11764098962E+02  0.43400730718E+02  0.00000000000E+00 0.  1.
         11    1    4    4    0    0  0.24396927434E+01  0.18516228025E+00 -0.27782915047E+01  0.37020655989E+01  0.51100000000E-03 0. -1.
        -11    1    4    4    0    0  0.20277128948E+02 -0.76262513547E+00  0.31553438821E+00  0.20293918243E+02  0.51100000000E-03 0.  1.
        -12    1    4    4    0    0  0.19003495918E+02 -0.15776475887E+01  0.14226856079E+02  0.23791285440E+02  0.00000000000E+00 0.  1.
</event>
<event>
 8    1  0.2994958E-010  0.9118800E+02  0.7816164E-02  0.1184000E+00
        -11   -1    0    0    0    0  0.00000000000E+00  0.00000000000E+00  0.45593999997E+02  0.45594000000E+02  0.51100000000E-03 0. -1.
         11   -1    0    0    0    0 -0.00000000000E+00 -0.00000000000E+00 -0.45593999997E+02  0.45594000000E+02  0.51100000000E-03 0.  1.
         23    2    1    2    0    0 -0.17763568394E-14 -0.35527136788E-14  0.00000000000E+00  0.91188000000E+02  0.91188000000E+02 0.  0.
    9900012    2    3    3    0    0 -0.12086232420E+02 -0.27286952144E+02 -0.31511404384E+02  0.47787269848E+02  0.19999994546E+02 0.  0.
         12    1    3    3    0    0  0.12086232420E+02  0.27286952144E+02  0.31511404384E+02  0.43400730152E+02  0.00000000000E+00 0. -1.
         11    1    4    4    0    0 -0.10043548913E+02 -0.15688019480E+02 -0.14684654494E+02  0.23719736673E+02  0.51100000000E-03 0. -1.
        -11    1    4    4    0    0 -0.58581938214E+01 -0.11249564600E+02 -0.96685391989E+01  0.15948410236E+02  0.51100000000E-03 0.  1.
         12    1    4    4    0    0  0.38155103142E+01 -0.34936806350E+00 -0.71582106914E+01  0.81191229394E+01  0.00000000000E+00 0. -1.
</event>
<event>
 8    1  0.2994958E-010  0.9118800E+02  0.7816164E-02  0.1184000E+00
        -11   -1    0    0    0    0  0.00000000000E+00  0.00000000000E+00  0.45593999997E+02  0.45594000000E+02  0.51100000000E-03 0. -1.
         11   -1    0    0    0    0 -0.00000000000E+00 -0.00000000000E+00 -0.45593999997E+02  0.45594000000E+02  0.51100000000E-03 0.  1.
         23    2    1    2    0    0  0.00000000000E+00  0.44408920985E-15  0.00000000000E+00  0.91188000000E+02  0.91188000000E+02 0.  0.
    9900012    2    3    3    0    0 -0.24756822790E+02 -0.73923718427E+00  0.35639532547E+02  0.47787273895E+02  0.20000012998E+02 0.  0.
        -12    1    3    3    0    0  0.24756822790E+02  0.73923718427E+00 -0.35639532547E+02  0.43400726105E+02  0.00000000000E+00 0.  1.
         11    1    4    4    0    0 -0.14441992263E+02  0.41159543714E+01  0.10645648033E+02  0.18407662622E+02  0.51100000000E-03 0. -1.
        -11    1    4    4    0    0 -0.72247544636E+01  0.17743122868E-01  0.55867553421E+01  0.91328652345E+01  0.51100000000E-03 0.  1.
        -12    1    4    4    0    0 -0.30900760634E+01 -0.48729346786E+01  0.19407129172E+02  0.20246746039E+02  0.00000000000E+00 0.  1.
</event>
<event>
 8    1  0.2994958E-010  0.9118800E+02  0.7816164E-02  0.1184000E+00
        -11   -1    0    0    0    0  0.00000000000E+00  0.00000000000E+00  0.45593999997E+02  0.45594000000E+02  0.51100000000E-03 0. -1.
         11   -1    0    0    0    0 -0.00000000000E+00 -0.00000000000E+00 -0.45593999997E+02  0.45594000000E+02  0.51100000000E-03 0.  1.
         23    2    1    2    0    0  0.00000000000E+00 -0.71054273576E-14 -0.35527136788E-14  0.91188000000E+02  0.91188000000E+02 0.  0.
    9900012    2    3    3    0    0 -0.81998969260E+01 -0.38217641373E+02 -0.18862575984E+02  0.47787271960E+02  0.20000004173E+02 0.  0.
         12    1    3    3    0    0  0.81998969260E+01  0.38217641373E+02  0.18862575984E+02  0.43400728040E+02  0.00000000000E+00 0. -1.
         11    1    4    4    0    0 -0.20353914006E-01  0.86444085003E+00 -0.33559702481E+01  0.34655748199E+01  0.51100000000E-03 0. -1.
        -11    1    4    4    0    0 -0.17754243822E+00  0.57284311756E+00  0.53433217276E+00  0.80323202543E+00  0.51100000000E-03 0.  1.
        -12    1    4    4    0    0 -0.80020005737E+01 -0.39654925340E+02 -0.16040937908E+02  0.43518465114E+02  0.00000000000E+00 0.  1.
</event>
<event>
 8    1  0.2994958E-010  0.9118800E+02  0.7816164E-02  0.1184000E+00
        -11   -1    0    0    0    0  0.00000000000E+00  0.00000000000E+00  0.45593999997E+02  0.45594000000E+02  0.51100000000E-03 0.  1.
         11   -1    0    0    0    0 -0.00000000000E+00 -0.00000000000E+00 -0.45593999997E+02  0.45594000000E+02  0.51100000000E-03 0. -1.
         23    2    1    2    0    0  0.00000000000E+00 -0.71054273576E-14 -0.17763568394E-14  0.91188000000E+02  0.91188000000E+02 0.  0.
    9900012    2    3    3    0    0  0.16683832388E+02 -0.38987188421E+02 -0.92343137639E+01  0.47787266425E+02  0.19999978939E+02 0.  0.
        -12    1    3    3    0    0 -0.16683832388E+02  0.38987188421E+02  0.92343137639E+01  0.43400733575E+02  0.00000000000E+00 0.  1.
         11    1    4    4    0    0  0.61978144068E+01 -0.15941186868E+02 -0.68005914190E+01  0.18406042108E+02  0.51100000000E-03 0. -1.
        -11    1    4    4    0    0  0.61066061440E+01 -0.42211595872E+01 -0.62216880270E+01  0.96859810564E+01  0.51100000000E-03 0.  1.
         12    1    4    4    0    0  0.43794118375E+01 -0.18824841966E+02  0.37879656821E+01  0.19695243260E+02  0.00000000000E+00 0. -1.
</event>
<event>
 8    1  0.2994958E-010  0.9118800E+02  0.7816164E-02  0.1184000E+00
        -11   -1    0    0    0    0  0.00000000000E+00  0.00000000000E+00  0.45593999997E+02  0.45594000000E+02  0.51100000000E-03 0. -1.
         11   -1    0    0    0    0 -0.00000000000E+00 -0.00000000000E+00 -0.45593999997E+02  0.45594000000E+02  0.51100000000E-03 0.  1.
         23    2    1    2    0    0  0.35527136788E-14 -0.17763568394E-14  0.00000000000E+00  0.91188000000E+02  0.91188000000E+02 0.  0.
    9900012    2    3    3    0    0 -0.25490806710E+02 -0.12722695392E+02 -0.32741030357E+02  0.47787271048E+02  0.20000000015E+02 0.  0.
         12    1    3    3    0    0  0.25490806710E+02  0.12722695392E+02  0.32741030357E+02  0.43400728952E+02  0.00000000000E+00 0. -1.
         11    1    4    4    0    0 -0.11142477582E+02 -0.11202936296E+02 -0.19165937263E+02  0.24839358683E+02  0.51100000000E-03 0. -1.
        -11    1    4    4    0    0 -0.11643235665E+01 -0.30573735489E+01 -0.78272853857E+01  0.84834886194E+01  0.51100000000E-03 0.  1.
         12    1    4    4    0    0 -0.13184005562E+02  0.15376144532E+01 -0.57478077078E+01  0.14464423746E+02  0.00000000000E+00 0. -1.
</event>
<event>
 8    1  0.2994958E-010  0.9118800E+02  0.7816164E-02  0.1184000E+00
        -11   -1    0    0    0    0  0.00000000000E+00  0.00000000000E+00  0.45593999997E+02  0.45594000000E+02  0.51100000000E-03 0. -1.
         11   -1    0    0    0    0 -0.00000000000E+00 -0.00000000000E+00 -0.45593999997E+02  0.45594000000E+02  0.51100000000E-03 0.  1.
         23    2    1    2    0    0  0.88817841970E-15  0.00000000000E+00 -0.71054273576E-14  0.91188000000E+02  0.91188000000E+02 0.  0.
    9900012    2    3    3    0    0 -0.51359408966E+01 -0.11448805873E+02  0.41547191300E+02  0.47787283995E+02  0.20000059048E+02 0.  0.
        -12    1    3    3    0    0  0.51359408966E+01  0.11448805873E+02 -0.41547191300E+02  0.43400716005E+02  0.00000000000E+00 0.  1.
         11    1    4    4    0    0 -0.23697524907E+01 -0.27929119189E+01  0.78438500509E+00  0.37458435566E+01  0.51100000000E-03 0.  1.
        -11    1    4    4    0    0 -0.47093766707E+01 -0.27101481380E+01  0.35362774986E+02  0.35777772241E+02  0.51100000000E-03 0. -1.
         12    1    4    4    0    0  0.19431882647E+01 -0.59457458164E+01  0.54000313085E+01  0.82636681975E+01  0.00000000000E+00 0. -1.
</event>
<event>
 8    1  0.2994958E-010  0.9118800E+02  0.7816164E-02  0.1184000E+00
        -11   -1    0    0    0    0  0.00000000000E+00  0.00000000000E+00  0.45593999997E+02  0.45594000000E+02  0.51100000000E-03 0. -1.
         11   -1    0    0    0    0 -0.00000000000E+00 -0.00000000000E+00 -0.45593999997E+02  0.45594000000E+02  0.51100000000E-03 0.  1.
         23    2    1    2    0    0  0.00000000000E+00 -0.17763568394E-14  0.00000000000E+00  0.91188000000E+02  0.91188000000E+02 0.  0.
    9900012    2    3    3    0    0  0.12271421386E+02 -0.14392154600E+02  0.39062787700E+02  0.47787270976E+02  0.19999999690E+02 0.  0.
        -12    1    3    3    0    0 -0.12271421386E+02  0.14392154600E+02 -0.39062787700E+02  0.43400729024E+02  0.00000000000E+00 0.  1.
         11    1    4    4    0    0  0.10107209540E+01  0.43647448374E+01  0.79452667572E+01  0.91213934487E+01  0.51100000000E-03 0.  1.
        -11    1    4    4    0    0  0.39460575799E+01 -0.52329911829E+01  0.15110807980E+02  0.16470946700E+02  0.51100000000E-03 0. -1.
         12    1    4    4    0    0  0.73146428516E+01 -0.13523908255E+02  0.16006712963E+02  0.22194930827E+02  0.00000000000E+00 0. -1.
</event>
<event>
 8    1  0.2994958E-010  0.9118800E+02  0.7816164E-02  0.1184000E+00
        -11   -1    0    0    0    0  0.00000000000E+00  0.00000000000E+00  0.45593999997E+02  0.45594000000E+02  0.51100000000E-03 0. -1.
         11   -1    0    0    0    0 -0.00000000000E+00 -0.00000000000E+00 -0.45593999997E+02  0.45594000000E+02  0.51100000000E-03 0.  1.
         23    2    1    2    0    0  0.88817841970E-15 -0.88817841970E-15  0.00000000000E+00  0.91188000000E+02  0.91188000000E+02 0.  0.
    9900012    2    3    3    0    0 -0.58336382952E+01 -0.57783213086E+01  0.42616933859E+02  0.47787269771E+02  0.19999994194E+02 0.  0.
        -12    1    3    3    0    0  0.58336382952E+01  0.57783213086E+01 -0.42616933859E+02  0.43400730229E+02  0.00000000000E+00 0.  1.
         11    1    4    4    0    0 -0.48648415409E+01  0.23426606187E+01  0.15653342412E+02  0.16558438058E+02  0.51100000000E-03 0. -1.
        -11    1    4    4    0    0 -0.59914006549E+01 -0.32955752682E+01  0.58593922234E+01  0.90050083645E+01  0.51100000000E-03 0.  1.
        -12    1    4    4    0    0  0.50226039006E+01 -0.48254066591E+01  0.21104199223E+02  0.22223823348E+02  0.00000000000E+00 0.  1.
</event>
<event>
 8    1  0.2994958E-010  0.9118800E+02  0.7816164E-02  0.1184000E+00
        -11   -1    0    0    0    0  0.00000000000E+00  0.00000000000E+00  0.45593999997E+02  0.45594000000E+02  0.51100000000E-03 0. -1.
         11   -1    0    0    0    0 -0.00000000000E+00 -0.00000000000E+00 -0.45593999997E+02  0.45594000000E+02  0.51100000000E-03 0.  1.
         23    2    1    2    0    0  0.00000000000E+00  0.00000000000E+00  0.00000000000E+00  0.91188000000E+02  0.91188000000E+02 0.  0.
    9900012    2    3    3    0    0 -0.24302110212E+02 -0.17845762145E+02  0.31217934410E+02  0.47787271710E+02  0.20000003034E+02 0.  0.
        -12    1    3    3    0    0  0.24302110212E+02  0.17845762145E+02 -0.31217934410E+02  0.43400728290E+02  0.00000000000E+00 0.  1.
         11    1    4    4    0    0 -0.24885547733E+02 -0.12667982613E+02  0.23798493072E+02  0.36689733471E+02  0.51100000000E-03 0. -1.
        -11    1    4    4    0    0 -0.14082629526E+01 -0.15747375691E+01  0.65601587362E+01  0.68919290377E+01  0.51100000000E-03 0.  1.
        -12    1    4    4    0    0  0.19917004737E+01 -0.36030419624E+01  0.85928260228E+00  0.42056092009E+01  0.00000000000E+00 0.  1.
</event>
<event>
 8    1  0.2994958E-010  0.9118800E+02  0.7816164E-02  0.1184000E+00
        -11   -1    0    0    0    0  0.00000000000E+00  0.00000000000E+00  0.45593999997E+02  0.45594000000E+02  0.51100000000E-03 0. -1.
         11   -1    0    0    0    0 -0.00000000000E+00 -0.00000000000E+00 -0.45593999997E+02  0.45594000000E+02  0.51100000000E-03 0.  1.
         23    2    1    2    0    0 -0.35527136788E-14 -0.44408920985E-15 -0.71054273576E-14  0.91188000000E+02  0.91188000000E+02 0.  0.
    9900012    2    3    3    0    0 -0.20423047841E+02 -0.29470750947E+01 -0.38181635644E+02  0.47787269187E+02  0.19999991529E+02 0.  0.
         12    1    3    3    0    0  0.20423047841E+02  0.29470750947E+01  0.38181635644E+02  0.43400730813E+02  0.00000000000E+00 0. -1.
         11    1    4    4    0    0 -0.38632682791E+01  0.17171815810E+01  0.11891639514E+01  0.43917724830E+01  0.51100000000E-03 0. -1.
        -11    1    4    4    0    0 -0.33578896358E+01  0.10065815893E+01 -0.11739091723E+02  0.12251322542E+02  0.51100000000E-03 0.  1.
         12    1    4    4    0    0 -0.13201889926E+02 -0.56708382651E+01 -0.27631707872E+02  0.31144174161E+02  0.00000000000E+00 0. -1.
</event>
<event>
 8    1  0.2994958E-010  0.9118800E+02  0.7816164E-02  0.1184000E+00
        -11   -1    0    0    0    0  0.00000000000E+00  0.00000000000E+00  0.45593999997E+02  0.45594000000E+02  0.51100000000E-03 0. -1.
         11   -1    0    0    0    0 -0.00000000000E+00 -0.00000000000E+00 -0.45593999997E+02  0.45594000000E+02  0.51100000000E-03 0.  1.
         23    2    1    2    0    0  0.00000000000E+00 -0.17763568394E-14 -0.71054273576E-14  0.91188000000E+02  0.91188000000E+02 0.  0.
    9900012    2    3    3    0    0 -0.56016840223E+01 -0.15590800176E+02 -0.40114475726E+02  0.47787273315E+02  0.20000010353E+02 0.  0.
         12    1    3    3    0    0  0.56016840223E+01  0.15590800176E+02  0.40114475726E+02  0.43400726685E+02  0.00000000000E+00 0. -1.
         11    1    4    4    0    0 -0.24984804947E-01  0.15769115293E+01 -0.89328862128E+01  0.90710380092E+01  0.51100000000E-03 0. -1.
        -11    1    4    4    0    0  0.90895274195E+00  0.61435496611E+00  0.93203935747E+00  0.14395571321E+01  0.51100000000E-03 0.  1.
        -12    1    4    4    0    0 -0.64856519593E+01 -0.17782066671E+02 -0.32113628871E+02  0.37276678174E+02  0.00000000000E+00 0.  1.
</event>
<event>
 8    1  0.2994958E-010  0.9118800E+02  0.7816164E-02  0.1184000E+00
        -11   -1    0    0    0    0  0.00000000000E+00  0.00000000000E+00  0.45593999997E+02  0.45594000000E+02  0.51100000000E-03 0. -1.
         11   -1    0    0    0    0 -0.00000000000E+00 -0.00000000000E+00 -0.45593999997E+02  0.45594000000E+02  0.51100000000E-03 0.  1.
         23    2    1    2    0    0 -0.35527136788E-14 -0.35527136788E-14  0.00000000000E+00  0.91188000000E+02  0.91188000000E+02 0.  0.
    9900012    2    3    3    0    0  0.31978141206E+02  0.18299076528E+02  0.22938294304E+02  0.47787273481E+02  0.20000011110E+02 0.  0.
        -12    1    3    3    0    0 -0.31978141206E+02 -0.18299076528E+02 -0.22938294304E+02  0.43400726519E+02  0.00000000000E+00 0.  1.
         11    1    4    4    0    0 -0.20663704287E+01  0.32742565488E+01  0.92480909798E+00  0.39806927569E+01  0.51100000000E-03 0.  1.
        -11    1    4    4    0    0  0.18193026170E+02  0.42338388733E+01  0.10174144827E+02  0.21270280112E+02  0.51100000000E-03 0. -1.
        -12    1    4    4    0    0  0.15851485465E+02  0.10790981106E+02  0.11839340379E+02  0.22536300612E+02  0.00000000000E+00 0.  1.
</event>
<event>
 8    1  0.2994958E-010  0.9118800E+02  0.7816164E-02  0.1184000E+00
        -11   -1    0    0    0    0  0.00000000000E+00  0.00000000000E+00  0.45593999997E+02  0.45594000000E+02  0.51100000000E-03 0. -1.
         11   -1    0    0    0    0 -0.00000000000E+00 -0.00000000000E+00 -0.45593999997E+02  0.45594000000E+02  0.51100000000E-03 0.  1.
         23    2    1    2    0    0 -0.71054273576E-14  0.00000000000E+00  0.44408920985E-15  0.91188000000E+02  0.91188000000E+02 0.  0.
    9900012    2    3    3    0    0 -0.30481477911E+02  0.30885595440E+02  0.76430114152E+00  0.47787255104E+02  0.19999927320E+02 0.  0.
        -12    1    3    3    0    0  0.30481477911E+02 -0.30885595440E+02 -0.76430114152E+00  0.43400744896E+02  0.00000000000E+00 0.  1.
         11    1    4    4    0    0 -0.67505272822E+01  0.98512068179E+01  0.38261660044E+00  0.11948317458E+02  0.51100000000E-03 0. -1.
        -11    1    4    4    0    0 -0.48162158746E+01  0.13889629393E+02 -0.38170712895E+01  0.15188409183E+02  0.51100000000E-03 0.  1.
         12    1    4    4    0    0 -0.18914734754E+02  0.71447592293E+01  0.41987558306E+01  0.20650528463E+02  0.00000000000E+00 0. -1.
</event>
<event>
 8    1  0.2994958E-010  0.9118800E+02  0.7816164E-02  0.1184000E+00
        -11   -1    0    0    0    0  0.00000000000E+00  0.00000000000E+00  0.45593999997E+02  0.45594000000E+02  0.51100000000E-03 0. -1.
         11   -1    0    0    0    0 -0.00000000000E+00 -0.00000000000E+00 -0.45593999997E+02  0.45594000000E+02  0.51100000000E-03 0.  1.
         23    2    1    2    0    0  0.00000000000E+00  0.22204460493E-15  0.00000000000E+00  0.91188000000E+02  0.91188000000E+02 0.  0.
    9900012    2    3    3    0    0  0.50616811537E+01 -0.15757062492E+01  0.43075744797E+02  0.47787271249E+02  0.20000000933E+02 0.  0.
        -12    1    3    3    0    0 -0.50616811537E+01  0.15757062492E+01 -0.43075744797E+02  0.43400728751E+02  0.00000000000E+00 0.  1.
         11    1    4    4    0    0  0.24040913384E+01 -0.23725951689E+01  0.73797927924E+01  0.81160461383E+01  0.51100000000E-03 0. -1.
        -11    1    4    4    0    0 -0.40627323264E+01  0.23459830631E+01  0.17111815760E+01  0.49937534115E+01  0.51100000000E-03 0.  1.
        -12    1    4    4    0    0  0.67203221416E+01 -0.15490941434E+01  0.33984770429E+02  0.34677471699E+02  0.00000000000E+00 0.  1.
</event>
<event>
 8    1  0.2994958E-010  0.9118800E+02  0.7816164E-02  0.1184000E+00
        -11   -1    0    0    0    0  0.00000000000E+00  0.00000000000E+00  0.45593999997E+02  0.45594000000E+02  0.51100000000E-03 0. -1.
         11   -1    0    0    0    0 -0.00000000000E+00 -0.00000000000E+00 -0.45593999997E+02  0.45594000000E+02  0.51100000000E-03 0.  1.
         23    2    1    2    0    0 -0.71054273576E-14 -0.35527136788E-14  0.71054273576E-14  0.91188000000E+02  0.91188000000E+02 0.  0.
    9900012    2    3    3    0    0  0.23254170282E+02  0.23671916824E+02 -0.27973335646E+02  0.47787267416E+02  0.19999983458E+02 0.  0.
         12    1    3    3    0    0 -0.23254170282E+02 -0.23671916824E+02  0.27973335646E+02  0.43400732584E+02  0.00000000000E+00 0. -1.
         11    1    4    4    0    0  0.30384216084E+01 -0.99519264409E+00 -0.14760822449E+01  0.35215384882E+01  0.51100000000E-03 0. -1.
        -11    1    4    4    0    0  0.15293380054E+02  0.68297537656E+01 -0.14975708988E+02  0.22467863047E+02  0.51100000000E-03 0.  1.
         12    1    4    4    0    0  0.49223686196E+01  0.17837355702E+02 -0.11521544414E+02  0.21797865881E+02  0.00000000000E+00 0. -1.
</event>
<event>
 8    1  0.2994958E-010  0.9118800E+02  0.7816164E-02  0.1184000E+00
        -11   -1    0    0    0    0  0.00000000000E+00  0.00000000000E+00  0.45593999997E+02  0.45594000000E+02  0.51100000000E-03 0. -1.
         11   -1    0    0    0    0 -0.00000000000E+00 -0.00000000000E+00 -0.45593999997E+02  0.45594000000E+02  0.51100000000E-03 0.  1.
         23    2    1    2    0    0  0.44408920985E-15  0.44408920985E-15  0.00000000000E+00  0.91188000000E+02  0.91188000000E+02 0.  0.
    9900012    2    3    3    0    0  0.16713524266E+01 -0.21417818944E+01  0.43315615378E+02  0.47787272078E+02  0.20000004712E+02 0.  0.
        -12    1    3    3    0    0 -0.16713524266E+01  0.21417818944E+01 -0.43315615378E+02  0.43400727922E+02  0.00000000000E+00 0.  1.
         11    1    4    4    0    0  0.45485722217E+01 -0.13420186746E+01  0.11912450703E+02  0.12821739562E+02  0.51100000000E-03 0. -1.
        -11    1    4    4    0    0 -0.89588402619E+00 -0.38139076216E+01  0.61368819279E+00  0.39654902589E+01  0.51100000000E-03 0.  1.
         12    1    4    4    0    0 -0.19813357689E+01  0.30141444018E+01  0.30789476482E+02  0.31000042257E+02  0.00000000000E+00 0. -1.
</event>
<event>
 8    1  0.2994958E-010  0.9118800E+02  0.7816164E-02  0.1184000E+00
        -11   -1    0    0    0    0  0.00000000000E+00  0.00000000000E+00  0.45593999997E+02  0.45594000000E+02  0.51100000000E-03 0. -1.
         11   -1    0    0    0    0 -0.00000000000E+00 -0.00000000000E+00 -0.45593999997E+02  0.45594000000E+02  0.51100000000E-03 0.  1.
         23    2    1    2    0    0  0.00000000000E+00  0.17763568394E-14  0.00000000000E+00  0.91188000000E+02  0.91188000000E+02 0.  0.
    9900012    2    3    3    0    0 -0.16917076951E+02  0.13490851105E+02 -0.37622238398E+02  0.47787269843E+02  0.19999994522E+02 0.  0.
         12    1    3    3    0    0  0.16917076951E+02 -0.13490851105E+02  0.37622238398E+02  0.43400730157E+02  0.00000000000E+00 0. -1.
         11    1    4    4    0    0 -0.33664599490E+01  0.10110653891E+00  0.26498081155E+00  0.33783857406E+01  0.51100000000E-03 0. -1.
        -11    1    4    4    0    0  0.23323851968E+01  0.18346914654E+00 -0.24269312835E+01  0.33710053916E+01  0.51100000000E-03 0.  1.
         12    1    4    4    0    0 -0.15883002198E+02  0.13206275420E+02 -0.35460287926E+02  0.41037878711E+02  0.00000000000E+00 0. -1.
</event>
<event>
 8    1  0.2994958E-010  0.9118800E+02  0.7816164E-02  0.1184000E+00
        -11   -1    0    0    0    0  0.00000000000E+00  0.00000000000E+00  0.45593999997E+02  0.45594000000E+02  0.51100000000E-03 0. -1.
         11   -1    0    0    0    0 -0.00000000000E+00 -0.00000000000E+00 -0.45593999997E+02  0.45594000000E+02  0.51100000000E-03 0.  1.
         23    2    1    2    0    0  0.44408920985E-15  0.35527136788E-14  0.00000000000E+00  0.91188000000E+02  0.91188000000E+02 0.  0.
    9900012    2    3    3    0    0  0.33850624969E+01  0.22669733291E+02  0.36854414679E+02  0.47787270318E+02  0.19999996687E+02 0.  0.
        -12    1    3    3    0    0 -0.33850624969E+01 -0.22669733291E+02 -0.36854414679E+02  0.43400729682E+02  0.00000000000E+00 0.  1.
         11    1    4    4    0    0 -0.15453778310E+01  0.13426064601E+01  0.76719685880E+01  0.79403958984E+01  0.51100000000E-03 0. -1.
        -11    1    4    4    0    0  0.16088197461E+01 -0.18206029596E+01  0.77654449017E+01  0.81366473990E+01  0.51100000000E-03 0.  1.
        -12    1    4    4    0    0  0.33216205818E+01  0.23147729790E+02  0.21417001190E+02  0.31710227020E+02  0.00000000000E+00 0.  1.
</event>
<event>
 8    1  0.2994958E-010  0.9118800E+02  0.7816164E-02  0.1184000E+00
        -11   -1    0    0    0    0  0.00000000000E+00  0.00000000000E+00  0.45593999997E+02  0.45594000000E+02  0.51100000000E-03 0. -1.
         11   -1    0    0    0    0 -0.00000000000E+00 -0.00000000000E+00 -0.45593999997E+02  0.45594000000E+02  0.51100000000E-03 0.  1.
         23    2    1    2    0    0  0.00000000000E+00  0.44408920985E-15  0.00000000000E+00  0.91188000000E+02  0.91188000000E+02 0.  0.
    9900012    2    3    3    0    0 -0.16220740333E+02  0.11113493903E+01  0.40240228286E+02  0.47787268590E+02  0.19999988809E+02 0.  0.
        -12    1    3    3    0    0  0.16220740333E+02 -0.11113493903E+01 -0.40240228286E+02  0.43400731410E+02  0.00000000000E+00 0.  1.
         11    1    4    4    0    0 -0.58818973873E+01 -0.10425240258E+01  0.38022452550E+01  0.70810057519E+01  0.51100000000E-03 0. -1.
        -11    1    4    4    0    0 -0.69306042011E+01 -0.57127506956E+01  0.13464415294E+02  0.16185155994E+02  0.51100000000E-03 0.  1.
         12    1    4    4    0    0 -0.34082387450E+01  0.78666241118E+01  0.22973567737E+02  0.24521106844E+02  0.00000000000E+00 0. -1.
</event>
<event>
 8    1  0.2994958E-010  0.9118800E+02  0.7816164E-02  0.1184000E+00
        -11   -1    0    0    0    0  0.00000000000E+00  0.00000000000E+00  0.45593999997E+02  0.45594000000E+02  0.51100000000E-03 0. -1.
         11   -1    0    0    0    0 -0.00000000000E+00 -0.00000000000E+00 -0.45593999997E+02  0.45594000000E+02  0.51100000000E-03 0.  1.
         23    2    1    2    0    0 -0.35527136788E-14  0.00000000000E+00  0.00000000000E+00  0.91188000000E+02  0.91188000000E+02 0.  0.
    9900012    2    3    3    0    0  0.18411595030E+02 -0.24668457298E+02 -0.30595814121E+02  0.47787268915E+02  0.19999990289E+02 0.  0.
         12    1    3    3    0    0 -0.18411595030E+02  0.24668457298E+02  0.30595814121E+02  0.43400731085E+02  0.00000000000E+00 0. -1.
         11    1    4    4    0    0  0.44616390837E+01 -0.48770560461E+01 -0.14688025482E+02  0.16106830595E+02  0.51100000000E-03 0. -1.
        -11    1    4    4    0    0  0.62676825115E+01 -0.16319320818E+02 -0.15294508289E+02  0.23227700275E+02  0.51100000000E-03 0.  1.
         12    1    4    4    0    0  0.76822734344E+01 -0.34720804340E+01 -0.61328035060E+00  0.84527380445E+01  0.00000000000E+00 0. -1.
</event>
<event>
 8    1  0.2994958E-010  0.9118800E+02  0.7816164E-02  0.1184000E+00
        -11   -1    0    0    0    0  0.00000000000E+00  0.00000000000E+00  0.45593999997E+02  0.45594000000E+02  0.51100000000E-03 0. -1.
         11   -1    0    0    0    0 -0.00000000000E+00 -0.00000000000E+00 -0.45593999997E+02  0.45594000000E+02  0.51100000000E-03 0.  1.
         23    2    1    2    0    0  0.35527136788E-14  0.35527136788E-14  0.71054273576E-14  0.91188000000E+02  0.91188000000E+02 0.  0.
    9900012    2    3    3    0    0  0.24250659676E+02  0.18406700807E+02  0.30930952104E+02  0.47787251995E+02  0.19999913145E+02 0.  0.
        -12    1    3    3    0    0 -0.24250659676E+02 -0.18406700807E+02 -0.30930952104E+02  0.43400748005E+02  0.00000000000E+00 0.  1.
         11    1    4    4    0    0 -0.95625103932E+00  0.42054530933E+01  0.45580856451E+01  0.62750614961E+01  0.51100000000E-03 0. -1.
        -11    1    4    4    0    0 -0.12309968369E+01  0.78478256076E+00  0.43265857454E+01  0.45662436809E+01  0.51100000000E-03 0.  1.
        -12    1    4    4    0    0  0.26437907552E+02  0.13416465153E+02  0.22046280714E+02  0.36945946818E+02  0.00000000000E+00 0.  1.
</event>
<event>
 8    1  0.2994958E-010  0.9118800E+02  0.7816164E-02  0.1184000E+00
        -11   -1    0    0    0    0  0.00000000000E+00  0.00000000000E+00  0.45593999997E+02  0.45594000000E+02  0.51100000000E-03 0. -1.
         11   -1    0    0    0    0 -0.00000000000E+00 -0.00000000000E+00 -0.45593999997E+02  0.45594000000E+02  0.51100000000E-03 0.  1.
         23    2    1    2    0    0  0.17763568394E-14  0.88817841970E-15  0.00000000000E+00  0.91188000000E+02  0.91188000000E+02 0.  0.
    9900012    2    3    3    0    0 -0.12868117650E+02  0.34013771082E+01 -0.41309385048E+02  0.47787272920E+02  0.20000008550E+02 0.  0.
         12    1    3    3    0    0  0.12868117650E+02 -0.34013771082E+01  0.41309385048E+02  0.43400727080E+02  0.00000000000E+00 0. -1.
         11    1    4    4    0    0  0.34176827855E+01 -0.14448593938E+01 -0.47700199983E+01  0.60432826622E+01  0.51100000000E-03 0. -1.
        -11    1    4    4    0    0 -0.11624376319E+02 -0.17649048370E+01 -0.17793028290E+02  0.21326811057E+02  0.51100000000E-03 0.  1.
        -12    1    4    4    0    0 -0.46614241169E+01  0.66111413390E+01 -0.18746336759E+02  0.20417179200E+02  0.00000000000E+00 0.  1.
</event>
<event>
 8    1  0.2994958E-010  0.9118800E+02  0.7816164E-02  0.1184000E+00
        -11   -1    0    0    0    0  0.00000000000E+00  0.00000000000E+00  0.45593999997E+02  0.45594000000E+02  0.51100000000E-03 0. -1.
         11   -1    0    0    0    0 -0.00000000000E+00 -0.00000000000E+00 -0.45593999997E+02  0.45594000000E+02  0.51100000000E-03 0.  1.
         23    2    1    2    0    0 -0.17763568394E-14  0.00000000000E+00  0.00000000000E+00  0.91188000000E+02  0.91188000000E+02 0.  0.
    9900012    2    3    3    0    0 -0.14242082438E+02 -0.12800272053E+02  0.38947892737E+02  0.47787283123E+02  0.20000055070E+02 0.  0.
        -12    1    3    3    0    0  0.14242082438E+02  0.12800272053E+02 -0.38947892737E+02  0.43400716877E+02  0.00000000000E+00 0.  1.
         11    1    4    4    0    0 -0.13585490582E+02 -0.83377214748E+01  0.31297909844E+02  0.35123244648E+02  0.51100000000E-03 0. -1.
        -11    1    4    4    0    0 -0.31411426218E+01 -0.35201138413E+01  0.86270597466E+01  0.98328092913E+01  0.51100000000E-03 0.  1.
        -12    1    4    4    0    0  0.24845507658E+01 -0.94243673713E+00 -0.97707685361E+00  0.28312291835E+01  0.00000000000E+00 0.  1.
</event>
<event>
 8    1  0.2994958E-010  0.9118800E+02  0.7816164E-02  0.1184000E+00
        -11   -1    0    0    0    0  0.00000000000E+00  0.00000000000E+00  0.45593999997E+02  0.45594000000E+02  0.51100000000E-03 0. -1.
         11   -1    0    0    0    0 -0.00000000000E+00 -0.00000000000E+00 -0.45593999997E+02  0.45594000000E+02  0.51100000000E-03 0.  1.
         23    2    1    2    0    0 -0.88817841970E-15  0.00000000000E+00  0.71054273576E-14  0.91188000000E+02  0.91188000000E+02 0.  0.
    9900012    2    3    3    0    0  0.72831982664E+01  0.16804284769E+02 -0.39347100462E+02  0.47787270993E+02  0.19999999764E+02 0.  0.
         12    1    3    3    0    0 -0.72831982664E+01 -0.16804284769E+02  0.39347100462E+02  0.43400729007E+02  0.00000000000E+00 0. -1.
         11    1    4    4    0    0  0.63038243232E-01  0.28451952729E+00 -0.15741477931E+02  0.15744175205E+02  0.51100000000E-03 0. -1.
        -11    1    4    4    0    0 -0.33838662768E+01  0.41996328354E+01 -0.64916210919E+01  0.84397044731E+01  0.51100000000E-03 0.  1.
        -12    1    4    4    0    0  0.10604026300E+02  0.12320132406E+02 -0.17114001440E+02  0.23603391315E+02  0.00000000000E+00 0.  1.
</event>
<event>
 8    1  0.2994958E-010  0.9118800E+02  0.7816164E-02  0.1184000E+00
        -11   -1    0    0    0    0  0.00000000000E+00  0.00000000000E+00  0.45593999997E+02  0.45594000000E+02  0.51100000000E-03 0. -1.
         11   -1    0    0    0    0 -0.00000000000E+00 -0.00000000000E+00 -0.45593999997E+02  0.45594000000E+02  0.51100000000E-03 0.  1.
         23    2    1    2    0    0  0.00000000000E+00  0.00000000000E+00  0.00000000000E+00  0.91188000000E+02  0.91188000000E+02 0.  0.
    9900012    2    3    3    0    0  0.18508088992E+02  0.25574915149E+02 -0.29782502133E+02  0.47787273320E+02  0.20000010377E+02 0.  0.
         12    1    3    3    0    0 -0.18508088992E+02 -0.25574915149E+02  0.29782502133E+02  0.43400726680E+02  0.00000000000E+00 0. -1.
         11    1    4    4    0    0  0.37001397546E+01  0.93819186029E+01 -0.31457352612E+01  0.10564425279E+02  0.51100000000E-03 0. -1.
        -11    1    4    4    0    0 -0.21687177494E+01  0.25127001693E+01 -0.79648476745E+00  0.34134128176E+01  0.51100000000E-03 0.  1.
        -12    1    4    4    0    0  0.16976666986E+02  0.13680296377E+02 -0.25840282104E+02  0.33809435224E+02  0.00000000000E+00 0.  1.
</event>
<event>
 8    1  0.2994958E-010  0.9118800E+02  0.7816164E-02  0.1184000E+00
        -11   -1    0    0    0    0  0.00000000000E+00  0.00000000000E+00  0.45593999997E+02  0.45594000000E+02  0.51100000000E-03 0.  1.
         11   -1    0    0    0    0 -0.00000000000E+00 -0.00000000000E+00 -0.45593999997E+02  0.45594000000E+02  0.51100000000E-03 0. -1.
         23    2    1    2    0    0  0.00000000000E+00  0.00000000000E+00  0.35527136788E-14  0.91188000000E+02  0.91188000000E+02 0.  0.
    9900012    2    3    3    0    0 -0.21209240860E+02  0.33140543570E+02  0.18316546697E+02  0.47787269489E+02  0.19999992910E+02 0.  0.
        -12    1    3    3    0    0  0.21209240860E+02 -0.33140543570E+02 -0.18316546697E+02  0.43400730511E+02  0.00000000000E+00 0.  1.
         11    1    4    4    0    0 -0.15098946849E+01  0.11322274634E+02  0.89162596160E+01  0.14490457917E+02  0.51100000000E-03 0.  1.
        -11    1    4    4    0    0 -0.20349313137E+01  0.90406276950E+01 -0.65166092119E+00  0.92897016523E+01  0.51100000000E-03 0. -1.
         12    1    4    4    0    0 -0.17664414861E+02  0.12777641241E+02  0.10051948002E+02  0.24007109920E+02  0.00000000000E+00 0. -1.
</event>
<event>
 8    1  0.2994958E-010  0.9118800E+02  0.7816164E-02  0.1184000E+00
        -11   -1    0    0    0    0  0.00000000000E+00  0.00000000000E+00  0.45593999997E+02  0.45594000000E+02  0.51100000000E-03 0. -1.
         11   -1    0    0    0    0 -0.00000000000E+00 -0.00000000000E+00 -0.45593999997E+02  0.45594000000E+02  0.51100000000E-03 0.  1.
         23    2    1    2    0    0  0.00000000000E+00  0.00000000000E+00  0.00000000000E+00  0.91188000000E+02  0.91188000000E+02 0.  0.
    9900012    2    3    3    0    0 -0.19371345155E+02 -0.20687597989E+02 -0.32869403775E+02  0.47787269267E+02  0.19999991894E+02 0.  0.
         12    1    3    3    0    0  0.19371345155E+02  0.20687597989E+02  0.32869403775E+02  0.43400730733E+02  0.00000000000E+00 0. -1.
         11    1    4    4    0    0 -0.47003730586E+01 -0.44698642836E+01 -0.67355090988E+01  0.93509505765E+01  0.51100000000E-03 0.  1.
        -11    1    4    4    0    0 -0.15763928699E+01  0.30956954933E+01 -0.85187801132E+01  0.91998891268E+01  0.51100000000E-03 0. -1.
         12    1    4    4    0    0 -0.13094579226E+02 -0.19313429199E+02 -0.17615114563E+02  0.29236429563E+02  0.00000000000E+00 0. -1.
</event>
<event>
 8    1  0.2994958E-010  0.9118800E+02  0.7816164E-02  0.1184000E+00
        -11   -1    0    0    0    0  0.00000000000E+00  0.00000000000E+00  0.45593999997E+02  0.45594000000E+02  0.51100000000E-03 0. -1.
         11   -1    0    0    0    0 -0.00000000000E+00 -0.00000000000E+00 -0.45593999997E+02  0.45594000000E+02  0.51100000000E-03 0.  1.
         23    2    1    2    0    0 -0.35527136788E-14  0.88817841970E-15 -0.35527136788E-14  0.91188000000E+02  0.91188000000E+02 0.  0.
    9900012    2    3    3    0    0  0.29990186046E+02 -0.71845355675E+01  0.30538410792E+02  0.47787270236E+02  0.19999996312E+02 0.  0.
        -12    1    3    3    0    0 -0.29990186046E+02  0.71845355675E+01 -0.30538410792E+02  0.43400729764E+02  0.00000000000E+00 0.  1.
         11    1    4    4    0    0  0.15198525363E+02 -0.27020473935E+01  0.17814783660E+02  0.23572499876E+02  0.51100000000E-03 0. -1.
        -11    1    4    4    0    0 -0.23625804535E+01 -0.34557029566E+00  0.36787472338E+01  0.43857025320E+01  0.51100000000E-03 0.  1.
        -12    1    4    4    0    0  0.17154241137E+02 -0.41369178784E+01  0.90448798979E+01  0.19829067827E+02  0.00000000000E+00 0.  1.
</event>
<event>
 8    1  0.2994958E-010  0.9118800E+02  0.7816164E-02  0.1184000E+00
        -11   -1    0    0    0    0  0.00000000000E+00  0.00000000000E+00  0.45593999997E+02  0.45594000000E+02  0.51100000000E-03 0. -1.
         11   -1    0    0    0    0 -0.00000000000E+00 -0.00000000000E+00 -0.45593999997E+02  0.45594000000E+02  0.51100000000E-03 0.  1.
         23    2    1    2    0    0  0.00000000000E+00 -0.71054273576E-14  0.00000000000E+00  0.91188000000E+02  0.91188000000E+02 0.  0.
    9900012    2    3    3    0    0 -0.23627323882E+02 -0.35669822567E+02 -0.72826280883E+01  0.47787270194E+02  0.19999996124E+02 0.  0.
         12    1    3    3    0    0  0.23627323882E+02  0.35669822567E+02  0.72826280883E+01  0.43400729806E+02  0.00000000000E+00 0. -1.
         11    1    4    4    0    0  0.15733210971E+01 -0.70351909928E+01  0.16909401738E+01  0.74046289922E+01  0.51100000000E-03 0. -1.
        -11    1    4    4    0    0 -0.54573870735E+01 -0.89238483353E+01 -0.66337231528E+01  0.12386461396E+02  0.51100000000E-03 0.  1.
        -12    1    4    4    0    0 -0.19743257906E+02 -0.19710783239E+02 -0.23398451094E+01  0.27996179806E+02  0.00000000000E+00 0.  1.
</event>
<event>
 8    1  0.2994958E-010  0.9118800E+02  0.7816164E-02  0.1184000E+00
        -11   -1    0    0    0    0  0.00000000000E+00  0.00000000000E+00  0.45593999997E+02  0.45594000000E+02  0.51100000000E-03 0. -1.
         11   -1    0    0    0    0 -0.00000000000E+00 -0.00000000000E+00 -0.45593999997E+02  0.45594000000E+02  0.51100000000E-03 0.  1.
         23    2    1    2    0    0  0.00000000000E+00  0.00000000000E+00 -0.35527136788E-14  0.91188000000E+02  0.91188000000E+02 0.  0.
    9900012    2    3    3    0    0  0.14577641936E+02 -0.34024668815E+02  0.22659160119E+02  0.47787271093E+02  0.20000000222E+02 0.  0.
        -12    1    3    3    0    0 -0.14577641936E+02  0.34024668815E+02 -0.22659160119E+02  0.43400728907E+02  0.00000000000E+00 0.  1.
         11    1    4    4    0    0 -0.82937317431E+00  0.70256128063E+00  0.14219469474E+00  0.10962079217E+01  0.51100000000E-03 0.  1.
        -11    1    4    4    0    0 -0.14682172964E+01  0.50737305467E+00 -0.86956069236E-01  0.15558441648E+01  0.51100000000E-03 0. -1.
         12    1    4    4    0    0  0.16875232406E+02 -0.35234603150E+02  0.22603921493E+02  0.45135219007E+02  0.00000000000E+00 0. -1.
</event>
<event>
 8    1  0.2994958E-010  0.9118800E+02  0.7816164E-02  0.1184000E+00
        -11   -1    0    0    0    0  0.00000000000E+00  0.00000000000E+00  0.45593999997E+02  0.45594000000E+02  0.51100000000E-03 0. -1.
         11   -1    0    0    0    0 -0.00000000000E+00 -0.00000000000E+00 -0.45593999997E+02  0.45594000000E+02  0.51100000000E-03 0.  1.
         23    2    1    2    0    0  0.00000000000E+00  0.00000000000E+00 -0.35527136788E-14  0.91188000000E+02  0.91188000000E+02 0.  0.
    9900012    2    3    3    0    0 -0.26828983195E+02 -0.24151222225E+02  0.24094547916E+02  0.47787272892E+02  0.20000008423E+02 0.  0.
        -12    1    3    3    0    0  0.26828983195E+02  0.24151222225E+02 -0.24094547916E+02  0.43400727108E+02  0.00000000000E+00 0.  1.
         11    1    4    4    0    0 -0.12531063231E+02 -0.12414432733E+02  0.55874592197E+01  0.18503118293E+02  0.51100000000E-03 0. -1.
        -11    1    4    4    0    0 -0.74274244455E+01  0.64652986217E+00  0.23898312667E+01  0.78291716357E+01  0.51100000000E-03 0.  1.
         12    1    4    4    0    0 -0.68704955191E+01 -0.12383319354E+02  0.16117257430E+02  0.21454982963E+02  0.00000000000E+00 0. -1.
</event>
<event>
 8    1  0.2994958E-010  0.9118800E+02  0.7816164E-02  0.1184000E+00
        -11   -1    0    0    0    0  0.00000000000E+00  0.00000000000E+00  0.45593999997E+02  0.45594000000E+02  0.51100000000E-03 0. -1.
         11   -1    0    0    0    0 -0.00000000000E+00 -0.00000000000E+00 -0.45593999997E+02  0.45594000000E+02  0.51100000000E-03 0.  1.
         23    2    1    2    0    0  0.00000000000E+00 -0.88817841970E-15  0.00000000000E+00  0.91188000000E+02  0.91188000000E+02 0.  0.
    9900012    2    3    3    0    0  0.15716337500E+02  0.47765726509E+01 -0.40172187609E+02  0.47787267656E+02  0.19999984549E+02 0.  0.
         12    1    3    3    0    0 -0.15716337500E+02 -0.47765726509E+01  0.40172187609E+02  0.43400732344E+02  0.00000000000E+00 0. -1.
         11    1    4    4    0    0  0.56133714973E+01  0.29496875250E+01 -0.40886956388E+01  0.75450664907E+01  0.51100000000E-03 0. -1.
        -11    1    4    4    0    0  0.11468343016E+02  0.40492131237E+01 -0.16565936078E+02  0.20551137604E+02  0.51100000000E-03 0.  1.
        -12    1    4    4    0    0 -0.13653770124E+01 -0.22223279978E+01 -0.19517555893E+02  0.19691063561E+02  0.00000000000E+00 0.  1.
</event>
<event>
 8    1  0.2994958E-010  0.9118800E+02  0.7816164E-02  0.1184000E+00
        -11   -1    0    0    0    0  0.00000000000E+00  0.00000000000E+00  0.45593999997E+02  0.45594000000E+02  0.51100000000E-03 0. -1.
         11   -1    0    0    0    0 -0.00000000000E+00 -0.00000000000E+00 -0.45593999997E+02  0.45594000000E+02  0.51100000000E-03 0.  1.
         23    2    1    2    0    0  0.00000000000E+00  0.00000000000E+00  0.00000000000E+00  0.91188000000E+02  0.91188000000E+02 0.  0.
    9900012    2    3    3    0    0 -0.26750403175E+02 -0.91526022996E+01  0.32928236565E+02  0.47787274636E+02  0.20000016374E+02 0.  0.
        -12    1    3    3    0    0  0.26750403175E+02  0.91526022996E+01 -0.32928236565E+02  0.43400725364E+02  0.00000000000E+00 0.  1.
         11    1    4    4    0    0 -0.19582400674E+01 -0.40329390311E+01  0.88352871331E+01  0.99076536262E+01  0.51100000000E-03 0. -1.
        -11    1    4    4    0    0 -0.10045698530E+01 -0.43034689036E+01  0.64100538037E+00  0.44654107709E+01  0.51100000000E-03 0.  1.
         12    1    4    4    0    0 -0.23787593255E+02 -0.81619436483E+00  0.23451944051E+02  0.33414210239E+02  0.00000000000E+00 0. -1.
</event>
<event>
 8    1  0.2994958E-010  0.9118800E+02  0.7816164E-02  0.1184000E+00
        -11   -1    0    0    0    0  0.00000000000E+00  0.00000000000E+00  0.45593999997E+02  0.45594000000E+02  0.51100000000E-03 0. -1.
         11   -1    0    0    0    0 -0.00000000000E+00 -0.00000000000E+00 -0.45593999997E+02  0.45594000000E+02  0.51100000000E-03 0.  1.
         23    2    1    2    0    0  0.00000000000E+00  0.22204460493E-15 -0.35527136788E-14  0.91188000000E+02  0.91188000000E+02 0.  0.
    9900012    2    3    3    0    0  0.29505836047E+02 -0.55067100810E+00 -0.31823352912E+02  0.47787269707E+02  0.19999993901E+02 0.  0.
         12    1    3    3    0    0 -0.29505836047E+02  0.55067100810E+00  0.31823352912E+02  0.43400730293E+02  0.00000000000E+00 0. -1.
         11    1    4    4    0    0  0.60849998762E+01  0.18066698593E+01 -0.85513809899E+01  0.10649760400E+02  0.51100000000E-03 0.  1.
        -11    1    4    4    0    0  0.11163319816E+02 -0.91121392396E+01 -0.15356017216E+02  0.21058443813E+02  0.51100000000E-03 0. -1.
         12    1    4    4    0    0  0.12257516355E+02  0.67547983722E+01 -0.79159547068E+01  0.16079065494E+02  0.00000000000E+00 0. -1.
</event>
<event>
 8    1  0.2994958E-010  0.9118800E+02  0.7816164E-02  0.1184000E+00
        -11   -1    0    0    0    0  0.00000000000E+00  0.00000000000E+00  0.45593999997E+02  0.45594000000E+02  0.51100000000E-03 0. -1.
         11   -1    0    0    0    0 -0.00000000000E+00 -0.00000000000E+00 -0.45593999997E+02  0.45594000000E+02  0.51100000000E-03 0.  1.
         23    2    1    2    0    0 -0.71054273576E-14 -0.22204460493E-15  0.35527136788E-14  0.91188000000E+02  0.91188000000E+02 0.  0.
    9900012    2    3    3    0    0 -0.37680333653E+02 -0.12816190583E+01  0.21498212250E+02  0.47787271647E+02  0.20000002748E+02 0.  0.
        -12    1    3    3    0    0  0.37680333653E+02  0.12816190583E+01 -0.21498212250E+02  0.43400728353E+02  0.00000000000E+00 0.  1.
         11    1    4    4    0    0 -0.11214773721E+02 -0.20533261277E+01 -0.19695840153E+01  0.11570071705E+02  0.51100000000E-03 0. -1.
        -11    1    4    4    0    0 -0.37888960859E+00  0.44261442634E+00  0.30044785322E+01  0.30604503554E+01  0.51100000000E-03 0.  1.
         12    1    4    4    0    0 -0.26086670323E+02  0.32909264314E+00  0.20463317733E+02  0.33156749587E+02  0.00000000000E+00 0. -1.
</event>
<event>
 8    1  0.2994958E-010  0.9118800E+02  0.7816164E-02  0.1184000E+00
        -11   -1    0    0    0    0  0.00000000000E+00  0.00000000000E+00  0.45593999997E+02  0.45594000000E+02  0.51100000000E-03 0. -1.
         11   -1    0    0    0    0 -0.00000000000E+00 -0.00000000000E+00 -0.45593999997E+02  0.45594000000E+02  0.51100000000E-03 0.  1.
         23    2    1    2    0    0  0.00000000000E+00  0.00000000000E+00  0.71054273576E-14  0.91188000000E+02  0.91188000000E+02 0.  0.
    9900012    2    3    3    0    0 -0.21082320222E+02 -0.18501930183E+02 -0.33118539350E+02  0.47787270799E+02  0.19999998882E+02 0.  0.
         12    1    3    3    0    0  0.21082320222E+02  0.18501930183E+02  0.33118539350E+02  0.43400729201E+02  0.00000000000E+00 0. -1.
         11    1    4    4    0    0  0.19310749011E+01  0.12167051357E+01  0.63292019972E-01  0.22832931923E+01  0.51100000000E-03 0. -1.
        -11    1    4    4    0    0 -0.78834833708E+00  0.39513365012E+00 -0.23160804641E+01  0.24782761507E+01  0.51100000000E-03 0.  1.
        -12    1    4    4    0    0 -0.22225046786E+02 -0.20113768969E+02 -0.30865750906E+02  0.43025701456E+02  0.00000000000E+00 0.  1.
</event>
<event>
 8    1  0.2994958E-010  0.9118800E+02  0.7816164E-02  0.1184000E+00
        -11   -1    0    0    0    0  0.00000000000E+00  0.00000000000E+00  0.45593999997E+02  0.45594000000E+02  0.51100000000E-03 0. -1.
         11   -1    0    0    0    0 -0.00000000000E+00 -0.00000000000E+00 -0.45593999997E+02  0.45594000000E+02  0.51100000000E-03 0.  1.
         23    2    1    2    0    0  0.00000000000E+00  0.44408920985E-15  0.00000000000E+00  0.91188000000E+02  0.91188000000E+02 0.  0.
    9900012    2    3    3    0    0 -0.33254502147E+02 -0.12466209225E+01 -0.27860499306E+02  0.47787269611E+02  0.19999993463E+02 0.  0.
         12    1    3    3    0    0  0.33254502147E+02  0.12466209225E+01  0.27860499306E+02  0.43400730389E+02  0.00000000000E+00 0. -1.
         11    1    4    4    0    0 -0.50389820172E+00 -0.33471502652E+00  0.11992261731E+01  0.13431646296E+01  0.51100000000E-03 0. -1.
        -11    1    4    4    0    0 -0.20254988433E+02  0.33356287843E+01 -0.89584778050E+01  0.22397439600E+02  0.51100000000E-03 0.  1.
         12    1    4    4    0    0 -0.12495615512E+02 -0.42475346802E+01 -0.20101247674E+02  0.24046665381E+02  0.00000000000E+00 0. -1.
</event>
<event>
 8    1  0.2994958E-010  0.9118800E+02  0.7816164E-02  0.1184000E+00
        -11   -1    0    0    0    0  0.00000000000E+00  0.00000000000E+00  0.45593999997E+02  0.45594000000E+02  0.51100000000E-03 0. -1.
         11   -1    0    0    0    0 -0.00000000000E+00 -0.00000000000E+00 -0.45593999997E+02  0.45594000000E+02  0.51100000000E-03 0.  1.
         23    2    1    2    0    0  0.71054273576E-14 -0.35527136788E-14  0.00000000000E+00  0.91188000000E+02  0.91188000000E+02 0.  0.
    9900012    2    3    3    0    0 -0.32725878830E+02  0.22015106829E+02  0.18110087262E+02  0.47787270346E+02  0.19999996815E+02 0.  0.
        -12    1    3    3    0    0  0.32725878830E+02 -0.22015106829E+02 -0.18110087262E+02  0.43400729654E+02  0.00000000000E+00 0.  1.
         11    1    4    4    0    0 -0.45898220355E+01  0.70967527834E+01  0.61614361716E+01  0.10459142524E+02  0.51100000000E-03 0. -1.
        -11    1    4    4    0    0 -0.85625407145E+01  0.10114115186E+02  0.10878774981E+02  0.17145266834E+02  0.51100000000E-03 0.  1.
        -12    1    4    4    0    0 -0.19573516080E+02  0.48042388596E+01  0.10698761099E+01  0.20182860987E+02  0.00000000000E+00 0.  1.
</event>
<event>
 8    1  0.2994958E-010  0.9118800E+02  0.7816164E-02  0.1184000E+00
        -11   -1    0    0    0    0  0.00000000000E+00  0.00000000000E+00  0.45593999997E+02  0.45594000000E+02  0.51100000000E-03 0. -1.
         11   -1    0    0    0    0 -0.00000000000E+00 -0.00000000000E+00 -0.45593999997E+02  0.45594000000E+02  0.51100000000E-03 0.  1.
         23    2    1    2    0    0  0.00000000000E+00  0.00000000000E+00 -0.17763568394E-14  0.91188000000E+02  0.91188000000E+02 0.  0.
    9900012    2    3    3    0    0  0.40585547815E+02 -0.25998608754E+01  0.15155130961E+02  0.47787263111E+02  0.19999963830E+02 0.  0.
        -12    1    3    3    0    0 -0.40585547815E+02  0.25998608754E+01 -0.15155130961E+02  0.43400736889E+02  0.00000000000E+00 0.  1.
         11    1    4    4    0    0  0.13596216025E+02 -0.59718625665E+00  0.10769955563E+02  0.17355277719E+02  0.51100000000E-03 0. -1.
        -11    1    4    4    0    0 -0.13903854980E+01 -0.52255386292E+00 -0.55855418200E+00  0.15868892237E+01  0.51100000000E-03 0.  1.
        -12    1    4    4    0    0  0.28379717288E+02 -0.14801207558E+01  0.49437295808E+01  0.28845096168E+02  0.00000000000E+00 0.  1.
</event>
<event>
 8    1  0.2994958E-010  0.9118800E+02  0.7816164E-02  0.1184000E+00
        -11   -1    0    0    0    0  0.00000000000E+00  0.00000000000E+00  0.45593999997E+02  0.45594000000E+02  0.51100000000E-03 0. -1.
         11   -1    0    0    0    0 -0.00000000000E+00 -0.00000000000E+00 -0.45593999997E+02  0.45594000000E+02  0.51100000000E-03 0.  1.
         23    2    1    2    0    0 -0.66613381478E-15  0.00000000000E+00  0.17763568394E-14  0.91188000000E+02  0.91188000000E+02 0.  0.
    9900012    2    3    3    0    0 -0.63583599169E+00  0.40571465440E+02 -0.15400491792E+02  0.47787271403E+02  0.20000001633E+02 0.  0.
         12    1    3    3    0    0  0.63583599169E+00 -0.40571465440E+02  0.15400491792E+02  0.43400728597E+02  0.00000000000E+00 0. -1.
         11    1    4    4    0    0 -0.23556869922E+01  0.45668545182E+01 -0.75686327281E+01  0.91482032678E+01  0.51100000000E-03 0. -1.
        -11    1    4    4    0    0 -0.45607229041E+01  0.10668696728E+02 -0.93339838754E+00  0.11640125261E+02  0.51100000000E-03 0.  1.
        -12    1    4    4    0    0  0.62805739046E+01  0.25335914194E+02 -0.68984606766E+01  0.26998942874E+02  0.00000000000E+00 0.  1.
</event>
<event>
 8    1  0.2994958E-010  0.9118800E+02  0.7816164E-02  0.1184000E+00
        -11   -1    0    0    0    0  0.00000000000E+00  0.00000000000E+00  0.45593999997E+02  0.45594000000E+02  0.51100000000E-03 0. -1.
         11   -1    0    0    0    0 -0.00000000000E+00 -0.00000000000E+00 -0.45593999997E+02  0.45594000000E+02  0.51100000000E-03 0.  1.
         23    2    1    2    0    0  0.00000000000E+00  0.00000000000E+00  0.00000000000E+00  0.91188000000E+02  0.91188000000E+02 0.  0.
    9900012    2    3    3    0    0  0.19814135780E+02 -0.26296660367E+02  0.28275603517E+02  0.47787261787E+02  0.19999957793E+02 0.  0.
        -12    1    3    3    0    0 -0.19814135780E+02  0.26296660367E+02 -0.28275603517E+02  0.43400738213E+02  0.00000000000E+00 0.  1.
         11    1    4    4    0    0  0.81269881544E+01 -0.15080580019E+02  0.13885640386E+02  0.22051821679E+02  0.51100000000E-03 0. -1.
        -11    1    4    4    0    0  0.51629653302E+01 -0.30216796993E+01  0.14033066130E+02  0.15254956718E+02  0.51100000000E-03 0.  1.
         12    1    4    4    0    0  0.65241822953E+01 -0.81944006489E+01  0.35689700064E+00  0.10480483390E+02  0.00000000000E+00 0. -1.
</event>
<event>
 8    1  0.2994958E-010  0.9118800E+02  0.7816164E-02  0.1184000E+00
        -11   -1    0    0    0    0  0.00000000000E+00  0.00000000000E+00  0.45593999997E+02  0.45594000000E+02  0.51100000000E-03 0. -1.
         11   -1    0    0    0    0 -0.00000000000E+00 -0.00000000000E+00 -0.45593999997E+02  0.45594000000E+02  0.51100000000E-03 0.  1.
         23    2    1    2    0    0  0.00000000000E+00  0.00000000000E+00  0.00000000000E+00  0.91188000000E+02  0.91188000000E+02 0.  0.
    9900012    2    3    3    0    0 -0.19225138416E+02 -0.97327553553E+01 -0.37673480474E+02  0.47787267230E+02  0.19999982609E+02 0.  0.
         12    1    3    3    0    0  0.19225138416E+02  0.97327553553E+01  0.37673480474E+02  0.43400732770E+02  0.00000000000E+00 0. -1.
         11    1    4    4    0    0 -0.16356750214E+01  0.19646450596E+01 -0.11535448834E+02  0.11815322384E+02  0.51100000000E-03 0. -1.
        -11    1    4    4    0    0 -0.96101546523E+00 -0.66279835801E+01 -0.11208644891E+02  0.13057083810E+02  0.51100000000E-03 0.  1.
         12    1    4    4    0    0 -0.16628447930E+02 -0.50694168349E+01 -0.14929386749E+02  0.22914861036E+02  0.00000000000E+00 0. -1.
</event>
<event>
 8    1  0.2994958E-010  0.9118800E+02  0.7816164E-02  0.1184000E+00
        -11   -1    0    0    0    0  0.00000000000E+00  0.00000000000E+00  0.45593999997E+02  0.45594000000E+02  0.51100000000E-03 0. -1.
         11   -1    0    0    0    0 -0.00000000000E+00 -0.00000000000E+00 -0.45593999997E+02  0.45594000000E+02  0.51100000000E-03 0.  1.
         23    2    1    2    0    0  0.00000000000E+00  0.00000000000E+00  0.00000000000E+00  0.91188000000E+02  0.91188000000E+02 0.  0.
    9900012    2    3    3    0    0  0.51377778293E+01  0.36216777668E+02  0.23357468859E+02  0.47787273080E+02  0.20000009281E+02 0.  0.
        -12    1    3    3    0    0 -0.51377778293E+01 -0.36216777668E+02 -0.23357468859E+02  0.43400726920E+02  0.00000000000E+00 0.  1.
         11    1    4    4    0    0  0.92515758298E+00  0.16464178351E+02  0.13333867819E+02  0.21206534762E+02  0.51100000000E-03 0. -1.
        -11    1    4    4    0    0  0.16549530249E+01  0.21251350276E+02  0.10159865253E+02  0.23613166249E+02  0.51100000000E-03 0.  1.
        -12    1    4    4    0    0  0.25576672214E+01 -0.14987509587E+01 -0.13626421376E+00  0.29675720695E+01  0.00000000000E+00 0.  1.
</event>
<event>
 8    1  0.2994958E-010  0.9118800E+02  0.7816164E-02  0.1184000E+00
        -11   -1    0    0    0    0  0.00000000000E+00  0.00000000000E+00  0.45593999997E+02  0.45594000000E+02  0.51100000000E-03 0. -1.
         11   -1    0    0    0    0 -0.00000000000E+00 -0.00000000000E+00 -0.45593999997E+02  0.45594000000E+02  0.51100000000E-03 0.  1.
         23    2    1    2    0    0 -0.35527136788E-14 -0.22204460493E-15  0.00000000000E+00  0.91188000000E+02  0.91188000000E+02 0.  0.
    9900012    2    3    3    0    0  0.17385553538E+02 -0.80168646312E+00  0.39758309081E+02  0.47787270582E+02  0.19999997892E+02 0.  0.
        -12    1    3    3    0    0 -0.17385553538E+02  0.80168646312E+00 -0.39758309081E+02  0.43400729418E+02  0.00000000000E+00 0.  1.
         11    1    4    4    0    0  0.13632080885E+02  0.20749223732E+00  0.27787800170E+02  0.30952197350E+02  0.51100000000E-03 0.  1.
        -11    1    4    4    0    0  0.57159073245E+01 -0.31733326657E+01  0.12265220562E+02  0.13898822700E+02  0.51100000000E-03 0. -1.
        -12    1    4    4    0    0 -0.19624346719E+01  0.21641539653E+01 -0.29471165050E+00  0.29362505315E+01  0.00000000000E+00 0.  1.
</event>
<event>
 8    1  0.2994958E-010  0.9118800E+02  0.7816164E-02  0.1184000E+00
        -11   -1    0    0    0    0  0.00000000000E+00  0.00000000000E+00  0.45593999997E+02  0.45594000000E+02  0.51100000000E-03 0. -1.
         11   -1    0    0    0    0 -0.00000000000E+00 -0.00000000000E+00 -0.45593999997E+02  0.45594000000E+02  0.51100000000E-03 0.  1.
         23    2    1    2    0    0  0.00000000000E+00  0.00000000000E+00  0.35527136788E-14  0.91188000000E+02  0.91188000000E+02 0.  0.
    9900012    2    3    3    0    0  0.94232009252E+01  0.30148370754E+02  0.29764100991E+02  0.47787277857E+02  0.20000031060E+02 0.  0.
        -12    1    3    3    0    0 -0.94232009252E+01 -0.30148370754E+02 -0.29764100991E+02  0.43400722143E+02  0.00000000000E+00 0.  1.
         11    1    4    4    0    0  0.93262212216E+01  0.13733836174E+02  0.11668445964E+02  0.20291606388E+02  0.51100000000E-03 0. -1.
        -11    1    4    4    0    0  0.18988723907E+01  0.13333611239E+02  0.19467261081E+02  0.23672033273E+02  0.51100000000E-03 0.  1.
        -12    1    4    4    0    0 -0.18018926872E+01  0.30809233405E+01 -0.13716060539E+01  0.38236381959E+01  0.00000000000E+00 0.  1.
</event>
<event>
 8    1  0.2994958E-010  0.9118800E+02  0.7816164E-02  0.1184000E+00
        -11   -1    0    0    0    0  0.00000000000E+00  0.00000000000E+00  0.45593999997E+02  0.45594000000E+02  0.51100000000E-03 0. -1.
         11   -1    0    0    0    0 -0.00000000000E+00 -0.00000000000E+00 -0.45593999997E+02  0.45594000000E+02  0.51100000000E-03 0.  1.
         23    2    1    2    0    0  0.88817841970E-15  0.00000000000E+00  0.00000000000E+00  0.91188000000E+02  0.91188000000E+02 0.  0.
    9900012    2    3    3    0    0  0.39050663853E+01 -0.82008833395E+01 -0.42439592716E+02  0.47787273498E+02  0.20000011185E+02 0.  0.
         12    1    3    3    0    0 -0.39050663853E+01  0.82008833395E+01  0.42439592716E+02  0.43400726502E+02  0.00000000000E+00 0. -1.
         11    1    4    4    0    0  0.15943464139E+01  0.42872139063E-01 -0.10803251726E+02  0.10920349199E+02  0.51100000000E-03 0. -1.
        -11    1    4    4    0    0  0.84461743749E+01 -0.41837224454E+01 -0.25825471670E+02  0.27491751169E+02  0.51100000000E-03 0.  1.
         12    1    4    4    0    0 -0.61354544035E+01 -0.40600330332E+01 -0.58108693200E+01  0.93751731303E+01  0.00000000000E+00 0. -1.
</event>
<event>
 8    1  0.2994958E-010  0.9118800E+02  0.7816164E-02  0.1184000E+00
        -11   -1    0    0    0    0  0.00000000000E+00  0.00000000000E+00  0.45593999997E+02  0.45594000000E+02  0.51100000000E-03 0. -1.
         11   -1    0    0    0    0 -0.00000000000E+00 -0.00000000000E+00 -0.45593999997E+02  0.45594000000E+02  0.51100000000E-03 0.  1.
         23    2    1    2    0    0  0.88817841970E-15 -0.88817841970E-15 -0.71054273576E-14  0.91188000000E+02  0.91188000000E+02 0.  0.
    9900012    2    3    3    0    0  0.73372428116E+01  0.64019011496E+01  0.42294282046E+02  0.47787242355E+02  0.19999869193E+02 0.  0.
        -12    1    3    3    0    0 -0.73372428116E+01 -0.64019011496E+01 -0.42294282046E+02  0.43400757645E+02  0.00000000000E+00 0.  1.
         11    1    4    4    0    0  0.24282346407E+01 -0.90616094712E+00  0.72970963801E+01  0.77437114470E+01  0.51100000000E-03 0. -1.
        -11    1    4    4    0    0  0.92853245124E+01 -0.14874177922E+01  0.20206469174E+02  0.22287464184E+02  0.51100000000E-03 0.  1.
         12    1    4    4    0    0 -0.43763163414E+01  0.87954798889E+01  0.14790716491E+02  0.17756066724E+02  0.00000000000E+00 0. -1.
</event>
<event>
 8    1  0.2994958E-010  0.9118800E+02  0.7816164E-02  0.1184000E+00
        -11   -1    0    0    0    0  0.00000000000E+00  0.00000000000E+00  0.45593999997E+02  0.45594000000E+02  0.51100000000E-03 0. -1.
         11   -1    0    0    0    0 -0.00000000000E+00 -0.00000000000E+00 -0.45593999997E+02  0.45594000000E+02  0.51100000000E-03 0.  1.
         23    2    1    2    0    0  0.00000000000E+00 -0.35527136788E-14  0.71054273576E-14  0.91188000000E+02  0.91188000000E+02 0.  0.
    9900012    2    3    3    0    0  0.19546165395E+02  0.21647497896E+02 -0.32139651652E+02  0.47787263196E+02  0.19999964216E+02 0.  0.
         12    1    3    3    0    0 -0.19546165395E+02 -0.21647497896E+02  0.32139651652E+02  0.43400736804E+02  0.00000000000E+00 0. -1.
         11    1    4    4    0    0  0.13138646452E+02  0.73656525929E+01 -0.14543448546E+02  0.20937735421E+02  0.51100000000E-03 0. -1.
        -11    1    4    4    0    0  0.10201273610E+02  0.11933464210E+02 -0.12438306396E+02  0.20029603530E+02  0.51100000000E-03 0.  1.
        -12    1    4    4    0    0 -0.37937546665E+01  0.23483810930E+01 -0.51578967104E+01  0.68199242446E+01  0.00000000000E+00 0.  1.
</event>
<event>
 8    1  0.2994958E-010  0.9118800E+02  0.7816164E-02  0.1184000E+00
        -11   -1    0    0    0    0  0.00000000000E+00  0.00000000000E+00  0.45593999997E+02  0.45594000000E+02  0.51100000000E-03 0. -1.
         11   -1    0    0    0    0 -0.00000000000E+00 -0.00000000000E+00 -0.45593999997E+02  0.45594000000E+02  0.51100000000E-03 0.  1.
         23    2    1    2    0    0 -0.88817841970E-15  0.00000000000E+00  0.00000000000E+00  0.91188000000E+02  0.91188000000E+02 0.  0.
    9900012    2    3    3    0    0 -0.77804140874E+01 -0.11447039049E+02 -0.41134580217E+02  0.47787271481E+02  0.20000001992E+02 0.  0.
         12    1    3    3    0    0  0.77804140874E+01  0.11447039049E+02  0.41134580217E+02  0.43400728519E+02  0.00000000000E+00 0. -1.
         11    1    4    4    0    0  0.45229839023E+00  0.30240471992E+01 -0.60173536675E+01  0.67496652300E+01  0.51100000000E-03 0. -1.
        -11    1    4    4    0    0 -0.98982573469E+01 -0.43193697095E+01 -0.15573753919E+02  0.18951893430E+02  0.51100000000E-03 0.  1.
         12    1    4    4    0    0  0.16655448692E+01 -0.10151716538E+02 -0.19543472630E+02  0.22085712821E+02  0.00000000000E+00 0. -1.
</event>
<event>
 8    1  0.2994958E-010  0.9118800E+02  0.7816164E-02  0.1184000E+00
        -11   -1    0    0    0    0  0.00000000000E+00  0.00000000000E+00  0.45593999997E+02  0.45594000000E+02  0.51100000000E-03 0. -1.
         11   -1    0    0    0    0 -0.00000000000E+00 -0.00000000000E+00 -0.45593999997E+02  0.45594000000E+02  0.51100000000E-03 0.  1.
         23    2    1    2    0    0 -0.35527136788E-14  0.00000000000E+00 -0.17763568394E-14  0.91188000000E+02  0.91188000000E+02 0.  0.
    9900012    2    3    3    0    0 -0.17747249271E+02 -0.37878735812E+02  0.11569780501E+02  0.47787270695E+02  0.19999998407E+02 0.  0.
        -12    1    3    3    0    0  0.17747249271E+02  0.37878735812E+02 -0.11569780501E+02  0.43400729305E+02  0.00000000000E+00 0.  1.
         11    1    4    4    0    0 -0.12652358168E+02 -0.26039012668E+02  0.72802188821E+01  0.29851531538E+02  0.51100000000E-03 0. -1.
        -11    1    4    4    0    0 -0.11893159072E+01 -0.92532487329E+01  0.77364953597E+01  0.12119836845E+02  0.51100000000E-03 0.  1.
         12    1    4    4    0    0 -0.39055751958E+01 -0.25864744107E+01 -0.34469337412E+01  0.58159023121E+01  0.00000000000E+00 0. -1.
</event>
<event>
 8    1  0.2994958E-010  0.9118800E+02  0.7816164E-02  0.1184000E+00
        -11   -1    0    0    0    0  0.00000000000E+00  0.00000000000E+00  0.45593999997E+02  0.45594000000E+02  0.51100000000E-03 0. -1.
         11   -1    0    0    0    0 -0.00000000000E+00 -0.00000000000E+00 -0.45593999997E+02  0.45594000000E+02  0.51100000000E-03 0.  1.
         23    2    1    2    0    0  0.00000000000E+00  0.00000000000E+00  0.35527136788E-14  0.91188000000E+02  0.91188000000E+02 0.  0.
    9900012    2    3    3    0    0 -0.19418629253E+02 -0.27952995674E+02  0.26928981694E+02  0.47787272077E+02  0.20000004707E+02 0.  0.
        -12    1    3    3    0    0  0.19418629253E+02  0.27952995674E+02 -0.26928981694E+02  0.43400727923E+02  0.00000000000E+00 0.  1.
         11    1    4    4    0    0 -0.21241511930E+01 -0.79611166027E+01  0.11194344150E+02  0.13899810684E+02  0.51100000000E-03 0. -1.
        -11    1    4    4    0    0  0.58779704948E+00  0.82024151806E+00 -0.12578704598E+01  0.16126189488E+01  0.51100000000E-03 0.  1.
         12    1    4    4    0    0 -0.17882275109E+02 -0.20812120590E+02  0.16992508003E+02  0.32274842444E+02  0.00000000000E+00 0. -1.
</event>
<event>
 8    1  0.2994958E-010  0.9118800E+02  0.7816164E-02  0.1184000E+00
        -11   -1    0    0    0    0  0.00000000000E+00  0.00000000000E+00  0.45593999997E+02  0.45594000000E+02  0.51100000000E-03 0. -1.
         11   -1    0    0    0    0 -0.00000000000E+00 -0.00000000000E+00 -0.45593999997E+02  0.45594000000E+02  0.51100000000E-03 0.  1.
         23    2    1    2    0    0 -0.17763568394E-14 -0.14210854715E-13  0.00000000000E+00  0.91188000000E+02  0.91188000000E+02 0.  0.
    9900012    2    3    3    0    0 -0.12501366568E+02 -0.40172316445E+02 -0.10654760221E+02  0.47787273163E+02  0.20000009659E+02 0.  0.
         12    1    3    3    0    0  0.12501366568E+02  0.40172316445E+02  0.10654760221E+02  0.43400726837E+02  0.00000000000E+00 0. -1.
         11    1    4    4    0    0  0.13932777781E+01 -0.37695072865E+01 -0.12071589849E+01  0.41961459967E+01  0.51100000000E-03 0. -1.
        -11    1    4    4    0    0 -0.17169248067E+02 -0.32122249698E+02 -0.53343514051E+01  0.36811374737E+02  0.51100000000E-03 0.  1.
        -12    1    4    4    0    0  0.32746037213E+01 -0.42805594601E+01 -0.41132498314E+01  0.67797524290E+01  0.00000000000E+00 0.  1.
</event>
<event>
 8    1  0.2994958E-010  0.9118800E+02  0.7816164E-02  0.1184000E+00
        -11   -1    0    0    0    0  0.00000000000E+00  0.00000000000E+00  0.45593999997E+02  0.45594000000E+02  0.51100000000E-03 0. -1.
         11   -1    0    0    0    0 -0.00000000000E+00 -0.00000000000E+00 -0.45593999997E+02  0.45594000000E+02  0.51100000000E-03 0.  1.
         23    2    1    2    0    0  0.00000000000E+00  0.22204460493E-15  0.00000000000E+00  0.91188000000E+02  0.91188000000E+02 0.  0.
    9900012    2    3    3    0    0 -0.32614862937E+02  0.18250819779E+01 -0.28575568373E+02  0.47787270554E+02  0.19999997765E+02 0.  0.
         12    1    3    3    0    0  0.32614862937E+02 -0.18250819779E+01  0.28575568373E+02  0.43400729446E+02  0.00000000000E+00 0. -1.
         11    1    4    4    0    0 -0.20069412006E+01 -0.26807478282E+01 -0.13787320646E+00  0.33516012864E+01  0.51100000000E-03 0. -1.
        -11    1    4    4    0    0 -0.18527163726E+02 -0.43973959695E+01 -0.17541214713E+02  0.25889903455E+02  0.51100000000E-03 0.  1.
        -12    1    4    4    0    0 -0.12080758010E+02  0.89032257756E+01 -0.10896480454E+02  0.18545765813E+02  0.00000000000E+00 0.  1.
</event>
<event>
 8    1  0.2994958E-010  0.9118800E+02  0.7816164E-02  0.1184000E+00
        -11   -1    0    0    0    0  0.00000000000E+00  0.00000000000E+00  0.45593999997E+02  0.45594000000E+02  0.51100000000E-03 0. -1.
         11   -1    0    0    0    0 -0.00000000000E+00 -0.00000000000E+00 -0.45593999997E+02  0.45594000000E+02  0.51100000000E-03 0.  1.
         23    2    1    2    0    0  0.00000000000E+00  0.00000000000E+00 -0.17763568394E-14  0.91188000000E+02  0.91188000000E+02 0.  0.
    9900012    2    3    3    0    0  0.67379780495E+01  0.39809306762E+02  0.15919864586E+02  0.47787270266E+02  0.19999996449E+02 0.  0.
        -12    1    3    3    0    0 -0.67379780495E+01 -0.39809306762E+02 -0.15919864586E+02  0.43400729734E+02  0.00000000000E+00 0.  1.
         11    1    4    4    0    0  0.35118447998E+01  0.22423417523E+02  0.24430705231E+01  0.22827862387E+02  0.51100000000E-03 0. -1.
        -11    1    4    4    0    0 -0.12880237745E+01  0.33620999563E+01 -0.15460187346E+01  0.39182771148E+01  0.51100000000E-03 0.  1.
        -12    1    4    4    0    0  0.45141570241E+01  0.14023789282E+02  0.15022812797E+02  0.21041130764E+02  0.00000000000E+00 0.  1.
</event>
<event>
 8    1  0.2994958E-010  0.9118800E+02  0.7816164E-02  0.1184000E+00
        -11   -1    0    0    0    0  0.00000000000E+00  0.00000000000E+00  0.45593999997E+02  0.45594000000E+02  0.51100000000E-03 0. -1.
         11   -1    0    0    0    0 -0.00000000000E+00 -0.00000000000E+00 -0.45593999997E+02  0.45594000000E+02  0.51100000000E-03 0.  1.
         23    2    1    2    0    0  0.00000000000E+00  0.99920072216E-15  0.00000000000E+00  0.91188000000E+02  0.91188000000E+02 0.  0.
    9900012    2    3    3    0    0  0.23366332007E+02 -0.26904645394E+00  0.36572747902E+02  0.47787265599E+02  0.19999975170E+02 0.  0.
        -12    1    3    3    0    0 -0.23366332007E+02  0.26904645394E+00 -0.36572747902E+02  0.43400734401E+02  0.00000000000E+00 0.  1.
         11    1    4    4    0    0  0.75435395454E+01  0.68598690828E+01  0.14543046253E+02  0.17761277749E+02  0.51100000000E-03 0. -1.
        -11    1    4    4    0    0  0.10914007810E+02 -0.12780754875E+01  0.18710343364E+02  0.21698525123E+02  0.51100000000E-03 0.  1.
        -12    1    4    4    0    0  0.49087846520E+01 -0.58508400493E+01  0.33193582848E+01  0.83274627267E+01  0.00000000000E+00 0.  1.
</event>
<event>
 8    1  0.2994958E-010  0.9118800E+02  0.7816164E-02  0.1184000E+00
        -11   -1    0    0    0    0  0.00000000000E+00  0.00000000000E+00  0.45593999997E+02  0.45594000000E+02  0.51100000000E-03 0. -1.
         11   -1    0    0    0    0 -0.00000000000E+00 -0.00000000000E+00 -0.45593999997E+02  0.45594000000E+02  0.51100000000E-03 0.  1.
         23    2    1    2    0    0  0.00000000000E+00  0.00000000000E+00  0.00000000000E+00  0.91188000000E+02  0.91188000000E+02 0.  0.
    9900012    2    3    3    0    0 -0.20927215593E+02  0.19010819833E+02 -0.32928157629E+02  0.47787272034E+02  0.20000004510E+02 0.  0.
         12    1    3    3    0    0  0.20927215593E+02 -0.19010819833E+02  0.32928157629E+02  0.43400727966E+02  0.00000000000E+00 0. -1.
         11    1    4    4    0    0 -0.47835142064E+01  0.40124000489E+01 -0.36507456661E+01  0.72325173000E+01  0.51100000000E-03 0. -1.
        -11    1    4    4    0    0  0.15772270815E+01  0.85450321544E+01 -0.13031410880E+02  0.15662786775E+02  0.51100000000E-03 0.  1.
         12    1    4    4    0    0 -0.17720928468E+02  0.64533876296E+01 -0.16246001083E+02  0.24891967959E+02  0.00000000000E+00 0. -1.
</event>
<event>
 8    1  0.2994958E-010  0.9118800E+02  0.7816164E-02  0.1184000E+00
        -11   -1    0    0    0    0  0.00000000000E+00  0.00000000000E+00  0.45593999997E+02  0.45594000000E+02  0.51100000000E-03 0. -1.
         11   -1    0    0    0    0 -0.00000000000E+00 -0.00000000000E+00 -0.45593999997E+02  0.45594000000E+02  0.51100000000E-03 0.  1.
         23    2    1    2    0    0  0.35527136788E-14  0.35527136788E-14  0.00000000000E+00  0.91188000000E+02  0.91188000000E+02 0.  0.
    9900012    2    3    3    0    0 -0.28628968654E+02 -0.14498592530E+02  0.29219789125E+02  0.47787272954E+02  0.20000008708E+02 0.  0.
        -12    1    3    3    0    0  0.28628968654E+02  0.14498592530E+02 -0.29219789125E+02  0.43400727046E+02  0.00000000000E+00 0.  1.
         11    1    4    4    0    0 -0.44045433847E+01 -0.73735263217E+01  0.11563113013E+02  0.14403974301E+02  0.51100000000E-03 0. -1.
        -11    1    4    4    0    0 -0.19115562226E+02 -0.89354394745E+01  0.18292468172E+02  0.27925994878E+02  0.51100000000E-03 0.  1.
        -12    1    4    4    0    0 -0.51088630435E+01  0.18103732658E+01 -0.63579206016E+00  0.54573037759E+01  0.00000000000E+00 0.  1.
</event>
<event>
 8    1  0.2994958E-010  0.9118800E+02  0.7816164E-02  0.1184000E+00
        -11   -1    0    0    0    0  0.00000000000E+00  0.00000000000E+00  0.45593999997E+02  0.45594000000E+02  0.51100000000E-03 0. -1.
         11   -1    0    0    0    0 -0.00000000000E+00 -0.00000000000E+00 -0.45593999997E+02  0.45594000000E+02  0.51100000000E-03 0.  1.
         23    2    1    2    0    0 -0.17763568394E-14 -0.17763568394E-14  0.71054273576E-14  0.91188000000E+02  0.91188000000E+02 0.  0.
    9900012    2    3    3    0    0 -0.11411805334E+02 -0.12448603741E+02  0.39980322549E+02  0.47787271582E+02  0.20000002452E+02 0.  0.
        -12    1    3    3    0    0  0.11411805334E+02  0.12448603741E+02 -0.39980322549E+02  0.43400728418E+02  0.00000000000E+00 0.  1.
         11    1    4    4    0    0 -0.10510677662E+02 -0.89117382337E+01  0.21642098164E+02  0.25656847750E+02  0.51100000000E-03 0. -1.
        -11    1    4    4    0    0 -0.39764607090E+01 -0.65990978766E+01  0.90996021483E+01  0.11923216515E+02  0.51100000000E-03 0.  1.
        -12    1    4    4    0    0  0.30753330368E+01  0.30622323698E+01  0.92386222369E+01  0.10207207317E+02  0.00000000000E+00 0.  1.
</event>
<event>
 8    1  0.2994958E-010  0.9118800E+02  0.7816164E-02  0.1184000E+00
        -11   -1    0    0    0    0  0.00000000000E+00  0.00000000000E+00  0.45593999997E+02  0.45594000000E+02  0.51100000000E-03 0. -1.
         11   -1    0    0    0    0 -0.00000000000E+00 -0.00000000000E+00 -0.45593999997E+02  0.45594000000E+02  0.51100000000E-03 0.  1.
         23    2    1    2    0    0  0.00000000000E+00  0.00000000000E+00  0.00000000000E+00  0.91188000000E+02  0.91188000000E+02 0.  0.
    9900012    2    3    3    0    0  0.27254825643E+02  0.70543576372E+00 -0.33768373974E+02  0.47787236858E+02  0.19999844128E+02 0.  0.
         12    1    3    3    0    0 -0.27254825643E+02 -0.70543576372E+00  0.33768373974E+02  0.43400763142E+02  0.00000000000E+00 0. -1.
         11    1    4    4    0    0 -0.26980036027E+00  0.35016463778E+01  0.26900177666E+00  0.35223119974E+01  0.51100000000E-03 0. -1.
        -11    1    4    4    0    0  0.17065428174E+02  0.10543014998E+01 -0.19234453091E+02  0.25735278828E+02  0.51100000000E-03 0.  1.
        -12    1    4    4    0    0  0.10459197830E+02 -0.38505121139E+01 -0.14802922660E+02  0.18529646032E+02  0.00000000000E+00 0.  1.
</event>
<event>
 8    1  0.2994958E-010  0.9118800E+02  0.7816164E-02  0.1184000E+00
        -11   -1    0    0    0    0  0.00000000000E+00  0.00000000000E+00  0.45593999997E+02  0.45594000000E+02  0.51100000000E-03 0. -1.
         11   -1    0    0    0    0 -0.00000000000E+00 -0.00000000000E+00 -0.45593999997E+02  0.45594000000E+02  0.51100000000E-03 0.  1.
         23    2    1    2    0    0 -0.17763568394E-14  0.35527136788E-14  0.00000000000E+00  0.91188000000E+02  0.91188000000E+02 0.  0.
    9900012    2    3    3    0    0  0.11826754566E+02 -0.31999302339E+02  0.26829009871E+02  0.47787271384E+02  0.20000001548E+02 0.  0.
        -12    1    3    3    0    0 -0.11826754566E+02  0.31999302339E+02 -0.26829009871E+02  0.43400728616E+02  0.00000000000E+00 0.  1.
         11    1    4    4    0    0  0.23859625104E+01 -0.43326283899E+01  0.74842427859E+01  0.89709740946E+01  0.51100000000E-03 0. -1.
        -11    1    4    4    0    0 -0.45120560667E+00 -0.54819230724E+01 -0.25974340930E+01  0.60829048324E+01  0.51100000000E-03 0.  1.
        -12    1    4    4    0    0  0.98919976623E+01 -0.22184750877E+02  0.21942201178E+02  0.32733392457E+02  0.00000000000E+00 0.  1.
</event>
<event>
 8    1  0.2994958E-010  0.9118800E+02  0.7816164E-02  0.1184000E+00
        -11   -1    0    0    0    0  0.00000000000E+00  0.00000000000E+00  0.45593999997E+02  0.45594000000E+02  0.51100000000E-03 0. -1.
         11   -1    0    0    0    0 -0.00000000000E+00 -0.00000000000E+00 -0.45593999997E+02  0.45594000000E+02  0.51100000000E-03 0.  1.
         23    2    1    2    0    0  0.00000000000E+00  0.00000000000E+00  0.00000000000E+00  0.91188000000E+02  0.91188000000E+02 0.  0.
    9900012    2    3    3    0    0 -0.87873131570E+01 -0.33128030555E+02  0.26625937190E+02  0.47787264843E+02  0.19999971723E+02 0.  0.
        -12    1    3    3    0    0  0.87873131570E+01  0.33128030555E+02 -0.26625937190E+02  0.43400735157E+02  0.00000000000E+00 0.  1.
         11    1    4    4    0    0  0.13759607528E+00  0.52807083235E+00  0.17087785889E+01  0.17937993229E+01  0.51100000000E-03 0. -1.
        -11    1    4    4    0    0 -0.44718461683E+01  0.15128156225E+00  0.39140438023E+01  0.59447483893E+01  0.51100000000E-03 0.  1.
         12    1    4    4    0    0 -0.44530630640E+01 -0.33807382950E+02  0.21003114798E+02  0.40048717130E+02  0.00000000000E+00 0. -1.
</event>
<event>
 8    1  0.2994958E-010  0.9118800E+02  0.7816164E-02  0.1184000E+00
        -11   -1    0    0    0    0  0.00000000000E+00  0.00000000000E+00  0.45593999997E+02  0.45594000000E+02  0.51100000000E-03 0. -1.
         11   -1    0    0    0    0 -0.00000000000E+00 -0.00000000000E+00 -0.45593999997E+02  0.45594000000E+02  0.51100000000E-03 0.  1.
         23    2    1    2    0    0  0.00000000000E+00  0.00000000000E+00  0.00000000000E+00  0.91188000000E+02  0.91188000000E+02 0.  0.
    9900012    2    3    3    0    0 -0.14112282014E+02 -0.25675546064E+02 -0.32019263983E+02  0.47787269184E+02  0.19999991519E+02 0.  0.
         12    1    3    3    0    0  0.14112282014E+02  0.25675546064E+02  0.32019263983E+02  0.43400730816E+02  0.00000000000E+00 0. -1.
         11    1    4    4    0    0 -0.39910378091E+00 -0.51961407548E+01 -0.26004167804E+01  0.58242021140E+01  0.51100000000E-03 0. -1.
        -11    1    4    4    0    0 -0.55910710871E+01 -0.19655414829E+02 -0.14843658560E+02  0.25257268413E+02  0.51100000000E-03 0.  1.
         12    1    4    4    0    0 -0.81221071463E+01 -0.82399048074E+00 -0.14575188643E+02  0.16705798657E+02  0.00000000000E+00 0. -1.
</event>
<event>
 8    1  0.2994958E-010  0.9118800E+02  0.7816164E-02  0.1184000E+00
        -11   -1    0    0    0    0  0.00000000000E+00  0.00000000000E+00  0.45593999997E+02  0.45594000000E+02  0.51100000000E-03 0. -1.
         11   -1    0    0    0    0 -0.00000000000E+00 -0.00000000000E+00 -0.45593999997E+02  0.45594000000E+02  0.51100000000E-03 0.  1.
         23    2    1    2    0    0  0.35527136788E-14 -0.44408920985E-15  0.00000000000E+00  0.91188000000E+02  0.91188000000E+02 0.  0.
    9900012    2    3    3    0    0 -0.22574274512E+02 -0.25064622706E+01  0.36983010492E+02  0.47787270883E+02  0.19999999265E+02 0.  0.
        -12    1    3    3    0    0  0.22574274512E+02  0.25064622706E+01 -0.36983010492E+02  0.43400729117E+02  0.00000000000E+00 0.  1.
         11    1    4    4    0    0 -0.35260116391E+01  0.12184824037E+01  0.43496142352E+01  0.57303230016E+01  0.51100000000E-03 0. -1.
        -11    1    4    4    0    0 -0.11317435218E+01 -0.12220244875E+01 -0.22276788302E+01  0.27814996816E+01  0.51100000000E-03 0.  1.
        -12    1    4    4    0    0 -0.17916519351E+02 -0.25029201868E+01  0.34861075087E+02  0.39275448200E+02  0.00000000000E+00 0.  1.
</event>
<event>
 8    1  0.2994958E-010  0.9118800E+02  0.7816164E-02  0.1184000E+00
        -11   -1    0    0    0    0  0.00000000000E+00  0.00000000000E+00  0.45593999997E+02  0.45594000000E+02  0.51100000000E-03 0.  1.
         11   -1    0    0    0    0 -0.00000000000E+00 -0.00000000000E+00 -0.45593999997E+02  0.45594000000E+02  0.51100000000E-03 0. -1.
         23    2    1    2    0    0  0.71054273576E-14  0.35527136788E-14  0.00000000000E+00  0.91188000000E+02  0.91188000000E+02 0.  0.
    9900012    2    3    3    0    0 -0.32305054713E+02 -0.27006299242E+02  0.10519766512E+02  0.47787282884E+02  0.20000053980E+02 0.  0.
         12    1    3    3    0    0  0.32305054713E+02  0.27006299242E+02 -0.10519766512E+02  0.43400717116E+02  0.00000000000E+00 0. -1.
         11    1    4    4    0    0 -0.20407391582E+02 -0.16333717938E+02 -0.11633762300E+00  0.26139347879E+02  0.51100000000E-03 0. -1.
        -11    1    4    4    0    0 -0.50954646491E+01 -0.79429904777E+01  0.92610930465E+00  0.94822221248E+01  0.51100000000E-03 0.  1.
         12    1    4    4    0    0 -0.68021984819E+01 -0.27295908264E+01  0.97099948303E+01  0.12165712880E+02  0.00000000000E+00 0. -1.
</event>
<event>
 8    1  0.2994958E-010  0.9118800E+02  0.7816164E-02  0.1184000E+00
        -11   -1    0    0    0    0  0.00000000000E+00  0.00000000000E+00  0.45593999997E+02  0.45594000000E+02  0.51100000000E-03 0. -1.
         11   -1    0    0    0    0 -0.00000000000E+00 -0.00000000000E+00 -0.45593999997E+02  0.45594000000E+02  0.51100000000E-03 0.  1.
         23    2    1    2    0    0  0.00000000000E+00  0.00000000000E+00 -0.17763568394E-14  0.91188000000E+02  0.91188000000E+02 0.  0.
    9900012    2    3    3    0    0  0.21414290710E+02 -0.35271982671E+02  0.13451356839E+02  0.47787267184E+02  0.19999982399E+02 0.  0.
        -12    1    3    3    0    0 -0.21414290710E+02  0.35271982671E+02 -0.13451356839E+02  0.43400732816E+02  0.00000000000E+00 0.  1.
         11    1    4    4    0    0  0.10622953547E+02 -0.51750105391E+01 -0.11027625256E+00  0.11816938573E+02  0.51100000000E-03 0. -1.
        -11    1    4    4    0    0  0.73272290800E+01 -0.11425534549E+02  0.19525635479E+01  0.13712900145E+02  0.51100000000E-03 0.  1.
        -12    1    4    4    0    0  0.34641080833E+01 -0.18671437583E+02  0.11609069544E+02  0.22257428466E+02  0.00000000000E+00 0.  1.
</event>
<event>
 8    1  0.2994958E-010  0.9118800E+02  0.7816164E-02  0.1184000E+00
        -11   -1    0    0    0    0  0.00000000000E+00  0.00000000000E+00  0.45593999997E+02  0.45594000000E+02  0.51100000000E-03 0. -1.
         11   -1    0    0    0    0 -0.00000000000E+00 -0.00000000000E+00 -0.45593999997E+02  0.45594000000E+02  0.51100000000E-03 0.  1.
         23    2    1    2    0    0  0.00000000000E+00  0.35527136788E-14  0.35527136788E-14  0.91188000000E+02  0.91188000000E+02 0.  0.
    9900012    2    3    3    0    0 -0.24135051987E+02 -0.31535960380E+02  0.17510145622E+02  0.47787277296E+02  0.20000028503E+02 0.  0.
        -12    1    3    3    0    0  0.24135051987E+02  0.31535960380E+02 -0.17510145622E+02  0.43400722704E+02  0.00000000000E+00 0.  1.
         11    1    4    4    0    0 -0.17469008250E+02 -0.19246985357E+02  0.14225658870E+02  0.29630762142E+02  0.51100000000E-03 0. -1.
        -11    1    4    4    0    0 -0.22193161546E+01 -0.41514330227E+01  0.67734913730E+01  0.82486329763E+01  0.51100000000E-03 0.  1.
         12    1    4    4    0    0 -0.44467275830E+01 -0.81375420003E+01 -0.34890046206E+01  0.99078821777E+01  0.00000000000E+00 0. -1.
</event>
<event>
 8    1  0.2994958E-010  0.9118800E+02  0.7816164E-02  0.1184000E+00
        -11   -1    0    0    0    0  0.00000000000E+00  0.00000000000E+00  0.45593999997E+02  0.45594000000E+02  0.51100000000E-03 0. -1.
         11   -1    0    0    0    0 -0.00000000000E+00 -0.00000000000E+00 -0.45593999997E+02  0.45594000000E+02  0.51100000000E-03 0.  1.
         23    2    1    2    0    0  0.35527136788E-14  0.00000000000E+00  0.00000000000E+00  0.91188000000E+02  0.91188000000E+02 0.  0.
    9900012    2    3    3    0    0  0.22450994109E+02 -0.36590325763E+02  0.63815649580E+01  0.47787269048E+02  0.19999990895E+02 0.  0.
        -12    1    3    3    0    0 -0.22450994109E+02  0.36590325763E+02 -0.63815649580E+01  0.43400730952E+02  0.00000000000E+00 0.  1.
         11    1    4    4    0    0  0.18240109645E+01 -0.10618494591E+02 -0.27478871487E+01  0.11118917547E+02  0.51100000000E-03 0.  1.
        -11    1    4    4    0    0  0.11538947024E+02 -0.58819258373E+01  0.64111894937E+01  0.14451563962E+02  0.51100000000E-03 0. -1.
         12    1    4    4    0    0  0.90880361203E+01 -0.20089905335E+02  0.27182626130E+01  0.22216787538E+02  0.00000000000E+00 0. -1.
</event>
<event>
 8    1  0.2994958E-010  0.9118800E+02  0.7816164E-02  0.1184000E+00
        -11   -1    0    0    0    0  0.00000000000E+00  0.00000000000E+00  0.45593999997E+02  0.45594000000E+02  0.51100000000E-03 0. -1.
         11   -1    0    0    0    0 -0.00000000000E+00 -0.00000000000E+00 -0.45593999997E+02  0.45594000000E+02  0.51100000000E-03 0.  1.
         23    2    1    2    0    0 -0.17763568394E-14  0.76327832943E-15  0.00000000000E+00  0.91188000000E+02  0.91188000000E+02 0.  0.
    9900012    2    3    3    0    0  0.51305244010E+01  0.11710894424E+00 -0.43096256552E+02  0.47787270468E+02  0.19999997373E+02 0.  0.
         12    1    3    3    0    0 -0.51305244010E+01 -0.11710894424E+00  0.43096256552E+02  0.43400729532E+02  0.00000000000E+00 0. -1.
         11    1    4    4    0    0 -0.19077878566E+01  0.78986075773E+00 -0.20264717860E+01  0.28931164309E+01  0.51100000000E-03 0. -1.
        -11    1    4    4    0    0  0.10804769772E+02 -0.43056826354E+01 -0.19559253601E+02  0.22756237704E+02  0.51100000000E-03 0.  1.
         12    1    4    4    0    0 -0.37664575145E+01  0.36329308219E+01 -0.21510531165E+02  0.22137916333E+02  0.00000000000E+00 0. -1.
</event>
<event>
 8    1  0.2994958E-010  0.9118800E+02  0.7816164E-02  0.1184000E+00
        -11   -1    0    0    0    0  0.00000000000E+00  0.00000000000E+00  0.45593999997E+02  0.45594000000E+02  0.51100000000E-03 0. -1.
         11   -1    0    0    0    0 -0.00000000000E+00 -0.00000000000E+00 -0.45593999997E+02  0.45594000000E+02  0.51100000000E-03 0.  1.
         23    2    1    2    0    0  0.33306690739E-15  0.71054273576E-14  0.35527136788E-14  0.91188000000E+02  0.91188000000E+02 0.  0.
    9900012    2    3    3    0    0  0.37350658851E+00 -0.42299273039E+02 -0.97085196709E+01  0.47787270041E+02  0.19999995424E+02 0.  0.
        -12    1    3    3    0    0 -0.37350658851E+00  0.42299273039E+02  0.97085196709E+01  0.43400729959E+02  0.00000000000E+00 0.  1.
         11    1    4    4    0    0 -0.33156043672E+01 -0.80641406020E+01 -0.53985708924E+01  0.10255153042E+02  0.51100000000E-03 0. -1.
        -11    1    4    4    0    0  0.13887473066E+01 -0.13304979722E+02 -0.87872000342E+01  0.16005186321E+02  0.51100000000E-03 0.  1.
        -12    1    4    4    0    0  0.23003636491E+01 -0.20930152715E+02  0.44772512558E+01  0.21526930678E+02  0.00000000000E+00 0.  1.
</event>
<event>
 8    1  0.2994958E-010  0.9118800E+02  0.7816164E-02  0.1184000E+00
        -11   -1    0    0    0    0  0.00000000000E+00  0.00000000000E+00  0.45593999997E+02  0.45594000000E+02  0.51100000000E-03 0. -1.
         11   -1    0    0    0    0 -0.00000000000E+00 -0.00000000000E+00 -0.45593999997E+02  0.45594000000E+02  0.51100000000E-03 0.  1.
         23    2    1    2    0    0  0.00000000000E+00  0.44408920985E-15  0.00000000000E+00  0.91188000000E+02  0.91188000000E+02 0.  0.
    9900012    2    3    3    0    0 -0.88332450831E+01 -0.39186392660E+01 -0.42311240133E+02  0.47787274269E+02  0.20000014701E+02 0.  0.
         12    1    3    3    0    0  0.88332450831E+01  0.39186392660E+01  0.42311240133E+02  0.43400725731E+02  0.00000000000E+00 0. -1.
         11    1    4    4    0    0  0.22727139808E+01 -0.40654132508E+01 -0.12718892819E+01  0.48280965550E+01  0.51100000000E-03 0. -1.
        -11    1    4    4    0    0 -0.50921613105E+01  0.31326470971E+01 -0.19994724839E+02  0.20869417967E+02  0.51100000000E-03 0.  1.
        -12    1    4    4    0    0 -0.60137977534E+01 -0.29858731124E+01 -0.21044626012E+02  0.22089759746E+02  0.00000000000E+00 0.  1.
</event>
<event>
 8    1  0.2994958E-010  0.9118800E+02  0.7816164E-02  0.1184000E+00
        -11   -1    0    0    0    0  0.00000000000E+00  0.00000000000E+00  0.45593999997E+02  0.45594000000E+02  0.51100000000E-03 0. -1.
         11   -1    0    0    0    0 -0.00000000000E+00 -0.00000000000E+00 -0.45593999997E+02  0.45594000000E+02  0.51100000000E-03 0.  1.
         23    2    1    2    0    0 -0.35527136788E-14  0.00000000000E+00  0.00000000000E+00  0.91188000000E+02  0.91188000000E+02 0.  0.
    9900012    2    3    3    0    0 -0.19087963369E+02 -0.27512149000E+02  0.27610753140E+02  0.47787281375E+02  0.20000047101E+02 0.  0.
        -12    1    3    3    0    0  0.19087963369E+02  0.27512149000E+02 -0.27610753140E+02  0.43400718625E+02  0.00000000000E+00 0.  1.
         11    1    4    4    0    0 -0.14759236952E+02 -0.18720424194E+02  0.18258590550E+02  0.30027745279E+02  0.51100000000E-03 0. -1.
        -11    1    4    4    0    0 -0.60908770657E+01 -0.50319523856E+01  0.42271384033E+00  0.79118907660E+01  0.51100000000E-03 0.  1.
        -12    1    4    4    0    0  0.17621506489E+01 -0.37597724204E+01  0.89294487498E+01  0.98476453296E+01  0.00000000000E+00 0.  1.
</event>
<event>
 8    1  0.2994958E-010  0.9118800E+02  0.7816164E-02  0.1184000E+00
        -11   -1    0    0    0    0  0.00000000000E+00  0.00000000000E+00  0.45593999997E+02  0.45594000000E+02  0.51100000000E-03 0.  1.
         11   -1    0    0    0    0 -0.00000000000E+00 -0.00000000000E+00 -0.45593999997E+02  0.45594000000E+02  0.51100000000E-03 0. -1.
         23    2    1    2    0    0  0.35527136788E-14  0.00000000000E+00  0.00000000000E+00  0.91188000000E+02  0.91188000000E+02 0.  0.
    9900012    2    3    3    0    0 -0.19402715598E+02  0.36398152186E+02 -0.13503055352E+02  0.47787270064E+02  0.19999995530E+02 0.  0.
        -12    1    3    3    0    0  0.19402715598E+02 -0.36398152186E+02  0.13503055352E+02  0.43400729936E+02  0.00000000000E+00 0.  1.
         11    1    4    4    0    0 -0.10138408152E+01  0.61219187406E+01  0.10910182067E+01  0.63004827794E+01  0.51100000000E-03 0. -1.
        -11    1    4    4    0    0 -0.63881022952E+01  0.10650890982E+02  0.26969383462E+01  0.12709162299E+02  0.51100000000E-03 0.  1.
        -12    1    4    4    0    0 -0.12000772488E+02  0.19625342463E+02 -0.17291011905E+02  0.28777624985E+02  0.00000000000E+00 0.  1.
</event>
<event>
 8    1  0.2994958E-010  0.9118800E+02  0.7816164E-02  0.1184000E+00
        -11   -1    0    0    0    0  0.00000000000E+00  0.00000000000E+00  0.45593999997E+02  0.45594000000E+02  0.51100000000E-03 0. -1.
         11   -1    0    0    0    0 -0.00000000000E+00 -0.00000000000E+00 -0.45593999997E+02  0.45594000000E+02  0.51100000000E-03 0.  1.
         23    2    1    2    0    0  0.00000000000E+00  0.00000000000E+00  0.00000000000E+00  0.91188000000E+02  0.91188000000E+02 0.  0.
    9900012    2    3    3    0    0 -0.32608498516E+02  0.17286370574E+02 -0.22836193805E+02  0.47787256566E+02  0.19999933987E+02 0.  0.
         12    1    3    3    0    0  0.32608498516E+02 -0.17286370574E+02  0.22836193805E+02  0.43400743434E+02  0.00000000000E+00 0. -1.
         11    1    4    4    0    0 -0.12615271060E+02  0.10809903457E+02 -0.95778890041E+01  0.19176418714E+02  0.51100000000E-03 0. -1.
        -11    1    4    4    0    0 -0.93353815814E+01  0.10387527373E+02 -0.65681894816E+01  0.15433443800E+02  0.51100000000E-03 0.  1.
         12    1    4    4    0    0 -0.10657845875E+02 -0.39110602558E+01 -0.66901153191E+01  0.13177394052E+02  0.00000000000E+00 0. -1.
</event>
<event>
 8    1  0.2994958E-010  0.9118800E+02  0.7816164E-02  0.1184000E+00
        -11   -1    0    0    0    0  0.00000000000E+00  0.00000000000E+00  0.45593999997E+02  0.45594000000E+02  0.51100000000E-03 0. -1.
         11   -1    0    0    0    0 -0.00000000000E+00 -0.00000000000E+00 -0.45593999997E+02  0.45594000000E+02  0.51100000000E-03 0.  1.
         23    2    1    2    0    0  0.00000000000E+00  0.17763568394E-14  0.00000000000E+00  0.91188000000E+02  0.91188000000E+02 0.  0.
    9900012    2    3    3    0    0 -0.22939744348E+02 -0.95586066487E+01  0.35581227339E+02  0.47787279145E+02  0.20000036933E+02 0.  0.
        -12    1    3    3    0    0  0.22939744348E+02  0.95586066487E+01 -0.35581227339E+02  0.43400720855E+02  0.00000000000E+00 0.  1.
         11    1    4    4    0    0 -0.57399606777E+01  0.21891857912E+01  0.10322806935E+02  0.12012494590E+02  0.51100000000E-03 0. -1.
        -11    1    4    4    0    0 -0.15279122248E+02 -0.24572511708E+01  0.18539080246E+02  0.24149268242E+02  0.51100000000E-03 0.  1.
        -12    1    4    4    0    0 -0.19206614226E+01 -0.92905412692E+01  0.67193401572E+01  0.11625516312E+02  0.00000000000E+00 0.  1.
</event>
<event>
 8    1  0.2994958E-010  0.9118800E+02  0.7816164E-02  0.1184000E+00
        -11   -1    0    0    0    0  0.00000000000E+00  0.00000000000E+00  0.45593999997E+02  0.45594000000E+02  0.51100000000E-03 0. -1.
         11   -1    0    0    0    0 -0.00000000000E+00 -0.00000000000E+00 -0.45593999997E+02  0.45594000000E+02  0.51100000000E-03 0.  1.
         23    2    1    2    0    0  0.29143354396E-15  0.00000000000E+00  0.00000000000E+00  0.91188000000E+02  0.91188000000E+02 0.  0.
    9900012    2    3    3    0    0  0.73135998202E-01 -0.38525239907E+02 -0.19985591469E+02  0.47787270454E+02  0.19999997307E+02 0.  0.
         12    1    3    3    0    0 -0.73135998202E-01  0.38525239907E+02  0.19985591469E+02  0.43400729546E+02  0.00000000000E+00 0. -1.
         11    1    4    4    0    0  0.41165127792E+00 -0.36376018137E+01  0.29803355310E+01  0.47205935928E+01  0.51100000000E-03 0. -1.
        -11    1    4    4    0    0 -0.36587571197E+01 -0.11901687455E+02 -0.39882536307E+01  0.13074510898E+02  0.51100000000E-03 0.  1.
        -12    1    4    4    0    0  0.33202418400E+01 -0.22985950638E+02 -0.18977673370E+02  0.29992165963E+02  0.00000000000E+00 0.  1.
</event>
<event>
 8    1  0.2994958E-010  0.9118800E+02  0.7816164E-02  0.1184000E+00
        -11   -1    0    0    0    0  0.00000000000E+00  0.00000000000E+00  0.45593999997E+02  0.45594000000E+02  0.51100000000E-03 0. -1.
         11   -1    0    0    0    0 -0.00000000000E+00 -0.00000000000E+00 -0.45593999997E+02  0.45594000000E+02  0.51100000000E-03 0.  1.
         23    2    1    2    0    0  0.00000000000E+00 -0.35527136788E-14  0.00000000000E+00  0.91188000000E+02  0.91188000000E+02 0.  0.
    9900012    2    3    3    0    0 -0.23617260864E+02 -0.30278596386E+02  0.20225104511E+02  0.47787271178E+02  0.20000000609E+02 0.  0.
        -12    1    3    3    0    0  0.23617260864E+02  0.30278596386E+02 -0.20225104511E+02  0.43400728822E+02  0.00000000000E+00 0.  1.
         11    1    4    4    0    0 -0.19023154658E+02 -0.23782667565E+02  0.64931452546E+01  0.31139309967E+02  0.51100000000E-03 0.  1.
        -11    1    4    4    0    0 -0.42189777173E+01 -0.46403767359E+01  0.59709193189E+01  0.86593733610E+01  0.51100000000E-03 0. -1.
        -12    1    4    4    0    0 -0.37512848780E+00 -0.18555520848E+01  0.77610399374E+01  0.79885878497E+01  0.00000000000E+00 0.  1.
</event>
<event>
 8    1  0.2994958E-010  0.9118800E+02  0.7816164E-02  0.1184000E+00
        -11   -1    0    0    0    0  0.00000000000E+00  0.00000000000E+00  0.45593999997E+02  0.45594000000E+02  0.51100000000E-03 0.  1.
         11   -1    0    0    0    0 -0.00000000000E+00 -0.00000000000E+00 -0.45593999997E+02  0.45594000000E+02  0.51100000000E-03 0. -1.
         23    2    1    2    0    0  0.00000000000E+00  0.00000000000E+00  0.00000000000E+00  0.91188000000E+02  0.91188000000E+02 0.  0.
    9900012    2    3    3    0    0  0.10128988138E+02  0.41121314566E+02  0.94901690611E+01  0.47787283173E+02  0.20000055299E+02 0.  0.
         12    1    3    3    0    0 -0.10128988138E+02 -0.41121314566E+02 -0.94901690611E+01  0.43400716827E+02  0.00000000000E+00 0. -1.
         11    1    4    4    0    0  0.83286978039E+00  0.21156262704E+02  0.96230762372E+01  0.23256928435E+02  0.51100000000E-03 0. -1.
        -11    1    4    4    0    0  0.31276188856E+01  0.17625167563E+02  0.45962905596E+00  0.17906417582E+02  0.51100000000E-03 0.  1.
         12    1    4    4    0    0  0.61684994715E+01  0.23398842987E+01 -0.59253623208E+00  0.66239371561E+01  0.00000000000E+00 0. -1.
</event>
<event>
 8    1  0.2994958E-010  0.9118800E+02  0.7816164E-02  0.1184000E+00
        -11   -1    0    0    0    0  0.00000000000E+00  0.00000000000E+00  0.45593999997E+02  0.45594000000E+02  0.51100000000E-03 0. -1.
         11   -1    0    0    0    0 -0.00000000000E+00 -0.00000000000E+00 -0.45593999997E+02  0.45594000000E+02  0.51100000000E-03 0.  1.
         23    2    1    2    0    0  0.00000000000E+00  0.00000000000E+00 -0.35527136788E-14  0.91188000000E+02  0.91188000000E+02 0.  0.
    9900012    2    3    3    0    0  0.17331698448E+02 -0.31207623280E+02  0.24684393965E+02  0.47787276189E+02  0.20000023457E+02 0.  0.
        -12    1    3    3    0    0 -0.17331698448E+02  0.31207623280E+02 -0.24684393965E+02  0.43400723811E+02  0.00000000000E+00 0.  1.
         11    1    4    4    0    0  0.13408185401E+02 -0.99936515329E+01  0.97219640249E+01  0.19343450868E+02  0.51100000000E-03 0. -1.
        -11    1    4    4    0    0  0.44448652232E+01 -0.18742640119E+01  0.34539294716E+01  0.59329016084E+01  0.51100000000E-03 0.  1.
        -12    1    4    4    0    0 -0.52135217658E+00 -0.19339707735E+02  0.11508500469E+02  0.22510923713E+02  0.00000000000E+00 0.  1.
</event>
<event>
 8    1  0.2994958E-010  0.9118800E+02  0.7816164E-02  0.1184000E+00
        -11   -1    0    0    0    0  0.00000000000E+00  0.00000000000E+00  0.45593999997E+02  0.45594000000E+02  0.51100000000E-03 0. -1.
         11   -1    0    0    0    0 -0.00000000000E+00 -0.00000000000E+00 -0.45593999997E+02  0.45594000000E+02  0.51100000000E-03 0.  1.
         23    2    1    2    0    0 -0.88817841970E-15  0.00000000000E+00  0.00000000000E+00  0.91188000000E+02  0.91188000000E+02 0.  0.
    9900012    2    3    3    0    0 -0.75940283438E+01 -0.59892590880E+01  0.42309367950E+02  0.47787272964E+02  0.20000008754E+02 0.  0.
        -12    1    3    3    0    0  0.75940283438E+01  0.59892590880E+01 -0.42309367950E+02  0.43400727036E+02  0.00000000000E+00 0.  1.
         11    1    4    4    0    0 -0.74432807692E+00  0.36676340041E+01  0.16757688343E+02  0.17170488704E+02  0.51100000000E-03 0. -1.
        -11    1    4    4    0    0 -0.56782004937E+01  0.11865272476E+01  0.69419952342E+01  0.90466074220E+01  0.51100000000E-03 0.  1.
        -12    1    4    4    0    0 -0.11714997731E+01 -0.10843420340E+02  0.18609684373E+02  0.21570176839E+02  0.00000000000E+00 0.  1.
</event>
<event>
 8    1  0.2994958E-010  0.9118800E+02  0.7816164E-02  0.1184000E+00
        -11   -1    0    0    0    0  0.00000000000E+00  0.00000000000E+00  0.45593999997E+02  0.45594000000E+02  0.51100000000E-03 0. -1.
         11   -1    0    0    0    0 -0.00000000000E+00 -0.00000000000E+00 -0.45593999997E+02  0.45594000000E+02  0.51100000000E-03 0.  1.
         23    2    1    2    0    0  0.00000000000E+00  0.00000000000E+00  0.71054273576E-14  0.91188000000E+02  0.91188000000E+02 0.  0.
    9900012    2    3    3    0    0  0.82554583221E+01 -0.92582011128E+01  0.41590342080E+02  0.47787269196E+02  0.19999991573E+02 0.  0.
        -12    1    3    3    0    0 -0.82554583221E+01  0.92582011128E+01 -0.41590342080E+02  0.43400730804E+02  0.00000000000E+00 0.  1.
         11    1    4    4    0    0  0.43154223813E+01 -0.10339614718E+02  0.31852153731E+02  0.33765221759E+02  0.51100000000E-03 0. -1.
        -11    1    4    4    0    0  0.44134928481E+01 -0.70419363278E+00  0.10940334904E+02  0.11818025887E+02  0.51100000000E-03 0.  1.
        -12    1    4    4    0    0 -0.47345690732E+00  0.17856072378E+01 -0.12021465556E+01  0.22040215497E+01  0.00000000000E+00 0.  1.
</event>
<event>
 8    1  0.2994958E-010  0.9118800E+02  0.7816164E-02  0.1184000E+00
        -11   -1    0    0    0    0  0.00000000000E+00  0.00000000000E+00  0.45593999997E+02  0.45594000000E+02  0.51100000000E-03 0. -1.
         11   -1    0    0    0    0 -0.00000000000E+00 -0.00000000000E+00 -0.45593999997E+02  0.45594000000E+02  0.51100000000E-03 0.  1.
         23    2    1    2    0    0  0.00000000000E+00  0.17763568394E-14 -0.71054273576E-14  0.91188000000E+02  0.91188000000E+02 0.  0.
    9900012    2    3    3    0    0  0.14314872069E+02  0.15733284578E+02 -0.37830826312E+02  0.47787271603E+02  0.20000002547E+02 0.  0.
         12    1    3    3    0    0 -0.14314872069E+02 -0.15733284578E+02  0.37830826312E+02  0.43400728397E+02  0.00000000000E+00 0. -1.
         11    1    4    4    0    0  0.45795549499E+00  0.39828639152E+01 -0.58116287759E+00  0.40510095969E+01  0.51100000000E-03 0. -1.
        -11    1    4    4    0    0  0.10718002834E+01  0.88672284716E+01 -0.94556985254E+01  0.13007179997E+02  0.51100000000E-03 0.  1.
         12    1    4    4    0    0  0.12785116290E+02  0.28831921911E+01 -0.27793964909E+02  0.30729082009E+02  0.00000000000E+00 0. -1.
</event>
<event>
 8    1  0.2994958E-010  0.9118800E+02  0.7816164E-02  0.1184000E+00
        -11   -1    0    0    0    0  0.00000000000E+00  0.00000000000E+00  0.45593999997E+02  0.45594000000E+02  0.51100000000E-03 0. -1.
         11   -1    0    0    0    0 -0.00000000000E+00 -0.00000000000E+00 -0.45593999997E+02  0.45594000000E+02  0.51100000000E-03 0.  1.
         23    2    1    2    0    0  0.35527136788E-14  0.88817841970E-15  0.71054273576E-14  0.91188000000E+02  0.91188000000E+02 0.  0.
    9900012    2    3    3    0    0 -0.24189897013E+02 -0.71069361603E+01 -0.35326525461E+02  0.47787273506E+02  0.20000011222E+02 0.  0.
         12    1    3    3    0    0  0.24189897013E+02  0.71069361603E+01  0.35326525461E+02  0.43400726494E+02  0.00000000000E+00 0. -1.
         11    1    4    4    0    0 -0.87969305786E+01  0.45436496125E+01 -0.81571010664E+01  0.12828446417E+02  0.51100000000E-03 0. -1.
        -11    1    4    4    0    0 -0.15394780937E+01  0.50372090579E+00 -0.87646104551E+01  0.89130311478E+01  0.51100000000E-03 0.  1.
        -12    1    4    4    0    0 -0.13853488340E+02 -0.12154306679E+02 -0.18404813940E+02  0.26045795941E+02  0.00000000000E+00 0.  1.
</event>
<event>
 8    1  0.2994958E-010  0.9118800E+02  0.7816164E-02  0.1184000E+00
        -11   -1    0    0    0    0  0.00000000000E+00  0.00000000000E+00  0.45593999997E+02  0.45594000000E+02  0.51100000000E-03 0.  1.
         11   -1    0    0    0    0 -0.00000000000E+00 -0.00000000000E+00 -0.45593999997E+02  0.45594000000E+02  0.51100000000E-03 0. -1.
         23    2    1    2    0    0  0.17763568394E-14  0.00000000000E+00  0.44408920985E-15  0.91188000000E+02  0.91188000000E+02 0.  0.
    9900012    2    3    3    0    0 -0.13741974907E+02  0.41103022082E+02 -0.23069435778E+01  0.47787282411E+02  0.20000051824E+02 0.  0.
         12    1    3    3    0    0  0.13741974907E+02 -0.41103022082E+02  0.23069435778E+01  0.43400717589E+02  0.00000000000E+00 0. -1.
         11    1    4    4    0    0 -0.10643017981E+02  0.21824628351E+02 -0.37417405889E+01  0.24568045451E+02  0.51100000000E-03 0. -1.
        -11    1    4    4    0    0 -0.46565360699E+01  0.11021528000E+02 -0.46586885421E+01  0.12839812569E+02  0.51100000000E-03 0.  1.
         12    1    4    4    0    0  0.15575791441E+01  0.82568657313E+01  0.60934855532E+01  0.10379424391E+02  0.00000000000E+00 0. -1.
</event>
<event>
 8    1  0.2994958E-010  0.9118800E+02  0.7816164E-02  0.1184000E+00
        -11   -1    0    0    0    0  0.00000000000E+00  0.00000000000E+00  0.45593999997E+02  0.45594000000E+02  0.51100000000E-03 0. -1.
         11   -1    0    0    0    0 -0.00000000000E+00 -0.00000000000E+00 -0.45593999997E+02  0.45594000000E+02  0.51100000000E-03 0.  1.
         23    2    1    2    0    0  0.00000000000E+00  0.00000000000E+00  0.35527136788E-14  0.91188000000E+02  0.91188000000E+02 0.  0.
    9900012    2    3    3    0    0 -0.20254897015E+02 -0.24328255923E+02 -0.29690038126E+02  0.47787271282E+02  0.20000001084E+02 0.  0.
         12    1    3    3    0    0  0.20254897015E+02  0.24328255923E+02  0.29690038126E+02  0.43400728718E+02  0.00000000000E+00 0. -1.
         11    1    4    4    0    0 -0.48906045082E-01  0.17903909925E+01 -0.37094093925E+01  0.41191758896E+01  0.51100000000E-03 0. -1.
        -11    1    4    4    0    0 -0.91304496137E+01 -0.72379155041E+01 -0.32163959537E+01  0.12087089566E+02  0.51100000000E-03 0.  1.
        -12    1    4    4    0    0 -0.11075541356E+02 -0.18880731411E+02 -0.22764232780E+02  0.31581005826E+02  0.00000000000E+00 0.  1.
</event>
<event>
 8    1  0.2994958E-010  0.9118800E+02  0.7816164E-02  0.1184000E+00
        -11   -1    0    0    0    0  0.00000000000E+00  0.00000000000E+00  0.45593999997E+02  0.45594000000E+02  0.51100000000E-03 0. -1.
         11   -1    0    0    0    0 -0.00000000000E+00 -0.00000000000E+00 -0.45593999997E+02  0.45594000000E+02  0.51100000000E-03 0.  1.
         23    2    1    2    0    0  0.00000000000E+00 -0.34694469520E-15 -0.35527136788E-14  0.91188000000E+02  0.91188000000E+02 0.  0.
    9900012    2    3    3    0    0  0.29516175940E+02  0.56878621264E-01 -0.31818475264E+02  0.47787271372E+02  0.20000001493E+02 0.  0.
         12    1    3    3    0    0 -0.29516175940E+02 -0.56878621264E-01  0.31818475264E+02  0.43400728628E+02  0.00000000000E+00 0. -1.
         11    1    4    4    0    0  0.18600520873E+02  0.20692641438E+01 -0.24025673051E+02  0.30454789388E+02  0.51100000000E-03 0. -1.
        -11    1    4    4    0    0  0.49650510443E+01  0.44431836941E+01 -0.27542413778E+01  0.72096781510E+01  0.51100000000E-03 0.  1.
         12    1    4    4    0    0  0.59506040232E+01 -0.64555692166E+01 -0.50385608353E+01  0.10122803833E+02  0.00000000000E+00 0. -1.
</event>
<event>
 8    1  0.2994958E-010  0.9118800E+02  0.7816164E-02  0.1184000E+00
        -11   -1    0    0    0    0  0.00000000000E+00  0.00000000000E+00  0.45593999997E+02  0.45594000000E+02  0.51100000000E-03 0.  1.
         11   -1    0    0    0    0 -0.00000000000E+00 -0.00000000000E+00 -0.45593999997E+02  0.45594000000E+02  0.51100000000E-03 0. -1.
         23    2    1    2    0    0  0.00000000000E+00  0.00000000000E+00  0.35527136788E-14  0.91188000000E+02  0.91188000000E+02 0.  0.
    9900012    2    3    3    0    0 -0.18018813400E+02  0.36085865830E+02 -0.16023614805E+02  0.47787267513E+02  0.19999983898E+02 0.  0.
         12    1    3    3    0    0  0.18018813400E+02 -0.36085865830E+02  0.16023614805E+02  0.43400732487E+02  0.00000000000E+00 0. -1.
         11    1    4    4    0    0  0.18465239749E+01  0.36408184752E+01 -0.32363724277E+01  0.52095409309E+01  0.51100000000E-03 0. -1.
        -11    1    4    4    0    0 -0.65478458622E+01  0.55303330146E+01 -0.88013796658E+01  0.12285078468E+02  0.51100000000E-03 0.  1.
        -12    1    4    4    0    0 -0.13317491513E+02  0.26914714340E+02 -0.39858627110E+01  0.30292648114E+02  0.00000000000E+00 0.  1.
</event>
<event>
 8    1  0.2994958E-010  0.9118800E+02  0.7816164E-02  0.1184000E+00
        -11   -1    0    0    0    0  0.00000000000E+00  0.00000000000E+00  0.45593999997E+02  0.45594000000E+02  0.51100000000E-03 0. -1.
         11   -1    0    0    0    0 -0.00000000000E+00 -0.00000000000E+00 -0.45593999997E+02  0.45594000000E+02  0.51100000000E-03 0.  1.
         23    2    1    2    0    0  0.00000000000E+00  0.00000000000E+00  0.00000000000E+00  0.91188000000E+02  0.91188000000E+02 0.  0.
    9900012    2    3    3    0    0 -0.12389687298E+02 -0.24559988689E+02 -0.33569714881E+02  0.47787272438E+02  0.20000006352E+02 0.  0.
         12    1    3    3    0    0  0.12389687298E+02  0.24559988689E+02  0.33569714881E+02  0.43400727562E+02  0.00000000000E+00 0. -1.
         11    1    4    4    0    0 -0.74006698608E+01 -0.14064946615E+02 -0.15364203026E+02  0.22105460243E+02  0.51100000000E-03 0. -1.
        -11    1    4    4    0    0 -0.94749152049E+01 -0.78591411293E+01 -0.15572511348E+02  0.19850522093E+02  0.51100000000E-03 0.  1.
         12    1    4    4    0    0  0.44858977678E+01 -0.26359009452E+01 -0.26330005074E+01  0.58312901015E+01  0.00000000000E+00 0. -1.
</event>
<event>
 8    1  0.2994958E-010  0.9118800E+02  0.7816164E-02  0.1184000E+00
        -11   -1    0    0    0    0  0.00000000000E+00  0.00000000000E+00  0.45593999997E+02  0.45594000000E+02  0.51100000000E-03 0. -1.
         11   -1    0    0    0    0 -0.00000000000E+00 -0.00000000000E+00 -0.45593999997E+02  0.45594000000E+02  0.51100000000E-03 0.  1.
         23    2    1    2    0    0  0.35527136788E-14  0.88817841970E-15  0.00000000000E+00  0.91188000000E+02  0.91188000000E+02 0.  0.
    9900012    2    3    3    0    0  0.16804103508E+02  0.67566720382E+01 -0.39441005643E+02  0.47787269155E+02  0.19999991385E+02 0.  0.
         12    1    3    3    0    0 -0.16804103508E+02 -0.67566720382E+01  0.39441005643E+02  0.43400730845E+02  0.00000000000E+00 0. -1.
         11    1    4    4    0    0 -0.18053062789E+01  0.33335500307E+01 -0.49643740235E+01  0.62463346271E+01  0.51100000000E-03 0. -1.
        -11    1    4    4    0    0  0.15185782226E+01  0.48921345565E+01 -0.37430913744E+01  0.63442725064E+01  0.51100000000E-03 0.  1.
        -12    1    4    4    0    0  0.17090831565E+02 -0.14690125490E+01 -0.30733540245E+02  0.35196662021E+02  0.00000000000E+00 0.  1.
</event>
<event>
 8    1  0.2994958E-010  0.9118800E+02  0.7816164E-02  0.1184000E+00
        -11   -1    0    0    0    0  0.00000000000E+00  0.00000000000E+00  0.45593999997E+02  0.45594000000E+02  0.51100000000E-03 0. -1.
         11   -1    0    0    0    0 -0.00000000000E+00 -0.00000000000E+00 -0.45593999997E+02  0.45594000000E+02  0.51100000000E-03 0.  1.
         23    2    1    2    0    0 -0.35527136788E-14  0.35527136788E-14  0.00000000000E+00  0.91188000000E+02  0.91188000000E+02 0.  0.
    9900012    2    3    3    0    0  0.18498137627E+02 -0.20925758079E+02  0.33219793472E+02  0.47787272758E+02  0.20000007811E+02 0.  0.
        -12    1    3    3    0    0 -0.18498137627E+02  0.20925758079E+02 -0.33219793472E+02  0.43400727242E+02  0.00000000000E+00 0.  1.
         11    1    4    4    0    0  0.18305755372E+02 -0.10079079049E+02  0.15695489214E+02  0.26134974577E+02  0.51100000000E-03 0.  1.
        -11    1    4    4    0    0  0.22957387354E+01 -0.22539017662E+01  0.81541601986E+01  0.87658894768E+01  0.51100000000E-03 0. -1.
         12    1    4    4    0    0 -0.21033564804E+01 -0.85927772637E+01  0.93701440590E+01  0.12886408703E+02  0.00000000000E+00 0. -1.
</event>
<event>
 8    1  0.2994958E-010  0.9118800E+02  0.7816164E-02  0.1184000E+00
        -11   -1    0    0    0    0  0.00000000000E+00  0.00000000000E+00  0.45593999997E+02  0.45594000000E+02  0.51100000000E-03 0. -1.
         11   -1    0    0    0    0 -0.00000000000E+00 -0.00000000000E+00 -0.45593999997E+02  0.45594000000E+02  0.51100000000E-03 0.  1.
         23    2    1    2    0    0  0.00000000000E+00  0.00000000000E+00  0.00000000000E+00  0.91188000000E+02  0.91188000000E+02 0.  0.
    9900012    2    3    3    0    0  0.16821056172E+02 -0.32058888010E+02  0.23935392775E+02  0.47787271222E+02  0.20000000808E+02 0.  0.
        -12    1    3    3    0    0 -0.16821056172E+02  0.32058888010E+02 -0.23935392775E+02  0.43400728778E+02  0.00000000000E+00 0.  1.
         11    1    4    4    0    0  0.19724662493E+01 -0.75227213876E+01  0.10027880561E+02  0.12690167414E+02  0.51100000000E-03 0.  1.
        -11    1    4    4    0    0  0.56979321075E+01 -0.17127620561E+02  0.14725309865E+02  0.23294990175E+02  0.51100000000E-03 0. -1.
        -12    1    4    4    0    0  0.91506578154E+01 -0.74085460619E+01 -0.81779765085E+00  0.11802113633E+02  0.00000000000E+00 0.  1.
</event>
<event>
 8    1  0.2994958E-010  0.9118800E+02  0.7816164E-02  0.1184000E+00
        -11   -1    0    0    0    0  0.00000000000E+00  0.00000000000E+00  0.45593999997E+02  0.45594000000E+02  0.51100000000E-03 0. -1.
         11   -1    0    0    0    0 -0.00000000000E+00 -0.00000000000E+00 -0.45593999997E+02  0.45594000000E+02  0.51100000000E-03 0.  1.
         23    2    1    2    0    0 -0.35527136788E-14  0.00000000000E+00  0.00000000000E+00  0.91188000000E+02  0.91188000000E+02 0.  0.
    9900012    2    3    3    0    0  0.17495793039E+02 -0.60403588979E+01 -0.39256008720E+02  0.47787275002E+02  0.20000018045E+02 0.  0.
         12    1    3    3    0    0 -0.17495793039E+02  0.60403588979E+01  0.39256008720E+02  0.43400724998E+02  0.00000000000E+00 0. -1.
         11    1    4    4    0    0 -0.78334632611E+00  0.85477091291E+00 -0.12413153806E+02  0.12467183020E+02  0.51100000000E-03 0. -1.
        -11    1    4    4    0    0  0.57044227358E+00 -0.18066270824E+01  0.83485341420E+00  0.20703348248E+01  0.51100000000E-03 0.  1.
        -12    1    4    4    0    0  0.17708697092E+02 -0.50885027284E+01 -0.27677708329E+02  0.33249757158E+02  0.00000000000E+00 0.  1.
</event>
<event>
 8    1  0.2994958E-010  0.9118800E+02  0.7816164E-02  0.1184000E+00
        -11   -1    0    0    0    0  0.00000000000E+00  0.00000000000E+00  0.45593999997E+02  0.45594000000E+02  0.51100000000E-03 0. -1.
         11   -1    0    0    0    0 -0.00000000000E+00 -0.00000000000E+00 -0.45593999997E+02  0.45594000000E+02  0.51100000000E-03 0.  1.
         23    2    1    2    0    0  0.17763568394E-14  0.00000000000E+00  0.00000000000E+00  0.91188000000E+02  0.91188000000E+02 0.  0.
    9900012    2    3    3    0    0  0.77021501248E+01 -0.19595526404E+02 -0.37951491086E+02  0.47787269047E+02  0.19999990892E+02 0.  0.
         12    1    3    3    0    0 -0.77021501248E+01  0.19595526404E+02  0.37951491086E+02  0.43400730953E+02  0.00000000000E+00 0. -1.
         11    1    4    4    0    0  0.28715587237E+01 -0.91325925283E+01 -0.46491474345E+01  0.10642587464E+02  0.51100000000E-03 0. -1.
        -11    1    4    4    0    0  0.32189261353E+01 -0.12873056953E+02 -0.24299730590E+02  0.27686711393E+02  0.51100000000E-03 0.  1.
         12    1    4    4    0    0  0.16116652659E+01  0.24101230768E+01 -0.90026130619E+01  0.94579701901E+01  0.00000000000E+00 0. -1.
</event>
<event>
 8    1  0.2994958E-010  0.9118800E+02  0.7816164E-02  0.1184000E+00
        -11   -1    0    0    0    0  0.00000000000E+00  0.00000000000E+00  0.45593999997E+02  0.45594000000E+02  0.51100000000E-03 0. -1.
         11   -1    0    0    0    0 -0.00000000000E+00 -0.00000000000E+00 -0.45593999997E+02  0.45594000000E+02  0.51100000000E-03 0.  1.
         23    2    1    2    0    0  0.00000000000E+00  0.00000000000E+00  0.00000000000E+00  0.91188000000E+02  0.91188000000E+02 0.  0.
    9900012    2    3    3    0    0 -0.17720000522E+02  0.35785629042E+02  0.17000400049E+02  0.47787271132E+02  0.20000000399E+02 0.  0.
        -12    1    3    3    0    0  0.17720000522E+02 -0.35785629042E+02 -0.17000400049E+02  0.43400728868E+02  0.00000000000E+00 0.  1.
         11    1    4    4    0    0  0.20206655228E+01  0.29237026556E+01  0.45349517661E+01  0.57616763321E+01  0.51100000000E-03 0. -1.
        -11    1    4    4    0    0 -0.13478196334E+01  0.65574205808E+01  0.65925214282E+01  0.93956224636E+01  0.51100000000E-03 0.  1.
         12    1    4    4    0    0 -0.18392846412E+02  0.26304505806E+02  0.58729268546E+01  0.32629972336E+02  0.00000000000E+00 0. -1.
</event>
<event>
 8    1  0.2994958E-010  0.9118800E+02  0.7816164E-02  0.1184000E+00
        -11   -1    0    0    0    0  0.00000000000E+00  0.00000000000E+00  0.45593999997E+02  0.45594000000E+02  0.51100000000E-03 0.  1.
         11   -1    0    0    0    0 -0.00000000000E+00 -0.00000000000E+00 -0.45593999997E+02  0.45594000000E+02  0.51100000000E-03 0. -1.
         23    2    1    2    0    0  0.00000000000E+00 -0.71054273576E-14  0.00000000000E+00  0.91188000000E+02  0.91188000000E+02 0.  0.
    9900012    2    3    3    0    0  0.30784372705E+02  0.24660662379E+02 -0.18105269321E+02  0.47787232161E+02  0.19999822716E+02 0.  0.
         12    1    3    3    0    0 -0.30784372705E+02 -0.24660662379E+02  0.18105269321E+02  0.43400767839E+02  0.00000000000E+00 0. -1.
         11    1    4    4    0    0  0.17727292432E+02  0.18162250954E+02 -0.20549056822E+02  0.32655596660E+02  0.51100000000E-03 0. -1.
        -11    1    4    4    0    0  0.13015040772E+01  0.16473014895E+01  0.10228128815E+01  0.23353075840E+01  0.51100000000E-03 0.  1.
         12    1    4    4    0    0  0.11755576195E+02  0.48511099357E+01  0.14209746202E+01  0.12796327917E+02  0.00000000000E+00 0. -1.
</event>
<event>
 8    1  0.2994958E-010  0.9118800E+02  0.7816164E-02  0.1184000E+00
        -11   -1    0    0    0    0  0.00000000000E+00  0.00000000000E+00  0.45593999997E+02  0.45594000000E+02  0.51100000000E-03 0. -1.
         11   -1    0    0    0    0 -0.00000000000E+00 -0.00000000000E+00 -0.45593999997E+02  0.45594000000E+02  0.51100000000E-03 0.  1.
         23    2    1    2    0    0  0.35527136788E-14  0.00000000000E+00  0.00000000000E+00  0.91188000000E+02  0.91188000000E+02 0.  0.
    9900012    2    3    3    0    0  0.19846596692E+02 -0.11381431536E+02  0.36880872935E+02  0.47787272212E+02  0.20000005324E+02 0.  0.
        -12    1    3    3    0    0 -0.19846596692E+02  0.11381431536E+02 -0.36880872935E+02  0.43400727788E+02  0.00000000000E+00 0.  1.
         11    1    4    4    0    0  0.28650162758E+01  0.16050569637E+01  0.35640348826E+01  0.48463255177E+01  0.51100000000E-03 0.  1.
        -11    1    4    4    0    0  0.12049142942E+02 -0.12490602900E+02  0.33764322804E+02  0.37963489054E+02  0.51100000000E-03 0. -1.
         12    1    4    4    0    0  0.49324374739E+01 -0.49588559906E+00 -0.44748475153E+00  0.49774576407E+01  0.00000000000E+00 0. -1.
</event>
<event>
 8    1  0.2994958E-010  0.9118800E+02  0.7816164E-02  0.1184000E+00
        -11   -1    0    0    0    0  0.00000000000E+00  0.00000000000E+00  0.45593999997E+02  0.45594000000E+02  0.51100000000E-03 0. -1.
         11   -1    0    0    0    0 -0.00000000000E+00 -0.00000000000E+00 -0.45593999997E+02  0.45594000000E+02  0.51100000000E-03 0.  1.
         23    2    1    2    0    0  0.00000000000E+00  0.00000000000E+00 -0.71054273576E-14  0.91188000000E+02  0.91188000000E+02 0.  0.
    9900012    2    3    3    0    0 -0.12505385270E+02  0.17115046570E+02 -0.37872336627E+02  0.47787270036E+02  0.19999995403E+02 0.  0.
         12    1    3    3    0    0  0.12505385270E+02 -0.17115046570E+02  0.37872336627E+02  0.43400729964E+02  0.00000000000E+00 0. -1.
         11    1    4    4    0    0 -0.47646299068E+01 -0.45872704975E+00 -0.74931768816E+01  0.88915594074E+01  0.51100000000E-03 0. -1.
        -11    1    4    4    0    0  0.26598357539E+01  0.19661310226E+01 -0.13785514376E+00  0.33104987143E+01  0.51100000000E-03 0.  1.
         12    1    4    4    0    0 -0.10400591117E+02  0.15607642597E+02 -0.30241304601E+02  0.35585211914E+02  0.00000000000E+00 0. -1.
</event>
<event>
 8    1  0.2994958E-010  0.9118800E+02  0.7816164E-02  0.1184000E+00
        -11   -1    0    0    0    0  0.00000000000E+00  0.00000000000E+00  0.45593999997E+02  0.45594000000E+02  0.51100000000E-03 0. -1.
         11   -1    0    0    0    0 -0.00000000000E+00 -0.00000000000E+00 -0.45593999997E+02  0.45594000000E+02  0.51100000000E-03 0.  1.
         23    2    1    2    0    0  0.00000000000E+00  0.00000000000E+00  0.00000000000E+00  0.91188000000E+02  0.91188000000E+02 0.  0.
    9900012    2    3    3    0    0 -0.26594964183E+02  0.24212321402E+02 -0.24291861724E+02  0.47787272199E+02  0.20000005266E+02 0.  0.
         12    1    3    3    0    0  0.26594964183E+02 -0.24212321402E+02  0.24291861724E+02  0.43400727801E+02  0.00000000000E+00 0. -1.
         11    1    4    4    0    0 -0.22655576375E+01  0.10832853312E+01 -0.88100927884E+01  0.91610039689E+01  0.51100000000E-03 0. -1.
        -11    1    4    4    0    0 -0.15085859505E+02  0.69932259939E+01 -0.91670602862E+01  0.18987452735E+02  0.51100000000E-03 0.  1.
         12    1    4    4    0    0 -0.92435470407E+01  0.16135810077E+02 -0.63147086495E+01  0.19638815496E+02  0.00000000000E+00 0. -1.
</event>
<event>
 8    1  0.2994958E-010  0.9118800E+02  0.7816164E-02  0.1184000E+00
        -11   -1    0    0    0    0  0.00000000000E+00  0.00000000000E+00  0.45593999997E+02  0.45594000000E+02  0.51100000000E-03 0. -1.
         11   -1    0    0    0    0 -0.00000000000E+00 -0.00000000000E+00 -0.45593999997E+02  0.45594000000E+02  0.51100000000E-03 0.  1.
         23    2    1    2    0    0 -0.71054273576E-14 -0.17763568394E-14 -0.44408920985E-15  0.91188000000E+02  0.91188000000E+02 0.  0.
    9900012    2    3    3    0    0 -0.41986220956E+02 -0.10690782545E+02 -0.25470603838E+01  0.47787273068E+02  0.20000009227E+02 0.  0.
        -12    1    3    3    0    0  0.41986220956E+02  0.10690782545E+02  0.25470603838E+01  0.43400726932E+02  0.00000000000E+00 0.  1.
         11    1    4    4    0    0 -0.14943492929E+02 -0.10629927669E+01 -0.19624500439E+01  0.15109240383E+02  0.51100000000E-03 0. -1.
        -11    1    4    4    0    0 -0.23967195192E+02 -0.17223411721E+01 -0.18563507237E+01  0.24100600465E+02  0.51100000000E-03 0.  1.
        -12    1    4    4    0    0 -0.30755328354E+01 -0.79054486057E+01  0.12717403839E+01  0.85774322197E+01  0.00000000000E+00 0.  1.
</event>
<event>
 8    1  0.4143462E-010  0.9118800E+02  0.7816164E-02  0.1184000E+00
        -11   -1    0    0    0    0  0.00000000000E+00  0.00000000000E+00  0.45593999997E+02  0.45594000000E+02  0.51100000000E-03 0. -1.
         11   -1    0    0    0    0 -0.00000000000E+00 -0.00000000000E+00 -0.45593999997E+02  0.45594000000E+02  0.51100000000E-03 0.  1.
         23    2    1    2    0    0  0.00000000000E+00  0.44408920985E-15  0.00000000000E+00  0.91188000000E+02  0.91188000000E+02 0.  0.
    9900012    2    3    3    0    0 -0.32734334797E+02  0.16296254886E+01  0.28450500611E+02  0.47787270296E+02  0.19999996587E+02 0.  0.
        -12    1    3    3    0    0  0.32734334797E+02 -0.16296254886E+01 -0.28450500611E+02  0.43400729704E+02  0.00000000000E+00 0.  1.
         11    1    4    4    0    0 -0.23760241010E+01  0.34086676154E+00 -0.12785815420E+01  0.27196418328E+01  0.51100000000E-03 0. -1.
        -11    1    4    4    0    0 -0.78862829782E+00 -0.34415890123E+01  0.55552822972E+01  0.65823727625E+01  0.51100000000E-03 0.  1.
         12    1    4    4    0    0 -0.29569682398E+02  0.47303477393E+01  0.24173799856E+02  0.38485255701E+02  0.00000000000E+00 0. -1.
</event>
<event>
 8    1  0.2994958E-010  0.9118800E+02  0.7816164E-02  0.1184000E+00
        -11   -1    0    0    0    0  0.00000000000E+00  0.00000000000E+00  0.45593999997E+02  0.45594000000E+02  0.51100000000E-03 0. -1.
         11   -1    0    0    0    0 -0.00000000000E+00 -0.00000000000E+00 -0.45593999997E+02  0.45594000000E+02  0.51100000000E-03 0.  1.
         23    2    1    2    0    0  0.00000000000E+00  0.00000000000E+00  0.71054273576E-14  0.91188000000E+02  0.91188000000E+02 0.  0.
    9900012    2    3    3    0    0 -0.90828713252E+01 -0.19500493847E+02  0.37694236839E+02  0.47787270713E+02  0.19999998489E+02 0.  0.
        -12    1    3    3    0    0  0.90828713252E+01  0.19500493847E+02 -0.37694236839E+02  0.43400729287E+02  0.00000000000E+00 0.  1.
         11    1    4    4    0    0 -0.19367901669E+01 -0.77546856741E+01  0.19734932589E+02  0.21292108176E+02  0.51100000000E-03 0. -1.
        -11    1    4    4    0    0 -0.40066485341E+01 -0.10396104226E+01  0.14091296224E+02  0.14686682806E+02  0.51100000000E-03 0.  1.
         12    1    4    4    0    0 -0.31394326242E+01 -0.10706197750E+02  0.38680080263E+01  0.11808479731E+02  0.00000000000E+00 0. -1.
</event>
<event>
 8    1  0.2994958E-010  0.9118800E+02  0.7816164E-02  0.1184000E+00
        -11   -1    0    0    0    0  0.00000000000E+00  0.00000000000E+00  0.45593999997E+02  0.45594000000E+02  0.51100000000E-03 0. -1.
         11   -1    0    0    0    0 -0.00000000000E+00 -0.00000000000E+00 -0.45593999997E+02  0.45594000000E+02  0.51100000000E-03 0.  1.
         23    2    1    2    0    0  0.00000000000E+00  0.00000000000E+00  0.35527136788E-14  0.91188000000E+02  0.91188000000E+02 0.  0.
    9900012    2    3    3    0    0  0.24389806215E+02  0.17828896152E+02 -0.31159134811E+02  0.47787264207E+02  0.19999968826E+02 0.  0.
         12    1    3    3    0    0 -0.24389806215E+02 -0.17828896152E+02  0.31159134811E+02  0.43400735793E+02  0.00000000000E+00 0. -1.
         11    1    4    4    0    0  0.60274508815E+01  0.40851937422E+01 -0.11704176736E+02  0.13784292705E+02  0.51100000000E-03 0. -1.
        -11    1    4    4    0    0  0.21274823515E+02  0.11601105898E+02 -0.16300142699E+02  0.29204424766E+02  0.51100000000E-03 0.  1.
         12    1    4    4    0    0 -0.29124681817E+01  0.21425965118E+01 -0.31548153762E+01  0.47985467362E+01  0.00000000000E+00 0. -1.
</event>
<event>
 8    1  0.2994958E-010  0.9118800E+02  0.7816164E-02  0.1184000E+00
        -11   -1    0    0    0    0  0.00000000000E+00  0.00000000000E+00  0.45593999997E+02  0.45594000000E+02  0.51100000000E-03 0.  1.
         11   -1    0    0    0    0 -0.00000000000E+00 -0.00000000000E+00 -0.45593999997E+02  0.45594000000E+02  0.51100000000E-03 0. -1.
         23    2    1    2    0    0 -0.35527136788E-14  0.00000000000E+00  0.00000000000E+00  0.91188000000E+02  0.91188000000E+02 0.  0.
    9900012    2    3    3    0    0 -0.15860216072E+02  0.29040604270E+02 -0.28084168084E+02  0.47787266744E+02  0.19999980392E+02 0.  0.
         12    1    3    3    0    0  0.15860216072E+02 -0.29040604270E+02  0.28084168084E+02  0.43400733256E+02  0.00000000000E+00 0. -1.
         11    1    4    4    0    0 -0.11742020934E+02  0.85709349323E+01 -0.13387444248E+02  0.19762581941E+02  0.51100000000E-03 0. -1.
        -11    1    4    4    0    0 -0.65461124995E+01  0.18359611285E+02 -0.15265517163E+02  0.24758088172E+02  0.51100000000E-03 0.  1.
         12    1    4    4    0    0  0.24279173615E+01  0.21100580524E+01  0.56879332774E+00  0.32665966308E+01  0.00000000000E+00 0. -1.
</event>
<event>
 8    1  0.2994958E-010  0.9118800E+02  0.7816164E-02  0.1184000E+00
        -11   -1    0    0    0    0  0.00000000000E+00  0.00000000000E+00  0.45593999997E+02  0.45594000000E+02  0.51100000000E-03 0. -1.
         11   -1    0    0    0    0 -0.00000000000E+00 -0.00000000000E+00 -0.45593999997E+02  0.45594000000E+02  0.51100000000E-03 0.  1.
         23    2    1    2    0    0  0.00000000000E+00  0.00000000000E+00  0.00000000000E+00  0.91188000000E+02  0.91188000000E+02 0.  0.
    9900012    2    3    3    0    0  0.80785915378E+01  0.14950694688E+02  0.39935408098E+02  0.47787265757E+02  0.19999975895E+02 0.  0.
        -12    1    3    3    0    0 -0.80785915378E+01 -0.14950694688E+02 -0.39935408098E+02  0.43400734243E+02  0.00000000000E+00 0.  1.
         11    1    4    4    0    0  0.18210215516E+00  0.54984606682E+01  0.44514190497E+01  0.70768186873E+01  0.51100000000E-03 0. -1.
        -11    1    4    4    0    0  0.32600237149E+01  0.94102536954E+01  0.34581271129E+02  0.35986732867E+02  0.51100000000E-03 0.  1.
        -12    1    4    4    0    0  0.46364656677E+01  0.41980323864E-01  0.90271791839E+00  0.47237142034E+01  0.00000000000E+00 0.  1.
</event>
<event>
 8    1  0.2994958E-010  0.9118800E+02  0.7816164E-02  0.1184000E+00
        -11   -1    0    0    0    0  0.00000000000E+00  0.00000000000E+00  0.45593999997E+02  0.45594000000E+02  0.51100000000E-03 0. -1.
         11   -1    0    0    0    0 -0.00000000000E+00 -0.00000000000E+00 -0.45593999997E+02  0.45594000000E+02  0.51100000000E-03 0.  1.
         23    2    1    2    0    0  0.00000000000E+00  0.00000000000E+00  0.00000000000E+00  0.91188000000E+02  0.91188000000E+02 0.  0.
    9900012    2    3    3    0    0 -0.21136798221E+02  0.21814908534E+02  0.30999482244E+02  0.47787281425E+02  0.20000047329E+02 0.  0.
        -12    1    3    3    0    0  0.21136798221E+02 -0.21814908534E+02 -0.30999482244E+02  0.43400718575E+02  0.00000000000E+00 0.  1.
         11    1    4    4    0    0 -0.11716743959E+02  0.10666456665E+02  0.96853436306E+01  0.18570440713E+02  0.51100000000E-03 0. -1.
        -11    1    4    4    0    0 -0.52467262014E+01  0.13083011271E+02  0.10855849766E+02  0.17791649563E+02  0.51100000000E-03 0.  1.
         12    1    4    4    0    0 -0.41733280613E+01 -0.19345594014E+01  0.10458288848E+02  0.11425191150E+02  0.00000000000E+00 0. -1.
</event>
<event>
 8    1  0.2994958E-010  0.9118800E+02  0.7816164E-02  0.1184000E+00
        -11   -1    0    0    0    0  0.00000000000E+00  0.00000000000E+00  0.45593999997E+02  0.45594000000E+02  0.51100000000E-03 0. -1.
         11   -1    0    0    0    0 -0.00000000000E+00 -0.00000000000E+00 -0.45593999997E+02  0.45594000000E+02  0.51100000000E-03 0.  1.
         23    2    1    2    0    0  0.00000000000E+00  0.00000000000E+00  0.00000000000E+00  0.91188000000E+02  0.91188000000E+02 0.  0.
    9900012    2    3    3    0    0  0.27145212969E+02 -0.29511409591E+02  0.16608352493E+02  0.47787271254E+02  0.20000000956E+02 0.  0.
         12    1    3    3    0    0 -0.27145212969E+02  0.29511409591E+02 -0.16608352493E+02  0.43400728746E+02  0.00000000000E+00 0. -1.
         11    1    4    4    0    0  0.11081530119E+02 -0.23416570785E+02  0.10813740722E+02  0.28072639452E+02  0.51100000000E-03 0. -1.
        -11    1    4    4    0    0  0.45563561183E+00  0.14393838445E+01  0.55538212914E+00  0.16086886688E+01  0.51100000000E-03 0.  1.
        -12    1    4    4    0    0  0.15608047238E+02 -0.75342226498E+01  0.52392296412E+01  0.18105943134E+02  0.00000000000E+00 0.  1.
</event>
<event>
 8    1  0.2994958E-010  0.9118800E+02  0.7816164E-02  0.1184000E+00
        -11   -1    0    0    0    0  0.00000000000E+00  0.00000000000E+00  0.45593999997E+02  0.45594000000E+02  0.51100000000E-03 0. -1.
         11   -1    0    0    0    0 -0.00000000000E+00 -0.00000000000E+00 -0.45593999997E+02  0.45594000000E+02  0.51100000000E-03 0.  1.
         23    2    1    2    0    0  0.35527136788E-14  0.00000000000E+00 -0.71054273576E-14  0.91188000000E+02  0.91188000000E+02 0.  0.
    9900012    2    3    3    0    0  0.22072502722E+02 -0.73693696608E+01 -0.36634962215E+02  0.47787269106E+02  0.19999991163E+02 0.  0.
         12    1    3    3    0    0 -0.22072502722E+02  0.73693696608E+01  0.36634962215E+02  0.43400730894E+02  0.00000000000E+00 0. -1.
         11    1    4    4    0    0  0.62903027903E+01 -0.43323638501E+01 -0.16154456702E+02  0.17869072649E+02  0.51100000000E-03 0. -1.
        -11    1    4    4    0    0  0.11412664798E+02 -0.88041737976E+01 -0.15293090161E+02  0.21015256387E+02  0.51100000000E-03 0.  1.
         12    1    4    4    0    0  0.43695351342E+01  0.57671679870E+01 -0.51874153511E+01  0.89029400708E+01  0.00000000000E+00 0. -1.
</event>
<event>
 8    1  0.2994958E-010  0.9118800E+02  0.7816164E-02  0.1184000E+00
        -11   -1    0    0    0    0  0.00000000000E+00  0.00000000000E+00  0.45593999997E+02  0.45594000000E+02  0.51100000000E-03 0. -1.
         11   -1    0    0    0    0 -0.00000000000E+00 -0.00000000000E+00 -0.45593999997E+02  0.45594000000E+02  0.51100000000E-03 0.  1.
         23    2    1    2    0    0 -0.17763568394E-14 -0.35527136788E-14  0.35527136788E-14  0.91188000000E+02  0.91188000000E+02 0.  0.
    9900012    2    3    3    0    0  0.15558390373E+02  0.27373014217E+02 -0.29871025826E+02  0.47787267262E+02  0.19999982754E+02 0.  0.
         12    1    3    3    0    0 -0.15558390373E+02 -0.27373014217E+02  0.29871025826E+02  0.43400732738E+02  0.00000000000E+00 0. -1.
         11    1    4    4    0    0  0.33384117036E+01  0.12148117278E+02 -0.24210832561E+02  0.27292602655E+02  0.51100000000E-03 0. -1.
        -11    1    4    4    0    0  0.23417275285E+01  0.47693922823E+01 -0.14722232397E+01  0.55134591763E+01  0.51100000000E-03 0.  1.
         12    1    4    4    0    0  0.98782511407E+01  0.10455504657E+02 -0.41879700247E+01  0.14981205431E+02  0.00000000000E+00 0. -1.
</event>
<event>
 8    1  0.2994958E-010  0.9118800E+02  0.7816164E-02  0.1184000E+00
        -11   -1    0    0    0    0  0.00000000000E+00  0.00000000000E+00  0.45593999997E+02  0.45594000000E+02  0.51100000000E-03 0. -1.
         11   -1    0    0    0    0 -0.00000000000E+00 -0.00000000000E+00 -0.45593999997E+02  0.45594000000E+02  0.51100000000E-03 0.  1.
         23    2    1    2    0    0  0.35527136788E-14  0.00000000000E+00  0.00000000000E+00  0.91188000000E+02  0.91188000000E+02 0.  0.
    9900012    2    3    3    0    0  0.20764233544E+02 -0.52130134818E+01  0.37753068715E+02  0.47787273029E+02  0.20000009047E+02 0.  0.
        -12    1    3    3    0    0 -0.20764233544E+02  0.52130134818E+01 -0.37753068715E+02  0.43400726971E+02  0.00000000000E+00 0.  1.
         11    1    4    4    0    0  0.10634452814E+02 -0.40788428434E+01  0.27237335280E+02  0.29522889069E+02  0.51100000000E-03 0. -1.
        -11    1    4    4    0    0 -0.84470638091E+00  0.71890458215E+00  0.62458787941E+01  0.63436073996E+01  0.51100000000E-03 0.  1.
        -12    1    4    4    0    0  0.10974487111E+02 -0.18530752206E+01  0.42698546410E+01  0.11920776560E+02  0.00000000000E+00 0.  1.
</event>
<event>
 8    1  0.2994958E-010  0.9118800E+02  0.7816164E-02  0.1184000E+00
        -11   -1    0    0    0    0  0.00000000000E+00  0.00000000000E+00  0.45593999997E+02  0.45594000000E+02  0.51100000000E-03 0. -1.
         11   -1    0    0    0    0 -0.00000000000E+00 -0.00000000000E+00 -0.45593999997E+02  0.45594000000E+02  0.51100000000E-03 0.  1.
         23    2    1    2    0    0  0.00000000000E+00  0.00000000000E+00  0.00000000000E+00  0.91188000000E+02  0.91188000000E+02 0.  0.
    9900012    2    3    3    0    0  0.25381045010E+02  0.17646867884E+02  0.30463327619E+02  0.47787265887E+02  0.19999976485E+02 0.  0.
        -12    1    3    3    0    0 -0.25381045010E+02 -0.17646867884E+02 -0.30463327619E+02  0.43400734113E+02  0.00000000000E+00 0.  1.
         11    1    4    4    0    0  0.35933907508E+01 -0.78249548055E+00  0.82829047599E+01  0.90626302909E+01  0.51100000000E-03 0. -1.
        -11    1    4    4    0    0  0.14833148310E+02  0.44914321984E+01  0.71113187466E+01  0.17051865193E+02  0.51100000000E-03 0.  1.
        -12    1    4    4    0    0  0.69545059487E+01  0.13937931166E+02  0.15069104112E+02  0.21672770403E+02  0.00000000000E+00 0.  1.
</event>
<event>
 8    1  0.2994958E-010  0.9118800E+02  0.7816164E-02  0.1184000E+00
        -11   -1    0    0    0    0  0.00000000000E+00  0.00000000000E+00  0.45593999997E+02  0.45594000000E+02  0.51100000000E-03 0.  1.
         11   -1    0    0    0    0 -0.00000000000E+00 -0.00000000000E+00 -0.45593999997E+02  0.45594000000E+02  0.51100000000E-03 0. -1.
         23    2    1    2    0    0  0.35527136788E-14  0.00000000000E+00  0.00000000000E+00  0.91188000000E+02  0.91188000000E+02 0.  0.
    9900012    2    3    3    0    0 -0.29432864972E+02 -0.31523087198E+02  0.48605346883E+01  0.47787270002E+02  0.19999995245E+02 0.  0.
        -12    1    3    3    0    0  0.29432864972E+02  0.31523087198E+02 -0.48605346883E+01  0.43400729998E+02  0.00000000000E+00 0.  1.
         11    1    4    4    0    0  0.17485792052E+01 -0.13150482586E+00 -0.11897915202E+01  0.21190627359E+01  0.51100000000E-03 0. -1.
        -11    1    4    4    0    0 -0.92908097533E+01 -0.15792366291E+02  0.12713002512E+01  0.18366659564E+02  0.51100000000E-03 0.  1.
         12    1    4    4    0    0 -0.21890634424E+02 -0.15599216081E+02  0.47790259573E+01  0.27301547702E+02  0.00000000000E+00 0. -1.
</event>
<event>
 8    1  0.2994958E-010  0.9118800E+02  0.7816164E-02  0.1184000E+00
        -11   -1    0    0    0    0  0.00000000000E+00  0.00000000000E+00  0.45593999997E+02  0.45594000000E+02  0.51100000000E-03 0. -1.
         11   -1    0    0    0    0 -0.00000000000E+00 -0.00000000000E+00 -0.45593999997E+02  0.45594000000E+02  0.51100000000E-03 0.  1.
         23    2    1    2    0    0  0.00000000000E+00  0.17763568394E-14 -0.35527136788E-14  0.91188000000E+02  0.91188000000E+02 0.  0.
    9900012    2    3    3    0    0 -0.36039034093E+02  0.11178310275E+02 -0.21444249567E+02  0.47787280669E+02  0.20000043883E+02 0.  0.
         12    1    3    3    0    0  0.36039034093E+02 -0.11178310275E+02  0.21444249567E+02  0.43400719331E+02  0.00000000000E+00 0. -1.
         11    1    4    4    0    0 -0.65864531999E+01  0.51902738031E+01 -0.67223508320E+01  0.10747572232E+02  0.51100000000E-03 0. -1.
        -11    1    4    4    0    0 -0.30608701899E+02  0.65762513412E+01 -0.11139884591E+02  0.33230057818E+02  0.51100000000E-03 0.  1.
        -12    1    4    4    0    0  0.11561210061E+01 -0.58821486913E+00 -0.35820141437E+01  0.38096506190E+01  0.00000000000E+00 0.  1.
</event>
<event>
 8    1  0.2994958E-010  0.9118800E+02  0.7816164E-02  0.1184000E+00
        -11   -1    0    0    0    0  0.00000000000E+00  0.00000000000E+00  0.45593999997E+02  0.45594000000E+02  0.51100000000E-03 0. -1.
         11   -1    0    0    0    0 -0.00000000000E+00 -0.00000000000E+00 -0.45593999997E+02  0.45594000000E+02  0.51100000000E-03 0.  1.
         23    2    1    2    0    0  0.00000000000E+00  0.00000000000E+00 -0.35527136788E-14  0.91188000000E+02  0.91188000000E+02 0.  0.
    9900012    2    3    3    0    0 -0.31648197974E+02 -0.21164937055E+02 -0.20834109501E+02  0.47787272883E+02  0.20000008385E+02 0.  0.
         12    1    3    3    0    0  0.31648197974E+02  0.21164937055E+02  0.20834109501E+02  0.43400727117E+02  0.00000000000E+00 0. -1.
         11    1    4    4    0    0  0.14021268748E+01  0.10697527958E+01 -0.12152918248E+01  0.21417902086E+01  0.51100000000E-03 0. -1.
        -11    1    4    4    0    0 -0.10625603796E+02 -0.30237200507E+01 -0.19025118664E+01  0.11210079867E+02  0.51100000000E-03 0.  1.
        -12    1    4    4    0    0 -0.22424721053E+02 -0.19210969800E+02 -0.17716305810E+02  0.34435402808E+02  0.00000000000E+00 0.  1.
</event>
<event>
 8    1  0.2994958E-010  0.9118800E+02  0.7816164E-02  0.1184000E+00
        -11   -1    0    0    0    0  0.00000000000E+00  0.00000000000E+00  0.45593999997E+02  0.45594000000E+02  0.51100000000E-03 0. -1.
         11   -1    0    0    0    0 -0.00000000000E+00 -0.00000000000E+00 -0.45593999997E+02  0.45594000000E+02  0.51100000000E-03 0.  1.
         23    2    1    2    0    0 -0.17763568394E-14  0.35527136788E-14  0.00000000000E+00  0.91188000000E+02  0.91188000000E+02 0.  0.
    9900012    2    3    3    0    0 -0.13930759514E+02 -0.19355368521E+02  0.36261916274E+02  0.47787275086E+02  0.20000018428E+02 0.  0.
        -12    1    3    3    0    0  0.13930759514E+02  0.19355368521E+02 -0.36261916274E+02  0.43400724914E+02  0.00000000000E+00 0.  1.
         11    1    4    4    0    0 -0.57997588964E+01 -0.10065198354E+02  0.51462584996E+01  0.12705486923E+02  0.51100000000E-03 0. -1.
        -11    1    4    4    0    0  0.41740147208E+00  0.26797397165E+00 -0.65458644683E+00  0.82129027503E+00  0.51100000000E-03 0.  1.
         12    1    4    4    0    0 -0.85484020899E+01 -0.95581441387E+01  0.31770244221E+02  0.34260497888E+02  0.00000000000E+00 0. -1.
</event>
<event>
 8    1  0.2994958E-010  0.9118800E+02  0.7816164E-02  0.1184000E+00
        -11   -1    0    0    0    0  0.00000000000E+00  0.00000000000E+00  0.45593999997E+02  0.45594000000E+02  0.51100000000E-03 0. -1.
         11   -1    0    0    0    0 -0.00000000000E+00 -0.00000000000E+00 -0.45593999997E+02  0.45594000000E+02  0.51100000000E-03 0.  1.
         23    2    1    2    0    0  0.35527136788E-14  0.00000000000E+00  0.00000000000E+00  0.91188000000E+02  0.91188000000E+02 0.  0.
    9900012    2    3    3    0    0  0.19964162696E+02  0.16227591380E+02  0.34953122265E+02  0.47787271086E+02  0.20000000190E+02 0.  0.
        -12    1    3    3    0    0 -0.19964162696E+02 -0.16227591380E+02 -0.34953122265E+02  0.43400728914E+02  0.00000000000E+00 0.  1.
         11    1    4    4    0    0  0.13223623650E+02  0.14757588957E+02  0.30174632951E+02  0.36099295398E+02  0.51100000000E-03 0. -1.
        -11    1    4    4    0    0  0.38230493888E+00  0.30707332988E+01  0.40414018949E+01  0.50900382706E+01  0.51100000000E-03 0.  1.
        -12    1    4    4    0    0  0.63582341074E+01 -0.16007308756E+01  0.73708741949E+00  0.65979374174E+01  0.00000000000E+00 0.  1.
</event>
<event>
 8    1  0.2994958E-010  0.9118800E+02  0.7816164E-02  0.1184000E+00
        -11   -1    0    0    0    0  0.00000000000E+00  0.00000000000E+00  0.45593999997E+02  0.45594000000E+02  0.51100000000E-03 0. -1.
         11   -1    0    0    0    0 -0.00000000000E+00 -0.00000000000E+00 -0.45593999997E+02  0.45594000000E+02  0.51100000000E-03 0.  1.
         23    2    1    2    0    0  0.00000000000E+00  0.00000000000E+00  0.71054273576E-14  0.91188000000E+02  0.91188000000E+02 0.  0.
    9900012    2    3    3    0    0 -0.37814913673E+01 -0.20975153275E+02 -0.37806953223E+02  0.47787280607E+02  0.20000043598E+02 0.  0.
         12    1    3    3    0    0  0.37814913673E+01  0.20975153275E+02  0.37806953223E+02  0.43400719393E+02  0.00000000000E+00 0. -1.
         11    1    4    4    0    0 -0.89180981537E+00 -0.26186660148E+01 -0.49284307503E+00  0.28099165471E+01  0.51100000000E-03 0. -1.
        -11    1    4    4    0    0 -0.71397335907E+01 -0.18986243230E+02 -0.26735148659E+02  0.33559222306E+02  0.51100000000E-03 0.  1.
         12    1    4    4    0    0  0.42500520388E+01  0.62975596944E+00 -0.10578961489E+02  0.11418141753E+02  0.00000000000E+00 0. -1.
</event>
<event>
 8    1  0.2994958E-010  0.9118800E+02  0.7816164E-02  0.1184000E+00
        -11   -1    0    0    0    0  0.00000000000E+00  0.00000000000E+00  0.45593999997E+02  0.45594000000E+02  0.51100000000E-03 0. -1.
         11   -1    0    0    0    0 -0.00000000000E+00 -0.00000000000E+00 -0.45593999997E+02  0.45594000000E+02  0.51100000000E-03 0.  1.
         23    2    1    2    0    0 -0.35527136788E-14  0.00000000000E+00 -0.35527136788E-14  0.91188000000E+02  0.91188000000E+02 0.  0.
    9900012    2    3    3    0    0 -0.16240915426E+02  0.28307645927E+02 -0.28610021549E+02  0.47787268614E+02  0.19999988919E+02 0.  0.
         12    1    3    3    0    0  0.16240915426E+02 -0.28307645927E+02  0.28610021549E+02  0.43400731386E+02  0.00000000000E+00 0. -1.
         11    1    4    4    0    0 -0.10069420381E+01 -0.14066723013E+01 -0.50785626088E+00  0.18029357932E+01  0.51100000000E-03 0. -1.
        -11    1    4    4    0    0 -0.13794180431E+02  0.17120158447E+02 -0.24256354502E+02  0.32737592658E+02  0.51100000000E-03 0.  1.
         12    1    4    4    0    0 -0.14397929569E+01  0.12594159781E+02 -0.38458107858E+01  0.13246740163E+02  0.00000000000E+00 0. -1.
</event>
<event>
 8    1  0.2994958E-010  0.9118800E+02  0.7816164E-02  0.1184000E+00
        -11   -1    0    0    0    0  0.00000000000E+00  0.00000000000E+00  0.45593999997E+02  0.45594000000E+02  0.51100000000E-03 0. -1.
         11   -1    0    0    0    0 -0.00000000000E+00 -0.00000000000E+00 -0.45593999997E+02  0.45594000000E+02  0.51100000000E-03 0.  1.
         23    2    1    2    0    0  0.00000000000E+00  0.44408920985E-15  0.00000000000E+00  0.91188000000E+02  0.91188000000E+02 0.  0.
    9900012    2    3    3    0    0 -0.43279646303E+02  0.21126672702E+01  0.24561685891E+01  0.47787263702E+02  0.19999966522E+02 0.  0.
        -12    1    3    3    0    0  0.43279646303E+02 -0.21126672702E+01 -0.24561685891E+01  0.43400736298E+02  0.00000000000E+00 0.  1.
         11    1    4    4    0    0 -0.94006746011E+00 -0.27708343570E+01 -0.28844002977E+00  0.29401441759E+01  0.51100000000E-03 0. -1.
        -11    1    4    4    0    0 -0.44612031052E+01  0.51089970399E+01  0.15060330819E+01  0.69478284237E+01  0.51100000000E-03 0.  1.
        -12    1    4    4    0    0 -0.37878375737E+02 -0.22549541279E+00  0.12385755369E+01  0.37899291102E+02  0.00000000000E+00 0.  1.
</event>
<event>
 8    1  0.2994958E-010  0.9118800E+02  0.7816164E-02  0.1184000E+00
        -11   -1    0    0    0    0  0.00000000000E+00  0.00000000000E+00  0.45593999997E+02  0.45594000000E+02  0.51100000000E-03 0. -1.
         11   -1    0    0    0    0 -0.00000000000E+00 -0.00000000000E+00 -0.45593999997E+02  0.45594000000E+02  0.51100000000E-03 0.  1.
         23    2    1    2    0    0  0.00000000000E+00  0.88817841970E-15  0.00000000000E+00  0.91188000000E+02  0.91188000000E+02 0.  0.
    9900012    2    3    3    0    0 -0.41232471558E+02 -0.24839677939E+01 -0.13316773323E+02  0.47787271221E+02  0.20000000806E+02 0.  0.
         12    1    3    3    0    0  0.41232471558E+02  0.24839677939E+01  0.13316773323E+02  0.43400728779E+02  0.00000000000E+00 0. -1.
         11    1    4    4    0    0 -0.78485481077E+01 -0.24995783944E+01 -0.37587470110E+00  0.82455370717E+01  0.51100000000E-03 0.  1.
        -11    1    4    4    0    0 -0.10534815190E+02  0.68524776011E+01 -0.35007369651E+00  0.12572244517E+02  0.51100000000E-03 0. -1.
        -12    1    4    4    0    0 -0.22849108261E+02 -0.68368670006E+01 -0.12590824926E+02  0.26969489632E+02  0.00000000000E+00 0.  1.
</event>
<event>
 8    1  0.2994958E-010  0.9118800E+02  0.7816164E-02  0.1184000E+00
        -11   -1    0    0    0    0  0.00000000000E+00  0.00000000000E+00  0.45593999997E+02  0.45594000000E+02  0.51100000000E-03 0. -1.
         11   -1    0    0    0    0 -0.00000000000E+00 -0.00000000000E+00 -0.45593999997E+02  0.45594000000E+02  0.51100000000E-03 0.  1.
         23    2    1    2    0    0  0.00000000000E+00  0.00000000000E+00  0.71054273576E-14  0.91188000000E+02  0.91188000000E+02 0.  0.
    9900012    2    3    3    0    0 -0.11114301838E+02 -0.41404839075E+01  0.41748674744E+02  0.47787272411E+02  0.20000006231E+02 0.  0.
        -12    1    3    3    0    0  0.11114301838E+02  0.41404839075E+01 -0.41748674744E+02  0.43400727589E+02  0.00000000000E+00 0.  1.
         11    1    4    4    0    0 -0.34652632754E+00  0.18525826531E+01  0.17547459127E+02  0.17648384205E+02  0.51100000000E-03 0. -1.
        -11    1    4    4    0    0 -0.10039059505E+02  0.18356221645E+00  0.20687715514E+02  0.22995607934E+02  0.51100000000E-03 0.  1.
        -12    1    4    4    0    0 -0.72871600628E+00 -0.61766287770E+01  0.35135001040E+01  0.71432802722E+01  0.00000000000E+00 0.  1.
</event>
<event>
 8    1  0.2994958E-010  0.9118800E+02  0.7816164E-02  0.1184000E+00
        -11   -1    0    0    0    0  0.00000000000E+00  0.00000000000E+00  0.45593999997E+02  0.45594000000E+02  0.51100000000E-03 0. -1.
         11   -1    0    0    0    0 -0.00000000000E+00 -0.00000000000E+00 -0.45593999997E+02  0.45594000000E+02  0.51100000000E-03 0.  1.
         23    2    1    2    0    0 -0.88817841970E-15  0.35527136788E-14  0.00000000000E+00  0.91188000000E+02  0.91188000000E+02 0.  0.
    9900012    2    3    3    0    0  0.69288622236E+01  0.27719684423E+02  0.32668528461E+02  0.47787276642E+02  0.20000025521E+02 0.  0.
        -12    1    3    3    0    0 -0.69288622236E+01 -0.27719684423E+02 -0.32668528461E+02  0.43400723358E+02  0.00000000000E+00 0.  1.
         11    1    4    4    0    0  0.25126470288E+01  0.18231682297E+01 -0.14279768478E+01  0.34170829115E+01  0.51100000000E-03 0. -1.
        -11    1    4    4    0    0  0.26154507034E+01  0.32364880610E+01  0.11043680063E+01  0.43052370788E+01  0.51100000000E-03 0.  1.
         12    1    4    4    0    0  0.18007644914E+01  0.22660028132E+02  0.32992137303E+02  0.40064956651E+02  0.00000000000E+00 0. -1.
</event>
<event>
 8    1  0.2994958E-010  0.9118800E+02  0.7816164E-02  0.1184000E+00
        -11   -1    0    0    0    0  0.00000000000E+00  0.00000000000E+00  0.45593999997E+02  0.45594000000E+02  0.51100000000E-03 0.  1.
         11   -1    0    0    0    0 -0.00000000000E+00 -0.00000000000E+00 -0.45593999997E+02  0.45594000000E+02  0.51100000000E-03 0. -1.
         23    2    1    2    0    0  0.17763568394E-14  0.00000000000E+00  0.00000000000E+00  0.91188000000E+02  0.91188000000E+02 0.  0.
    9900012    2    3    3    0    0 -0.15786849673E+02 -0.36896618997E+02 -0.16523839762E+02  0.47787281153E+02  0.20000046087E+02 0.  0.
         12    1    3    3    0    0  0.15786849673E+02  0.36896618997E+02  0.16523839762E+02  0.43400718847E+02  0.00000000000E+00 0. -1.
         11    1    4    4    0    0 -0.12951644902E+02 -0.18083498917E+02 -0.15200954260E+02  0.26941177580E+02  0.51100000000E-03 0. -1.
        -11    1    4    4    0    0 -0.48537679608E+01 -0.76367732659E+01 -0.26064461411E+01  0.94166305588E+01  0.51100000000E-03 0.  1.
         12    1    4    4    0    0  0.20185631899E+01 -0.11176346814E+02  0.12835606387E+01  0.11429473014E+02  0.00000000000E+00 0. -1.
</event>
<event>
 8    1  0.2994958E-010  0.9118800E+02  0.7816164E-02  0.1184000E+00
        -11   -1    0    0    0    0  0.00000000000E+00  0.00000000000E+00  0.45593999997E+02  0.45594000000E+02  0.51100000000E-03 0. -1.
         11   -1    0    0    0    0 -0.00000000000E+00 -0.00000000000E+00 -0.45593999997E+02  0.45594000000E+02  0.51100000000E-03 0.  1.
         23    2    1    2    0    0 -0.17763568394E-14  0.00000000000E+00  0.00000000000E+00  0.91188000000E+02  0.91188000000E+02 0.  0.
    9900012    2    3    3    0    0 -0.87867753042E+01  0.18296021990E+02 -0.38362382926E+02  0.47787259630E+02  0.19999947958E+02 0.  0.
         12    1    3    3    0    0  0.87867753042E+01 -0.18296021990E+02  0.38362382926E+02  0.43400740370E+02  0.00000000000E+00 0. -1.
         11    1    4    4    0    0  0.46335292196E+00 -0.11059537206E+01 -0.41603392285E+00  0.12692178885E+01  0.51100000000E-03 0. -1.
        -11    1    4    4    0    0 -0.95453951396E+01  0.30366227161E+01 -0.19014229579E+02  0.21491313888E+02  0.51100000000E-03 0.  1.
         12    1    4    4    0    0  0.29526691344E+00  0.16365352994E+02 -0.18932119424E+02  0.25026727854E+02  0.00000000000E+00 0. -1.
</event>
<event>
 8    1  0.3266530E-010  0.9118800E+02  0.7816164E-02  0.1184000E+00
        -11   -1    0    0    0    0  0.00000000000E+00  0.00000000000E+00  0.45593999997E+02  0.45594000000E+02  0.51100000000E-03 0. -1.
         11   -1    0    0    0    0 -0.00000000000E+00 -0.00000000000E+00 -0.45593999997E+02  0.45594000000E+02  0.51100000000E-03 0.  1.
         23    2    1    2    0    0  0.00000000000E+00  0.00000000000E+00  0.00000000000E+00  0.91188000000E+02  0.91188000000E+02 0.  0.
    9900012    2    3    3    0    0 -0.97295110258E+01 -0.20886373073E+02  0.36779331206E+02  0.47787272253E+02  0.20000005512E+02 0.  0.
        -12    1    3    3    0    0  0.97295110258E+01  0.20886373073E+02 -0.36779331206E+02  0.43400727747E+02  0.00000000000E+00 0.  1.
         11    1    4    4    0    0  0.32416988084E+01 -0.11693461971E+02  0.12956326198E+02  0.17751395800E+02  0.51100000000E-03 0. -1.
        -11    1    4    4    0    0 -0.42753718627E+01 -0.44833191207E+01  0.27907022448E+01  0.67946283330E+01  0.51100000000E-03 0.  1.
         12    1    4    4    0    0 -0.86958379714E+01 -0.47095919814E+01  0.21032302764E+02  0.23241248121E+02  0.00000000000E+00 0. -1.
</event>
<event>
 8    1  0.2994958E-010  0.9118800E+02  0.7816164E-02  0.1184000E+00
        -11   -1    0    0    0    0  0.00000000000E+00  0.00000000000E+00  0.45593999997E+02  0.45594000000E+02  0.51100000000E-03 0. -1.
         11   -1    0    0    0    0 -0.00000000000E+00 -0.00000000000E+00 -0.45593999997E+02  0.45594000000E+02  0.51100000000E-03 0.  1.
         23    2    1    2    0    0  0.26645352591E-14  0.00000000000E+00  0.00000000000E+00  0.91188000000E+02  0.91188000000E+02 0.  0.
    9900012    2    3    3    0    0  0.37582849937E+01  0.38914226265E+02 -0.18846294049E+02  0.47787256789E+02  0.19999935003E+02 0.  0.
         12    1    3    3    0    0 -0.37582849937E+01 -0.38914226265E+02  0.18846294049E+02  0.43400743211E+02  0.00000000000E+00 0. -1.
         11    1    4    4    0    0  0.11390419719E+02  0.26428874792E+02 -0.10453928146E+02  0.30618812814E+02  0.51100000000E-03 0. -1.
        -11    1    4    4    0    0 -0.11028630833E+01  0.45204575467E+01 -0.21549183305E+01  0.51278179262E+01  0.51100000000E-03 0.  1.
         12    1    4    4    0    0 -0.65292716423E+01  0.79648939260E+01 -0.62374475728E+01  0.12040626049E+02  0.00000000000E+00 0. -1.
</event>
<event>
 8    1  0.2994958E-010  0.9118800E+02  0.7816164E-02  0.1184000E+00
        -11   -1    0    0    0    0  0.00000000000E+00  0.00000000000E+00  0.45593999997E+02  0.45594000000E+02  0.51100000000E-03 0. -1.
         11   -1    0    0    0    0 -0.00000000000E+00 -0.00000000000E+00 -0.45593999997E+02  0.45594000000E+02  0.51100000000E-03 0.  1.
         23    2    1    2    0    0  0.00000000000E+00  0.00000000000E+00  0.00000000000E+00  0.91188000000E+02  0.91188000000E+02 0.  0.
    9900012    2    3    3    0    0 -0.36710235590E+02  0.17325999104E+02 -0.15355520334E+02  0.47787266749E+02  0.19999980414E+02 0.  0.
         12    1    3    3    0    0  0.36710235590E+02 -0.17325999104E+02  0.15355520334E+02  0.43400733251E+02  0.00000000000E+00 0. -1.
         11    1    4    4    0    0  0.10479587714E+01  0.15260643031E+01 -0.15278997417E+01  0.24003265873E+01  0.51100000000E-03 0. -1.
        -11    1    4    4    0    0 -0.40892971942E+01  0.60123926705E+01 -0.60805328846E+01  0.94786126405E+01  0.51100000000E-03 0.  1.
        -12    1    4    4    0    0 -0.33668897167E+02  0.97875421301E+01 -0.77470877077E+01  0.35908327521E+02  0.00000000000E+00 0.  1.
</event>
<event>
 8    1  0.2994958E-010  0.9118800E+02  0.7816164E-02  0.1184000E+00
        -11   -1    0    0    0    0  0.00000000000E+00  0.00000000000E+00  0.45593999997E+02  0.45594000000E+02  0.51100000000E-03 0. -1.
         11   -1    0    0    0    0 -0.00000000000E+00 -0.00000000000E+00 -0.45593999997E+02  0.45594000000E+02  0.51100000000E-03 0.  1.
         23    2    1    2    0    0  0.00000000000E+00  0.00000000000E+00  0.00000000000E+00  0.91188000000E+02  0.91188000000E+02 0.  0.
    9900012    2    3    3    0    0 -0.66694386444E+01  0.69398559996E+01 -0.42319974840E+02  0.47787270933E+02  0.19999999491E+02 0.  0.
         12    1    3    3    0    0  0.66694386444E+01 -0.69398559996E+01  0.42319974840E+02  0.43400729067E+02  0.00000000000E+00 0. -1.
         11    1    4    4    0    0  0.32235641040E+01 -0.64245649889E+00 -0.61466427808E+01  0.69703180430E+01  0.51100000000E-03 0. -1.
        -11    1    4    4    0    0 -0.26401788341E+01  0.41173799635E+01 -0.13444286770E+01  0.50725586018E+01  0.51100000000E-03 0.  1.
        -12    1    4    4    0    0 -0.72528239143E+01  0.34649325349E+01 -0.34828903382E+02  0.35744394288E+02  0.00000000000E+00 0.  1.
</event>
<event>
 8    1  0.2994958E-010  0.9118800E+02  0.7816164E-02  0.1184000E+00
        -11   -1    0    0    0    0  0.00000000000E+00  0.00000000000E+00  0.45593999997E+02  0.45594000000E+02  0.51100000000E-03 0. -1.
         11   -1    0    0    0    0 -0.00000000000E+00 -0.00000000000E+00 -0.45593999997E+02  0.45594000000E+02  0.51100000000E-03 0.  1.
         23    2    1    2    0    0 -0.44408920985E-15 -0.71054273576E-14  0.35527136788E-14  0.91188000000E+02  0.91188000000E+02 0.  0.
    9900012    2    3    3    0    0 -0.31827248677E+01 -0.41561612593E+02  0.12088258388E+02  0.47787269939E+02  0.19999994961E+02 0.  0.
        -12    1    3    3    0    0  0.31827248677E+01  0.41561612593E+02 -0.12088258388E+02  0.43400730061E+02  0.00000000000E+00 0.  1.
         11    1    4    4    0    0 -0.14121186661E+01 -0.23818903620E+02  0.12806181996E+02  0.27080113485E+02  0.51100000000E-03 0. -1.
        -11    1    4    4    0    0  0.16692639021E+01 -0.66382375126E+01  0.42587721683E+01  0.80616238991E+01  0.51100000000E-03 0.  1.
        -12    1    4    4    0    0 -0.34398701036E+01 -0.11104471460E+02 -0.49766957763E+01  0.12645532555E+02  0.00000000000E+00 0.  1.
</event>
<event>
 8    1  0.2994958E-010  0.9118800E+02  0.7816164E-02  0.1184000E+00
        -11   -1    0    0    0    0  0.00000000000E+00  0.00000000000E+00  0.45593999997E+02  0.45594000000E+02  0.51100000000E-03 0. -1.
         11   -1    0    0    0    0 -0.00000000000E+00 -0.00000000000E+00 -0.45593999997E+02  0.45594000000E+02  0.51100000000E-03 0.  1.
         23    2    1    2    0    0  0.44408920985E-15  0.00000000000E+00  0.00000000000E+00  0.91188000000E+02  0.91188000000E+02 0.  0.
    9900012    2    3    3    0    0  0.34268020582E+01  0.19559946927E+02 -0.38591308161E+02  0.47787267728E+02  0.19999984881E+02 0.  0.
         12    1    3    3    0    0 -0.34268020582E+01 -0.19559946927E+02  0.38591308161E+02  0.43400732272E+02  0.00000000000E+00 0. -1.
         11    1    4    4    0    0  0.39527855027E+00  0.91288970569E+01 -0.75977040815E+01  0.11883522802E+02  0.51100000000E-03 0. -1.
        -11    1    4    4    0    0  0.49229794031E+01  0.16253863836E+00 -0.24317464946E+01  0.54932264005E+01  0.51100000000E-03 0.  1.
        -12    1    4    4    0    0 -0.18914558952E+01  0.10268511232E+02 -0.28561857585E+02  0.30410518526E+02  0.00000000000E+00 0.  1.
</event>
<event>
 8    1  0.2994958E-010  0.9118800E+02  0.7816164E-02  0.1184000E+00
        -11   -1    0    0    0    0  0.00000000000E+00  0.00000000000E+00  0.45593999997E+02  0.45594000000E+02  0.51100000000E-03 0. -1.
         11   -1    0    0    0    0 -0.00000000000E+00 -0.00000000000E+00 -0.45593999997E+02  0.45594000000E+02  0.51100000000E-03 0.  1.
         23    2    1    2    0    0 -0.88817841970E-15  0.00000000000E+00  0.00000000000E+00  0.91188000000E+02  0.91188000000E+02 0.  0.
    9900012    2    3    3    0    0 -0.74215511165E+01 -0.17114517832E+02 -0.39187205597E+02  0.47787271618E+02  0.20000002616E+02 0.  0.
         12    1    3    3    0    0  0.74215511165E+01  0.17114517832E+02  0.39187205597E+02  0.43400728382E+02  0.00000000000E+00 0. -1.
         11    1    4    4    0    0  0.10314510003E+01 -0.50225759234E+01 -0.14280465026E+02  0.15173063029E+02  0.51100000000E-03 0. -1.
        -11    1    4    4    0    0 -0.11357038263E+01 -0.67573416546E+00 -0.16724970448E+02  0.16777099767E+02  0.51100000000E-03 0.  1.
         12    1    4    4    0    0 -0.73172982906E+01 -0.11416207743E+02 -0.81817701237E+01  0.15837108822E+02  0.00000000000E+00 0. -1.
</event>
<event>
 8    1  0.2994958E-010  0.9118800E+02  0.7816164E-02  0.1184000E+00
        -11   -1    0    0    0    0  0.00000000000E+00  0.00000000000E+00  0.45593999997E+02  0.45594000000E+02  0.51100000000E-03 0. -1.
         11   -1    0    0    0    0 -0.00000000000E+00 -0.00000000000E+00 -0.45593999997E+02  0.45594000000E+02  0.51100000000E-03 0.  1.
         23    2    1    2    0    0  0.00000000000E+00  0.00000000000E+00 -0.71054273576E-14  0.91188000000E+02  0.91188000000E+02 0.  0.
    9900012    2    3    3    0    0  0.23818556451E+02  0.15002361241E+02  0.33033753426E+02  0.47787270287E+02  0.19999996545E+02 0.  0.
        -12    1    3    3    0    0 -0.23818556451E+02 -0.15002361241E+02 -0.33033753426E+02  0.43400729713E+02  0.00000000000E+00 0.  1.
         11    1    4    4    0    0  0.12663474560E+02  0.74600910767E+01  0.86377668376E+01  0.17047802292E+02  0.51100000000E-03 0. -1.
        -11    1    4    4    0    0 -0.87793929853E+00  0.58139722031E+01  0.44225321828E+01  0.73574344278E+01  0.51100000000E-03 0.  1.
         12    1    4    4    0    0  0.12033021190E+02  0.17282979616E+01  0.19973454406E+02  0.23382033566E+02  0.00000000000E+00 0. -1.
</event>
<event>
 8    1  0.2994958E-010  0.9118800E+02  0.7816164E-02  0.1184000E+00
        -11   -1    0    0    0    0  0.00000000000E+00  0.00000000000E+00  0.45593999997E+02  0.45594000000E+02  0.51100000000E-03 0. -1.
         11   -1    0    0    0    0 -0.00000000000E+00 -0.00000000000E+00 -0.45593999997E+02  0.45594000000E+02  0.51100000000E-03 0.  1.
         23    2    1    2    0    0 -0.55511151231E-15  0.00000000000E+00  0.00000000000E+00  0.91188000000E+02  0.91188000000E+02 0.  0.
    9900012    2    3    3    0    0  0.87814852126E+00  0.40098881097E+02 -0.16581080901E+02  0.47787266666E+02  0.19999980039E+02 0.  0.
         12    1    3    3    0    0 -0.87814852126E+00 -0.40098881097E+02  0.16581080901E+02  0.43400733334E+02  0.00000000000E+00 0. -1.
         11    1    4    4    0    0 -0.47551483503E+01  0.17524011349E+02 -0.20519879337E+01  0.18273288274E+02  0.51100000000E-03 0. -1.
        -11    1    4    4    0    0 -0.11946648411E+01  0.15597920389E+02 -0.67778480167E+01  0.17048799622E+02  0.51100000000E-03 0.  1.
        -12    1    4    4    0    0  0.68279617126E+01  0.69769493586E+01 -0.77512449507E+01  0.12465178771E+02  0.00000000000E+00 0.  1.
</event>
<event>
 8    1  0.2994958E-010  0.9118800E+02  0.7816164E-02  0.1184000E+00
        -11   -1    0    0    0    0  0.00000000000E+00  0.00000000000E+00  0.45593999997E+02  0.45594000000E+02  0.51100000000E-03 0. -1.
         11   -1    0    0    0    0 -0.00000000000E+00 -0.00000000000E+00 -0.45593999997E+02  0.45594000000E+02  0.51100000000E-03 0.  1.
         23    2    1    2    0    0  0.00000000000E+00  0.00000000000E+00  0.00000000000E+00  0.91188000000E+02  0.91188000000E+02 0.  0.
    9900012    2    3    3    0    0  0.51871808578E+01  0.33355974380E+02 -0.27278109703E+02  0.47787272575E+02  0.20000006977E+02 0.  0.
         12    1    3    3    0    0 -0.51871808578E+01 -0.33355974380E+02  0.27278109703E+02  0.43400727425E+02  0.00000000000E+00 0. -1.
         11    1    4    4    0    0 -0.28432800670E+01  0.10633514397E+02 -0.11175736702E+02  0.15686075388E+02  0.51100000000E-03 0. -1.
        -11    1    4    4    0    0  0.18208966253E+01  0.20941998733E+02 -0.10259721339E+02  0.23391127756E+02  0.51100000000E-03 0.  1.
        -12    1    4    4    0    0  0.62095642995E+01  0.17804612490E+01 -0.58426516621E+01  0.87100694310E+01  0.00000000000E+00 0.  1.
</event>
<event>
 8    1  0.2994958E-010  0.9118800E+02  0.7816164E-02  0.1184000E+00
        -11   -1    0    0    0    0  0.00000000000E+00  0.00000000000E+00  0.45593999997E+02  0.45594000000E+02  0.51100000000E-03 0. -1.
         11   -1    0    0    0    0 -0.00000000000E+00 -0.00000000000E+00 -0.45593999997E+02  0.45594000000E+02  0.51100000000E-03 0.  1.
         23    2    1    2    0    0  0.00000000000E+00  0.17763568394E-14  0.00000000000E+00  0.91188000000E+02  0.91188000000E+02 0.  0.
    9900012    2    3    3    0    0  0.77093576066E+01 -0.15245624385E+02  0.39896860851E+02  0.47787276926E+02  0.20000026817E+02 0.  0.
        -12    1    3    3    0    0 -0.77093576066E+01  0.15245624385E+02 -0.39896860851E+02  0.43400723074E+02  0.00000000000E+00 0.  1.
         11    1    4    4    0    0  0.14565494096E+01 -0.16348906578E+02  0.26155506842E+02  0.30879100066E+02  0.51100000000E-03 0. -1.
        -11    1    4    4    0    0  0.12736346293E+01 -0.28590441365E+01  0.25624597975E+01  0.40450561205E+01  0.51100000000E-03 0.  1.
        -12    1    4    4    0    0  0.49791735678E+01  0.39623263300E+01  0.11178894211E+02  0.12863120739E+02  0.00000000000E+00 0.  1.
</event>
<event>
 8    1  0.2994958E-010  0.9118800E+02  0.7816164E-02  0.1184000E+00
        -11   -1    0    0    0    0  0.00000000000E+00  0.00000000000E+00  0.45593999997E+02  0.45594000000E+02  0.51100000000E-03 0. -1.
         11   -1    0    0    0    0 -0.00000000000E+00 -0.00000000000E+00 -0.45593999997E+02  0.45594000000E+02  0.51100000000E-03 0.  1.
         23    2    1    2    0    0 -0.44408920985E-15  0.71054273576E-14  0.00000000000E+00  0.91188000000E+02  0.91188000000E+02 0.  0.
    9900012    2    3    3    0    0 -0.23536706280E+01  0.40322747976E+02 -0.15879547390E+02  0.47787265040E+02  0.19999972624E+02 0.  0.
         12    1    3    3    0    0  0.23536706280E+01 -0.40322747976E+02  0.15879547390E+02  0.43400734960E+02  0.00000000000E+00 0. -1.
         11    1    4    4    0    0 -0.23551533324E+00  0.24106606372E+02 -0.52014486446E+01  0.24662502032E+02  0.51100000000E-03 0. -1.
        -11    1    4    4    0    0  0.34593220786E+01  0.13257650828E+02 -0.95748102171E+01  0.16715537852E+02  0.51100000000E-03 0.  1.
         12    1    4    4    0    0 -0.55774773734E+01  0.29584907764E+01 -0.11032885279E+01  0.64092251560E+01  0.00000000000E+00 0. -1.
</event>
<event>
 8    1  0.2994958E-010  0.9118800E+02  0.7816164E-02  0.1184000E+00
        -11   -1    0    0    0    0  0.00000000000E+00  0.00000000000E+00  0.45593999997E+02  0.45594000000E+02  0.51100000000E-03 0. -1.
         11   -1    0    0    0    0 -0.00000000000E+00 -0.00000000000E+00 -0.45593999997E+02  0.45594000000E+02  0.51100000000E-03 0.  1.
         23    2    1    2    0    0  0.44408920985E-15 -0.66613381478E-15  0.00000000000E+00  0.91188000000E+02  0.91188000000E+02 0.  0.
    9900012    2    3    3    0    0  0.39244428001E+01 -0.10055949173E+01 -0.43211235430E+02  0.47787270285E+02  0.19999996538E+02 0.  0.
         12    1    3    3    0    0 -0.39244428001E+01  0.10055949173E+01  0.43211235430E+02  0.43400729715E+02  0.00000000000E+00 0. -1.
         11    1    4    4    0    0  0.18046744608E+01 -0.82805112112E+01 -0.31466681737E+02  0.32587969799E+02  0.51100000000E-03 0. -1.
        -11    1    4    4    0    0  0.14320683301E+01 -0.47425443409E+00 -0.63517808302E+00  0.16368226625E+01  0.51100000000E-03 0.  1.
         12    1    4    4    0    0  0.68770000917E+00  0.77491707281E+01 -0.11109375610E+02  0.13562477824E+02  0.00000000000E+00 0. -1.
</event>
<event>
 8    1  0.2994958E-010  0.9118800E+02  0.7816164E-02  0.1184000E+00
        -11   -1    0    0    0    0  0.00000000000E+00  0.00000000000E+00  0.45593999997E+02  0.45594000000E+02  0.51100000000E-03 0. -1.
         11   -1    0    0    0    0 -0.00000000000E+00 -0.00000000000E+00 -0.45593999997E+02  0.45594000000E+02  0.51100000000E-03 0.  1.
         23    2    1    2    0    0 -0.17763568394E-14  0.00000000000E+00  0.00000000000E+00  0.91188000000E+02  0.91188000000E+02 0.  0.
    9900012    2    3    3    0    0 -0.15107005516E+02  0.52241948082E+01  0.40349831284E+02  0.47787277521E+02  0.20000029531E+02 0.  0.
        -12    1    3    3    0    0  0.15107005516E+02 -0.52241948082E+01 -0.40349831284E+02  0.43400722479E+02  0.00000000000E+00 0.  1.
         11    1    4    4    0    0  0.65951706487E+00  0.69633996336E+01  0.40183665898E+01  0.80666701636E+01  0.51100000000E-03 0. -1.
        -11    1    4    4    0    0 -0.20702600298E+01 -0.75337748814E+00  0.35327427075E+01  0.41633911093E+01  0.51100000000E-03 0.  1.
        -12    1    4    4    0    0 -0.13696262551E+02 -0.98582733730E+00  0.32798721986E+02  0.35557216249E+02  0.00000000000E+00 0.  1.
</event>
<event>
 8    1  0.2994958E-010  0.9118800E+02  0.7816164E-02  0.1184000E+00
        -11   -1    0    0    0    0  0.00000000000E+00  0.00000000000E+00  0.45593999997E+02  0.45594000000E+02  0.51100000000E-03 0. -1.
         11   -1    0    0    0    0 -0.00000000000E+00 -0.00000000000E+00 -0.45593999997E+02  0.45594000000E+02  0.51100000000E-03 0.  1.
         23    2    1    2    0    0  0.00000000000E+00 -0.11102230246E-14  0.00000000000E+00  0.91188000000E+02  0.91188000000E+02 0.  0.
    9900012    2    3    3    0    0 -0.26593656220E+02 -0.13079567255E+00 -0.34298446297E+02  0.47787273312E+02  0.20000010339E+02 0.  0.
         12    1    3    3    0    0  0.26593656220E+02  0.13079567255E+00  0.34298446297E+02  0.43400726688E+02  0.00000000000E+00 0. -1.
         11    1    4    4    0    0 -0.67275956351E+01  0.15854973461E+01 -0.26071026062E+01  0.73872409684E+01  0.51100000000E-03 0. -1.
        -11    1    4    4    0    0 -0.52930905364E+01  0.64266698507E+01 -0.11594217828E+02  0.14273919577E+02  0.51100000000E-03 0.  1.
        -12    1    4    4    0    0 -0.14572970048E+02 -0.81429628694E+01 -0.20097125863E+02  0.26126112766E+02  0.00000000000E+00 0.  1.
</event>
<event>
 8    1  0.2994958E-010  0.9118800E+02  0.7816164E-02  0.1184000E+00
        -11   -1    0    0    0    0  0.00000000000E+00  0.00000000000E+00  0.45593999997E+02  0.45594000000E+02  0.51100000000E-03 0. -1.
         11   -1    0    0    0    0 -0.00000000000E+00 -0.00000000000E+00 -0.45593999997E+02  0.45594000000E+02  0.51100000000E-03 0.  1.
         23    2    1    2    0    0 -0.35527136788E-14  0.00000000000E+00  0.00000000000E+00  0.91188000000E+02  0.91188000000E+02 0.  0.
    9900012    2    3    3    0    0  0.30506549116E+02 -0.17186782590E+02 -0.25643480704E+02  0.47787272617E+02  0.20000007170E+02 0.  0.
         12    1    3    3    0    0 -0.30506549116E+02  0.17186782590E+02  0.25643480704E+02  0.43400727383E+02  0.00000000000E+00 0. -1.
         11    1    4    4    0    0  0.80491256734E+01 -0.11005361367E+02 -0.47277837358E+01  0.14431158728E+02  0.51100000000E-03 0. -1.
        -11    1    4    4    0    0 -0.71700131510E+00  0.74929960012E+00 -0.32277339061E+01  0.33902517910E+01  0.51100000000E-03 0.  1.
        -12    1    4    4    0    0  0.23174424758E+02 -0.69307208236E+01 -0.17687963062E+02  0.29965862098E+02  0.00000000000E+00 0.  1.
</event>
<event>
 8    1  0.2994958E-010  0.9118800E+02  0.7816164E-02  0.1184000E+00
        -11   -1    0    0    0    0  0.00000000000E+00  0.00000000000E+00  0.45593999997E+02  0.45594000000E+02  0.51100000000E-03 0. -1.
         11   -1    0    0    0    0 -0.00000000000E+00 -0.00000000000E+00 -0.45593999997E+02  0.45594000000E+02  0.51100000000E-03 0.  1.
         23    2    1    2    0    0  0.00000000000E+00  0.66613381478E-15  0.00000000000E+00  0.91188000000E+02  0.91188000000E+02 0.  0.
    9900012    2    3    3    0    0 -0.16483896503E+02  0.10913221005E+01  0.40133674167E+02  0.47787289983E+02  0.20000086349E+02 0.  0.
        -12    1    3    3    0    0  0.16483896503E+02 -0.10913221005E+01 -0.40133674167E+02  0.43400710017E+02  0.00000000000E+00 0.  1.
         11    1    4    4    0    0 -0.13745185617E+02 -0.55485316388E+01  0.16186344501E+02  0.21947985774E+02  0.51100000000E-03 0. -1.
        -11    1    4    4    0    0  0.16098313834E+01 -0.89346980767E-01  0.28911541885E+01  0.33103342383E+01  0.51100000000E-03 0.  1.
         12    1    4    4    0    0 -0.43485422694E+01  0.67292007201E+01  0.21056175477E+02  0.22528969971E+02  0.00000000000E+00 0. -1.
</event>
<event>
 8    1  0.2994958E-010  0.9118800E+02  0.7816164E-02  0.1184000E+00
        -11   -1    0    0    0    0  0.00000000000E+00  0.00000000000E+00  0.45593999997E+02  0.45594000000E+02  0.51100000000E-03 0. -1.
         11   -1    0    0    0    0 -0.00000000000E+00 -0.00000000000E+00 -0.45593999997E+02  0.45594000000E+02  0.51100000000E-03 0.  1.
         23    2    1    2    0    0  0.71054273576E-14  0.17763568394E-14  0.00000000000E+00  0.91188000000E+02  0.91188000000E+02 0.  0.
    9900012    2    3    3    0    0  0.40948059496E+02  0.10932378980E+02  0.93468165397E+01  0.47787268830E+02  0.19999989903E+02 0.  0.
        -12    1    3    3    0    0 -0.40948059496E+02 -0.10932378980E+02 -0.93468165397E+01  0.43400731170E+02  0.00000000000E+00 0.  1.
         11    1    4    4    0    0  0.35578046409E+01 -0.16044335383E+01 -0.98897040165E+00  0.40261946746E+01  0.51100000000E-03 0. -1.
        -11    1    4    4    0    0  0.34671793177E+02  0.10813787355E+02  0.38524007895E+01  0.36522763192E+02  0.51100000000E-03 0.  1.
        -12    1    4    4    0    0  0.27184616787E+01  0.17230251632E+01  0.64833861519E+01  0.72383109636E+01  0.00000000000E+00 0.  1.
</event>
<event>
 8    1  0.2994958E-010  0.9118800E+02  0.7816164E-02  0.1184000E+00
        -11   -1    0    0    0    0  0.00000000000E+00  0.00000000000E+00  0.45593999997E+02  0.45594000000E+02  0.51100000000E-03 0. -1.
         11   -1    0    0    0    0 -0.00000000000E+00 -0.00000000000E+00 -0.45593999997E+02  0.45594000000E+02  0.51100000000E-03 0.  1.
         23    2    1    2    0    0  0.35527136788E-14  0.00000000000E+00  0.00000000000E+00  0.91188000000E+02  0.91188000000E+02 0.  0.
    9900012    2    3    3    0    0 -0.28346078655E+02 -0.24691712536E+02 -0.21689693799E+02  0.47787266594E+02  0.19999979709E+02 0.  0.
         12    1    3    3    0    0  0.28346078655E+02  0.24691712536E+02  0.21689693799E+02  0.43400733406E+02  0.00000000000E+00 0. -1.
         11    1    4    4    0    0 -0.78571006753E+01 -0.83298788376E+01  0.11233971307E+01  0.11505778281E+02  0.51100000000E-03 0. -1.
        -11    1    4    4    0    0 -0.36829666335E+01  0.11584104891E+01 -0.40758920431E+01  0.56141833149E+01  0.51100000000E-03 0.  1.
        -12    1    4    4    0    0 -0.16806011346E+02 -0.17520244187E+02 -0.18737198887E+02  0.30667304999E+02  0.00000000000E+00 0.  1.
</event>
<event>
 8    1  0.2994958E-010  0.9118800E+02  0.7816164E-02  0.1184000E+00
        -11   -1    0    0    0    0  0.00000000000E+00  0.00000000000E+00  0.45593999997E+02  0.45594000000E+02  0.51100000000E-03 0. -1.
         11   -1    0    0    0    0 -0.00000000000E+00 -0.00000000000E+00 -0.45593999997E+02  0.45594000000E+02  0.51100000000E-03 0.  1.
         23    2    1    2    0    0  0.00000000000E+00  0.00000000000E+00  0.00000000000E+00  0.91188000000E+02  0.91188000000E+02 0.  0.
    9900012    2    3    3    0    0  0.28074620811E+02  0.23276471221E+02 -0.23529659979E+02  0.47787270226E+02  0.19999996268E+02 0.  0.
         12    1    3    3    0    0 -0.28074620811E+02 -0.23276471221E+02  0.23529659979E+02  0.43400729774E+02  0.00000000000E+00 0. -1.
         11    1    4    4    0    0  0.12451533282E+02  0.10527024308E+02 -0.38379693853E+01  0.16750788970E+02  0.51100000000E-03 0. -1.
        -11    1    4    4    0    0  0.71582020654E+00  0.83973810254E+01 -0.61673162077E+01  0.10443380493E+02  0.51100000000E-03 0.  1.
        -12    1    4    4    0    0  0.14907267323E+02  0.43520658883E+01 -0.13524374386E+02  0.20593100763E+02  0.00000000000E+00 0.  1.
</event>
<event>
 8    1  0.2994958E-010  0.9118800E+02  0.7816164E-02  0.1184000E+00
        -11   -1    0    0    0    0  0.00000000000E+00  0.00000000000E+00  0.45593999997E+02  0.45594000000E+02  0.51100000000E-03 0. -1.
         11   -1    0    0    0    0 -0.00000000000E+00 -0.00000000000E+00 -0.45593999997E+02  0.45594000000E+02  0.51100000000E-03 0.  1.
         23    2    1    2    0    0  0.00000000000E+00  0.00000000000E+00  0.00000000000E+00  0.91188000000E+02  0.91188000000E+02 0.  0.
    9900012    2    3    3    0    0  0.32647332530E+02  0.15874974050E+02  0.23785709461E+02  0.47787273082E+02  0.20000009291E+02 0.  0.
        -12    1    3    3    0    0 -0.32647332530E+02 -0.15874974050E+02 -0.23785709461E+02  0.43400726918E+02  0.00000000000E+00 0.  1.
         11    1    4    4    0    0  0.39103132998E+01  0.38694331139E+00 -0.12700803702E+01  0.41295737839E+01  0.51100000000E-03 0. -1.
        -11    1    4    4    0    0  0.15230865935E+02  0.12850285189E+02  0.73655678666E+01  0.21245251160E+02  0.51100000000E-03 0.  1.
        -12    1    4    4    0    0  0.13506153295E+02  0.26377455498E+01  0.17690221965E+02  0.22412448139E+02  0.00000000000E+00 0.  1.
</event>
<event>
 8    1  0.2994958E-010  0.9118800E+02  0.7816164E-02  0.1184000E+00
        -11   -1    0    0    0    0  0.00000000000E+00  0.00000000000E+00  0.45593999997E+02  0.45594000000E+02  0.51100000000E-03 0. -1.
         11   -1    0    0    0    0 -0.00000000000E+00 -0.00000000000E+00 -0.45593999997E+02  0.45594000000E+02  0.51100000000E-03 0.  1.
         23    2    1    2    0    0  0.00000000000E+00  0.00000000000E+00  0.00000000000E+00  0.91188000000E+02  0.91188000000E+02 0.  0.
    9900012    2    3    3    0    0 -0.33444784027E+02  0.36059905387E+01 -0.27423838099E+02  0.47787266799E+02  0.19999980641E+02 0.  0.
         12    1    3    3    0    0  0.33444784027E+02 -0.36059905387E+01  0.27423838099E+02  0.43400733201E+02  0.00000000000E+00 0. -1.
         11    1    4    4    0    0  0.18750734548E+01  0.24253931253E+01 -0.27811537329E+01  0.41392328541E+01  0.51100000000E-03 0. -1.
        -11    1    4    4    0    0 -0.56732917387E+01 -0.10200309253E+01 -0.70418020547E+01  0.91002021230E+01  0.51100000000E-03 0.  1.
         12    1    4    4    0    0 -0.29646565743E+02  0.22006283387E+01 -0.17600882311E+02  0.34547831821E+02  0.00000000000E+00 0. -1.
</event>
<event>
 8    1  0.2994958E-010  0.9118800E+02  0.7816164E-02  0.1184000E+00
        -11   -1    0    0    0    0  0.00000000000E+00  0.00000000000E+00  0.45593999997E+02  0.45594000000E+02  0.51100000000E-03 0. -1.
         11   -1    0    0    0    0 -0.00000000000E+00 -0.00000000000E+00 -0.45593999997E+02  0.45594000000E+02  0.51100000000E-03 0.  1.
         23    2    1    2    0    0  0.17763568394E-14  0.00000000000E+00  0.71054273576E-14  0.91188000000E+02  0.91188000000E+02 0.  0.
    9900012    2    3    3    0    0  0.11702679238E+02 -0.21049097386E+02  0.36105487309E+02  0.47787269408E+02  0.19999992538E+02 0.  0.
        -12    1    3    3    0    0 -0.11702679238E+02  0.21049097386E+02 -0.36105487309E+02  0.43400730592E+02  0.00000000000E+00 0.  1.
         11    1    4    4    0    0  0.75945112388E+01 -0.71398289497E+01  0.81663128750E+01  0.13241692664E+02  0.51100000000E-03 0. -1.
        -11    1    4    4    0    0 -0.32520140504E+01 -0.12376084279E+02  0.17888424729E+02  0.21994062767E+02  0.51100000000E-03 0.  1.
         12    1    4    4    0    0  0.73601820492E+01 -0.15331841573E+01  0.10050749705E+02  0.12551513976E+02  0.00000000000E+00 0. -1.
</event>
<event>
 8    1  0.2994958E-010  0.9118800E+02  0.7816164E-02  0.1184000E+00
        -11   -1    0    0    0    0  0.00000000000E+00  0.00000000000E+00  0.45593999997E+02  0.45594000000E+02  0.51100000000E-03 0. -1.
         11   -1    0    0    0    0 -0.00000000000E+00 -0.00000000000E+00 -0.45593999997E+02  0.45594000000E+02  0.51100000000E-03 0.  1.
         23    2    1    2    0    0  0.00000000000E+00 -0.71054273576E-14  0.00000000000E+00  0.91188000000E+02  0.91188000000E+02 0.  0.
    9900012    2    3    3    0    0 -0.19921849129E+02 -0.33213974944E+02 -0.19585070995E+02  0.47787271778E+02  0.20000003344E+02 0.  0.
         12    1    3    3    0    0  0.19921849129E+02  0.33213974944E+02  0.19585070995E+02  0.43400728222E+02  0.00000000000E+00 0. -1.
         11    1    4    4    0    0 -0.35420512712E+01 -0.12844932897E+02  0.17943586293E+01  0.13444632814E+02  0.51100000000E-03 0. -1.
        -11    1    4    4    0    0 -0.32121202194E+01 -0.66121326517E+01 -0.32072781179E+01  0.80202648145E+01  0.51100000000E-03 0.  1.
        -12    1    4    4    0    0 -0.13167677639E+02 -0.13756909395E+02 -0.18172151506E+02  0.26322374150E+02  0.00000000000E+00 0.  1.
</event>
<event>
 8    1  0.2994958E-010  0.9118800E+02  0.7816164E-02  0.1184000E+00
        -11   -1    0    0    0    0  0.00000000000E+00  0.00000000000E+00  0.45593999997E+02  0.45594000000E+02  0.51100000000E-03 0. -1.
         11   -1    0    0    0    0 -0.00000000000E+00 -0.00000000000E+00 -0.45593999997E+02  0.45594000000E+02  0.51100000000E-03 0.  1.
         23    2    1    2    0    0 -0.17763568394E-14 -0.88817841970E-15  0.71054273576E-14  0.91188000000E+02  0.91188000000E+02 0.  0.
    9900012    2    3    3    0    0 -0.13173321805E+02  0.42219812596E+01 -0.41137103719E+02  0.47787276094E+02  0.20000023024E+02 0.  0.
         12    1    3    3    0    0  0.13173321805E+02 -0.42219812596E+01  0.41137103719E+02  0.43400723906E+02  0.00000000000E+00 0. -1.
         11    1    4    4    0    0  0.15262177872E+01 -0.13449271916E-01 -0.53754332804E+00  0.16181701726E+01  0.51100000000E-03 0. -1.
        -11    1    4    4    0    0 -0.43418242179E+01  0.62990135562E+01 -0.30888402780E+02  0.31821728990E+02  0.51100000000E-03 0.  1.
         12    1    4    4    0    0 -0.10357715375E+02 -0.20635830246E+01 -0.97111576110E+01  0.14347376932E+02  0.00000000000E+00 0. -1.
</event>
<event>
 8    1  0.2994958E-010  0.9118800E+02  0.7816164E-02  0.1184000E+00
        -11   -1    0    0    0    0  0.00000000000E+00  0.00000000000E+00  0.45593999997E+02  0.45594000000E+02  0.51100000000E-03 0. -1.
         11   -1    0    0    0    0 -0.00000000000E+00 -0.00000000000E+00 -0.45593999997E+02  0.45594000000E+02  0.51100000000E-03 0.  1.
         23    2    1    2    0    0 -0.35527136788E-14  0.00000000000E+00  0.00000000000E+00  0.91188000000E+02  0.91188000000E+02 0.  0.
    9900012    2    3    3    0    0 -0.18502532526E+02  0.12484993473E+02  0.37221021006E+02  0.47787272165E+02  0.20000005108E+02 0.  0.
        -12    1    3    3    0    0  0.18502532526E+02 -0.12484993473E+02 -0.37221021006E+02  0.43400727835E+02  0.00000000000E+00 0.  1.
         11    1    4    4    0    0 -0.84918604872E+01  0.23453533035E+01  0.18276327968E+02  0.20288827982E+02  0.51100000000E-03 0. -1.
        -11    1    4    4    0    0 -0.11732949223E+02  0.24427346774E+01  0.12454244497E+02  0.17284017369E+02  0.51100000000E-03 0.  1.
        -12    1    4    4    0    0  0.17222771843E+01  0.76969054919E+01  0.64904485414E+01  0.10214426813E+02  0.00000000000E+00 0.  1.
</event>
<event>
 8    1  0.2994958E-010  0.9118800E+02  0.7816164E-02  0.1184000E+00
        -11   -1    0    0    0    0  0.00000000000E+00  0.00000000000E+00  0.45593999997E+02  0.45594000000E+02  0.51100000000E-03 0. -1.
         11   -1    0    0    0    0 -0.00000000000E+00 -0.00000000000E+00 -0.45593999997E+02  0.45594000000E+02  0.51100000000E-03 0.  1.
         23    2    1    2    0    0  0.00000000000E+00  0.27755575616E-15  0.00000000000E+00  0.91188000000E+02  0.91188000000E+02 0.  0.
    9900012    2    3    3    0    0  0.32046751364E+02  0.32590862318E+00  0.29266408631E+02  0.47787272315E+02  0.20000005793E+02 0.  0.
        -12    1    3    3    0    0 -0.32046751364E+02 -0.32590862318E+00 -0.29266408631E+02  0.43400727685E+02  0.00000000000E+00 0.  1.
         11    1    4    4    0    0  0.63540375287E+01 -0.30512048854E+01  0.34508652063E+01  0.78480644175E+01  0.51100000000E-03 0. -1.
        -11    1    4    4    0    0  0.10275999596E+02 -0.20710222811E+01  0.14307763513E+01  0.10579812012E+02  0.51100000000E-03 0.  1.
         12    1    4    4    0    0  0.15416714239E+02  0.54481357897E+01  0.24384767073E+02  0.29359395885E+02  0.00000000000E+00 0. -1.
</event>
<event>
 8    1  0.2994958E-010  0.9118800E+02  0.7816164E-02  0.1184000E+00
        -11   -1    0    0    0    0  0.00000000000E+00  0.00000000000E+00  0.45593999997E+02  0.45594000000E+02  0.51100000000E-03 0. -1.
         11   -1    0    0    0    0 -0.00000000000E+00 -0.00000000000E+00 -0.45593999997E+02  0.45594000000E+02  0.51100000000E-03 0.  1.
         23    2    1    2    0    0  0.00000000000E+00  0.00000000000E+00 -0.71054273576E-14  0.91188000000E+02  0.91188000000E+02 0.  0.
    9900012    2    3    3    0    0  0.19792338088E+02  0.21858804708E+02  0.31844618176E+02  0.47787266170E+02  0.19999977774E+02 0.  0.
        -12    1    3    3    0    0 -0.19792338088E+02 -0.21858804708E+02 -0.31844618176E+02  0.43400733830E+02  0.00000000000E+00 0.  1.
         11    1    4    4    0    0  0.85023100123E+01  0.69501112398E+01  0.14599059918E+02  0.18268165549E+02  0.51100000000E-03 0. -1.
        -11    1    4    4    0    0  0.14242183347E+02  0.12708617344E+02  0.17407851598E+02  0.25833738382E+02  0.51100000000E-03 0.  1.
        -12    1    4    4    0    0 -0.29521552712E+01  0.22000761244E+01 -0.16229334028E+00  0.36853622382E+01  0.00000000000E+00 0.  1.
</event>
<event>
 8    1  0.2994958E-010  0.9118800E+02  0.7816164E-02  0.1184000E+00
        -11   -1    0    0    0    0  0.00000000000E+00  0.00000000000E+00  0.45593999997E+02  0.45594000000E+02  0.51100000000E-03 0. -1.
         11   -1    0    0    0    0 -0.00000000000E+00 -0.00000000000E+00 -0.45593999997E+02  0.45594000000E+02  0.51100000000E-03 0.  1.
         23    2    1    2    0    0 -0.45796699766E-15  0.00000000000E+00  0.00000000000E+00  0.91188000000E+02  0.91188000000E+02 0.  0.
    9900012    2    3    3    0    0 -0.91611703479E-01 -0.28029566105E+02 -0.33135456594E+02  0.47787268988E+02  0.19999990622E+02 0.  0.
         12    1    3    3    0    0  0.91611703479E-01  0.28029566105E+02  0.33135456594E+02  0.43400731012E+02  0.00000000000E+00 0. -1.
         11    1    4    4    0    0 -0.14578486645E+01  0.17434507713E+01 -0.43651812173E+01  0.49213565855E+01  0.51100000000E-03 0. -1.
        -11    1    4    4    0    0 -0.38632514904E+01 -0.81346512584E+01 -0.50048224490E+01  0.10302694365E+02  0.51100000000E-03 0.  1.
        -12    1    4    4    0    0  0.52294884514E+01 -0.21638365618E+02 -0.23765452928E+02  0.32563218037E+02  0.00000000000E+00 0.  1.
</event>
<event>
 8    1  0.2994958E-010  0.9118800E+02  0.7816164E-02  0.1184000E+00
        -11   -1    0    0    0    0  0.00000000000E+00  0.00000000000E+00  0.45593999997E+02  0.45594000000E+02  0.51100000000E-03 0. -1.
         11   -1    0    0    0    0 -0.00000000000E+00 -0.00000000000E+00 -0.45593999997E+02  0.45594000000E+02  0.51100000000E-03 0.  1.
         23    2    1    2    0    0  0.35527136788E-14  0.35527136788E-14  0.35527136788E-14  0.91188000000E+02  0.91188000000E+02 0.  0.
    9900012    2    3    3    0    0  0.22563481681E+02  0.26573296161E+02  0.25852890692E+02  0.47787277292E+02  0.20000028487E+02 0.  0.
        -12    1    3    3    0    0 -0.22563481681E+02 -0.26573296161E+02 -0.25852890692E+02  0.43400722708E+02  0.00000000000E+00 0.  1.
         11    1    4    4    0    0  0.70255057552E+00 -0.10470355158E+01  0.16955735864E+01  0.21130146073E+01  0.51100000000E-03 0. -1.
        -11    1    4    4    0    0  0.45512132284E+01  0.14965404769E+02  0.37770913376E+01  0.16091715290E+02  0.51100000000E-03 0.  1.
         12    1    4    4    0    0  0.17309717877E+02  0.12654926907E+02  0.20380225768E+02  0.29582547395E+02  0.00000000000E+00 0. -1.
</event>
<event>
 8    1  0.2994958E-010  0.9118800E+02  0.7816164E-02  0.1184000E+00
        -11   -1    0    0    0    0  0.00000000000E+00  0.00000000000E+00  0.45593999997E+02  0.45594000000E+02  0.51100000000E-03 0.  1.
         11   -1    0    0    0    0 -0.00000000000E+00 -0.00000000000E+00 -0.45593999997E+02  0.45594000000E+02  0.51100000000E-03 0. -1.
         23    2    1    2    0    0 -0.17763568394E-14  0.00000000000E+00 -0.35527136788E-14  0.91188000000E+02  0.91188000000E+02 0.  0.
    9900012    2    3    3    0    0 -0.11626979141E+02  0.32461856333E+02  0.26356479520E+02  0.47787276813E+02  0.20000026300E+02 0.  0.
        -12    1    3    3    0    0  0.11626979141E+02 -0.32461856333E+02 -0.26356479520E+02  0.43400723187E+02  0.00000000000E+00 0.  1.
         11    1    4    4    0    0 -0.32695002077E+01  0.14842869797E+02  0.11302034976E+02  0.18940338178E+02  0.51100000000E-03 0. -1.
        -11    1    4    4    0    0 -0.53723234260E+01  0.19855283725E+02  0.14272527760E+02  0.25035958135E+02  0.51100000000E-03 0.  1.
        -12    1    4    4    0    0 -0.29851555069E+01 -0.22362971890E+01  0.78191678324E+00  0.38109805004E+01  0.00000000000E+00 0.  1.
</event>
<event>
 8    1  0.2994958E-010  0.9118800E+02  0.7816164E-02  0.1184000E+00
        -11   -1    0    0    0    0  0.00000000000E+00  0.00000000000E+00  0.45593999997E+02  0.45594000000E+02  0.51100000000E-03 0. -1.
         11   -1    0    0    0    0 -0.00000000000E+00 -0.00000000000E+00 -0.45593999997E+02  0.45594000000E+02  0.51100000000E-03 0.  1.
         23    2    1    2    0    0 -0.35527136788E-14  0.00000000000E+00  0.35527136788E-14  0.91188000000E+02  0.91188000000E+02 0.  0.
    9900012    2    3    3    0    0  0.20013276308E+02 -0.28427601481E+02  0.25980065775E+02  0.47787267607E+02  0.19999984326E+02 0.  0.
        -12    1    3    3    0    0 -0.20013276308E+02  0.28427601481E+02 -0.25980065775E+02  0.43400732393E+02  0.00000000000E+00 0.  1.
         11    1    4    4    0    0  0.11147605421E+02 -0.23987283369E+02  0.18759786267E+02  0.32428204562E+02  0.51100000000E-03 0. -1.
        -11    1    4    4    0    0  0.81861569931E+01 -0.70776678481E+01  0.60137183512E+01  0.12380280980E+02  0.51100000000E-03 0.  1.
        -12    1    4    4    0    0  0.67951389420E+00  0.26373497360E+01  0.12065611577E+01  0.29787820648E+01  0.00000000000E+00 0.  1.
</event>
<event>
 8    1  0.2994958E-010  0.9118800E+02  0.7816164E-02  0.1184000E+00
        -11   -1    0    0    0    0  0.00000000000E+00  0.00000000000E+00  0.45593999997E+02  0.45594000000E+02  0.51100000000E-03 0. -1.
         11   -1    0    0    0    0 -0.00000000000E+00 -0.00000000000E+00 -0.45593999997E+02  0.45594000000E+02  0.51100000000E-03 0.  1.
         23    2    1    2    0    0  0.00000000000E+00 -0.17763568394E-14  0.71054273576E-14  0.91188000000E+02  0.91188000000E+02 0.  0.
    9900012    2    3    3    0    0 -0.36565161280E+02 -0.75969789970E+01 -0.22111038959E+02  0.47787272435E+02  0.20000006342E+02 0.  0.
         12    1    3    3    0    0  0.36565161280E+02  0.75969789970E+01  0.22111038959E+02  0.43400727565E+02  0.00000000000E+00 0. -1.
         11    1    4    4    0    0 -0.67555250489E+00  0.13267405030E+01 -0.20367218048E+01  0.25228649430E+01  0.51100000000E-03 0. -1.
        -11    1    4    4    0    0 -0.22484939673E+02  0.22818289884E+01 -0.14796492611E+02  0.27013245815E+02  0.51100000000E-03 0.  1.
         12    1    4    4    0    0 -0.13404669102E+02 -0.11205548488E+02 -0.52778245428E+01  0.18251161677E+02  0.00000000000E+00 0. -1.
</event>
<event>
 8    1  0.2994958E-010  0.9118800E+02  0.7816164E-02  0.1184000E+00
        -11   -1    0    0    0    0  0.00000000000E+00  0.00000000000E+00  0.45593999997E+02  0.45594000000E+02  0.51100000000E-03 0. -1.
         11   -1    0    0    0    0 -0.00000000000E+00 -0.00000000000E+00 -0.45593999997E+02  0.45594000000E+02  0.51100000000E-03 0.  1.
         23    2    1    2    0    0  0.00000000000E+00  0.00000000000E+00  0.00000000000E+00  0.91188000000E+02  0.91188000000E+02 0.  0.
    9900012    2    3    3    0    0  0.40975143002E+02 -0.99933465148E+01  0.10236871721E+02  0.47787275798E+02  0.20000021675E+02 0.  0.
         12    1    3    3    0    0 -0.40975143002E+02  0.99933465148E+01 -0.10236871721E+02  0.43400724202E+02  0.00000000000E+00 0. -1.
         11    1    4    4    0    0  0.57680775252E+01 -0.10885616196E+01 -0.25900448013E+01  0.64159190355E+01  0.51100000000E-03 0. -1.
        -11    1    4    4    0    0  0.95335545241E+01 -0.25295751497E+01 -0.32869492111E+01  0.10396703693E+02  0.51100000000E-03 0.  1.
        -12    1    4    4    0    0  0.25673510953E+02 -0.63752097455E+01  0.16113865733E+02  0.30974653070E+02  0.00000000000E+00 0.  1.
</event>
<event>
 8    1  0.2994958E-010  0.9118800E+02  0.7816164E-02  0.1184000E+00
        -11   -1    0    0    0    0  0.00000000000E+00  0.00000000000E+00  0.45593999997E+02  0.45594000000E+02  0.51100000000E-03 0.  1.
         11   -1    0    0    0    0 -0.00000000000E+00 -0.00000000000E+00 -0.45593999997E+02  0.45594000000E+02  0.51100000000E-03 0. -1.
         23    2    1    2    0    0  0.00000000000E+00  0.00000000000E+00  0.00000000000E+00  0.91188000000E+02  0.91188000000E+02 0.  0.
    9900012    2    3    3    0    0  0.20484704227E+02 -0.33269680204E+02  0.18897773484E+02  0.47787302185E+02  0.20000141984E+02 0.  0.
        -12    1    3    3    0    0 -0.20484704227E+02  0.33269680204E+02 -0.18897773484E+02  0.43400697815E+02  0.00000000000E+00 0.  1.
         11    1    4    4    0    0  0.70038682730E+01 -0.57977460411E+01 -0.20731747252E-01  0.90922197515E+01  0.51100000000E-03 0.  1.
        -11    1    4    4    0    0  0.13627473302E+02 -0.12575892918E+02  0.13092144291E+02  0.22699457123E+02  0.51100000000E-03 0. -1.
         12    1    4    4    0    0 -0.14663734816E+00 -0.14896041245E+02  0.58263609407E+01  0.15995625311E+02  0.00000000000E+00 0. -1.
</event>
<event>
 8    1  0.2994958E-010  0.9118800E+02  0.7816164E-02  0.1184000E+00
        -11   -1    0    0    0    0  0.00000000000E+00  0.00000000000E+00  0.45593999997E+02  0.45594000000E+02  0.51100000000E-03 0. -1.
         11   -1    0    0    0    0 -0.00000000000E+00 -0.00000000000E+00 -0.45593999997E+02  0.45594000000E+02  0.51100000000E-03 0.  1.
         23    2    1    2    0    0  0.00000000000E+00 -0.33306690739E-15  0.71054273576E-14  0.91188000000E+02  0.91188000000E+02 0.  0.
    9900012    2    3    3    0    0  0.25241181535E+02 -0.18262692710E+00 -0.35305425734E+02  0.47787266318E+02  0.19999978449E+02 0.  0.
         12    1    3    3    0    0 -0.25241181535E+02  0.18262692710E+00  0.35305425734E+02  0.43400733682E+02  0.00000000000E+00 0. -1.
         11    1    4    4    0    0  0.10432952786E+02  0.19925410356E+01 -0.59622588084E+01  0.12180527656E+02  0.51100000000E-03 0. -1.
        -11    1    4    4    0    0  0.93244734647E+01  0.53464985139E+01 -0.17588470112E+02  0.20612742004E+02  0.51100000000E-03 0.  1.
         12    1    4    4    0    0  0.54837552841E+01 -0.75216664766E+01 -0.11754696814E+02  0.14993996658E+02  0.00000000000E+00 0. -1.
</event>
<event>
 8    1  0.2994958E-010  0.9118800E+02  0.7816164E-02  0.1184000E+00
        -11   -1    0    0    0    0  0.00000000000E+00  0.00000000000E+00  0.45593999997E+02  0.45594000000E+02  0.51100000000E-03 0. -1.
         11   -1    0    0    0    0 -0.00000000000E+00 -0.00000000000E+00 -0.45593999997E+02  0.45594000000E+02  0.51100000000E-03 0.  1.
         23    2    1    2    0    0  0.00000000000E+00  0.00000000000E+00  0.00000000000E+00  0.91188000000E+02  0.91188000000E+02 0.  0.
    9900012    2    3    3    0    0 -0.31665601517E+01 -0.19382654876E+02  0.38702833675E+02  0.47787265586E+02  0.19999975111E+02 0.  0.
        -12    1    3    3    0    0  0.31665601517E+01  0.19382654876E+02 -0.38702833675E+02  0.43400734414E+02  0.00000000000E+00 0.  1.
         11    1    4    4    0    0 -0.19506678459E+01 -0.15722038515E+02  0.22194042960E+02  0.27268354246E+02  0.51100000000E-03 0. -1.
        -11    1    4    4    0    0  0.41389029569E+01 -0.48596592579E+01  0.65351609245E+01  0.91353781728E+01  0.51100000000E-03 0.  1.
        -12    1    4    4    0    0 -0.53547952626E+01  0.11990428964E+01  0.99736297900E+01  0.11383533167E+02  0.00000000000E+00 0.  1.
</event>
<event>
 8    1  0.2994958E-010  0.9118800E+02  0.7816164E-02  0.1184000E+00
        -11   -1    0    0    0    0  0.00000000000E+00  0.00000000000E+00  0.45593999997E+02  0.45594000000E+02  0.51100000000E-03 0. -1.
         11   -1    0    0    0    0 -0.00000000000E+00 -0.00000000000E+00 -0.45593999997E+02  0.45594000000E+02  0.51100000000E-03 0.  1.
         23    2    1    2    0    0  0.17763568394E-14  0.00000000000E+00  0.00000000000E+00  0.91188000000E+02  0.91188000000E+02 0.  0.
    9900012    2    3    3    0    0  0.13783781597E+02  0.19326693909E+02 -0.36333311999E+02  0.47787270820E+02  0.19999998975E+02 0.  0.
         12    1    3    3    0    0 -0.13783781597E+02 -0.19326693909E+02  0.36333311999E+02  0.43400729180E+02  0.00000000000E+00 0. -1.
         11    1    4    4    0    0  0.70792481648E+01  0.19274053145E+01 -0.16882318395E+02  0.18407697316E+02  0.51100000000E-03 0. -1.
        -11    1    4    4    0    0  0.67755800796E+01  0.75084934862E+01 -0.15951968311E+02  0.18887859940E+02  0.51100000000E-03 0.  1.
        -12    1    4    4    0    0 -0.71046647315E-01  0.98907951087E+01 -0.34990252928E+01  0.10491713564E+02  0.00000000000E+00 0.  1.
</event>
<event>
 8    1  0.2994958E-010  0.9118800E+02  0.7816164E-02  0.1184000E+00
        -11   -1    0    0    0    0  0.00000000000E+00  0.00000000000E+00  0.45593999997E+02  0.45594000000E+02  0.51100000000E-03 0. -1.
         11   -1    0    0    0    0 -0.00000000000E+00 -0.00000000000E+00 -0.45593999997E+02  0.45594000000E+02  0.51100000000E-03 0.  1.
         23    2    1    2    0    0  0.00000000000E+00  0.17763568394E-14 -0.35527136788E-14  0.91188000000E+02  0.91188000000E+02 0.  0.
    9900012    2    3    3    0    0  0.29406266155E+02 -0.13767292137E+02  0.28798514273E+02  0.47787294403E+02  0.20000106502E+02 0.  0.
        -12    1    3    3    0    0 -0.29406266155E+02  0.13767292137E+02 -0.28798514273E+02  0.43400705597E+02  0.00000000000E+00 0.  1.
         11    1    4    4    0    0  0.20464788225E+02 -0.82005174908E+01  0.11462420479E+02  0.24848402921E+02  0.51100000000E-03 0. -1.
        -11    1    4    4    0    0  0.46301458713E+01 -0.72925157216E-01  0.43413998304E+00  0.46510264086E+01  0.51100000000E-03 0.  1.
         12    1    4    4    0    0  0.43113320585E+01 -0.54938494890E+01  0.16901953811E+02  0.18287865074E+02  0.00000000000E+00 0. -1.
</event>
<event>
 8    1  0.2994958E-010  0.9118800E+02  0.7816164E-02  0.1184000E+00
        -11   -1    0    0    0    0  0.00000000000E+00  0.00000000000E+00  0.45593999997E+02  0.45594000000E+02  0.51100000000E-03 0.  1.
         11   -1    0    0    0    0 -0.00000000000E+00 -0.00000000000E+00 -0.45593999997E+02  0.45594000000E+02  0.51100000000E-03 0. -1.
         23    2    1    2    0    0  0.44408920985E-15  0.00000000000E+00 -0.99920072216E-15  0.91188000000E+02  0.91188000000E+02 0.  0.
    9900012    2    3    3    0    0 -0.29844845931E+01 -0.43287613396E+02 -0.94814075154E+00  0.47787267372E+02  0.19999983255E+02 0.  0.
        -12    1    3    3    0    0  0.29844845931E+01  0.43287613396E+02  0.94814075154E+00  0.43400732628E+02  0.00000000000E+00 0.  1.
         11    1    4    4    0    0 -0.38896846929E+01 -0.11141646961E+01  0.30962389971E+01  0.50948705743E+01  0.51100000000E-03 0. -1.
        -11    1    4    4    0    0  0.18625544030E+01 -0.61078914854E+01  0.22817042765E-01  0.63856063283E+01  0.51100000000E-03 0.  1.
         12    1    4    4    0    0 -0.95735430314E+00 -0.36065557214E+02 -0.40671967914E+01  0.36306790469E+02  0.00000000000E+00 0. -1.
</event>
<event>
 8    1  0.2994958E-010  0.9118800E+02  0.7816164E-02  0.1184000E+00
        -11   -1    0    0    0    0  0.00000000000E+00  0.00000000000E+00  0.45593999997E+02  0.45594000000E+02  0.51100000000E-03 0. -1.
         11   -1    0    0    0    0 -0.00000000000E+00 -0.00000000000E+00 -0.45593999997E+02  0.45594000000E+02  0.51100000000E-03 0.  1.
         23    2    1    2    0    0  0.35527136788E-14  0.00000000000E+00  0.00000000000E+00  0.91188000000E+02  0.91188000000E+02 0.  0.
    9900012    2    3    3    0    0 -0.17008069004E+02 -0.34238140799E+02 -0.20545034036E+02  0.47787272815E+02  0.20000008073E+02 0.  0.
         12    1    3    3    0    0  0.17008069004E+02  0.34238140799E+02  0.20545034036E+02  0.43400727185E+02  0.00000000000E+00 0. -1.
         11    1    4    4    0    0  0.24006864509E+01 -0.99714330987E+01 -0.77252945058E+01  0.12840286170E+02  0.51100000000E-03 0. -1.
        -11    1    4    4    0    0 -0.71887404769E+01 -0.16467471365E+02 -0.80145782692E+01  0.19674579231E+02  0.51100000000E-03 0.  1.
        -12    1    4    4    0    0 -0.12220014978E+02 -0.77992363355E+01 -0.48051612611E+01  0.15272407414E+02  0.00000000000E+00 0.  1.
</event>
<event>
 8    1  0.2994958E-010  0.9118800E+02  0.7816164E-02  0.1184000E+00
        -11   -1    0    0    0    0  0.00000000000E+00  0.00000000000E+00  0.45593999997E+02  0.45594000000E+02  0.51100000000E-03 0. -1.
         11   -1    0    0    0    0 -0.00000000000E+00 -0.00000000000E+00 -0.45593999997E+02  0.45594000000E+02  0.51100000000E-03 0.  1.
         23    2    1    2    0    0  0.00000000000E+00  0.00000000000E+00  0.00000000000E+00  0.91188000000E+02  0.91188000000E+02 0.  0.
    9900012    2    3    3    0    0  0.58302648623E+01 -0.42279519413E+01  0.42799023251E+02  0.47787263172E+02  0.19999964107E+02 0.  0.
        -12    1    3    3    0    0 -0.58302648623E+01  0.42279519413E+01 -0.42799023251E+02  0.43400736828E+02  0.00000000000E+00 0.  1.
         11    1    4    4    0    0  0.40354752754E+00 -0.17401385130E+01  0.19620536184E+02  0.19701684524E+02  0.51100000000E-03 0. -1.
        -11    1    4    4    0    0  0.55841977986E+01  0.51960305040E+01  0.15205935384E+02  0.17011833211E+02  0.51100000000E-03 0.  1.
        -12    1    4    4    0    0 -0.15748046377E+00 -0.76838439324E+01  0.79725516824E+01  0.11073745437E+02  0.00000000000E+00 0.  1.
</event>
<event>
 8    1  0.2994958E-010  0.9118800E+02  0.7816164E-02  0.1184000E+00
        -11   -1    0    0    0    0  0.00000000000E+00  0.00000000000E+00  0.45593999997E+02  0.45594000000E+02  0.51100000000E-03 0. -1.
         11   -1    0    0    0    0 -0.00000000000E+00 -0.00000000000E+00 -0.45593999997E+02  0.45594000000E+02  0.51100000000E-03 0.  1.
         23    2    1    2    0    0 -0.71054273576E-14  0.00000000000E+00  0.00000000000E+00  0.91188000000E+02  0.91188000000E+02 0.  0.
    9900012    2    3    3    0    0  0.33334567619E+02 -0.20752447106E+02 -0.18486903281E+02  0.47787273599E+02  0.20000011648E+02 0.  0.
         12    1    3    3    0    0 -0.33334567619E+02  0.20752447106E+02  0.18486903281E+02  0.43400726401E+02  0.00000000000E+00 0. -1.
         11    1    4    4    0    0  0.54433558994E+01 -0.28699824490E+01  0.14842503429E+01  0.63300807299E+01  0.51100000000E-03 0. -1.
        -11    1    4    4    0    0  0.19731374619E+02 -0.40719020498E+01 -0.12926366857E+02  0.23937386888E+02  0.51100000000E-03 0.  1.
         12    1    4    4    0    0  0.81598371006E+01 -0.13810562607E+02 -0.70447867665E+01  0.17519805981E+02  0.00000000000E+00 0. -1.
</event>
<event>
 8    1  0.2994958E-010  0.9118800E+02  0.7816164E-02  0.1184000E+00
        -11   -1    0    0    0    0  0.00000000000E+00  0.00000000000E+00  0.45593999997E+02  0.45594000000E+02  0.51100000000E-03 0.  1.
         11   -1    0    0    0    0 -0.00000000000E+00 -0.00000000000E+00 -0.45593999997E+02  0.45594000000E+02  0.51100000000E-03 0. -1.
         23    2    1    2    0    0  0.00000000000E+00 -0.35527136788E-14 -0.44408920985E-15  0.91188000000E+02  0.91188000000E+02 0.  0.
    9900012    2    3    3    0    0 -0.40921411850E+02  0.13962441431E+02 -0.37565894430E+01  0.47787266334E+02  0.19999978521E+02 0.  0.
        -12    1    3    3    0    0  0.40921411850E+02 -0.13962441431E+02  0.37565894430E+01  0.43400733666E+02  0.00000000000E+00 0.  1.
         11    1    4    4    0    0 -0.20433105046E+02  0.14969176195E+02 -0.86235507935E+00  0.25344263144E+02  0.51100000000E-03 0. -1.
        -11    1    4    4    0    0 -0.11472006923E+02  0.24456714424E+01 -0.46720332667E+01  0.12626010722E+02  0.51100000000E-03 0.  1.
        -12    1    4    4    0    0 -0.90162998818E+01 -0.34524062064E+01  0.17777989031E+01  0.98169924678E+01  0.00000000000E+00 0.  1.
</event>
<event>
 8    1  0.2994958E-010  0.9118800E+02  0.7816164E-02  0.1184000E+00
        -11   -1    0    0    0    0  0.00000000000E+00  0.00000000000E+00  0.45593999997E+02  0.45594000000E+02  0.51100000000E-03 0.  1.
         11   -1    0    0    0    0 -0.00000000000E+00 -0.00000000000E+00 -0.45593999997E+02  0.45594000000E+02  0.51100000000E-03 0. -1.
         23    2    1    2    0    0 -0.17763568394E-14  0.71054273576E-14  0.00000000000E+00  0.91188000000E+02  0.91188000000E+02 0.  0.
    9900012    2    3    3    0    0 -0.10942498734E+02  0.33694466259E+02 -0.25071283287E+02  0.47787255989E+02  0.19999931357E+02 0.  0.
         12    1    3    3    0    0  0.10942498734E+02 -0.33694466259E+02  0.25071283287E+02  0.43400744011E+02  0.00000000000E+00 0. -1.
         11    1    4    4    0    0 -0.19843287867E+01  0.11436116985E+02 -0.16628377920E+02  0.20278690415E+02  0.51100000000E-03 0. -1.
        -11    1    4    4    0    0 -0.49992957704E+01  0.18604747413E+02 -0.10255793923E+02  0.21824547962E+02  0.51100000000E-03 0.  1.
         12    1    4    4    0    0 -0.39588741766E+01  0.36536018615E+01  0.18128885556E+01  0.56840176129E+01  0.00000000000E+00 0. -1.
</event>
<event>
 8    1  0.2994958E-010  0.9118800E+02  0.7816164E-02  0.1184000E+00
        -11   -1    0    0    0    0  0.00000000000E+00  0.00000000000E+00  0.45593999997E+02  0.45594000000E+02  0.51100000000E-03 0. -1.
         11   -1    0    0    0    0 -0.00000000000E+00 -0.00000000000E+00 -0.45593999997E+02  0.45594000000E+02  0.51100000000E-03 0.  1.
         23    2    1    2    0    0  0.00000000000E+00  0.00000000000E+00  0.71054273576E-14  0.91188000000E+02  0.91188000000E+02 0.  0.
    9900012    2    3    3    0    0  0.19364147864E+02 -0.98244563643E+01 -0.37578360435E+02  0.47787270302E+02  0.19999996615E+02 0.  0.
         12    1    3    3    0    0 -0.19364147864E+02  0.98244563643E+01  0.37578360435E+02  0.43400729698E+02  0.00000000000E+00 0. -1.
         11    1    4    4    0    0  0.31030988564E+01 -0.40298000704E+01 -0.41270161681E+01  0.65498682302E+01  0.51100000000E-03 0.  1.
        -11    1    4    4    0    0  0.17145960585E+02 -0.98995274166E+01 -0.25944376197E+02  0.32635797278E+02  0.51100000000E-03 0. -1.
         12    1    4    4    0    0 -0.88491157719E+00  0.41048711227E+01 -0.75069680694E+01  0.86016047938E+01  0.00000000000E+00 0. -1.
</event>
<event>
 8    1  0.2994958E-010  0.9118800E+02  0.7816164E-02  0.1184000E+00
        -11   -1    0    0    0    0  0.00000000000E+00  0.00000000000E+00  0.45593999997E+02  0.45594000000E+02  0.51100000000E-03 0. -1.
         11   -1    0    0    0    0 -0.00000000000E+00 -0.00000000000E+00 -0.45593999997E+02  0.45594000000E+02  0.51100000000E-03 0.  1.
         23    2    1    2    0    0  0.00000000000E+00  0.00000000000E+00  0.00000000000E+00  0.91188000000E+02  0.91188000000E+02 0.  0.
    9900012    2    3    3    0    0 -0.27235985735E+02 -0.43853942389E+01  0.33505124362E+02  0.47787263139E+02  0.19999963955E+02 0.  0.
        -12    1    3    3    0    0  0.27235985735E+02  0.43853942389E+01 -0.33505124362E+02  0.43400736861E+02  0.00000000000E+00 0.  1.
         11    1    4    4    0    0 -0.98389687928E+01  0.75345951183E+00  0.20187690253E+02  0.22470332578E+02  0.51100000000E-03 0. -1.
        -11    1    4    4    0    0 -0.62261985306E+01  0.17214035001E+01  0.98114022149E+01  0.11747016295E+02  0.51100000000E-03 0.  1.
        -12    1    4    4    0    0 -0.11170818412E+02 -0.68602572509E+01  0.35060318936E+01  0.13569914266E+02  0.00000000000E+00 0.  1.
</event>
<event>
 8    1  0.2994958E-010  0.9118800E+02  0.7816164E-02  0.1184000E+00
        -11   -1    0    0    0    0  0.00000000000E+00  0.00000000000E+00  0.45593999997E+02  0.45594000000E+02  0.51100000000E-03 0. -1.
         11   -1    0    0    0    0 -0.00000000000E+00 -0.00000000000E+00 -0.45593999997E+02  0.45594000000E+02  0.51100000000E-03 0.  1.
         23    2    1    2    0    0 -0.35527136788E-14  0.00000000000E+00  0.00000000000E+00  0.91188000000E+02  0.91188000000E+02 0.  0.
    9900012    2    3    3    0    0  0.27575586099E+02 -0.24873065722E+02  0.22461987563E+02  0.47787271523E+02  0.20000002180E+02 0.  0.
        -12    1    3    3    0    0 -0.27575586099E+02  0.24873065722E+02 -0.22461987563E+02  0.43400728477E+02  0.00000000000E+00 0.  1.
         11    1    4    4    0    0  0.18793696563E+01 -0.83417529425E+01  0.11869357470E+02  0.14628688235E+02  0.51100000000E-03 0. -1.
        -11    1    4    4    0    0  0.10683883493E+01 -0.48765136081E+00 -0.10195535855E+01  0.15552322301E+01  0.51100000000E-03 0.  1.
         12    1    4    4    0    0  0.24627828093E+02 -0.16043661418E+02  0.11612183679E+02  0.31603351058E+02  0.00000000000E+00 0. -1.
</event>
<event>
 8    1  0.2994958E-010  0.9118800E+02  0.7816164E-02  0.1184000E+00
        -11   -1    0    0    0    0  0.00000000000E+00  0.00000000000E+00  0.45593999997E+02  0.45594000000E+02  0.51100000000E-03 0. -1.
         11   -1    0    0    0    0 -0.00000000000E+00 -0.00000000000E+00 -0.45593999997E+02  0.45594000000E+02  0.51100000000E-03 0.  1.
         23    2    1    2    0    0  0.35527136788E-14 -0.35527136788E-14  0.88817841970E-15  0.91188000000E+02  0.91188000000E+02 0.  0.
    9900012    2    3    3    0    0 -0.29877627189E+02 -0.31242800185E+02  0.38520190284E+01  0.47787271660E+02  0.20000002807E+02 0.  0.
         12    1    3    3    0    0  0.29877627189E+02  0.31242800185E+02 -0.38520190284E+01  0.43400728340E+02  0.00000000000E+00 0. -1.
         11    1    4    4    0    0  0.86306693566E+00 -0.20824752576E+01 -0.70734104718E+00  0.23626085905E+01  0.51100000000E-03 0. -1.
        -11    1    4    4    0    0 -0.57380424027E+00 -0.37744553829E+01  0.46256076724E+01  0.59976671585E+01  0.51100000000E-03 0.  1.
         12    1    4    4    0    0 -0.30166889884E+02 -0.25385869545E+02 -0.66247596797E-01  0.39426995911E+02  0.00000000000E+00 0. -1.
</event>
<event>
 8    1  0.2994958E-010  0.9118800E+02  0.7816164E-02  0.1184000E+00
        -11   -1    0    0    0    0  0.00000000000E+00  0.00000000000E+00  0.45593999997E+02  0.45594000000E+02  0.51100000000E-03 0. -1.
         11   -1    0    0    0    0 -0.00000000000E+00 -0.00000000000E+00 -0.45593999997E+02  0.45594000000E+02  0.51100000000E-03 0.  1.
         23    2    1    2    0    0  0.35527136788E-14 -0.17763568394E-14  0.00000000000E+00  0.91188000000E+02  0.91188000000E+02 0.  0.
    9900012    2    3    3    0    0  0.20121745333E+02 -0.83348500551E+01  0.37540232047E+02  0.47787269789E+02  0.19999994276E+02 0.  0.
        -12    1    3    3    0    0 -0.20121745333E+02  0.83348500551E+01 -0.37540232047E+02  0.43400730211E+02  0.00000000000E+00 0.  1.
         11    1    4    4    0    0  0.16094208341E+02 -0.10646918559E+02  0.37299624955E+02  0.41995743105E+02  0.51100000000E-03 0. -1.
        -11    1    4    4    0    0  0.10031081087E+01 -0.89966083192E+00 -0.18212800260E+00  0.13597008350E+01  0.51100000000E-03 0.  1.
        -12    1    4    4    0    0  0.30244288828E+01  0.32117293358E+01  0.42273509516E+00  0.44318258488E+01  0.00000000000E+00 0.  1.
</event>
<event>
 8    1  0.2994958E-010  0.9118800E+02  0.7816164E-02  0.1184000E+00
        -11   -1    0    0    0    0  0.00000000000E+00  0.00000000000E+00  0.45593999997E+02  0.45594000000E+02  0.51100000000E-03 0. -1.
         11   -1    0    0    0    0 -0.00000000000E+00 -0.00000000000E+00 -0.45593999997E+02  0.45594000000E+02  0.51100000000E-03 0.  1.
         23    2    1    2    0    0 -0.35527136788E-14  0.88817841970E-15  0.00000000000E+00  0.91188000000E+02  0.91188000000E+02 0.  0.
    9900012    2    3    3    0    0 -0.23272885804E+02  0.73045005998E+01 -0.35897637256E+02  0.47787270706E+02  0.19999998458E+02 0.  0.
         12    1    3    3    0    0  0.23272885804E+02 -0.73045005998E+01  0.35897637256E+02  0.43400729294E+02  0.00000000000E+00 0. -1.
         11    1    4    4    0    0 -0.85478613642E+01  0.10316972606E+02 -0.90213033955E+01  0.16152082617E+02  0.51100000000E-03 0. -1.
        -11    1    4    4    0    0 -0.70346810775E+01  0.15563482380E+01 -0.81235739978E+01  0.10858241684E+02  0.51100000000E-03 0.  1.
         12    1    4    4    0    0 -0.76903433621E+01 -0.45688202443E+01 -0.18752759863E+02  0.20776946405E+02  0.00000000000E+00 0. -1.
</event>
<event>
 8    1  0.2994958E-010  0.9118800E+02  0.7816164E-02  0.1184000E+00
        -11   -1    0    0    0    0  0.00000000000E+00  0.00000000000E+00  0.45593999997E+02  0.45594000000E+02  0.51100000000E-03 0. -1.
         11   -1    0    0    0    0 -0.00000000000E+00 -0.00000000000E+00 -0.45593999997E+02  0.45594000000E+02  0.51100000000E-03 0.  1.
         23    2    1    2    0    0 -0.88817841970E-15  0.71054273576E-14  0.00000000000E+00  0.91188000000E+02  0.91188000000E+02 0.  0.
    9900012    2    3    3    0    0 -0.78737424512E+01  0.39506416159E+02  0.16151492334E+02  0.47787269102E+02  0.19999991142E+02 0.  0.
        -12    1    3    3    0    0  0.78737424512E+01 -0.39506416159E+02 -0.16151492334E+02  0.43400730898E+02  0.00000000000E+00 0.  1.
         11    1    4    4    0    0 -0.43691576220E+01  0.22721707261E+01  0.28895456397E+01  0.57097961785E+01  0.51100000000E-03 0. -1.
        -11    1    4    4    0    0  0.49604393563E+01  0.21259699249E+02  0.65374187007E+01  0.22788563235E+02  0.51100000000E-03 0.  1.
         12    1    4    4    0    0 -0.84650241854E+01  0.15974546183E+02  0.67245279937E+01  0.19288909688E+02  0.00000000000E+00 0. -1.
</event>
<event>
 8    1  0.2994958E-010  0.9118800E+02  0.7816164E-02  0.1184000E+00
        -11   -1    0    0    0    0  0.00000000000E+00  0.00000000000E+00  0.45593999997E+02  0.45594000000E+02  0.51100000000E-03 0.  1.
         11   -1    0    0    0    0 -0.00000000000E+00 -0.00000000000E+00 -0.45593999997E+02  0.45594000000E+02  0.51100000000E-03 0. -1.
         23    2    1    2    0    0  0.00000000000E+00 -0.71054273576E-14  0.88817841970E-15  0.91188000000E+02  0.91188000000E+02 0.  0.
    9900012    2    3    3    0    0 -0.16995238756E+02  0.39283517702E+02  0.71826353164E+01  0.47787272431E+02  0.20000006322E+02 0.  0.
         12    1    3    3    0    0  0.16995238756E+02 -0.39283517702E+02 -0.71826353164E+01  0.43400727569E+02  0.00000000000E+00 0. -1.
         11    1    4    4    0    0  0.54592546700E+00  0.60760209841E+01  0.41643458783E+01  0.73863280776E+01  0.51100000000E-03 0. -1.
        -11    1    4    4    0    0 -0.13459924815E+02  0.23859472193E+02  0.86779439259E+01  0.28735878278E+02  0.51100000000E-03 0.  1.
         12    1    4    4    0    0 -0.40812394082E+01  0.93480245245E+01 -0.56596544878E+01  0.11665066075E+02  0.00000000000E+00 0. -1.
</event>
<event>
 8    1  0.2994958E-010  0.9118800E+02  0.7816164E-02  0.1184000E+00
        -11   -1    0    0    0    0  0.00000000000E+00  0.00000000000E+00  0.45593999997E+02  0.45594000000E+02  0.51100000000E-03 0. -1.
         11   -1    0    0    0    0 -0.00000000000E+00 -0.00000000000E+00 -0.45593999997E+02  0.45594000000E+02  0.51100000000E-03 0.  1.
         23    2    1    2    0    0 -0.88817841970E-15  0.00000000000E+00  0.00000000000E+00  0.91188000000E+02  0.91188000000E+02 0.  0.
    9900012    2    3    3    0    0  0.36528347868E+01  0.19636208134E+02 -0.38531798117E+02  0.47787270306E+02  0.19999996634E+02 0.  0.
         12    1    3    3    0    0 -0.36528347868E+01 -0.19636208134E+02  0.38531798117E+02  0.43400729694E+02  0.00000000000E+00 0. -1.
         11    1    4    4    0    0  0.52044824880E+00 -0.25588929718E+01 -0.32941380416E+01  0.42035871965E+01  0.51100000000E-03 0. -1.
        -11    1    4    4    0    0 -0.14980983151E+01  0.11050346281E+01 -0.10859706440E+02  0.11018104388E+02  0.51100000000E-03 0.  1.
        -12    1    4    4    0    0  0.46304848531E+01  0.21090066478E+02 -0.24377953635E+02  0.32565578721E+02  0.00000000000E+00 0.  1.
</event>
<event>
 8    1  0.2994958E-010  0.9118800E+02  0.7816164E-02  0.1184000E+00
        -11   -1    0    0    0    0  0.00000000000E+00  0.00000000000E+00  0.45593999997E+02  0.45594000000E+02  0.51100000000E-03 0. -1.
         11   -1    0    0    0    0 -0.00000000000E+00 -0.00000000000E+00 -0.45593999997E+02  0.45594000000E+02  0.51100000000E-03 0.  1.
         23    2    1    2    0    0  0.88817841970E-15  0.00000000000E+00  0.00000000000E+00  0.91188000000E+02  0.91188000000E+02 0.  0.
    9900012    2    3    3    0    0  0.43052939001E+01  0.14433964008E+02  0.40703174901E+02  0.47787270518E+02  0.19999997598E+02 0.  0.
        -12    1    3    3    0    0 -0.43052939001E+01 -0.14433964008E+02 -0.40703174901E+02  0.43400729482E+02  0.00000000000E+00 0.  1.
         11    1    4    4    0    0 -0.29768908067E+01  0.63108786472E+01  0.11673449670E+02  0.13599944692E+02  0.51100000000E-03 0. -1.
        -11    1    4    4    0    0  0.19600867809E+01  0.34391269396E+01  0.26290487027E+02  0.26586824607E+02  0.51100000000E-03 0.  1.
        -12    1    4    4    0    0  0.53220979259E+01  0.46839584216E+01  0.27392382037E+01  0.76005012179E+01  0.00000000000E+00 0.  1.
</event>
<event>
 8    1  0.2994958E-010  0.9118800E+02  0.7816164E-02  0.1184000E+00
        -11   -1    0    0    0    0  0.00000000000E+00  0.00000000000E+00  0.45593999997E+02  0.45594000000E+02  0.51100000000E-03 0. -1.
         11   -1    0    0    0    0 -0.00000000000E+00 -0.00000000000E+00 -0.45593999997E+02  0.45594000000E+02  0.51100000000E-03 0.  1.
         23    2    1    2    0    0  0.00000000000E+00 -0.17763568394E-14  0.00000000000E+00  0.91188000000E+02  0.91188000000E+02 0.  0.
    9900012    2    3    3    0    0 -0.27848603201E+02  0.98795377607E+01 -0.31787942581E+02  0.47787271203E+02  0.20000000723E+02 0.  0.
         12    1    3    3    0    0  0.27848603201E+02 -0.98795377607E+01  0.31787942581E+02  0.43400728797E+02  0.00000000000E+00 0. -1.
         11    1    4    4    0    0 -0.85755232591E+01 -0.28008754036E+01 -0.30003453385E+01  0.95071854197E+01  0.51100000000E-03 0. -1.
        -11    1    4    4    0    0 -0.54764054709E+01  0.41449944432E+01 -0.23453197849E+01  0.72575836868E+01  0.51100000000E-03 0.  1.
        -12    1    4    4    0    0 -0.13796674471E+02  0.85354187211E+01 -0.26442277457E+02  0.31022502096E+02  0.00000000000E+00 0.  1.
</event>
<event>
 8    1  0.2994958E-010  0.9118800E+02  0.7816164E-02  0.1184000E+00
        -11   -1    0    0    0    0  0.00000000000E+00  0.00000000000E+00  0.45593999997E+02  0.45594000000E+02  0.51100000000E-03 0. -1.
         11   -1    0    0    0    0 -0.00000000000E+00 -0.00000000000E+00 -0.45593999997E+02  0.45594000000E+02  0.51100000000E-03 0.  1.
         23    2    1    2    0    0  0.00000000000E+00  0.35527136788E-14  0.00000000000E+00  0.91188000000E+02  0.91188000000E+02 0.  0.
    9900012    2    3    3    0    0  0.32530812899E+02  0.16423114407E+02 -0.23572249734E+02  0.47787269220E+02  0.19999991684E+02 0.  0.
         12    1    3    3    0    0 -0.32530812899E+02 -0.16423114407E+02  0.23572249734E+02  0.43400730780E+02  0.00000000000E+00 0. -1.
         11    1    4    4    0    0  0.34341815654E+01  0.50031995505E+00 -0.54641527982E+01  0.64730896135E+01  0.51100000000E-03 0. -1.
        -11    1    4    4    0    0  0.14755688580E+02 -0.11100191470E+01 -0.84858135048E+01  0.17057887298E+02  0.51100000000E-03 0.  1.
         12    1    4    4    0    0  0.14340942753E+02  0.17032813599E+02 -0.96222834313E+01  0.24256292309E+02  0.00000000000E+00 0. -1.
</event>
<event>
 8    1  0.2994958E-010  0.9118800E+02  0.7816164E-02  0.1184000E+00
        -11   -1    0    0    0    0  0.00000000000E+00  0.00000000000E+00  0.45593999997E+02  0.45594000000E+02  0.51100000000E-03 0. -1.
         11   -1    0    0    0    0 -0.00000000000E+00 -0.00000000000E+00 -0.45593999997E+02  0.45594000000E+02  0.51100000000E-03 0.  1.
         23    2    1    2    0    0 -0.44408920985E-15  0.71054273576E-14  0.00000000000E+00  0.91188000000E+02  0.91188000000E+02 0.  0.
    9900012    2    3    3    0    0  0.21439310771E+01  0.41864514424E+02 -0.11242305585E+02  0.47787269092E+02  0.19999991100E+02 0.  0.
         12    1    3    3    0    0 -0.21439310771E+01 -0.41864514424E+02  0.11242305585E+02  0.43400730908E+02  0.00000000000E+00 0. -1.
         11    1    4    4    0    0  0.86799597605E+01  0.10872422233E+02 -0.31890776186E+01  0.14273103481E+02  0.51100000000E-03 0. -1.
        -11    1    4    4    0    0 -0.16647391650E+01  0.99546790654E+01 -0.61900113520E+01  0.11839900024E+02  0.51100000000E-03 0.  1.
        -12    1    4    4    0    0 -0.48712895184E+01  0.21037413126E+02 -0.18632166144E+01  0.21674265587E+02  0.00000000000E+00 0.  1.
</event>
<event>
 8    1  0.2994958E-010  0.9118800E+02  0.7816164E-02  0.1184000E+00
        -11   -1    0    0    0    0  0.00000000000E+00  0.00000000000E+00  0.45593999997E+02  0.45594000000E+02  0.51100000000E-03 0. -1.
         11   -1    0    0    0    0 -0.00000000000E+00 -0.00000000000E+00 -0.45593999997E+02  0.45594000000E+02  0.51100000000E-03 0.  1.
         23    2    1    2    0    0  0.00000000000E+00  0.00000000000E+00  0.71054273576E-14  0.91188000000E+02  0.91188000000E+02 0.  0.
    9900012    2    3    3    0    0 -0.22409354874E+01  0.16731272905E+02 -0.39983323489E+02  0.47787269106E+02  0.19999991162E+02 0.  0.
         12    1    3    3    0    0  0.22409354874E+01 -0.16731272905E+02  0.39983323489E+02  0.43400730894E+02  0.00000000000E+00 0. -1.
         11    1    4    4    0    0 -0.39468473002E+00 -0.22060141834E+01 -0.73978023925E+01  0.77297965764E+01  0.51100000000E-03 0. -1.
        -11    1    4    4    0    0  0.57431013135E+01  0.94393309556E+01 -0.17285945330E+02  0.20515557214E+02  0.51100000000E-03 0.  1.
        -12    1    4    4    0    0 -0.75893520709E+01  0.94979561332E+01 -0.15299575767E+02  0.19541915316E+02  0.00000000000E+00 0.  1.
</event>
<event>
 8    1  0.2994958E-010  0.9118800E+02  0.7816164E-02  0.1184000E+00
        -11   -1    0    0    0    0  0.00000000000E+00  0.00000000000E+00  0.45593999997E+02  0.45594000000E+02  0.51100000000E-03 0.  1.
         11   -1    0    0    0    0 -0.00000000000E+00 -0.00000000000E+00 -0.45593999997E+02  0.45594000000E+02  0.51100000000E-03 0. -1.
         23    2    1    2    0    0  0.00000000000E+00  0.00000000000E+00  0.00000000000E+00  0.91188000000E+02  0.91188000000E+02 0.  0.
    9900012    2    3    3    0    0 -0.37945617211E+02 -0.10114632019E+02  0.18478284891E+02  0.47787278129E+02  0.20000032300E+02 0.  0.
        -12    1    3    3    0    0  0.37945617211E+02  0.10114632019E+02 -0.18478284891E+02  0.43400721871E+02  0.00000000000E+00 0.  1.
         11    1    4    4    0    0 -0.15960694148E+01  0.29535342346E+01  0.11380741975E+01  0.35448575701E+01  0.51100000000E-03 0. -1.
        -11    1    4    4    0    0 -0.12480245046E+01 -0.43515056896E+01  0.22096883944E+01  0.50374487583E+01  0.51100000000E-03 0.  1.
         12    1    4    4    0    0 -0.35101523292E+02 -0.87166605643E+01  0.15130522299E+02  0.39204971800E+02  0.00000000000E+00 0. -1.
</event>
<event>
 8    1  0.2994958E-010  0.9118800E+02  0.7816164E-02  0.1184000E+00
        -11   -1    0    0    0    0  0.00000000000E+00  0.00000000000E+00  0.45593999997E+02  0.45594000000E+02  0.51100000000E-03 0. -1.
         11   -1    0    0    0    0 -0.00000000000E+00 -0.00000000000E+00 -0.45593999997E+02  0.45594000000E+02  0.51100000000E-03 0.  1.
         23    2    1    2    0    0 -0.44408920985E-15  0.00000000000E+00  0.00000000000E+00  0.91188000000E+02  0.91188000000E+02 0.  0.
    9900012    2    3    3    0    0 -0.29619466459E+01  0.23462831026E+02  0.36391546939E+02  0.47787282767E+02  0.20000053450E+02 0.  0.
        -12    1    3    3    0    0  0.29619466459E+01 -0.23462831026E+02 -0.36391546939E+02  0.43400717233E+02  0.00000000000E+00 0.  1.
         11    1    4    4    0    0 -0.12638623226E+01  0.16450500698E+02  0.23127664597E+02  0.28409596814E+02  0.51100000000E-03 0. -1.
        -11    1    4    4    0    0  0.52241878495E+01  0.39872837691E+01  0.61001170499E+01  0.89667161673E+01  0.51100000000E-03 0.  1.
        -12    1    4    4    0    0 -0.69222721727E+01  0.30250465582E+01  0.71637652928E+01  0.10410969786E+02  0.00000000000E+00 0.  1.
</event>
<event>
 8    1  0.2994958E-010  0.9118800E+02  0.7816164E-02  0.1184000E+00
        -11   -1    0    0    0    0  0.00000000000E+00  0.00000000000E+00  0.45593999997E+02  0.45594000000E+02  0.51100000000E-03 0. -1.
         11   -1    0    0    0    0 -0.00000000000E+00 -0.00000000000E+00 -0.45593999997E+02  0.45594000000E+02  0.51100000000E-03 0.  1.
         23    2    1    2    0    0  0.17763568394E-14  0.00000000000E+00  0.00000000000E+00  0.91188000000E+02  0.91188000000E+02 0.  0.
    9900012    2    3    3    0    0 -0.11426220998E+02  0.20965619905E+02  0.36242344814E+02  0.47787270721E+02  0.19999998526E+02 0.  0.
        -12    1    3    3    0    0  0.11426220998E+02 -0.20965619905E+02 -0.36242344814E+02  0.43400729279E+02  0.00000000000E+00 0.  1.
         11    1    4    4    0    0 -0.17097615003E+01  0.10480946370E+02  0.25227748406E+02  0.27371752065E+02  0.51100000000E-03 0. -1.
        -11    1    4    4    0    0 -0.13923575652E+01  0.84769467801E+01  0.61761006088E+01  0.10580241268E+02  0.51100000000E-03 0.  1.
         12    1    4    4    0    0 -0.83241019322E+01  0.20077267546E+01  0.48384958000E+01  0.98352773883E+01  0.00000000000E+00 0. -1.
</event>
<event>
 8    1  0.2994958E-010  0.9118800E+02  0.7816164E-02  0.1184000E+00
        -11   -1    0    0    0    0  0.00000000000E+00  0.00000000000E+00  0.45593999997E+02  0.45594000000E+02  0.51100000000E-03 0. -1.
         11   -1    0    0    0    0 -0.00000000000E+00 -0.00000000000E+00 -0.45593999997E+02  0.45594000000E+02  0.51100000000E-03 0.  1.
         23    2    1    2    0    0 -0.17763568394E-14  0.00000000000E+00  0.00000000000E+00  0.91188000000E+02  0.91188000000E+02 0.  0.
    9900012    2    3    3    0    0 -0.80950964046E+01  0.46295858315E+01 -0.42387032039E+02  0.47787261114E+02  0.19999954724E+02 0.  0.
         12    1    3    3    0    0  0.80950964046E+01 -0.46295858315E+01  0.42387032039E+02  0.43400738886E+02  0.00000000000E+00 0. -1.
         11    1    4    4    0    0  0.26813613907E+01  0.11870731394E+01 -0.26469706490E+02  0.26631639143E+02  0.51100000000E-03 0. -1.
        -11    1    4    4    0    0 -0.53347764582E+00 -0.19478613841E+01 -0.43286436656E+01  0.47766011572E+01  0.51100000000E-03 0.  1.
         12    1    4    4    0    0 -0.10242980150E+02  0.53903740762E+01 -0.11588681884E+02  0.16379020814E+02  0.00000000000E+00 0. -1.
</event>
<event>
 8    1  0.2994958E-010  0.9118800E+02  0.7816164E-02  0.1184000E+00
        -11   -1    0    0    0    0  0.00000000000E+00  0.00000000000E+00  0.45593999997E+02  0.45594000000E+02  0.51100000000E-03 0. -1.
         11   -1    0    0    0    0 -0.00000000000E+00 -0.00000000000E+00 -0.45593999997E+02  0.45594000000E+02  0.51100000000E-03 0.  1.
         23    2    1    2    0    0  0.44408920985E-15  0.00000000000E+00  0.00000000000E+00  0.91188000000E+02  0.91188000000E+02 0.  0.
    9900012    2    3    3    0    0  0.69503598215E+00 -0.24830295960E+02 -0.35589285688E+02  0.47787263506E+02  0.19999965629E+02 0.  0.
         12    1    3    3    0    0 -0.69503598215E+00  0.24830295960E+02  0.35589285688E+02  0.43400736494E+02  0.00000000000E+00 0. -1.
         11    1    4    4    0    0  0.12022916571E+01 -0.11425640855E+02 -0.14678578441E+02  0.18640049342E+02  0.51100000000E-03 0. -1.
        -11    1    4    4    0    0  0.25203405743E+01 -0.15925562508E+02 -0.14860654083E+02  0.21927487267E+02  0.51100000000E-03 0.  1.
         12    1    4    4    0    0 -0.30275962493E+01  0.25209074028E+01 -0.60500531638E+01  0.72197268970E+01  0.00000000000E+00 0. -1.
</event>
<event>
 8    1  0.2994958E-010  0.9118800E+02  0.7816164E-02  0.1184000E+00
        -11   -1    0    0    0    0  0.00000000000E+00  0.00000000000E+00  0.45593999997E+02  0.45594000000E+02  0.51100000000E-03 0. -1.
         11   -1    0    0    0    0 -0.00000000000E+00 -0.00000000000E+00 -0.45593999997E+02  0.45594000000E+02  0.51100000000E-03 0.  1.
         23    2    1    2    0    0  0.00000000000E+00  0.00000000000E+00 -0.71054273576E-14  0.91188000000E+02  0.91188000000E+02 0.  0.
    9900012    2    3    3    0    0  0.24340669144E+02  0.42718368566E+01  0.35677816397E+02  0.47787270198E+02  0.19999996141E+02 0.  0.
        -12    1    3    3    0    0 -0.24340669144E+02 -0.42718368566E+01 -0.35677816397E+02  0.43400729802E+02  0.00000000000E+00 0.  1.
         11    1    4    4    0    0 -0.15643751472E+01  0.60954049615E-01  0.58541119792E+01  0.60598359981E+01  0.51100000000E-03 0. -1.
        -11    1    4    4    0    0  0.83202988066E+01 -0.89563907770E+00  0.18218164682E+02  0.20048218530E+02  0.51100000000E-03 0.  1.
        -12    1    4    4    0    0  0.17584745484E+02  0.51065218846E+01  0.11605539736E+02  0.21679215670E+02  0.00000000000E+00 0.  1.
</event>
<event>
 8    1  0.2994958E-010  0.9118800E+02  0.7816164E-02  0.1184000E+00
        -11   -1    0    0    0    0  0.00000000000E+00  0.00000000000E+00  0.45593999997E+02  0.45594000000E+02  0.51100000000E-03 0. -1.
         11   -1    0    0    0    0 -0.00000000000E+00 -0.00000000000E+00 -0.45593999997E+02  0.45594000000E+02  0.51100000000E-03 0.  1.
         23    2    1    2    0    0  0.00000000000E+00  0.00000000000E+00  0.00000000000E+00  0.91188000000E+02  0.91188000000E+02 0.  0.
    9900012    2    3    3    0    0 -0.56393132327E+01  0.12012748115E+02  0.41322083309E+02  0.47787279499E+02  0.20000038548E+02 0.  0.
        -12    1    3    3    0    0  0.56393132327E+01 -0.12012748115E+02 -0.41322083309E+02  0.43400720501E+02  0.00000000000E+00 0.  1.
         11    1    4    4    0    0 -0.19518776997E+01  0.19120267288E+00  0.17204666485E+01  0.26089060478E+01  0.51100000000E-03 0. -1.
        -11    1    4    4    0    0 -0.31102747695E+01  0.21564243974E+01 -0.59579450986E+00  0.38313113529E+01  0.51100000000E-03 0.  1.
         12    1    4    4    0    0 -0.57716076356E+00  0.96651210445E+01  0.40197411170E+02  0.41347062098E+02  0.00000000000E+00 0. -1.
</event>
<event>
 8    1  0.2994958E-010  0.9118800E+02  0.7816164E-02  0.1184000E+00
        -11   -1    0    0    0    0  0.00000000000E+00  0.00000000000E+00  0.45593999997E+02  0.45594000000E+02  0.51100000000E-03 0. -1.
         11   -1    0    0    0    0 -0.00000000000E+00 -0.00000000000E+00 -0.45593999997E+02  0.45594000000E+02  0.51100000000E-03 0.  1.
         23    2    1    2    0    0  0.00000000000E+00  0.00000000000E+00  0.00000000000E+00  0.91188000000E+02  0.91188000000E+02 0.  0.
    9900012    2    3    3    0    0 -0.16490521057E+02 -0.16895322411E+02 -0.36417496936E+02  0.47787270891E+02  0.19999999299E+02 0.  0.
         12    1    3    3    0    0  0.16490521057E+02  0.16895322411E+02  0.36417496936E+02  0.43400729109E+02  0.00000000000E+00 0. -1.
         11    1    4    4    0    0  0.31036406168E+00 -0.30082761831E+01 -0.43928865306E+01  0.53332451449E+01  0.51100000000E-03 0. -1.
        -11    1    4    4    0    0 -0.18581748155E+02 -0.92630268548E+01 -0.17654991525E+02  0.27254059459E+02  0.51100000000E-03 0.  1.
        -12    1    4    4    0    0  0.17808630364E+01 -0.46240193730E+01 -0.14369618881E+02  0.15199966286E+02  0.00000000000E+00 0.  1.
</event>
<event>
 8    1  0.2994958E-010  0.9118800E+02  0.7816164E-02  0.1184000E+00
        -11   -1    0    0    0    0  0.00000000000E+00  0.00000000000E+00  0.45593999997E+02  0.45594000000E+02  0.51100000000E-03 0.  1.
         11   -1    0    0    0    0 -0.00000000000E+00 -0.00000000000E+00 -0.45593999997E+02  0.45594000000E+02  0.51100000000E-03 0. -1.
         23    2    1    2    0    0  0.00000000000E+00  0.35527136788E-14  0.00000000000E+00  0.91188000000E+02  0.91188000000E+02 0.  0.
    9900012    2    3    3    0    0  0.33465688460E+02 -0.27311367534E+02 -0.42142859938E+01  0.47787270662E+02  0.19999998255E+02 0.  0.
         12    1    3    3    0    0 -0.33465688460E+02  0.27311367534E+02  0.42142859938E+01  0.43400729338E+02  0.00000000000E+00 0. -1.
         11    1    4    4    0    0  0.19108158730E+02 -0.15142452364E+02 -0.12064930824E+01  0.24410473561E+02  0.51100000000E-03 0.  1.
        -11    1    4    4    0    0  0.10257864568E+02 -0.36244419695E+00  0.84348068301E+00  0.10298864559E+02  0.51100000000E-03 0. -1.
        -12    1    4    4    0    0  0.40996651624E+01 -0.11806470972E+02 -0.38512735943E+01  0.13077932542E+02  0.00000000000E+00 0.  1.
</event>
<event>
 8    1  0.2994958E-010  0.9118800E+02  0.7816164E-02  0.1184000E+00
        -11   -1    0    0    0    0  0.00000000000E+00  0.00000000000E+00  0.45593999997E+02  0.45594000000E+02  0.51100000000E-03 0. -1.
         11   -1    0    0    0    0 -0.00000000000E+00 -0.00000000000E+00 -0.45593999997E+02  0.45594000000E+02  0.51100000000E-03 0.  1.
         23    2    1    2    0    0  0.00000000000E+00 -0.44408920985E-15  0.00000000000E+00  0.91188000000E+02  0.91188000000E+02 0.  0.
    9900012    2    3    3    0    0  0.27353993530E+02  0.25361919141E+01  0.33599848182E+02  0.47787273861E+02  0.20000012844E+02 0.  0.
        -12    1    3    3    0    0 -0.27353993530E+02 -0.25361919141E+01 -0.33599848182E+02  0.43400726139E+02  0.00000000000E+00 0.  1.
         11    1    4    4    0    0  0.17314768563E+02 -0.33581233955E+01  0.15290658323E+02  0.23342716965E+02  0.51100000000E-03 0. -1.
        -11    1    4    4    0    0  0.12517784603E+02  0.49869460111E+01  0.14335248951E+02  0.19673940242E+02  0.51100000000E-03 0.  1.
        -12    1    4    4    0    0 -0.24785596361E+01  0.90736929854E+00  0.39739409092E+01  0.47706166545E+01  0.00000000000E+00 0.  1.
</event>
<event>
 8    1  0.2994958E-010  0.9118800E+02  0.7816164E-02  0.1184000E+00
        -11   -1    0    0    0    0  0.00000000000E+00  0.00000000000E+00  0.45593999997E+02  0.45594000000E+02  0.51100000000E-03 0. -1.
         11   -1    0    0    0    0 -0.00000000000E+00 -0.00000000000E+00 -0.45593999997E+02  0.45594000000E+02  0.51100000000E-03 0.  1.
         23    2    1    2    0    0  0.00000000000E+00 -0.66613381478E-15  0.00000000000E+00  0.91188000000E+02  0.91188000000E+02 0.  0.
    9900012    2    3    3    0    0  0.24507876919E+02  0.17961352760E+01  0.35773750289E+02  0.47787270251E+02  0.19999996383E+02 0.  0.
        -12    1    3    3    0    0 -0.24507876919E+02 -0.17961352760E+01 -0.35773750289E+02  0.43400729749E+02  0.00000000000E+00 0.  1.
         11    1    4    4    0    0  0.82916246069E+01  0.46098537100E+01  0.76383975946E+01  0.12179774543E+02  0.51100000000E-03 0. -1.
        -11    1    4    4    0    0  0.64936904030E+01  0.43433859732E+01  0.43701821457E+01  0.89516204684E+01  0.51100000000E-03 0.  1.
         12    1    4    4    0    0  0.97225619088E+01 -0.71571044072E+01  0.23765170549E+02  0.26655875239E+02  0.00000000000E+00 0. -1.
</event>
<event>
 8    1  0.2994958E-010  0.9118800E+02  0.7816164E-02  0.1184000E+00
        -11   -1    0    0    0    0  0.00000000000E+00  0.00000000000E+00  0.45593999997E+02  0.45594000000E+02  0.51100000000E-03 0. -1.
         11   -1    0    0    0    0 -0.00000000000E+00 -0.00000000000E+00 -0.45593999997E+02  0.45594000000E+02  0.51100000000E-03 0.  1.
         23    2    1    2    0    0  0.71054273576E-14 -0.35527136788E-14 -0.71054273576E-14  0.91188000000E+02  0.91188000000E+02 0.  0.
    9900012    2    3    3    0    0  0.15892863867E+02 -0.20122551494E+02 -0.35016041298E+02  0.47787270182E+02  0.19999996069E+02 0.  0.
         12    1    3    3    0    0 -0.15892863867E+02  0.20122551494E+02  0.35016041298E+02  0.43400729818E+02  0.00000000000E+00 0. -1.
         11    1    4    4    0    0  0.33081937448E+01 -0.70213406514E+00  0.75755377641E+00  0.34656927278E+01  0.51100000000E-03 0. -1.
        -11    1    4    4    0    0  0.14445830511E+02 -0.15255262952E+02 -0.25222906240E+02  0.32826819315E+02  0.51100000000E-03 0.  1.
        -12    1    4    4    0    0 -0.18611603883E+01 -0.41651544772E+01 -0.10550688834E+02  0.11494758140E+02  0.00000000000E+00 0.  1.
</event>
<event>
 8    1  0.2994958E-010  0.9118800E+02  0.7816164E-02  0.1184000E+00
        -11   -1    0    0    0    0  0.00000000000E+00  0.00000000000E+00  0.45593999997E+02  0.45594000000E+02  0.51100000000E-03 0. -1.
         11   -1    0    0    0    0 -0.00000000000E+00 -0.00000000000E+00 -0.45593999997E+02  0.45594000000E+02  0.51100000000E-03 0.  1.
         23    2    1    2    0    0  0.00000000000E+00  0.00000000000E+00 -0.35527136788E-14  0.91188000000E+02  0.91188000000E+02 0.  0.
    9900012    2    3    3    0    0 -0.24375346702E+02  0.18718378323E+02  0.30644545990E+02  0.47787269444E+02  0.19999992704E+02 0.  0.
        -12    1    3    3    0    0  0.24375346702E+02 -0.18718378323E+02 -0.30644545990E+02  0.43400730556E+02  0.00000000000E+00 0.  1.
         11    1    4    4    0    0 -0.14160359394E+02  0.55385168272E+01  0.17939024714E+02  0.23515942566E+02  0.51100000000E-03 0. -1.
        -11    1    4    4    0    0 -0.11682005060E+02  0.56109264899E+01  0.83421592871E+01  0.15412441731E+02  0.51100000000E-03 0.  1.
        -12    1    4    4    0    0  0.14670177519E+01  0.75689350056E+01  0.43633619881E+01  0.88588851467E+01  0.00000000000E+00 0.  1.
</event>
<event>
 8    1  0.2994958E-010  0.9118800E+02  0.7816164E-02  0.1184000E+00
        -11   -1    0    0    0    0  0.00000000000E+00  0.00000000000E+00  0.45593999997E+02  0.45594000000E+02  0.51100000000E-03 0. -1.
         11   -1    0    0    0    0 -0.00000000000E+00 -0.00000000000E+00 -0.45593999997E+02  0.45594000000E+02  0.51100000000E-03 0.  1.
         23    2    1    2    0    0  0.00000000000E+00 -0.17763568394E-14  0.00000000000E+00  0.91188000000E+02  0.91188000000E+02 0.  0.
    9900012    2    3    3    0    0 -0.21284383216E+02  0.12753293080E+02 -0.35608311469E+02  0.47787270756E+02  0.19999998685E+02 0.  0.
         12    1    3    3    0    0  0.21284383216E+02 -0.12753293080E+02  0.35608311469E+02  0.43400729244E+02  0.00000000000E+00 0. -1.
         11    1    4    4    0    0 -0.78780550326E+01  0.50683308579E+01 -0.47976736633E+01  0.10524704348E+02  0.51100000000E-03 0. -1.
        -11    1    4    4    0    0 -0.12497734811E+02 -0.54112334414E+00 -0.16161216681E+02  0.20437003566E+02  0.51100000000E-03 0.  1.
         12    1    4    4    0    0 -0.90859337219E+00  0.82260855664E+01 -0.14649421124E+02  0.16825562841E+02  0.00000000000E+00 0. -1.
</event>
<event>
 8    1  0.2994958E-010  0.9118800E+02  0.7816164E-02  0.1184000E+00
        -11   -1    0    0    0    0  0.00000000000E+00  0.00000000000E+00  0.45593999997E+02  0.45594000000E+02  0.51100000000E-03 0.  1.
         11   -1    0    0    0    0 -0.00000000000E+00 -0.00000000000E+00 -0.45593999997E+02  0.45594000000E+02  0.51100000000E-03 0. -1.
         23    2    1    2    0    0  0.00000000000E+00  0.00000000000E+00  0.00000000000E+00  0.91188000000E+02  0.91188000000E+02 0.  0.
    9900012    2    3    3    0    0 -0.30605260941E+00  0.42480680391E+02  0.88837371772E+01  0.47787278106E+02  0.20000032198E+02 0.  0.
        -12    1    3    3    0    0  0.30605260941E+00 -0.42480680391E+02 -0.88837371772E+01  0.43400721894E+02  0.00000000000E+00 0.  1.
         11    1    4    4    0    0  0.50951167027E+00  0.17115953194E+02  0.36533808258E+00  0.17127432033E+02  0.51100000000E-03 0. -1.
        -11    1    4    4    0    0  0.39271967575E+01  0.18456277063E+02  0.22620726092E+00  0.18870829536E+02  0.51100000000E-03 0.  1.
        -12    1    4    4    0    0 -0.47427610372E+01  0.69084501343E+01  0.82921918337E+01  0.11789016538E+02  0.00000000000E+00 0.  1.
</event>
<event>
 8    1  0.2994958E-010  0.9118800E+02  0.7816164E-02  0.1184000E+00
        -11   -1    0    0    0    0  0.00000000000E+00  0.00000000000E+00  0.45593999997E+02  0.45594000000E+02  0.51100000000E-03 0. -1.
         11   -1    0    0    0    0 -0.00000000000E+00 -0.00000000000E+00 -0.45593999997E+02  0.45594000000E+02  0.51100000000E-03 0.  1.
         23    2    1    2    0    0  0.00000000000E+00 -0.71054273576E-14 -0.33306690739E-15  0.91188000000E+02  0.91188000000E+02 0.  0.
    9900012    2    3    3    0    0 -0.22113458074E+02 -0.37343652488E+02  0.26281058185E+00  0.47787280207E+02  0.20000041775E+02 0.  0.
        -12    1    3    3    0    0  0.22113458074E+02  0.37343652488E+02 -0.26281058185E+00  0.43400719793E+02  0.00000000000E+00 0.  1.
         11    1    4    4    0    0  0.25035299367E+01 -0.54785536409E+01  0.32516838838E+00  0.60322422764E+01  0.51100000000E-03 0.  1.
        -11    1    4    4    0    0 -0.85354426848E+01 -0.82950461336E+01  0.47565558612E+01  0.12817425487E+02  0.51100000000E-03 0. -1.
        -12    1    4    4    0    0 -0.16081545326E+02 -0.23570052714E+02 -0.48189136677E+01  0.28937612444E+02  0.00000000000E+00 0.  1.
</event>
<event>
 8    1  0.2994958E-010  0.9118800E+02  0.7816164E-02  0.1184000E+00
        -11   -1    0    0    0    0  0.00000000000E+00  0.00000000000E+00  0.45593999997E+02  0.45594000000E+02  0.51100000000E-03 0. -1.
         11   -1    0    0    0    0 -0.00000000000E+00 -0.00000000000E+00 -0.45593999997E+02  0.45594000000E+02  0.51100000000E-03 0.  1.
         23    2    1    2    0    0  0.88817841970E-15 -0.88817841970E-15 -0.71054273576E-14  0.91188000000E+02  0.91188000000E+02 0.  0.
    9900012    2    3    3    0    0  0.27524351219E+01 -0.55854593428E+01 -0.42951718161E+02  0.47787270188E+02  0.19999996097E+02 0.  0.
         12    1    3    3    0    0 -0.27524351219E+01  0.55854593428E+01  0.42951718161E+02  0.43400729812E+02  0.00000000000E+00 0. -1.
         11    1    4    4    0    0 -0.64353245049E+01 -0.36088898894E+01 -0.19125550011E+02  0.20499369532E+02  0.51100000000E-03 0. -1.
        -11    1    4    4    0    0 -0.43365737552E+00 -0.12736793229E+01  0.23407476446E+00  0.13656899331E+01  0.51100000000E-03 0.  1.
        -12    1    4    4    0    0  0.96214170023E+01 -0.70289013045E+00 -0.24060242915E+02  0.25922210723E+02  0.00000000000E+00 0.  1.
</event>
<event>
 8    1  0.2994958E-010  0.9118800E+02  0.7816164E-02  0.1184000E+00
        -11   -1    0    0    0    0  0.00000000000E+00  0.00000000000E+00  0.45593999997E+02  0.45594000000E+02  0.51100000000E-03 0. -1.
         11   -1    0    0    0    0 -0.00000000000E+00 -0.00000000000E+00 -0.45593999997E+02  0.45594000000E+02  0.51100000000E-03 0.  1.
         23    2    1    2    0    0  0.00000000000E+00  0.00000000000E+00  0.00000000000E+00  0.91188000000E+02  0.91188000000E+02 0.  0.
    9900012    2    3    3    0    0 -0.93982593322E+01 -0.31159561350E+01  0.42256205319E+02  0.47787270178E+02  0.19999996050E+02 0.  0.
        -12    1    3    3    0    0  0.93982593322E+01  0.31159561350E+01 -0.42256205319E+02  0.43400729822E+02  0.00000000000E+00 0.  1.
         11    1    4    4    0    0 -0.35774420542E+01  0.14133640163E+01  0.68707301473E+01  0.78741744020E+01  0.51100000000E-03 0. -1.
        -11    1    4    4    0    0 -0.33199111961E+01 -0.58065399000E+01  0.36337482869E+02  0.36947941451E+02  0.51100000000E-03 0.  1.
        -12    1    4    4    0    0 -0.25009060818E+01  0.12772197486E+01 -0.95200769730E+00  0.29651543252E+01  0.00000000000E+00 0.  1.
</event>
<event>
 8    1  0.2994958E-010  0.9118800E+02  0.7816164E-02  0.1184000E+00
        -11   -1    0    0    0    0  0.00000000000E+00  0.00000000000E+00  0.45593999997E+02  0.45594000000E+02  0.51100000000E-03 0.  1.
         11   -1    0    0    0    0 -0.00000000000E+00 -0.00000000000E+00 -0.45593999997E+02  0.45594000000E+02  0.51100000000E-03 0. -1.
         23    2    1    2    0    0  0.66613381478E-15  0.00000000000E+00  0.00000000000E+00  0.91188000000E+02  0.91188000000E+02 0.  0.
    9900012    2    3    3    0    0 -0.12782711187E+01 -0.39659578668E+02 -0.17581447020E+02  0.47787269171E+02  0.19999991457E+02 0.  0.
         12    1    3    3    0    0  0.12782711187E+01  0.39659578668E+02  0.17581447020E+02  0.43400730829E+02  0.00000000000E+00 0. -1.
         11    1    4    4    0    0 -0.27470884392E+01 -0.64620007061E+01 -0.33471523780E+01  0.77786488107E+01  0.51100000000E-03 0. -1.
        -11    1    4    4    0    0 -0.38016809826E+01 -0.31660481514E+02 -0.12511631048E+02  0.34254631508E+02  0.51100000000E-03 0.  1.
         12    1    4    4    0    0  0.52704983032E+01 -0.15370964482E+01 -0.17226635939E+01  0.57539888524E+01  0.00000000000E+00 0. -1.
</event>
<event>
 8    1  0.2994958E-010  0.9118800E+02  0.7816164E-02  0.1184000E+00
        -11   -1    0    0    0    0  0.00000000000E+00  0.00000000000E+00  0.45593999997E+02  0.45594000000E+02  0.51100000000E-03 0. -1.
         11   -1    0    0    0    0 -0.00000000000E+00 -0.00000000000E+00 -0.45593999997E+02  0.45594000000E+02  0.51100000000E-03 0.  1.
         23    2    1    2    0    0  0.00000000000E+00  0.00000000000E+00 -0.35527136788E-14  0.91188000000E+02  0.91188000000E+02 0.  0.
    9900012    2    3    3    0    0  0.36108675534E+02  0.11761642927E+02 -0.21010727038E+02  0.47787270239E+02  0.19999996326E+02 0.  0.
         12    1    3    3    0    0 -0.36108675534E+02 -0.11761642927E+02  0.21010727038E+02  0.43400729761E+02  0.00000000000E+00 0. -1.
         11    1    4    4    0    0  0.32458207858E+02  0.86527442507E+01 -0.22886825542E+02  0.40647411038E+02  0.51100000000E-03 0.  1.
        -11    1    4    4    0    0  0.43280232269E+01  0.87294952216E+00  0.53903000112E+00  0.44479635255E+01  0.51100000000E-03 0. -1.
        -12    1    4    4    0    0 -0.67755555140E+00  0.22359491542E+01  0.13370685025E+01  0.26918956751E+01  0.00000000000E+00 0.  1.
</event>
<event>
 8    1  0.2994958E-010  0.9118800E+02  0.7816164E-02  0.1184000E+00
        -11   -1    0    0    0    0  0.00000000000E+00  0.00000000000E+00  0.45593999997E+02  0.45594000000E+02  0.51100000000E-03 0. -1.
         11   -1    0    0    0    0 -0.00000000000E+00 -0.00000000000E+00 -0.45593999997E+02  0.45594000000E+02  0.51100000000E-03 0.  1.
         23    2    1    2    0    0  0.00000000000E+00 -0.17763568394E-14  0.00000000000E+00  0.91188000000E+02  0.91188000000E+02 0.  0.
    9900012    2    3    3    0    0  0.69341146929E+01  0.15075605250E+02 -0.40103213445E+02  0.47787267876E+02  0.19999985556E+02 0.  0.
         12    1    3    3    0    0 -0.69341146929E+01 -0.15075605250E+02  0.40103213445E+02  0.43400732124E+02  0.00000000000E+00 0. -1.
         11    1    4    4    0    0  0.66245778717E+01  0.94748357473E+01 -0.17432766395E+02  0.20917908329E+02  0.51100000000E-03 0. -1.
        -11    1    4    4    0    0  0.13206987547E+01  0.60099879567E+01 -0.24211551955E+02  0.24981261953E+02  0.51100000000E-03 0.  1.
        -12    1    4    4    0    0 -0.10111619335E+01 -0.40921845406E+00  0.15411049047E+01  0.18880975944E+01  0.00000000000E+00 0.  1.
</event>
<event>
 8    1  0.2994958E-010  0.9118800E+02  0.7816164E-02  0.1184000E+00
        -11   -1    0    0    0    0  0.00000000000E+00  0.00000000000E+00  0.45593999997E+02  0.45594000000E+02  0.51100000000E-03 0.  1.
         11   -1    0    0    0    0 -0.00000000000E+00 -0.00000000000E+00 -0.45593999997E+02  0.45594000000E+02  0.51100000000E-03 0. -1.
         23    2    1    2    0    0  0.00000000000E+00  0.00000000000E+00 -0.22204460493E-15  0.91188000000E+02  0.91188000000E+02 0.  0.
    9900012    2    3    3    0    0 -0.43291989936E+02  0.25070573762E+01  0.17724747779E+01  0.47787269636E+02  0.19999993579E+02 0.  0.
         12    1    3    3    0    0  0.43291989936E+02 -0.25070573762E+01 -0.17724747779E+01  0.43400730364E+02  0.00000000000E+00 0. -1.
         11    1    4    4    0    0 -0.15743681516E+02  0.26563282549E+00  0.16473605132E+01  0.15831862348E+02  0.51100000000E-03 0. -1.
        -11    1    4    4    0    0 -0.27689305802E+02 -0.30481701805E-01 -0.32553175867E+01  0.27880022916E+02  0.51100000000E-03 0.  1.
         12    1    4    4    0    0  0.14099738260E+00  0.22719062525E+01  0.33804318514E+01  0.40753843726E+01  0.00000000000E+00 0. -1.
</event>
<event>
 8    1  0.2994958E-010  0.9118800E+02  0.7816164E-02  0.1184000E+00
        -11   -1    0    0    0    0  0.00000000000E+00  0.00000000000E+00  0.45593999997E+02  0.45594000000E+02  0.51100000000E-03 0. -1.
         11   -1    0    0    0    0 -0.00000000000E+00 -0.00000000000E+00 -0.45593999997E+02  0.45594000000E+02  0.51100000000E-03 0.  1.
         23    2    1    2    0    0  0.00000000000E+00 -0.17763568394E-14  0.00000000000E+00  0.91188000000E+02  0.91188000000E+02 0.  0.
    9900012    2    3    3    0    0 -0.20027942933E+02  0.13358348362E+02 -0.36111765139E+02  0.47787267857E+02  0.19999985465E+02 0.  0.
         12    1    3    3    0    0  0.20027942933E+02 -0.13358348362E+02  0.36111765139E+02  0.43400732143E+02  0.00000000000E+00 0. -1.
         11    1    4    4    0    0 -0.26622587051E+01  0.76805042954E+01 -0.21820984533E+02  0.23285899894E+02  0.51100000000E-03 0. -1.
        -11    1    4    4    0    0 -0.52283360130E+01  0.32245015645E+01 -0.80886838277E+00  0.61957385456E+01  0.51100000000E-03 0.  1.
        -12    1    4    4    0    0 -0.12137348215E+02  0.24533425025E+01 -0.13481912224E+02  0.18305629417E+02  0.00000000000E+00 0.  1.
</event>
<event>
 8    1  0.2994958E-010  0.9118800E+02  0.7816164E-02  0.1184000E+00
        -11   -1    0    0    0    0  0.00000000000E+00  0.00000000000E+00  0.45593999997E+02  0.45594000000E+02  0.51100000000E-03 0. -1.
         11   -1    0    0    0    0 -0.00000000000E+00 -0.00000000000E+00 -0.45593999997E+02  0.45594000000E+02  0.51100000000E-03 0.  1.
         23    2    1    2    0    0  0.00000000000E+00 -0.17763568394E-14 -0.35527136788E-14  0.91188000000E+02  0.91188000000E+02 0.  0.
    9900012    2    3    3    0    0  0.26018721392E+02 -0.14349906940E+02 -0.31634328750E+02  0.47787257523E+02  0.19999938351E+02 0.  0.
         12    1    3    3    0    0 -0.26018721392E+02  0.14349906940E+02  0.31634328750E+02  0.43400742477E+02  0.00000000000E+00 0. -1.
         11    1    4    4    0    0  0.16978127587E+02 -0.11168443885E+02 -0.17185593431E+02  0.26614574522E+02  0.51100000000E-03 0. -1.
        -11    1    4    4    0    0  0.10431545827E+02 -0.41727744490E+01 -0.15517495570E+02  0.19157814697E+02  0.51100000000E-03 0.  1.
         12    1    4    4    0    0 -0.13909520216E+01  0.99131139340E+00  0.10687602514E+01  0.20148683034E+01  0.00000000000E+00 0. -1.
</event>
<event>
 8    1  0.2994958E-010  0.9118800E+02  0.7816164E-02  0.1184000E+00
        -11   -1    0    0    0    0  0.00000000000E+00  0.00000000000E+00  0.45593999997E+02  0.45594000000E+02  0.51100000000E-03 0. -1.
         11   -1    0    0    0    0 -0.00000000000E+00 -0.00000000000E+00 -0.45593999997E+02  0.45594000000E+02  0.51100000000E-03 0.  1.
         23    2    1    2    0    0 -0.17763568394E-14  0.00000000000E+00  0.00000000000E+00  0.91188000000E+02  0.91188000000E+02 0.  0.
    9900012    2    3    3    0    0  0.14221549526E+02 -0.28820573716E+02  0.29167561414E+02  0.47787256007E+02  0.19999931440E+02 0.  0.
        -12    1    3    3    0    0 -0.14221549526E+02  0.28820573716E+02 -0.29167561414E+02  0.43400743993E+02  0.00000000000E+00 0.  1.
         11    1    4    4    0    0  0.44492274648E+01 -0.50066623095E+01  0.65106847928E+00  0.67295009429E+01  0.51100000000E-03 0. -1.
        -11    1    4    4    0    0  0.11233726303E+02 -0.83328857364E+01  0.13752922497E+02  0.19615719941E+02  0.51100000000E-03 0.  1.
        -12    1    4    4    0    0 -0.14614042411E+01 -0.15481025670E+02  0.14763570438E+02  0.21442035123E+02  0.00000000000E+00 0.  1.
</event>
<event>
 8    1  0.2994958E-010  0.9118800E+02  0.7816164E-02  0.1184000E+00
        -11   -1    0    0    0    0  0.00000000000E+00  0.00000000000E+00  0.45593999997E+02  0.45594000000E+02  0.51100000000E-03 0. -1.
         11   -1    0    0    0    0 -0.00000000000E+00 -0.00000000000E+00 -0.45593999997E+02  0.45594000000E+02  0.51100000000E-03 0.  1.
         23    2    1    2    0    0  0.44408920985E-15  0.00000000000E+00  0.00000000000E+00  0.91188000000E+02  0.91188000000E+02 0.  0.
    9900012    2    3    3    0    0 -0.35532548857E+01 -0.16038448173E+02  0.40171705960E+02  0.47787269594E+02  0.19999993385E+02 0.  0.
        -12    1    3    3    0    0  0.35532548857E+01  0.16038448173E+02 -0.40171705960E+02  0.43400730406E+02  0.00000000000E+00 0.  1.
         11    1    4    4    0    0 -0.81563667101E+00 -0.11937553548E+01  0.63298741560E+01  0.64928901206E+01  0.51100000000E-03 0. -1.
        -11    1    4    4    0    0  0.91892280826E-01 -0.90140996468E+01  0.25923212563E+01  0.93799022591E+01  0.51100000000E-03 0.  1.
        -12    1    4    4    0    0 -0.28295104955E+01 -0.58305931716E+01  0.31249510547E+02  0.31914477214E+02  0.00000000000E+00 0.  1.
</event>
<event>
 8    1  0.2994958E-010  0.9118800E+02  0.7816164E-02  0.1184000E+00
        -11   -1    0    0    0    0  0.00000000000E+00  0.00000000000E+00  0.45593999997E+02  0.45594000000E+02  0.51100000000E-03 0. -1.
         11   -1    0    0    0    0 -0.00000000000E+00 -0.00000000000E+00 -0.45593999997E+02  0.45594000000E+02  0.51100000000E-03 0.  1.
         23    2    1    2    0    0  0.00000000000E+00  0.00000000000E+00  0.00000000000E+00  0.91188000000E+02  0.91188000000E+02 0.  0.
    9900012    2    3    3    0    0 -0.31763927485E+01 -0.10141305468E+02  0.42079541056E+02  0.47787270479E+02  0.19999997420E+02 0.  0.
        -12    1    3    3    0    0  0.31763927485E+01  0.10141305468E+02 -0.42079541056E+02  0.43400729521E+02  0.00000000000E+00 0.  1.
         11    1    4    4    0    0 -0.19353781099E+00  0.60645794423E+00  0.16607954801E+02  0.16620150753E+02  0.51100000000E-03 0. -1.
        -11    1    4    4    0    0 -0.59749140509E+00  0.34024038938E+01  0.67088816781E+01  0.75460215920E+01  0.51100000000E-03 0.  1.
        -12    1    4    4    0    0 -0.23853635324E+01 -0.14150167306E+02  0.18762704577E+02  0.23621098133E+02  0.00000000000E+00 0.  1.
</event>
<event>
 8    1  0.2994958E-010  0.9118800E+02  0.7816164E-02  0.1184000E+00
        -11   -1    0    0    0    0  0.00000000000E+00  0.00000000000E+00  0.45593999997E+02  0.45594000000E+02  0.51100000000E-03 0. -1.
         11   -1    0    0    0    0 -0.00000000000E+00 -0.00000000000E+00 -0.45593999997E+02  0.45594000000E+02  0.51100000000E-03 0.  1.
         23    2    1    2    0    0  0.00000000000E+00  0.35527136788E-14  0.00000000000E+00  0.91188000000E+02  0.91188000000E+02 0.  0.
    9900012    2    3    3    0    0  0.18194185754E+02 -0.30865468507E+02 -0.24493218247E+02  0.47787270957E+02  0.19999999599E+02 0.  0.
         12    1    3    3    0    0 -0.18194185754E+02  0.30865468507E+02  0.24493218247E+02  0.43400729043E+02  0.00000000000E+00 0. -1.
         11    1    4    4    0    0  0.68655626620E+01 -0.83851273255E+01 -0.10497496151E+02  0.15087867199E+02  0.51100000000E-03 0. -1.
        -11    1    4    4    0    0  0.56816704133E+01 -0.17750687201E+02 -0.16527593958E+02  0.24910432294E+02  0.51100000000E-03 0.  1.
         12    1    4    4    0    0  0.56469526791E+01 -0.47296539806E+01  0.25318718612E+01  0.77889714634E+01  0.00000000000E+00 0. -1.
</event>
<event>
 8    1  0.2994958E-010  0.9118800E+02  0.7816164E-02  0.1184000E+00
        -11   -1    0    0    0    0  0.00000000000E+00  0.00000000000E+00  0.45593999997E+02  0.45594000000E+02  0.51100000000E-03 0. -1.
         11   -1    0    0    0    0 -0.00000000000E+00 -0.00000000000E+00 -0.45593999997E+02  0.45594000000E+02  0.51100000000E-03 0.  1.
         23    2    1    2    0    0  0.00000000000E+00  0.00000000000E+00  0.00000000000E+00  0.91188000000E+02  0.91188000000E+02 0.  0.
    9900012    2    3    3    0    0  0.14801733807E+02 -0.15825741222E+02  0.37604224111E+02  0.47787273279E+02  0.20000010190E+02 0.  0.
        -12    1    3    3    0    0 -0.14801733807E+02  0.15825741222E+02 -0.37604224111E+02  0.43400726721E+02  0.00000000000E+00 0.  1.
         11    1    4    4    0    0  0.21629618185E+01 -0.60184500667E+01  0.11340578718E+02  0.13019557248E+02  0.51100000000E-03 0. -1.
        -11    1    4    4    0    0  0.49073683389E+01 -0.13239242401E+02  0.14119758383E+02  0.19968159165E+02  0.51100000000E-03 0.  1.
         12    1    4    4    0    0  0.77314036492E+01  0.34319512455E+01  0.12143887010E+02  0.14799556866E+02  0.00000000000E+00 0. -1.
</event>
<event>
 8    1  0.2994958E-010  0.9118800E+02  0.7816164E-02  0.1184000E+00
        -11   -1    0    0    0    0  0.00000000000E+00  0.00000000000E+00  0.45593999997E+02  0.45594000000E+02  0.51100000000E-03 0. -1.
         11   -1    0    0    0    0 -0.00000000000E+00 -0.00000000000E+00 -0.45593999997E+02  0.45594000000E+02  0.51100000000E-03 0.  1.
         23    2    1    2    0    0 -0.11102230246E-15  0.88817841970E-15  0.00000000000E+00  0.91188000000E+02  0.91188000000E+02 0.  0.
    9900012    2    3    3    0    0  0.72836890042E+00 -0.67390245779E+01 -0.42868151142E+02  0.47787270101E+02  0.19999995696E+02 0.  0.
         12    1    3    3    0    0 -0.72836890042E+00  0.67390245779E+01  0.42868151142E+02  0.43400729899E+02  0.00000000000E+00 0. -1.
         11    1    4    4    0    0  0.29149811406E+01  0.47021446362E+00 -0.55527731640E+01  0.62889988681E+01  0.51100000000E-03 0. -1.
        -11    1    4    4    0    0 -0.60829946963E+01 -0.81803754321E+01 -0.35772172060E+02  0.37196366231E+02  0.51100000000E-03 0.  1.
        -12    1    4    4    0    0  0.38963824562E+01  0.97113639052E+00 -0.15432059179E+01  0.43019050011E+01  0.00000000000E+00 0.  1.
</event>
<event>
 8    1  0.2994958E-010  0.9118800E+02  0.7816164E-02  0.1184000E+00
        -11   -1    0    0    0    0  0.00000000000E+00  0.00000000000E+00  0.45593999997E+02  0.45594000000E+02  0.51100000000E-03 0. -1.
         11   -1    0    0    0    0 -0.00000000000E+00 -0.00000000000E+00 -0.45593999997E+02  0.45594000000E+02  0.51100000000E-03 0.  1.
         23    2    1    2    0    0  0.00000000000E+00 -0.17763568394E-14  0.00000000000E+00  0.91188000000E+02  0.91188000000E+02 0.  0.
    9900012    2    3    3    0    0  0.36240199115E+02 -0.89234237443E+01 -0.22150482421E+02  0.47787269653E+02  0.19999993654E+02 0.  0.
         12    1    3    3    0    0 -0.36240199115E+02  0.89234237443E+01  0.22150482421E+02  0.43400730347E+02  0.00000000000E+00 0. -1.
         11    1    4    4    0    0 -0.72832256680E+00 -0.18727326701E+01  0.28357717588E+00  0.20292850196E+01  0.51100000000E-03 0. -1.
        -11    1    4    4    0    0  0.78986373735E+01  0.30983742682E+01 -0.83320460215E+01  0.11891651972E+02  0.51100000000E-03 0.  1.
        -12    1    4    4    0    0  0.29069884308E+02 -0.10149065342E+02 -0.14102013575E+02  0.33866332661E+02  0.00000000000E+00 0.  1.
</event>
<event>
 8    1  0.2994958E-010  0.9118800E+02  0.7816164E-02  0.1184000E+00
        -11   -1    0    0    0    0  0.00000000000E+00  0.00000000000E+00  0.45593999997E+02  0.45594000000E+02  0.51100000000E-03 0. -1.
         11   -1    0    0    0    0 -0.00000000000E+00 -0.00000000000E+00 -0.45593999997E+02  0.45594000000E+02  0.51100000000E-03 0.  1.
         23    2    1    2    0    0  0.00000000000E+00  0.00000000000E+00  0.00000000000E+00  0.91188000000E+02  0.91188000000E+02 0.  0.
    9900012    2    3    3    0    0  0.16867910393E+02  0.80360485532E+01 -0.39172930283E+02  0.47787274841E+02  0.20000017310E+02 0.  0.
         12    1    3    3    0    0 -0.16867910393E+02 -0.80360485532E+01  0.39172930283E+02  0.43400725159E+02  0.00000000000E+00 0. -1.
         11    1    4    4    0    0  0.25006656011E+01  0.46866795140E+01 -0.33793147521E+01  0.62958765688E+01  0.51100000000E-03 0. -1.
        -11    1    4    4    0    0  0.15160271518E+02  0.29496128339E+01 -0.18176984299E+02  0.23852396250E+02  0.51100000000E-03 0.  1.
        -12    1    4    4    0    0 -0.79302672567E+00  0.39975620529E+00 -0.17616631231E+02  0.17639002023E+02  0.00000000000E+00 0.  1.
</event>
<event>
 8    1  0.2994958E-010  0.9118800E+02  0.7816164E-02  0.1184000E+00
        -11   -1    0    0    0    0  0.00000000000E+00  0.00000000000E+00  0.45593999997E+02  0.45594000000E+02  0.51100000000E-03 0. -1.
         11   -1    0    0    0    0 -0.00000000000E+00 -0.00000000000E+00 -0.45593999997E+02  0.45594000000E+02  0.51100000000E-03 0.  1.
         23    2    1    2    0    0  0.00000000000E+00  0.00000000000E+00  0.35527136788E-14  0.91188000000E+02  0.91188000000E+02 0.  0.
    9900012    2    3    3    0    0  0.26901563733E+02 -0.19858783191E+02  0.27668716268E+02  0.47787271193E+02  0.20000000675E+02 0.  0.
        -12    1    3    3    0    0 -0.26901563733E+02  0.19858783191E+02 -0.27668716268E+02  0.43400728807E+02  0.00000000000E+00 0.  1.
         11    1    4    4    0    0 -0.56312541650E+00  0.16400794157E+00  0.11412992728E+00  0.59752384139E+00  0.51100000000E-03 0. -1.
        -11    1    4    4    0    0 -0.12976549525E+01  0.19640739086E+00  0.55732483949E+01  0.57256949073E+01  0.51100000000E-03 0.  1.
         12    1    4    4    0    0  0.28762344102E+02 -0.20219198524E+02  0.21981337945E+02  0.41464052444E+02  0.00000000000E+00 0. -1.
</event>
<event>
 8    1  0.2994958E-010  0.9118800E+02  0.7816164E-02  0.1184000E+00
        -11   -1    0    0    0    0  0.00000000000E+00  0.00000000000E+00  0.45593999997E+02  0.45594000000E+02  0.51100000000E-03 0.  1.
         11   -1    0    0    0    0 -0.00000000000E+00 -0.00000000000E+00 -0.45593999997E+02  0.45594000000E+02  0.51100000000E-03 0. -1.
         23    2    1    2    0    0 -0.88817841970E-15  0.00000000000E+00  0.00000000000E+00  0.91188000000E+02  0.91188000000E+02 0.  0.
    9900012    2    3    3    0    0 -0.67392185060E+01  0.39821893064E+02 -0.15887824417E+02  0.47787271919E+02  0.20000003986E+02 0.  0.
         12    1    3    3    0    0  0.67392185060E+01 -0.39821893064E+02  0.15887824417E+02  0.43400728081E+02  0.00000000000E+00 0. -1.
         11    1    4    4    0    0 -0.74713014375E+01  0.21566209805E+02 -0.89286218180E+01  0.24507999477E+02  0.51100000000E-03 0. -1.
        -11    1    4    4    0    0 -0.48826884128E+01  0.11803827223E+02 -0.91565815915E+00  0.12806616000E+02  0.51100000000E-03 0.  1.
         12    1    4    4    0    0  0.56147713443E+01  0.64518560364E+01 -0.60435444395E+01  0.10472656442E+02  0.00000000000E+00 0. -1.
</event>
<event>
 8    1  0.2994958E-010  0.9118800E+02  0.7816164E-02  0.1184000E+00
        -11   -1    0    0    0    0  0.00000000000E+00  0.00000000000E+00  0.45593999997E+02  0.45594000000E+02  0.51100000000E-03 0. -1.
         11   -1    0    0    0    0 -0.00000000000E+00 -0.00000000000E+00 -0.45593999997E+02  0.45594000000E+02  0.51100000000E-03 0.  1.
         23    2    1    2    0    0  0.00000000000E+00 -0.17763568394E-14  0.71054273576E-14  0.91188000000E+02  0.91188000000E+02 0.  0.
    9900012    2    3    3    0    0  0.33069160507E+02  0.15998273212E+02 -0.23110821370E+02  0.47787260527E+02  0.19999952048E+02 0.  0.
         12    1    3    3    0    0 -0.33069160507E+02 -0.15998273212E+02  0.23110821370E+02  0.43400739473E+02  0.00000000000E+00 0. -1.
         11    1    4    4    0    0  0.25515896158E+02  0.17386278675E+02 -0.17933271753E+02  0.35706384288E+02  0.51100000000E-03 0. -1.
        -11    1    4    4    0    0  0.31959549464E+01  0.10784358649E+01 -0.61181609100E+01  0.69863470510E+01  0.51100000000E-03 0.  1.
         12    1    4    4    0    0  0.43573094019E+01 -0.24664413275E+01  0.94061129244E+00  0.50945291882E+01  0.00000000000E+00 0. -1.
</event>
<event>
 8    1  0.2994958E-010  0.9118800E+02  0.7816164E-02  0.1184000E+00
        -11   -1    0    0    0    0  0.00000000000E+00  0.00000000000E+00  0.45593999997E+02  0.45594000000E+02  0.51100000000E-03 0. -1.
         11   -1    0    0    0    0 -0.00000000000E+00 -0.00000000000E+00 -0.45593999997E+02  0.45594000000E+02  0.51100000000E-03 0.  1.
         23    2    1    2    0    0  0.71054273576E-14 -0.17763568394E-14  0.35527136788E-14  0.91188000000E+02  0.91188000000E+02 0.  0.
    9900012    2    3    3    0    0 -0.36044627040E+02 -0.15655971054E+02 -0.18420066690E+02  0.47787269303E+02  0.19999992062E+02 0.  0.
         12    1    3    3    0    0  0.36044627040E+02  0.15655971054E+02  0.18420066690E+02  0.43400730697E+02  0.00000000000E+00 0. -1.
         11    1    4    4    0    0 -0.45990578497E+01 -0.52707558727E+01 -0.72090969182E+00  0.70322053169E+01  0.51100000000E-03 0. -1.
        -11    1    4    4    0    0 -0.29574960059E+02 -0.11682157038E+02 -0.19962295688E+02  0.37545230122E+02  0.51100000000E-03 0.  1.
        -12    1    4    4    0    0 -0.18706091321E+01  0.12969418570E+01  0.22631386898E+01  0.32098338641E+01  0.00000000000E+00 0.  1.
</event>
<event>
 8    1  0.2994958E-010  0.9118800E+02  0.7816164E-02  0.1184000E+00
        -11   -1    0    0    0    0  0.00000000000E+00  0.00000000000E+00  0.45593999997E+02  0.45594000000E+02  0.51100000000E-03 0. -1.
         11   -1    0    0    0    0 -0.00000000000E+00 -0.00000000000E+00 -0.45593999997E+02  0.45594000000E+02  0.51100000000E-03 0.  1.
         23    2    1    2    0    0  0.00000000000E+00  0.17763568394E-14  0.00000000000E+00  0.91188000000E+02  0.91188000000E+02 0.  0.
    9900012    2    3    3    0    0  0.36370735881E+02  0.11832136135E+02 -0.20513233113E+02  0.47787278729E+02  0.20000035037E+02 0.  0.
         12    1    3    3    0    0 -0.36370735881E+02 -0.11832136135E+02  0.20513233113E+02  0.43400721271E+02  0.00000000000E+00 0. -1.
         11    1    4    4    0    0  0.47778945485E+01 -0.28150083413E+01 -0.61894811065E+01  0.83103685181E+01  0.51100000000E-03 0. -1.
        -11    1    4    4    0    0  0.11095731169E+02  0.79132290706E+01 -0.11274588328E+02  0.17687588494E+02  0.51100000000E-03 0.  1.
         12    1    4    4    0    0  0.20497110164E+02  0.67339154060E+01 -0.30491636789E+01  0.21789321717E+02  0.00000000000E+00 0. -1.
</event>
<event>
 8    1  0.2994958E-010  0.9118800E+02  0.7816164E-02  0.1184000E+00
        -11   -1    0    0    0    0  0.00000000000E+00  0.00000000000E+00  0.45593999997E+02  0.45594000000E+02  0.51100000000E-03 0. -1.
         11   -1    0    0    0    0 -0.00000000000E+00 -0.00000000000E+00 -0.45593999997E+02  0.45594000000E+02  0.51100000000E-03 0.  1.
         23    2    1    2    0    0  0.35527136788E-14  0.00000000000E+00  0.00000000000E+00  0.91188000000E+02  0.91188000000E+02 0.  0.
    9900012    2    3    3    0    0 -0.18083656387E+02 -0.35829412410E+02 -0.16518414150E+02  0.47787269269E+02  0.19999991904E+02 0.  0.
         12    1    3    3    0    0  0.18083656387E+02  0.35829412410E+02  0.16518414150E+02  0.43400730731E+02  0.00000000000E+00 0. -1.
         11    1    4    4    0    0 -0.25548447301E+01 -0.21072218076E+01 -0.55255008904E+01  0.64419543380E+01  0.51100000000E-03 0. -1.
        -11    1    4    4    0    0 -0.86926695897E+01 -0.62320179954E+01 -0.68884755666E+01  0.12722092940E+02  0.51100000000E-03 0.  1.
        -12    1    4    4    0    0 -0.68361420668E+01 -0.27490172607E+02 -0.41044376928E+01  0.28623221990E+02  0.00000000000E+00 0.  1.
</event>
<event>
 8    1  0.2994958E-010  0.9118800E+02  0.7816164E-02  0.1184000E+00
        -11   -1    0    0    0    0  0.00000000000E+00  0.00000000000E+00  0.45593999997E+02  0.45594000000E+02  0.51100000000E-03 0. -1.
         11   -1    0    0    0    0 -0.00000000000E+00 -0.00000000000E+00 -0.45593999997E+02  0.45594000000E+02  0.51100000000E-03 0.  1.
         23    2    1    2    0    0  0.00000000000E+00  0.00000000000E+00 -0.35527136788E-14  0.91188000000E+02  0.91188000000E+02 0.  0.
    9900012    2    3    3    0    0  0.34645891712E+02  0.32909362950E+01  0.25931742993E+02  0.47787269950E+02  0.19999995009E+02 0.  0.
        -12    1    3    3    0    0 -0.34645891712E+02 -0.32909362950E+01 -0.25931742993E+02  0.43400730050E+02  0.00000000000E+00 0.  1.
         11    1    4    4    0    0  0.12381004654E+02 -0.13944737246E+01  0.12134447033E+02  0.17391913013E+02  0.51100000000E-03 0. -1.
        -11    1    4    4    0    0  0.70021461496E+00 -0.33290325059E+01  0.43575638487E+01  0.55282113644E+01  0.51100000000E-03 0.  1.
        -12    1    4    4    0    0  0.21564672443E+02  0.80144425256E+01  0.94397321121E+01  0.24867145572E+02  0.00000000000E+00 0.  1.
</event>
<event>
 8    1  0.2994958E-010  0.9118800E+02  0.7816164E-02  0.1184000E+00
        -11   -1    0    0    0    0  0.00000000000E+00  0.00000000000E+00  0.45593999997E+02  0.45594000000E+02  0.51100000000E-03 0. -1.
         11   -1    0    0    0    0 -0.00000000000E+00 -0.00000000000E+00 -0.45593999997E+02  0.45594000000E+02  0.51100000000E-03 0.  1.
         23    2    1    2    0    0 -0.88817841970E-15  0.00000000000E+00  0.00000000000E+00  0.91188000000E+02  0.91188000000E+02 0.  0.
    9900012    2    3    3    0    0 -0.69377120309E+01  0.66727312869E+01  0.42319805048E+02  0.47787273158E+02  0.20000009638E+02 0.  0.
        -12    1    3    3    0    0  0.69377120309E+01 -0.66727312869E+01 -0.42319805048E+02  0.43400726842E+02  0.00000000000E+00 0.  1.
         11    1    4    4    0    0 -0.39538646595E+01 -0.20429434571E+01  0.44594590239E+01  0.63002729117E+01  0.51100000000E-03 0. -1.
        -11    1    4    4    0    0 -0.16743615827E+00  0.70709594886E+01  0.54921402613E+01  0.89548929568E+01  0.51100000000E-03 0.  1.
        -12    1    4    4    0    0 -0.28164112132E+01  0.16447152553E+01  0.32368205763E+02  0.32532107290E+02  0.00000000000E+00 0.  1.
</event>
<event>
 8    1  0.2994958E-010  0.9118800E+02  0.7816164E-02  0.1184000E+00
        -11   -1    0    0    0    0  0.00000000000E+00  0.00000000000E+00  0.45593999997E+02  0.45594000000E+02  0.51100000000E-03 0. -1.
         11   -1    0    0    0    0 -0.00000000000E+00 -0.00000000000E+00 -0.45593999997E+02  0.45594000000E+02  0.51100000000E-03 0.  1.
         23    2    1    2    0    0  0.00000000000E+00  0.00000000000E+00  0.71054273576E-14  0.91188000000E+02  0.91188000000E+02 0.  0.
    9900012    2    3    3    0    0 -0.20214420667E+02 -0.10447175024E+02 -0.36957505304E+02  0.47787268817E+02  0.19999989846E+02 0.  0.
         12    1    3    3    0    0  0.20214420667E+02  0.10447175024E+02  0.36957505304E+02  0.43400731183E+02  0.00000000000E+00 0. -1.
         11    1    4    4    0    0 -0.78421867363E+00 -0.42803415131E+01 -0.11890398904E+02  0.12661670851E+02  0.51100000000E-03 0. -1.
        -11    1    4    4    0    0 -0.73088613131E+01 -0.58712629639E+01 -0.19797446662E+02  0.21905024015E+02  0.51100000000E-03 0.  1.
         12    1    4    4    0    0 -0.12121340681E+02 -0.29557054662E+00 -0.52696597378E+01  0.13220573951E+02  0.00000000000E+00 0. -1.
</event>
<event>
 8    1  0.2994958E-010  0.9118800E+02  0.7816164E-02  0.1184000E+00
        -11   -1    0    0    0    0  0.00000000000E+00  0.00000000000E+00  0.45593999997E+02  0.45594000000E+02  0.51100000000E-03 0. -1.
         11   -1    0    0    0    0 -0.00000000000E+00 -0.00000000000E+00 -0.45593999997E+02  0.45594000000E+02  0.51100000000E-03 0.  1.
         23    2    1    2    0    0  0.00000000000E+00 -0.17763568394E-14  0.00000000000E+00  0.91188000000E+02  0.91188000000E+02 0.  0.
    9900012    2    3    3    0    0  0.37874086775E+02 -0.13197014973E+02 -0.16583596562E+02  0.47787270419E+02  0.19999997150E+02 0.  0.
         12    1    3    3    0    0 -0.37874086775E+02  0.13197014973E+02  0.16583596562E+02  0.43400729581E+02  0.00000000000E+00 0. -1.
         11    1    4    4    0    0  0.10412658781E+02 -0.77146257710E+01 -0.18124835554E+01  0.13085259285E+02  0.51100000000E-03 0. -1.
        -11    1    4    4    0    0  0.15972180842E+02 -0.39557338945E+01 -0.69660223601E+00  0.16469476203E+02  0.51100000000E-03 0.  1.
        -12    1    4    4    0    0  0.11489247153E+02 -0.15266553074E+01 -0.14074510770E+02  0.18232534930E+02  0.00000000000E+00 0.  1.
</event>
<event>
 8    1  0.2994958E-010  0.9118800E+02  0.7816164E-02  0.1184000E+00
        -11   -1    0    0    0    0  0.00000000000E+00  0.00000000000E+00  0.45593999997E+02  0.45594000000E+02  0.51100000000E-03 0. -1.
         11   -1    0    0    0    0 -0.00000000000E+00 -0.00000000000E+00 -0.45593999997E+02  0.45594000000E+02  0.51100000000E-03 0.  1.
         23    2    1    2    0    0  0.44408920985E-15 -0.88817841970E-15  0.00000000000E+00  0.91188000000E+02  0.91188000000E+02 0.  0.
    9900012    2    3    3    0    0  0.21114587167E+01  0.72755378926E+01  0.42734430951E+02  0.47787270764E+02  0.19999998722E+02 0.  0.
        -12    1    3    3    0    0 -0.21114587167E+01 -0.72755378926E+01 -0.42734430951E+02  0.43400729236E+02  0.00000000000E+00 0.  1.
         11    1    4    4    0    0  0.11872953251E+01  0.85711094021E+00  0.20984457903E+02  0.21035488658E+02  0.51100000000E-03 0. -1.
        -11    1    4    4    0    0  0.55408082619E+01 -0.13181709212E+01  0.12999161371E+02  0.14192122018E+02  0.51100000000E-03 0.  1.
         12    1    4    4    0    0 -0.46166448703E+01  0.77365978736E+01  0.87508116769E+01  0.12559660088E+02  0.00000000000E+00 0. -1.
</event>
<event>
 8    1  0.2994958E-010  0.9118800E+02  0.7816164E-02  0.1184000E+00
        -11   -1    0    0    0    0  0.00000000000E+00  0.00000000000E+00  0.45593999997E+02  0.45594000000E+02  0.51100000000E-03 0. -1.
         11   -1    0    0    0    0 -0.00000000000E+00 -0.00000000000E+00 -0.45593999997E+02  0.45594000000E+02  0.51100000000E-03 0.  1.
         23    2    1    2    0    0  0.00000000000E+00  0.00000000000E+00  0.00000000000E+00  0.91188000000E+02  0.91188000000E+02 0.  0.
    9900012    2    3    3    0    0  0.10908781409E+02 -0.86893241591E+01  0.41098878135E+02  0.47787266710E+02  0.19999980236E+02 0.  0.
        -12    1    3    3    0    0 -0.10908781409E+02  0.86893241591E+01 -0.41098878135E+02  0.43400733290E+02  0.00000000000E+00 0.  1.
         11    1    4    4    0    0  0.56144903875E+01  0.35175681536E+01  0.96067464001E+01  0.11669848529E+02  0.51100000000E-03 0.  1.
        -11    1    4    4    0    0  0.27440629083E+01 -0.45916837335E+00  0.17281931784E+02  0.17504453242E+02  0.51100000000E-03 0. -1.
         12    1    4    4    0    0  0.25502281137E+01 -0.11747723939E+02  0.14210199951E+02  0.18612964939E+02  0.00000000000E+00 0. -1.
</event>
<event>
 8    1  0.2994958E-010  0.9118800E+02  0.7816164E-02  0.1184000E+00
        -11   -1    0    0    0    0  0.00000000000E+00  0.00000000000E+00  0.45593999997E+02  0.45594000000E+02  0.51100000000E-03 0. -1.
         11   -1    0    0    0    0 -0.00000000000E+00 -0.00000000000E+00 -0.45593999997E+02  0.45594000000E+02  0.51100000000E-03 0.  1.
         23    2    1    2    0    0  0.00000000000E+00  0.00000000000E+00  0.00000000000E+00  0.91188000000E+02  0.91188000000E+02 0.  0.
    9900012    2    3    3    0    0  0.15508419658E+02 -0.11998208418E+02 -0.38718922989E+02  0.47787273244E+02  0.20000010029E+02 0.  0.
         12    1    3    3    0    0 -0.15508419658E+02  0.11998208418E+02  0.38718922989E+02  0.43400726756E+02  0.00000000000E+00 0. -1.
         11    1    4    4    0    0  0.46503222286E+01 -0.14770429512E+02 -0.20747176197E+02  0.25888924373E+02  0.51100000000E-03 0. -1.
        -11    1    4    4    0    0 -0.31964072099E+00 -0.11688889313E+00 -0.28649148390E+01  0.28850598780E+01  0.51100000000E-03 0.  1.
         12    1    4    4    0    0  0.11177738151E+02  0.28891099869E+01 -0.15106831953E+02  0.19013288993E+02  0.00000000000E+00 0. -1.
</event>
<event>
 8    1  0.2994958E-010  0.9118800E+02  0.7816164E-02  0.1184000E+00
        -11   -1    0    0    0    0  0.00000000000E+00  0.00000000000E+00  0.45593999997E+02  0.45594000000E+02  0.51100000000E-03 0. -1.
         11   -1    0    0    0    0 -0.00000000000E+00 -0.00000000000E+00 -0.45593999997E+02  0.45594000000E+02  0.51100000000E-03 0.  1.
         23    2    1    2    0    0  0.35527136788E-14  0.00000000000E+00  0.00000000000E+00  0.91188000000E+02  0.91188000000E+02 0.  0.
    9900012    2    3    3    0    0  0.27673445605E+02 -0.25943364700E+02 -0.21088991551E+02  0.47787270418E+02  0.19999997143E+02 0.  0.
         12    1    3    3    0    0 -0.27673445605E+02  0.25943364700E+02  0.21088991551E+02  0.43400729582E+02  0.00000000000E+00 0. -1.
         11    1    4    4    0    0  0.29095026544E+01  0.11844179494E+01 -0.87514231126E+00  0.32609700859E+01  0.51100000000E-03 0. -1.
        -11    1    4    4    0    0  0.57366281049E+01  0.84478746115E-01 -0.63096904591E+01  0.85280849330E+01  0.51100000000E-03 0.  1.
        -12    1    4    4    0    0  0.19027314846E+02 -0.27212261395E+02 -0.13904158781E+02  0.35998215399E+02  0.00000000000E+00 0.  1.
</event>
<event>
 8    1  0.2994958E-010  0.9118800E+02  0.7816164E-02  0.1184000E+00
        -11   -1    0    0    0    0  0.00000000000E+00  0.00000000000E+00  0.45593999997E+02  0.45594000000E+02  0.51100000000E-03 0. -1.
         11   -1    0    0    0    0 -0.00000000000E+00 -0.00000000000E+00 -0.45593999997E+02  0.45594000000E+02  0.51100000000E-03 0.  1.
         23    2    1    2    0    0  0.35527136788E-14  0.35527136788E-14  0.35527136788E-14  0.91188000000E+02  0.91188000000E+02 0.  0.
    9900012    2    3    3    0    0 -0.16198666517E+02  0.24795082255E+02  0.31724280811E+02  0.47787275422E+02  0.20000019959E+02 0.  0.
        -12    1    3    3    0    0  0.16198666517E+02 -0.24795082255E+02 -0.31724280811E+02  0.43400724578E+02  0.00000000000E+00 0.  1.
         11    1    4    4    0    0 -0.97862523532E+01  0.12527968708E+02  0.10617819220E+02  0.19116977279E+02  0.51100000000E-03 0.  1.
        -11    1    4    4    0    0 -0.63836655695E+01  0.15191850630E+02  0.17874038209E+02  0.24311000675E+02  0.51100000000E-03 0. -1.
        -12    1    4    4    0    0 -0.28748593863E-01 -0.29247370831E+01  0.32324233821E+01  0.43592974672E+01  0.00000000000E+00 0.  1.
</event>
<event>
 8    1  0.2994958E-010  0.9118800E+02  0.7816164E-02  0.1184000E+00
        -11   -1    0    0    0    0  0.00000000000E+00  0.00000000000E+00  0.45593999997E+02  0.45594000000E+02  0.51100000000E-03 0. -1.
         11   -1    0    0    0    0 -0.00000000000E+00 -0.00000000000E+00 -0.45593999997E+02  0.45594000000E+02  0.51100000000E-03 0.  1.
         23    2    1    2    0    0 -0.35527136788E-14  0.00000000000E+00  0.17763568394E-14  0.91188000000E+02  0.91188000000E+02 0.  0.
    9900012    2    3    3    0    0  0.24984252269E+02  0.33679947510E+02 -0.11183539544E+02  0.47787270945E+02  0.19999999549E+02 0.  0.
         12    1    3    3    0    0 -0.24984252269E+02 -0.33679947510E+02  0.11183539544E+02  0.43400729055E+02  0.00000000000E+00 0. -1.
         11    1    4    4    0    0  0.42676782786E+01  0.11473678172E+02 -0.53250696781E+01  0.13349709211E+02  0.51100000000E-03 0. -1.
        -11    1    4    4    0    0  0.12781234523E+02  0.11292155097E+02 -0.10662754399E+02  0.20113852299E+02  0.51100000000E-03 0.  1.
         12    1    4    4    0    0  0.79353394672E+01  0.10914114242E+02  0.48042845322E+01  0.14323709436E+02  0.00000000000E+00 0. -1.
</event>
<event>
 8    1  0.2994958E-010  0.9118800E+02  0.7816164E-02  0.1184000E+00
        -11   -1    0    0    0    0  0.00000000000E+00  0.00000000000E+00  0.45593999997E+02  0.45594000000E+02  0.51100000000E-03 0. -1.
         11   -1    0    0    0    0 -0.00000000000E+00 -0.00000000000E+00 -0.45593999997E+02  0.45594000000E+02  0.51100000000E-03 0.  1.
         23    2    1    2    0    0  0.00000000000E+00 -0.35527136788E-14  0.71054273576E-14  0.91188000000E+02  0.91188000000E+02 0.  0.
    9900012    2    3    3    0    0 -0.10601905503E+02 -0.16002128687E+02  0.38924991833E+02  0.47787268301E+02  0.19999987491E+02 0.  0.
        -12    1    3    3    0    0  0.10601905503E+02  0.16002128687E+02 -0.38924991833E+02  0.43400731699E+02  0.00000000000E+00 0.  1.
         11    1    4    4    0    0  0.36827067075E+00 -0.12236784147E+01  0.11174171940E+02  0.11247005422E+02  0.51100000000E-03 0. -1.
        -11    1    4    4    0    0 -0.10134461857E+02 -0.14113953898E+01  0.10037579086E+02  0.14333609044E+02  0.51100000000E-03 0.  1.
         12    1    4    4    0    0 -0.83571431768E+00 -0.13367054882E+02  0.17713240807E+02  0.22206653835E+02  0.00000000000E+00 0. -1.
</event>
<event>
 8    1  0.2994958E-010  0.9118800E+02  0.7816164E-02  0.1184000E+00
        -11   -1    0    0    0    0  0.00000000000E+00  0.00000000000E+00  0.45593999997E+02  0.45594000000E+02  0.51100000000E-03 0. -1.
         11   -1    0    0    0    0 -0.00000000000E+00 -0.00000000000E+00 -0.45593999997E+02  0.45594000000E+02  0.51100000000E-03 0.  1.
         23    2    1    2    0    0  0.00000000000E+00  0.00000000000E+00  0.35527136788E-14  0.91188000000E+02  0.91188000000E+02 0.  0.
    9900012    2    3    3    0    0 -0.34349713470E+02  0.10988137944E+02 -0.24145007426E+02  0.47787269884E+02  0.19999994710E+02 0.  0.
         12    1    3    3    0    0  0.34349713470E+02 -0.10988137944E+02  0.24145007426E+02  0.43400730116E+02  0.00000000000E+00 0. -1.
         11    1    4    4    0    0 -0.27295495462E+01  0.21354790550E+01 -0.60991087544E+01  0.70149725145E+01  0.51100000000E-03 0. -1.
        -11    1    4    4    0    0 -0.19123727046E+02  0.11537356823E+02 -0.58093308665E+01  0.23077605248E+02  0.51100000000E-03 0.  1.
        -12    1    4    4    0    0 -0.12496436878E+02 -0.26846979335E+01 -0.12236567805E+02  0.17694692122E+02  0.00000000000E+00 0.  1.
</event>
<event>
 8    1  0.2994958E-010  0.9118800E+02  0.7816164E-02  0.1184000E+00
        -11   -1    0    0    0    0  0.00000000000E+00  0.00000000000E+00  0.45593999997E+02  0.45594000000E+02  0.51100000000E-03 0. -1.
         11   -1    0    0    0    0 -0.00000000000E+00 -0.00000000000E+00 -0.45593999997E+02  0.45594000000E+02  0.51100000000E-03 0.  1.
         23    2    1    2    0    0  0.00000000000E+00  0.00000000000E+00  0.00000000000E+00  0.91188000000E+02  0.91188000000E+02 0.  0.
    9900012    2    3    3    0    0 -0.32511328984E+02 -0.74824812637E+01 -0.27760549192E+02  0.47787284227E+02  0.20000060105E+02 0.  0.
         12    1    3    3    0    0  0.32511328984E+02  0.74824812637E+01  0.27760549192E+02  0.43400715773E+02  0.00000000000E+00 0. -1.
         11    1    4    4    0    0  0.17840888770E+01 -0.11485919496E+01  0.10627069785E+01  0.23730956515E+01  0.51100000000E-03 0. -1.
        -11    1    4    4    0    0 -0.58005357358E+01  0.38895611853E+00 -0.45113433145E+01  0.73586493630E+01  0.51100000000E-03 0.  1.
         12    1    4    4    0    0 -0.28494882125E+02 -0.67228454326E+01 -0.24311912856E+02  0.38055539213E+02  0.00000000000E+00 0. -1.
</event>
<event>
 8    1  0.2994958E-010  0.9118800E+02  0.7816164E-02  0.1184000E+00
        -11   -1    0    0    0    0  0.00000000000E+00  0.00000000000E+00  0.45593999997E+02  0.45594000000E+02  0.51100000000E-03 0. -1.
         11   -1    0    0    0    0 -0.00000000000E+00 -0.00000000000E+00 -0.45593999997E+02  0.45594000000E+02  0.51100000000E-03 0.  1.
         23    2    1    2    0    0  0.00000000000E+00  0.00000000000E+00  0.00000000000E+00  0.91188000000E+02  0.91188000000E+02 0.  0.
    9900012    2    3    3    0    0  0.33552492446E+02 -0.26068676641E+02  0.88474547882E+01  0.47787272963E+02  0.20000008746E+02 0.  0.
        -12    1    3    3    0    0 -0.33552492446E+02  0.26068676641E+02 -0.88474547882E+01  0.43400727037E+02  0.00000000000E+00 0.  1.
         11    1    4    4    0    0  0.13865452981E+02 -0.20996605420E+02  0.76235624570E+01  0.26291194920E+02  0.51100000000E-03 0. -1.
        -11    1    4    4    0    0  0.34328266030E+01 -0.25114772231E+01  0.25980307471E+01  0.49841328586E+01  0.51100000000E-03 0.  1.
        -12    1    4    4    0    0  0.16254212862E+02 -0.25605939980E+01 -0.13741384159E+01  0.16511945184E+02  0.00000000000E+00 0.  1.
</event>
<event>
 8    1  0.2994958E-010  0.9118800E+02  0.7816164E-02  0.1184000E+00
        -11   -1    0    0    0    0  0.00000000000E+00  0.00000000000E+00  0.45593999997E+02  0.45594000000E+02  0.51100000000E-03 0. -1.
         11   -1    0    0    0    0 -0.00000000000E+00 -0.00000000000E+00 -0.45593999997E+02  0.45594000000E+02  0.51100000000E-03 0.  1.
         23    2    1    2    0    0  0.35527136788E-14 -0.35527136788E-14  0.35527136788E-14  0.91188000000E+02  0.91188000000E+02 0.  0.
    9900012    2    3    3    0    0 -0.16899152496E+02  0.29518260465E+02 -0.26957632636E+02  0.47787274046E+02  0.20000013687E+02 0.  0.
         12    1    3    3    0    0  0.16899152496E+02 -0.29518260465E+02  0.26957632636E+02  0.43400725954E+02  0.00000000000E+00 0. -1.
         11    1    4    4    0    0 -0.12661430260E+01  0.20994962607E+01 -0.57446604401E+01  0.62459688235E+01  0.51100000000E-03 0. -1.
        -11    1    4    4    0    0 -0.17521079964E+02  0.25149229425E+02 -0.13900829771E+02  0.33655683805E+02  0.51100000000E-03 0.  1.
        -12    1    4    4    0    0  0.18880704944E+01  0.22695347789E+01 -0.73121424246E+01  0.78856214176E+01  0.00000000000E+00 0.  1.
</event>
<event>
 8    1  0.2994958E-010  0.9118800E+02  0.7816164E-02  0.1184000E+00
        -11   -1    0    0    0    0  0.00000000000E+00  0.00000000000E+00  0.45593999997E+02  0.45594000000E+02  0.51100000000E-03 0. -1.
         11   -1    0    0    0    0 -0.00000000000E+00 -0.00000000000E+00 -0.45593999997E+02  0.45594000000E+02  0.51100000000E-03 0.  1.
         23    2    1    2    0    0  0.00000000000E+00  0.00000000000E+00 -0.88817841970E-15  0.91188000000E+02  0.91188000000E+02 0.  0.
    9900012    2    3    3    0    0 -0.15659018455E+02  0.40233451717E+02 -0.44371231960E+01  0.47787267767E+02  0.19999985059E+02 0.  0.
         12    1    3    3    0    0  0.15659018455E+02 -0.40233451717E+02  0.44371231960E+01  0.43400732233E+02  0.00000000000E+00 0. -1.
         11    1    4    4    0    0 -0.68336369217E+00  0.93565342190E+01  0.31275329164E+01  0.98890434791E+01  0.51100000000E-03 0. -1.
        -11    1    4    4    0    0 -0.12304248249E+01  0.18609068123E+02 -0.27089313580E+01  0.18845415120E+02  0.51100000000E-03 0.  1.
        -12    1    4    4    0    0 -0.13745229938E+02  0.12267849375E+02 -0.48557247543E+01  0.19052809169E+02  0.00000000000E+00 0.  1.
</event>
<event>
 8    1  0.2994958E-010  0.9118800E+02  0.7816164E-02  0.1184000E+00
        -11   -1    0    0    0    0  0.00000000000E+00  0.00000000000E+00  0.45593999997E+02  0.45594000000E+02  0.51100000000E-03 0. -1.
         11   -1    0    0    0    0 -0.00000000000E+00 -0.00000000000E+00 -0.45593999997E+02  0.45594000000E+02  0.51100000000E-03 0.  1.
         23    2    1    2    0    0  0.35527136788E-14 -0.35527136788E-14  0.00000000000E+00  0.91188000000E+02  0.91188000000E+02 0.  0.
    9900012    2    3    3    0    0 -0.20091281413E+02 -0.19714230576E+02  0.33035007498E+02  0.47787283457E+02  0.20000056595E+02 0.  0.
        -12    1    3    3    0    0  0.20091281413E+02  0.19714230576E+02 -0.33035007498E+02  0.43400716543E+02  0.00000000000E+00 0.  1.
         11    1    4    4    0    0 -0.99606346924E+01 -0.12101794711E+02  0.20002849585E+02  0.25412234661E+02  0.51100000000E-03 0. -1.
        -11    1    4    4    0    0 -0.11257453558E+02 -0.87775315570E+01  0.65729211613E+01  0.15715553242E+02  0.51100000000E-03 0.  1.
         12    1    4    4    0    0  0.11268068373E+01  0.11650956921E+01  0.64592367519E+01  0.66594955542E+01  0.00000000000E+00 0. -1.
</event>
<event>
 8    1  0.2994958E-010  0.9118800E+02  0.7816164E-02  0.1184000E+00
        -11   -1    0    0    0    0  0.00000000000E+00  0.00000000000E+00  0.45593999997E+02  0.45594000000E+02  0.51100000000E-03 0. -1.
         11   -1    0    0    0    0 -0.00000000000E+00 -0.00000000000E+00 -0.45593999997E+02  0.45594000000E+02  0.51100000000E-03 0.  1.
         23    2    1    2    0    0  0.00000000000E+00  0.00000000000E+00 -0.71054273576E-14  0.91188000000E+02  0.91188000000E+02 0.  0.
    9900012    2    3    3    0    0 -0.25329584594E+02  0.20801728228E+01 -0.35181072318E+02  0.47787276226E+02  0.20000023625E+02 0.  0.
         12    1    3    3    0    0  0.25329584594E+02 -0.20801728228E+01  0.35181072318E+02  0.43400723774E+02  0.00000000000E+00 0. -1.
         11    1    4    4    0    0 -0.18252827267E+02 -0.37649379644E+01 -0.21793011013E+02  0.28675351617E+02  0.51100000000E-03 0. -1.
        -11    1    4    4    0    0 -0.93174023192E+01  0.45933744167E+01 -0.12788933423E+02  0.16476343432E+02  0.51100000000E-03 0.  1.
         12    1    4    4    0    0  0.22406449923E+01  0.12517363704E+01 -0.59912788167E+00  0.26355811772E+01  0.00000000000E+00 0. -1.
</event>
<event>
 8    1  0.2994958E-010  0.9118800E+02  0.7816164E-02  0.1184000E+00
        -11   -1    0    0    0    0  0.00000000000E+00  0.00000000000E+00  0.45593999997E+02  0.45594000000E+02  0.51100000000E-03 0. -1.
         11   -1    0    0    0    0 -0.00000000000E+00 -0.00000000000E+00 -0.45593999997E+02  0.45594000000E+02  0.51100000000E-03 0.  1.
         23    2    1    2    0    0  0.00000000000E+00  0.00000000000E+00  0.00000000000E+00  0.91188000000E+02  0.91188000000E+02 0.  0.
    9900012    2    3    3    0    0  0.20096349998E+02  0.32032379733E+02 -0.21299919928E+02  0.47787271624E+02  0.20000002644E+02 0.  0.
         12    1    3    3    0    0 -0.20096349998E+02 -0.32032379733E+02  0.21299919928E+02  0.43400728376E+02  0.00000000000E+00 0. -1.
         11    1    4    4    0    0  0.22075482799E+01  0.13079064962E+02 -0.39762009993E+01  0.13847215762E+02  0.51100000000E-03 0. -1.
        -11    1    4    4    0    0 -0.15628808223E+01  0.80356726407E+00 -0.35971098549E+01  0.40034380702E+01  0.51100000000E-03 0.  1.
        -12    1    4    4    0    0  0.19451682541E+02  0.18149747506E+02 -0.13726609074E+02  0.29936617793E+02  0.00000000000E+00 0.  1.
</event>
<event>
 8    1  0.2994958E-010  0.9118800E+02  0.7816164E-02  0.1184000E+00
        -11   -1    0    0    0    0  0.00000000000E+00  0.00000000000E+00  0.45593999997E+02  0.45594000000E+02  0.51100000000E-03 0. -1.
         11   -1    0    0    0    0 -0.00000000000E+00 -0.00000000000E+00 -0.45593999997E+02  0.45594000000E+02  0.51100000000E-03 0.  1.
         23    2    1    2    0    0  0.71054273576E-14  0.00000000000E+00  0.00000000000E+00  0.91188000000E+02  0.91188000000E+02 0.  0.
    9900012    2    3    3    0    0  0.33525623669E+02 -0.15093283715E+02  0.23061857583E+02  0.47787263475E+02  0.19999965489E+02 0.  0.
        -12    1    3    3    0    0 -0.33525623669E+02  0.15093283715E+02 -0.23061857583E+02  0.43400736525E+02  0.00000000000E+00 0.  1.
         11    1    4    4    0    0  0.18601144534E+02 -0.24725606478E+01  0.11422968774E+02  0.21968166742E+02  0.51100000000E-03 0. -1.
        -11    1    4    4    0    0  0.14366489776E+02 -0.13786720205E+02  0.71637742314E+01  0.21161033623E+02  0.51100000000E-03 0.  1.
         12    1    4    4    0    0  0.55798935875E+00  0.11659971379E+01  0.44751145779E+01  0.46580631098E+01  0.00000000000E+00 0. -1.
</event>
<event>
 8    1  0.2994958E-010  0.9118800E+02  0.7816164E-02  0.1184000E+00
        -11   -1    0    0    0    0  0.00000000000E+00  0.00000000000E+00  0.45593999997E+02  0.45594000000E+02  0.51100000000E-03 0.  1.
         11   -1    0    0    0    0 -0.00000000000E+00 -0.00000000000E+00 -0.45593999997E+02  0.45594000000E+02  0.51100000000E-03 0. -1.
         23    2    1    2    0    0  0.00000000000E+00  0.00000000000E+00  0.00000000000E+00  0.91188000000E+02  0.91188000000E+02 0.  0.
    9900012    2    3    3    0    0  0.33823382721E+02 -0.22284465121E+02  0.15588596227E+02  0.47787274929E+02  0.20000017710E+02 0.  0.
        -12    1    3    3    0    0 -0.33823382721E+02  0.22284465121E+02 -0.15588596227E+02  0.43400725071E+02  0.00000000000E+00 0.  1.
         11    1    4    4    0    0  0.20601648859E+02 -0.36922622671E+01  0.17673333748E+01  0.21004385349E+02  0.51100000000E-03 0.  1.
        -11    1    4    4    0    0  0.44651608891E+01 -0.48013150831E+01  0.47574745062E+01  0.81008550309E+01  0.51100000000E-03 0. -1.
        -12    1    4    4    0    0  0.87565729727E+01 -0.13790887770E+02  0.90637883460E+01  0.18682034549E+02  0.00000000000E+00 0.  1.
</event>
<event>
 8    1  0.2994958E-010  0.9118800E+02  0.7816164E-02  0.1184000E+00
        -11   -1    0    0    0    0  0.00000000000E+00  0.00000000000E+00  0.45593999997E+02  0.45594000000E+02  0.51100000000E-03 0.  1.
         11   -1    0    0    0    0 -0.00000000000E+00 -0.00000000000E+00 -0.45593999997E+02  0.45594000000E+02  0.51100000000E-03 0. -1.
         23    2    1    2    0    0  0.00000000000E+00 -0.44408920985E-15  0.00000000000E+00  0.91188000000E+02  0.91188000000E+02 0.  0.
    9900012    2    3    3    0    0  0.38112996211E+02  0.12404152340E+01  0.20724006493E+02  0.47787267802E+02  0.19999985218E+02 0.  0.
        -12    1    3    3    0    0 -0.38112996211E+02 -0.12404152340E+01 -0.20724006493E+02  0.43400732198E+02  0.00000000000E+00 0.  1.
         11    1    4    4    0    0  0.69097074761E+01  0.13188238105E+01  0.25885179469E+01  0.74955839713E+01  0.51100000000E-03 0. -1.
        -11    1    4    4    0    0  0.22906570154E+02  0.61839650858E+01  0.18189557695E+02  0.29896695300E+02  0.51100000000E-03 0.  1.
         12    1    4    4    0    0  0.82967185809E+01 -0.62623736623E+01 -0.54069149245E-01  0.10394988531E+02  0.00000000000E+00 0. -1.
</event>
<event>
 8    1  0.2994958E-010  0.9118800E+02  0.7816164E-02  0.1184000E+00
        -11   -1    0    0    0    0  0.00000000000E+00  0.00000000000E+00  0.45593999997E+02  0.45594000000E+02  0.51100000000E-03 0. -1.
         11   -1    0    0    0    0 -0.00000000000E+00 -0.00000000000E+00 -0.45593999997E+02  0.45594000000E+02  0.51100000000E-03 0.  1.
         23    2    1    2    0    0  0.00000000000E+00 -0.17763568394E-14  0.00000000000E+00  0.91188000000E+02  0.91188000000E+02 0.  0.
    9900012    2    3    3    0    0 -0.28216819863E+02  0.12058129530E+02 -0.30692605736E+02  0.47787268925E+02  0.19999990337E+02 0.  0.
         12    1    3    3    0    0  0.28216819863E+02 -0.12058129530E+02  0.30692605736E+02  0.43400731075E+02  0.00000000000E+00 0. -1.
         11    1    4    4    0    0 -0.15356238253E+00 -0.94749192061E+00 -0.77167737648E+00  0.12315878286E+01  0.51100000000E-03 0. -1.
        -11    1    4    4    0    0 -0.13522761609E+02  0.47120292932E+01 -0.25494227523E+02  0.29240792377E+02  0.51100000000E-03 0.  1.
         12    1    4    4    0    0 -0.14540495872E+02  0.82935921570E+01 -0.44267008369E+01  0.17314888719E+02  0.00000000000E+00 0. -1.
</event>
<event>
 8    1  0.2994958E-010  0.9118800E+02  0.7816164E-02  0.1184000E+00
        -11   -1    0    0    0    0  0.00000000000E+00  0.00000000000E+00  0.45593999997E+02  0.45594000000E+02  0.51100000000E-03 0. -1.
         11   -1    0    0    0    0 -0.00000000000E+00 -0.00000000000E+00 -0.45593999997E+02  0.45594000000E+02  0.51100000000E-03 0.  1.
         23    2    1    2    0    0 -0.71054273576E-14  0.00000000000E+00  0.00000000000E+00  0.91188000000E+02  0.91188000000E+02 0.  0.
    9900012    2    3    3    0    0  0.21378503107E+02 -0.86455714465E+01 -0.36767337137E+02  0.47787269811E+02  0.19999994377E+02 0.  0.
         12    1    3    3    0    0 -0.21378503107E+02  0.86455714465E+01  0.36767337137E+02  0.43400730189E+02  0.00000000000E+00 0. -1.
         11    1    4    4    0    0  0.78944643024E+01 -0.90145852188E+01 -0.18953781239E+02  0.22423896557E+02  0.51100000000E-03 0. -1.
        -11    1    4    4    0    0  0.15103155728E+02 -0.18739145959E+01 -0.15831849436E+02  0.21960517427E+02  0.51100000000E-03 0.  1.
         12    1    4    4    0    0 -0.16191169226E+01  0.22429283682E+01 -0.19817064624E+01  0.34028558266E+01  0.00000000000E+00 0. -1.
</event>
<event>
 8    1  0.2994958E-010  0.9118800E+02  0.7816164E-02  0.1184000E+00
        -11   -1    0    0    0    0  0.00000000000E+00  0.00000000000E+00  0.45593999997E+02  0.45594000000E+02  0.51100000000E-03 0. -1.
         11   -1    0    0    0    0 -0.00000000000E+00 -0.00000000000E+00 -0.45593999997E+02  0.45594000000E+02  0.51100000000E-03 0.  1.
         23    2    1    2    0    0  0.00000000000E+00  0.00000000000E+00  0.00000000000E+00  0.91188000000E+02  0.91188000000E+02 0.  0.
    9900012    2    3    3    0    0  0.34215540293E+02 -0.25062342340E+02 -0.92084261580E+01  0.47787316671E+02  0.20000208030E+02 0.  0.
         12    1    3    3    0    0 -0.34215540293E+02  0.25062342340E+02  0.92084261580E+01  0.43400683329E+02  0.00000000000E+00 0. -1.
         11    1    4    4    0    0  0.82512680010E+01 -0.11142810935E+02 -0.40960236282E+01  0.14457630130E+02  0.51100000000E-03 0. -1.
        -11    1    4    4    0    0 -0.38026622353E+00  0.15262435714E+01  0.13985061422E+01  0.21047188722E+01  0.51100000000E-03 0.  1.
        -12    1    4    4    0    0  0.26344538515E+02 -0.15445774977E+02 -0.65109086719E+01  0.31224967669E+02  0.00000000000E+00 0.  1.
</event>
<event>
 8    1  0.2994958E-010  0.9118800E+02  0.7816164E-02  0.1184000E+00
        -11   -1    0    0    0    0  0.00000000000E+00  0.00000000000E+00  0.45593999997E+02  0.45594000000E+02  0.51100000000E-03 0. -1.
         11   -1    0    0    0    0 -0.00000000000E+00 -0.00000000000E+00 -0.45593999997E+02  0.45594000000E+02  0.51100000000E-03 0.  1.
         23    2    1    2    0    0 -0.17763568394E-14 -0.88817841970E-15 -0.71054273576E-14  0.91188000000E+02  0.91188000000E+02 0.  0.
    9900012    2    3    3    0    0 -0.11644045874E+02  0.56536730136E+01  0.41425539512E+02  0.47787272509E+02  0.20000006676E+02 0.  0.
        -12    1    3    3    0    0  0.11644045874E+02 -0.56536730136E+01 -0.41425539512E+02  0.43400727491E+02  0.00000000000E+00 0.  1.
         11    1    4    4    0    0 -0.14729613496E+02  0.34384751033E+01  0.24358127662E+02  0.28672338729E+02  0.51100000000E-03 0. -1.
        -11    1    4    4    0    0  0.14412948211E+01  0.47678262019E+01  0.13717001140E+02  0.14593341563E+02  0.51100000000E-03 0.  1.
        -12    1    4    4    0    0  0.16442728001E+01 -0.25526282916E+01  0.33504107112E+01  0.45215922162E+01  0.00000000000E+00 0.  1.
</event>
<event>
 8    1  0.2994958E-010  0.9118800E+02  0.7816164E-02  0.1184000E+00
        -11   -1    0    0    0    0  0.00000000000E+00  0.00000000000E+00  0.45593999997E+02  0.45594000000E+02  0.51100000000E-03 0. -1.
         11   -1    0    0    0    0 -0.00000000000E+00 -0.00000000000E+00 -0.45593999997E+02  0.45594000000E+02  0.51100000000E-03 0.  1.
         23    2    1    2    0    0  0.00000000000E+00  0.17763568394E-14  0.00000000000E+00  0.91188000000E+02  0.91188000000E+02 0.  0.
    9900012    2    3    3    0    0 -0.27333849008E+02 -0.81425750955E+01 -0.32713615768E+02  0.47787291626E+02  0.20000093841E+02 0.  0.
         12    1    3    3    0    0  0.27333849008E+02  0.81425750955E+01  0.32713615768E+02  0.43400708374E+02  0.00000000000E+00 0. -1.
         11    1    4    4    0    0 -0.11929326251E+01 -0.75034243917E+01 -0.74730388395E+01  0.10656959022E+02  0.51100000000E-03 0. -1.
        -11    1    4    4    0    0 -0.30507649364E+01 -0.22268504336E+01 -0.57109430260E+01  0.68469628346E+01  0.51100000000E-03 0.  1.
        -12    1    4    4    0    0 -0.23090151446E+02  0.15876997298E+01 -0.19529633902E+02  0.30283369769E+02  0.00000000000E+00 0.  1.
</event>
<event>
 8    1  0.2994958E-010  0.9118800E+02  0.7816164E-02  0.1184000E+00
        -11   -1    0    0    0    0  0.00000000000E+00  0.00000000000E+00  0.45593999997E+02  0.45594000000E+02  0.51100000000E-03 0. -1.
         11   -1    0    0    0    0 -0.00000000000E+00 -0.00000000000E+00 -0.45593999997E+02  0.45594000000E+02  0.51100000000E-03 0.  1.
         23    2    1    2    0    0  0.00000000000E+00  0.88817841970E-15  0.00000000000E+00  0.91188000000E+02  0.91188000000E+02 0.  0.
    9900012    2    3    3    0    0  0.28140999895E+01 -0.68796649947E+01  0.42759559080E+02  0.47787206898E+02  0.19999707527E+02 0.  0.
        -12    1    3    3    0    0 -0.28140999895E+01  0.68796649947E+01 -0.42759559080E+02  0.43400793102E+02  0.00000000000E+00 0.  1.
         11    1    4    4    0    0  0.47182284902E+01 -0.75169028442E+01  0.14175115949E+02  0.16724216600E+02  0.51100000000E-03 0. -1.
        -11    1    4    4    0    0  0.12325670932E+01  0.29541631128E+01  0.12255468251E+01  0.34275744511E+01  0.51100000000E-03 0.  1.
        -12    1    4    4    0    0 -0.31366955939E+01 -0.23169252633E+01  0.27358896306E+02  0.27635415846E+02  0.00000000000E+00 0.  1.
</event>
<event>
 8    1  0.2994958E-010  0.9118800E+02  0.7816164E-02  0.1184000E+00
        -11   -1    0    0    0    0  0.00000000000E+00  0.00000000000E+00  0.45593999997E+02  0.45594000000E+02  0.51100000000E-03 0.  1.
         11   -1    0    0    0    0 -0.00000000000E+00 -0.00000000000E+00 -0.45593999997E+02  0.45594000000E+02  0.51100000000E-03 0. -1.
         23    2    1    2    0    0  0.88817841970E-15  0.00000000000E+00  0.00000000000E+00  0.91188000000E+02  0.91188000000E+02 0.  0.
    9900012    2    3    3    0    0  0.58294559400E+01 -0.33959729901E+02  0.26389001469E+02  0.47787248739E+02  0.19999898299E+02 0.  0.
        -12    1    3    3    0    0 -0.58294559400E+01  0.33959729901E+02 -0.26389001469E+02  0.43400751261E+02  0.00000000000E+00 0.  1.
         11    1    4    4    0    0  0.75477677935E+00 -0.94575169232E+01  0.12460869447E+01  0.95690672103E+01  0.51100000000E-03 0. -1.
        -11    1    4    4    0    0 -0.10128207517E+01  0.13057859540E+01  0.39218331103E+01  0.42557793691E+01  0.51100000000E-03 0.  1.
         12    1    4    4    0    0  0.60874999124E+01 -0.25807998932E+02  0.21221081414E+02  0.33962402159E+02  0.00000000000E+00 0. -1.
</event>
<event>
 8    1  0.2994958E-010  0.9118800E+02  0.7816164E-02  0.1184000E+00
        -11   -1    0    0    0    0  0.00000000000E+00  0.00000000000E+00  0.45593999997E+02  0.45594000000E+02  0.51100000000E-03 0.  1.
         11   -1    0    0    0    0 -0.00000000000E+00 -0.00000000000E+00 -0.45593999997E+02  0.45594000000E+02  0.51100000000E-03 0. -1.
         23    2    1    2    0    0 -0.35527136788E-14  0.00000000000E+00 -0.35527136788E-14  0.91188000000E+02  0.91188000000E+02 0.  0.
    9900012    2    3    3    0    0  0.22746337297E+02 -0.25859859836E+02 -0.26410138721E+02  0.47787266844E+02  0.19999980850E+02 0.  0.
         12    1    3    3    0    0 -0.22746337297E+02  0.25859859836E+02  0.26410138721E+02  0.43400733156E+02  0.00000000000E+00 0. -1.
         11    1    4    4    0    0  0.83935510230E+01 -0.16557165265E+01 -0.51939454682E+01  0.10008504672E+02  0.51100000000E-03 0. -1.
        -11    1    4    4    0    0  0.19875979058E+01 -0.32031855602E+00 -0.71491451479E+01  0.74272084944E+01  0.51100000000E-03 0.  1.
        -12    1    4    4    0    0  0.12365188368E+02 -0.23883824754E+02 -0.14067048105E+02  0.30351553677E+02  0.00000000000E+00 0.  1.
</event>
<event>
 8    1  0.2994958E-010  0.9118800E+02  0.7816164E-02  0.1184000E+00
        -11   -1    0    0    0    0  0.00000000000E+00  0.00000000000E+00  0.45593999997E+02  0.45594000000E+02  0.51100000000E-03 0. -1.
         11   -1    0    0    0    0 -0.00000000000E+00 -0.00000000000E+00 -0.45593999997E+02  0.45594000000E+02  0.51100000000E-03 0.  1.
         23    2    1    2    0    0  0.00000000000E+00  0.00000000000E+00  0.00000000000E+00  0.91188000000E+02  0.91188000000E+02 0.  0.
    9900012    2    3    3    0    0  0.13490594195E+02 -0.18567172914E+02 -0.36835951577E+02  0.47787269933E+02  0.19999994934E+02 0.  0.
         12    1    3    3    0    0 -0.13490594195E+02  0.18567172914E+02  0.36835951577E+02  0.43400730067E+02  0.00000000000E+00 0. -1.
         11    1    4    4    0    0  0.74029552964E+01 -0.76205248227E+01 -0.80068150491E+01  0.13303579713E+02  0.51100000000E-03 0. -1.
        -11    1    4    4    0    0  0.39280045245E+01 -0.13425299820E+02 -0.16057862568E+02  0.21296075820E+02  0.51100000000E-03 0.  1.
         12    1    4    4    0    0  0.21596343740E+01  0.24786517289E+01 -0.12771273959E+02  0.13187614400E+02  0.00000000000E+00 0. -1.
</event>
<event>
 8    1  0.2994958E-010  0.9118800E+02  0.7816164E-02  0.1184000E+00
        -11   -1    0    0    0    0  0.00000000000E+00  0.00000000000E+00  0.45593999997E+02  0.45594000000E+02  0.51100000000E-03 0. -1.
         11   -1    0    0    0    0 -0.00000000000E+00 -0.00000000000E+00 -0.45593999997E+02  0.45594000000E+02  0.51100000000E-03 0.  1.
         23    2    1    2    0    0  0.00000000000E+00  0.00000000000E+00  0.00000000000E+00  0.91188000000E+02  0.91188000000E+02 0.  0.
    9900012    2    3    3    0    0 -0.36720748655E+02  0.18790830780E+02  0.13494989440E+02  0.47787269094E+02  0.19999991109E+02 0.  0.
        -12    1    3    3    0    0  0.36720748655E+02 -0.18790830780E+02 -0.13494989440E+02  0.43400730906E+02  0.00000000000E+00 0.  1.
         11    1    4    4    0    0 -0.13921964931E+02  0.29496551205E+01  0.40902117486E+01  0.14807140348E+02  0.51100000000E-03 0. -1.
        -11    1    4    4    0    0 -0.10906560584E+02  0.47942474680E+01 -0.33060808674E+01  0.12363981702E+02  0.51100000000E-03 0.  1.
        -12    1    4    4    0    0 -0.11892223139E+02  0.11046928191E+02  0.12710858559E+02  0.20616147045E+02  0.00000000000E+00 0.  1.
</event>
<event>
 8    1  0.2994958E-010  0.9118800E+02  0.7816164E-02  0.1184000E+00
        -11   -1    0    0    0    0  0.00000000000E+00  0.00000000000E+00  0.45593999997E+02  0.45594000000E+02  0.51100000000E-03 0. -1.
         11   -1    0    0    0    0 -0.00000000000E+00 -0.00000000000E+00 -0.45593999997E+02  0.45594000000E+02  0.51100000000E-03 0.  1.
         23    2    1    2    0    0  0.35527136788E-14  0.71054273576E-14  0.17763568394E-14  0.91188000000E+02  0.91188000000E+02 0.  0.
    9900012    2    3    3    0    0  0.19667725476E+02  0.38467703890E+02  0.41278959450E+01  0.47787271977E+02  0.20000004253E+02 0.  0.
        -12    1    3    3    0    0 -0.19667725476E+02 -0.38467703890E+02 -0.41278959450E+01  0.43400728023E+02  0.00000000000E+00 0.  1.
         11    1    4    4    0    0  0.24944306496E+00 -0.53213590515E+00 -0.15021203239E+01  0.16129960300E+01  0.51100000000E-03 0. -1.
        -11    1    4    4    0    0  0.87427525309E+01  0.13458253175E+02  0.88126304759E+01  0.18309089450E+02  0.51100000000E-03 0.  1.
         12    1    4    4    0    0  0.10675529880E+02  0.25541586620E+02 -0.31826142070E+01  0.27865186497E+02  0.00000000000E+00 0. -1.
</event>
<event>
 8    1  0.2994958E-010  0.9118800E+02  0.7816164E-02  0.1184000E+00
        -11   -1    0    0    0    0  0.00000000000E+00  0.00000000000E+00  0.45593999997E+02  0.45594000000E+02  0.51100000000E-03 0. -1.
         11   -1    0    0    0    0 -0.00000000000E+00 -0.00000000000E+00 -0.45593999997E+02  0.45594000000E+02  0.51100000000E-03 0.  1.
         23    2    1    2    0    0  0.00000000000E+00  0.00000000000E+00  0.00000000000E+00  0.91188000000E+02  0.91188000000E+02 0.  0.
    9900012    2    3    3    0    0 -0.20158160996E+02  0.17474457872E+02 -0.34233230358E+02  0.47787283492E+02  0.20000056753E+02 0.  0.
         12    1    3    3    0    0  0.20158160996E+02 -0.17474457872E+02  0.34233230358E+02  0.43400716508E+02  0.00000000000E+00 0. -1.
         11    1    4    4    0    0 -0.17426095435E+01 -0.24666874143E+01 -0.52135037844E+01  0.60251022226E+01  0.51100000000E-03 0. -1.
        -11    1    4    4    0    0 -0.51599766155E+01  0.16773029834E+01 -0.13000807524E+02  0.14087572556E+02  0.51100000000E-03 0.  1.
         12    1    4    4    0    0 -0.13255574837E+02  0.18263842303E+02 -0.16018919049E+02  0.27674608713E+02  0.00000000000E+00 0. -1.
</event>
<event>
 8    1  0.2994958E-010  0.9118800E+02  0.7816164E-02  0.1184000E+00
        -11   -1    0    0    0    0  0.00000000000E+00  0.00000000000E+00  0.45593999997E+02  0.45594000000E+02  0.51100000000E-03 0. -1.
         11   -1    0    0    0    0 -0.00000000000E+00 -0.00000000000E+00 -0.45593999997E+02  0.45594000000E+02  0.51100000000E-03 0.  1.
         23    2    1    2    0    0  0.00000000000E+00  0.00000000000E+00 -0.35527136788E-14  0.91188000000E+02  0.91188000000E+02 0.  0.
    9900012    2    3    3    0    0  0.33340089706E+02  0.48206027944E+01 -0.27364638228E+02  0.47787271685E+02  0.20000002922E+02 0.  0.
         12    1    3    3    0    0 -0.33340089706E+02 -0.48206027944E+01  0.27364638228E+02  0.43400728315E+02  0.00000000000E+00 0. -1.
         11    1    4    4    0    0  0.18834866374E+02  0.29431929064E-01 -0.14929634487E+02  0.24034288917E+02  0.51100000000E-03 0. -1.
        -11    1    4    4    0    0  0.12230573520E+02 -0.25774028030E+01 -0.70895456858E+01  0.14369815313E+02  0.51100000000E-03 0.  1.
         12    1    4    4    0    0  0.22746498110E+01  0.73685736683E+01 -0.53454580559E+01  0.93831674554E+01  0.00000000000E+00 0. -1.
</event>
<event>
 8    1  0.2994958E-010  0.9118800E+02  0.7816164E-02  0.1184000E+00
        -11   -1    0    0    0    0  0.00000000000E+00  0.00000000000E+00  0.45593999997E+02  0.45594000000E+02  0.51100000000E-03 0. -1.
         11   -1    0    0    0    0 -0.00000000000E+00 -0.00000000000E+00 -0.45593999997E+02  0.45594000000E+02  0.51100000000E-03 0.  1.
         23    2    1    2    0    0 -0.88817841970E-15  0.00000000000E+00  0.00000000000E+00  0.91188000000E+02  0.91188000000E+02 0.  0.
    9900012    2    3    3    0    0  0.37682819006E+01  0.13366777230E+02 -0.41118758568E+02  0.47787274336E+02  0.20000015007E+02 0.  0.
         12    1    3    3    0    0 -0.37682819006E+01 -0.13366777230E+02  0.41118758568E+02  0.43400725664E+02  0.00000000000E+00 0. -1.
         11    1    4    4    0    0  0.68529076070E+01  0.38700539126E+01 -0.21442127765E+02  0.22840851632E+02  0.51100000000E-03 0.  1.
        -11    1    4    4    0    0 -0.43951157557E+00  0.16310972619E+01 -0.15617130914E+02  0.15708228001E+02  0.51100000000E-03 0. -1.
        -12    1    4    4    0    0 -0.26451141308E+01  0.78656260552E+01 -0.40594998899E+01  0.92381947025E+01  0.00000000000E+00 0.  1.
</event>
<event>
 8    1  0.2994958E-010  0.9118800E+02  0.7816164E-02  0.1184000E+00
        -11   -1    0    0    0    0  0.00000000000E+00  0.00000000000E+00  0.45593999997E+02  0.45594000000E+02  0.51100000000E-03 0. -1.
         11   -1    0    0    0    0 -0.00000000000E+00 -0.00000000000E+00 -0.45593999997E+02  0.45594000000E+02  0.51100000000E-03 0.  1.
         23    2    1    2    0    0  0.00000000000E+00 -0.35527136788E-14  0.00000000000E+00  0.91188000000E+02  0.91188000000E+02 0.  0.
    9900012    2    3    3    0    0  0.40599511177E+01 -0.27884762694E+02  0.33008794715E+02  0.47787265881E+02  0.19999976457E+02 0.  0.
        -12    1    3    3    0    0 -0.40599511177E+01  0.27884762694E+02 -0.33008794715E+02  0.43400734119E+02  0.00000000000E+00 0.  1.
         11    1    4    4    0    0  0.72132964218E+00 -0.10328471924E+02  0.27450918891E+01  0.10711357453E+02  0.51100000000E-03 0. -1.
        -11    1    4    4    0    0 -0.44373494852E+00 -0.48736384901E+01  0.10514284974E+01  0.50054725035E+01  0.51100000000E-03 0.  1.
        -12    1    4    4    0    0  0.37823564240E+01 -0.12682652279E+02  0.29212274328E+02  0.32070435924E+02  0.00000000000E+00 0.  1.
</event>
<event>
 8    1  0.2994958E-010  0.9118800E+02  0.7816164E-02  0.1184000E+00
        -11   -1    0    0    0    0  0.00000000000E+00  0.00000000000E+00  0.45593999997E+02  0.45594000000E+02  0.51100000000E-03 0. -1.
         11   -1    0    0    0    0 -0.00000000000E+00 -0.00000000000E+00 -0.45593999997E+02  0.45594000000E+02  0.51100000000E-03 0.  1.
         23    2    1    2    0    0  0.00000000000E+00  0.00000000000E+00  0.00000000000E+00  0.91188000000E+02  0.91188000000E+02 0.  0.
    9900012    2    3    3    0    0 -0.27811500542E+02 -0.26631124709E+02 -0.20023175740E+02  0.47787263458E+02  0.19999965411E+02 0.  0.
         12    1    3    3    0    0  0.27811500542E+02  0.26631124709E+02  0.20023175740E+02  0.43400736542E+02  0.00000000000E+00 0. -1.
         11    1    4    4    0    0 -0.96239538108E+01 -0.27336116515E+01 -0.69197106700E+01  0.12164518718E+02  0.51100000000E-03 0.  1.
        -11    1    4    4    0    0 -0.49393738711E+01 -0.20874766101E+01  0.22790102585E+01  0.58265650992E+01  0.51100000000E-03 0. -1.
        -12    1    4    4    0    0 -0.13248172860E+02 -0.21810036447E+02 -0.15382475329E+02  0.29796179641E+02  0.00000000000E+00 0.  1.
</event>
<event>
 8    1  0.2994958E-010  0.9118800E+02  0.7816164E-02  0.1184000E+00
        -11   -1    0    0    0    0  0.00000000000E+00  0.00000000000E+00  0.45593999997E+02  0.45594000000E+02  0.51100000000E-03 0. -1.
         11   -1    0    0    0    0 -0.00000000000E+00 -0.00000000000E+00 -0.45593999997E+02  0.45594000000E+02  0.51100000000E-03 0.  1.
         23    2    1    2    0    0  0.00000000000E+00 -0.71054273576E-14 -0.35527136788E-14  0.91188000000E+02  0.91188000000E+02 0.  0.
    9900012    2    3    3    0    0  0.97891316505E+01  0.32422403380E+02  0.27140078752E+02  0.47787271734E+02  0.20000003142E+02 0.  0.
        -12    1    3    3    0    0 -0.97891316505E+01 -0.32422403380E+02 -0.27140078752E+02  0.43400728266E+02  0.00000000000E+00 0.  1.
         11    1    4    4    0    0  0.46314671408E+01  0.12470943355E+02  0.14839465116E+02  0.19929491745E+02  0.51100000000E-03 0. -1.
        -11    1    4    4    0    0 -0.16810079497E+01 -0.13396619839E+01  0.28758543514E+01  0.35904067276E+01  0.51100000000E-03 0.  1.
         12    1    4    4    0    0  0.68386724594E+01  0.21291122009E+02  0.94247592842E+01  0.24267373261E+02  0.00000000000E+00 0. -1.
</event>
<event>
 8    1  0.2994958E-010  0.9118800E+02  0.7816164E-02  0.1184000E+00
        -11   -1    0    0    0    0  0.00000000000E+00  0.00000000000E+00  0.45593999997E+02  0.45594000000E+02  0.51100000000E-03 0. -1.
         11   -1    0    0    0    0 -0.00000000000E+00 -0.00000000000E+00 -0.45593999997E+02  0.45594000000E+02  0.51100000000E-03 0.  1.
         23    2    1    2    0    0  0.00000000000E+00  0.00000000000E+00  0.35527136788E-14  0.91188000000E+02  0.91188000000E+02 0.  0.
    9900012    2    3    3    0    0  0.21629782207E+02 -0.21031737002E+02  0.31200031508E+02  0.47787269525E+02  0.19999993071E+02 0.  0.
        -12    1    3    3    0    0 -0.21629782207E+02  0.21031737002E+02 -0.31200031508E+02  0.43400730475E+02  0.00000000000E+00 0.  1.
         11    1    4    4    0    0  0.13132300020E+02 -0.67226584328E+01  0.20834761664E+02  0.25529174176E+02  0.51100000000E-03 0. -1.
        -11    1    4    4    0    0  0.80451523101E+01 -0.34973459926E+01  0.57805328758E+01  0.10505734875E+02  0.51100000000E-03 0.  1.
        -12    1    4    4    0    0  0.45232987658E+00 -0.10811732577E+02  0.45847369686E+01  0.11752360474E+02  0.00000000000E+00 0.  1.
</event>
<event>
 8    1  0.2994958E-010  0.9118800E+02  0.7816164E-02  0.1184000E+00
        -11   -1    0    0    0    0  0.00000000000E+00  0.00000000000E+00  0.45593999997E+02  0.45594000000E+02  0.51100000000E-03 0. -1.
         11   -1    0    0    0    0 -0.00000000000E+00 -0.00000000000E+00 -0.45593999997E+02  0.45594000000E+02  0.51100000000E-03 0.  1.
         23    2    1    2    0    0 -0.35527136788E-14  0.00000000000E+00  0.00000000000E+00  0.91188000000E+02  0.91188000000E+02 0.  0.
    9900012    2    3    3    0    0 -0.26213781661E+02 -0.23960397108E+02 -0.24947130692E+02  0.47787282167E+02  0.20000050714E+02 0.  0.
         12    1    3    3    0    0  0.26213781661E+02  0.23960397108E+02  0.24947130692E+02  0.43400717833E+02  0.00000000000E+00 0. -1.
         11    1    4    4    0    0 -0.14789722284E+02 -0.85761862920E+01 -0.57131229332E+01  0.18025721358E+02  0.51100000000E-03 0. -1.
        -11    1    4    4    0    0  0.13017862660E+01 -0.77421275070E+01 -0.71950461059E+01  0.10649125530E+02  0.51100000000E-03 0.  1.
         12    1    4    4    0    0 -0.12725845644E+02 -0.76420833094E+01 -0.12038961653E+02  0.19112435280E+02  0.00000000000E+00 0. -1.
</event>
<event>
 8    1  0.2994958E-010  0.9118800E+02  0.7816164E-02  0.1184000E+00
        -11   -1    0    0    0    0  0.00000000000E+00  0.00000000000E+00  0.45593999997E+02  0.45594000000E+02  0.51100000000E-03 0. -1.
         11   -1    0    0    0    0 -0.00000000000E+00 -0.00000000000E+00 -0.45593999997E+02  0.45594000000E+02  0.51100000000E-03 0.  1.
         23    2    1    2    0    0  0.17763568394E-14 -0.44408920985E-15  0.00000000000E+00  0.91188000000E+02  0.91188000000E+02 0.  0.
    9900012    2    3    3    0    0  0.59946899558E+01 -0.33690780011E+01 -0.42852493737E+02  0.47787271737E+02  0.20000003159E+02 0.  0.
         12    1    3    3    0    0 -0.59946899558E+01  0.33690780011E+01  0.42852493737E+02  0.43400728263E+02  0.00000000000E+00 0. -1.
         11    1    4    4    0    0 -0.58084747243E+01  0.27305141819E+01 -0.72655047440E+01  0.96944131213E+01  0.51100000000E-03 0. -1.
        -11    1    4    4    0    0  0.22593716050E+01 -0.34180842838E+00 -0.41369320805E+01  0.47260766341E+01  0.51100000000E-03 0.  1.
        -12    1    4    4    0    0  0.95437930751E+01 -0.57577837546E+01 -0.31450056913E+02  0.33366781982E+02  0.00000000000E+00 0.  1.
</event>
<event>
 8    1  0.2994958E-010  0.9118800E+02  0.7816164E-02  0.1184000E+00
        -11   -1    0    0    0    0  0.00000000000E+00  0.00000000000E+00  0.45593999997E+02  0.45594000000E+02  0.51100000000E-03 0. -1.
         11   -1    0    0    0    0 -0.00000000000E+00 -0.00000000000E+00 -0.45593999997E+02  0.45594000000E+02  0.51100000000E-03 0.  1.
         23    2    1    2    0    0  0.00000000000E+00  0.00000000000E+00  0.71054273576E-14  0.91188000000E+02  0.91188000000E+02 0.  0.
    9900012    2    3    3    0    0  0.13087847173E+02 -0.19060428012E+02  0.36729151989E+02  0.47787282662E+02  0.20000052969E+02 0.  0.
        -12    1    3    3    0    0 -0.13087847173E+02  0.19060428012E+02 -0.36729151989E+02  0.43400717338E+02  0.00000000000E+00 0.  1.
         11    1    4    4    0    0  0.66614044419E-01  0.21519667239E+01  0.85231522857E+01  0.87908772804E+01  0.51100000000E-03 0. -1.
        -11    1    4    4    0    0  0.34974157791E+01 -0.36561921235E+01  0.85864364536E+00  0.51319515924E+01  0.51100000000E-03 0.  1.
        -12    1    4    4    0    0  0.95238173491E+01 -0.17556202613E+02  0.27347356058E+02  0.33864453789E+02  0.00000000000E+00 0.  1.
</event>
<event>
 8    1  0.2994958E-010  0.9118800E+02  0.7816164E-02  0.1184000E+00
        -11   -1    0    0    0    0  0.00000000000E+00  0.00000000000E+00  0.45593999997E+02  0.45594000000E+02  0.51100000000E-03 0. -1.
         11   -1    0    0    0    0 -0.00000000000E+00 -0.00000000000E+00 -0.45593999997E+02  0.45594000000E+02  0.51100000000E-03 0.  1.
         23    2    1    2    0    0 -0.35527136788E-14  0.35527136788E-14  0.35527136788E-14  0.91188000000E+02  0.91188000000E+02 0.  0.
    9900012    2    3    3    0    0 -0.22110785566E+02  0.29065700613E+02  0.23450406175E+02  0.47787270280E+02  0.19999996513E+02 0.  0.
        -12    1    3    3    0    0  0.22110785566E+02 -0.29065700613E+02 -0.23450406175E+02  0.43400729720E+02  0.00000000000E+00 0.  1.
         11    1    4    4    0    0 -0.50867577571E+01  0.24464968597E+01  0.31323956564E+01  0.64554127810E+01  0.51100000000E-03 0. -1.
        -11    1    4    4    0    0  0.15179539571E+01  0.10534166812E+02  0.23170359939E+01  0.10892268390E+02  0.51100000000E-03 0.  1.
        -12    1    4    4    0    0 -0.18541981766E+02  0.16085036942E+02  0.18000974524E+02  0.30439589108E+02  0.00000000000E+00 0.  1.
</event>
<event>
 8    1  0.2994958E-010  0.9118800E+02  0.7816164E-02  0.1184000E+00
        -11   -1    0    0    0    0  0.00000000000E+00  0.00000000000E+00  0.45593999997E+02  0.45594000000E+02  0.51100000000E-03 0. -1.
         11   -1    0    0    0    0 -0.00000000000E+00 -0.00000000000E+00 -0.45593999997E+02  0.45594000000E+02  0.51100000000E-03 0.  1.
         23    2    1    2    0    0  0.00000000000E+00  0.00000000000E+00 -0.71054273576E-14  0.91188000000E+02  0.91188000000E+02 0.  0.
    9900012    2    3    3    0    0 -0.14116953300E+02  0.12869871469E+02 -0.38970517952E+02  0.47787271532E+02  0.20000002224E+02 0.  0.
         12    1    3    3    0    0  0.14116953300E+02 -0.12869871469E+02  0.38970517952E+02  0.43400728468E+02  0.00000000000E+00 0. -1.
         11    1    4    4    0    0  0.81259596946E+00  0.49831342776E+01 -0.62223074826E+01  0.80130549797E+01  0.51100000000E-03 0. -1.
        -11    1    4    4    0    0 -0.70884826901E+01 -0.32447111542E+00 -0.25970439581E+01  0.75562229940E+01  0.51100000000E-03 0.  1.
        -12    1    4    4    0    0 -0.78410665791E+01  0.82112083067E+01 -0.30151166511E+02  0.32217993559E+02  0.00000000000E+00 0.  1.
</event>
<event>
 8    1  0.2994958E-010  0.9118800E+02  0.7816164E-02  0.1184000E+00
        -11   -1    0    0    0    0  0.00000000000E+00  0.00000000000E+00  0.45593999997E+02  0.45594000000E+02  0.51100000000E-03 0. -1.
         11   -1    0    0    0    0 -0.00000000000E+00 -0.00000000000E+00 -0.45593999997E+02  0.45594000000E+02  0.51100000000E-03 0.  1.
         23    2    1    2    0    0  0.00000000000E+00  0.00000000000E+00 -0.71054273576E-14  0.91188000000E+02  0.91188000000E+02 0.  0.
    9900012    2    3    3    0    0  0.10150211479E+01 -0.17912996416E+02  0.39518568767E+02  0.47787274362E+02  0.20000015124E+02 0.  0.
        -12    1    3    3    0    0 -0.10150211479E+01  0.17912996416E+02 -0.39518568767E+02  0.43400725638E+02  0.00000000000E+00 0.  1.
         11    1    4    4    0    0 -0.43568072115E+00 -0.11115446015E+01  0.36667749453E+01  0.38562401186E+01  0.51100000000E-03 0. -1.
        -11    1    4    4    0    0  0.15071803649E+01 -0.10160517433E+02  0.34197441983E+01  0.10826003778E+02  0.51100000000E-03 0.  1.
        -12    1    4    4    0    0 -0.56478495856E-01 -0.66409343808E+01  0.32432049624E+02  0.33105030465E+02  0.00000000000E+00 0.  1.
</event>
<event>
 8    1  0.2994958E-010  0.9118800E+02  0.7816164E-02  0.1184000E+00
        -11   -1    0    0    0    0  0.00000000000E+00  0.00000000000E+00  0.45593999997E+02  0.45594000000E+02  0.51100000000E-03 0.  1.
         11   -1    0    0    0    0 -0.00000000000E+00 -0.00000000000E+00 -0.45593999997E+02  0.45594000000E+02  0.51100000000E-03 0. -1.
         23    2    1    2    0    0  0.00000000000E+00 -0.71054273576E-14 -0.38857805862E-15  0.91188000000E+02  0.91188000000E+02 0.  0.
    9900012    2    3    3    0    0  0.15395086434E+02 -0.40577075124E+02 -0.34020350427E+00  0.47787269012E+02  0.19999990731E+02 0.  0.
        -12    1    3    3    0    0 -0.15395086434E+02  0.40577075124E+02  0.34020350427E+00  0.43400730988E+02  0.00000000000E+00 0.  1.
         11    1    4    4    0    0  0.59007701391E+01 -0.24566852636E+02  0.20796609551E+01  0.25351022201E+02  0.51100000000E-03 0. -1.
        -11    1    4    4    0    0  0.35016573590E+01 -0.14354005040E+02 -0.51488186327E+01  0.15646386117E+02  0.51100000000E-03 0.  1.
        -12    1    4    4    0    0  0.59926589359E+01 -0.16562174470E+01  0.27289541732E+01  0.67898606932E+01  0.00000000000E+00 0.  1.
</event>
<event>
 8    1  0.2994958E-010  0.9118800E+02  0.7816164E-02  0.1184000E+00
        -11   -1    0    0    0    0  0.00000000000E+00  0.00000000000E+00  0.45593999997E+02  0.45594000000E+02  0.51100000000E-03 0. -1.
         11   -1    0    0    0    0 -0.00000000000E+00 -0.00000000000E+00 -0.45593999997E+02  0.45594000000E+02  0.51100000000E-03 0.  1.
         23    2    1    2    0    0  0.00000000000E+00 -0.35527136788E-14  0.35527136788E-14  0.91188000000E+02  0.91188000000E+02 0.  0.
    9900012    2    3    3    0    0 -0.30381180874E+02  0.19177077710E+02 -0.24348448560E+02  0.47787269499E+02  0.19999992953E+02 0.  0.
         12    1    3    3    0    0  0.30381180874E+02 -0.19177077710E+02  0.24348448560E+02  0.43400730501E+02  0.00000000000E+00 0. -1.
         11    1    4    4    0    0 -0.16357147997E+02  0.64616186218E+01 -0.21225731697E+02  0.27565204373E+02  0.51100000000E-03 0. -1.
        -11    1    4    4    0    0 -0.89442705805E+01  0.50531168584E+01 -0.39174194211E+01  0.10994550531E+02  0.51100000000E-03 0.  1.
         12    1    4    4    0    0 -0.50797622965E+01  0.76623422299E+01  0.79470255837E+00  0.92275145946E+01  0.00000000000E+00 0. -1.
</event>
<event>
 8    1  0.2994958E-010  0.9118800E+02  0.7816164E-02  0.1184000E+00
        -11   -1    0    0    0    0  0.00000000000E+00  0.00000000000E+00  0.45593999997E+02  0.45594000000E+02  0.51100000000E-03 0. -1.
         11   -1    0    0    0    0 -0.00000000000E+00 -0.00000000000E+00 -0.45593999997E+02  0.45594000000E+02  0.51100000000E-03 0.  1.
         23    2    1    2    0    0  0.71054273576E-14  0.00000000000E+00  0.88817841970E-15  0.91188000000E+02  0.91188000000E+02 0.  0.
    9900012    2    3    3    0    0 -0.42093760615E+02 -0.89068211812E+01  0.56926554088E+01  0.47787280284E+02  0.20000042128E+02 0.  0.
        -12    1    3    3    0    0  0.42093760615E+02  0.89068211812E+01 -0.56926554088E+01  0.43400719716E+02  0.00000000000E+00 0.  1.
         11    1    4    4    0    0 -0.14980534324E+02 -0.21524408133E+01  0.86038336967E+01  0.17409059843E+02  0.51100000000E-03 0. -1.
        -11    1    4    4    0    0 -0.80414505837E+01  0.22867887167E+01  0.22344728338E+01  0.86537390318E+01  0.51100000000E-03 0.  1.
        -12    1    4    4    0    0 -0.19071775707E+02 -0.90411690846E+01 -0.51456511216E+01  0.21724481409E+02  0.00000000000E+00 0.  1.
</event>
<event>
 8    1  0.3540078E-010  0.9118800E+02  0.7816164E-02  0.1184000E+00
        -11   -1    0    0    0    0  0.00000000000E+00  0.00000000000E+00  0.45593999997E+02  0.45594000000E+02  0.51100000000E-03 0. -1.
         11   -1    0    0    0    0 -0.00000000000E+00 -0.00000000000E+00 -0.45593999997E+02  0.45594000000E+02  0.51100000000E-03 0.  1.
         23    2    1    2    0    0  0.00000000000E+00  0.00000000000E+00  0.00000000000E+00  0.91188000000E+02  0.91188000000E+02 0.  0.
    9900012    2    3    3    0    0  0.17038500255E+02  0.28797887036E+02  0.27640448313E+02  0.47787272222E+02  0.20000005371E+02 0.  0.
        -12    1    3    3    0    0 -0.17038500255E+02 -0.28797887036E+02 -0.27640448313E+02  0.43400727778E+02  0.00000000000E+00 0.  1.
         11    1    4    4    0    0  0.85558562131E+01  0.13926933072E+02  0.69236625890E+01  0.17751035019E+02  0.51100000000E-03 0. -1.
        -11    1    4    4    0    0 -0.28197145046E+01  0.36925125564E+01  0.10769785539E+01  0.47692055872E+01  0.51100000000E-03 0.  1.
         12    1    4    4    0    0  0.11302358546E+02  0.11178441408E+02  0.19639807171E+02  0.25267031617E+02  0.00000000000E+00 0. -1.
</event>
<event>
 8    1  0.2994958E-010  0.9118800E+02  0.7816164E-02  0.1184000E+00
        -11   -1    0    0    0    0  0.00000000000E+00  0.00000000000E+00  0.45593999997E+02  0.45594000000E+02  0.51100000000E-03 0. -1.
         11   -1    0    0    0    0 -0.00000000000E+00 -0.00000000000E+00 -0.45593999997E+02  0.45594000000E+02  0.51100000000E-03 0.  1.
         23    2    1    2    0    0  0.00000000000E+00  0.00000000000E+00  0.00000000000E+00  0.91188000000E+02  0.91188000000E+02 0.  0.
    9900012    2    3    3    0    0 -0.10788384694E+02 -0.13685646753E+02  0.39748421514E+02  0.47787272077E+02  0.20000004708E+02 0.  0.
        -12    1    3    3    0    0  0.10788384694E+02  0.13685646753E+02 -0.39748421514E+02  0.43400727923E+02  0.00000000000E+00 0.  1.
         11    1    4    4    0    0 -0.75519566588E+01  0.88487324551E+00  0.19788117093E+02  0.21198694026E+02  0.51100000000E-03 0. -1.
        -11    1    4    4    0    0 -0.52352586623E+01 -0.47323919942E+01  0.11338317752E+02  0.13355183149E+02  0.51100000000E-03 0.  1.
        -12    1    4    4    0    0  0.19988306272E+01 -0.98381280047E+01  0.86219866695E+01  0.13233394902E+02  0.00000000000E+00 0.  1.
</event>
<event>
 8    1  0.2994958E-010  0.9118800E+02  0.7816164E-02  0.1184000E+00
        -11   -1    0    0    0    0  0.00000000000E+00  0.00000000000E+00  0.45593999997E+02  0.45594000000E+02  0.51100000000E-03 0. -1.
         11   -1    0    0    0    0 -0.00000000000E+00 -0.00000000000E+00 -0.45593999997E+02  0.45594000000E+02  0.51100000000E-03 0.  1.
         23    2    1    2    0    0  0.17763568394E-14  0.00000000000E+00  0.00000000000E+00  0.91188000000E+02  0.91188000000E+02 0.  0.
    9900012    2    3    3    0    0 -0.14937561070E+02 -0.17831668071E+02  0.36640472148E+02  0.47787270558E+02  0.19999997780E+02 0.  0.
        -12    1    3    3    0    0  0.14937561070E+02  0.17831668071E+02 -0.36640472148E+02  0.43400729442E+02  0.00000000000E+00 0.  1.
         11    1    4    4    0    0  0.75696869448E+00 -0.10307762827E+02  0.19550485305E+02  0.22114349459E+02  0.51100000000E-03 0. -1.
        -11    1    4    4    0    0 -0.17365916259E+01  0.63328875788E+00  0.54412006064E+01  0.57466050348E+01  0.51100000000E-03 0.  1.
        -12    1    4    4    0    0 -0.13957938139E+02 -0.81571940020E+01  0.11648786237E+02  0.19926316064E+02  0.00000000000E+00 0.  1.
</event>
<event>
 8    1  0.2994958E-010  0.9118800E+02  0.7816164E-02  0.1184000E+00
        -11   -1    0    0    0    0  0.00000000000E+00  0.00000000000E+00  0.45593999997E+02  0.45594000000E+02  0.51100000000E-03 0. -1.
         11   -1    0    0    0    0 -0.00000000000E+00 -0.00000000000E+00 -0.45593999997E+02  0.45594000000E+02  0.51100000000E-03 0.  1.
         23    2    1    2    0    0  0.00000000000E+00 -0.35527136788E-14  0.00000000000E+00  0.91188000000E+02  0.91188000000E+02 0.  0.
    9900012    2    3    3    0    0  0.25043087091E+02  0.25997222542E+02 -0.24095880301E+02  0.47787271453E+02  0.20000001861E+02 0.  0.
         12    1    3    3    0    0 -0.25043087091E+02 -0.25997222542E+02  0.24095880301E+02  0.43400728547E+02  0.00000000000E+00 0. -1.
         11    1    4    4    0    0 -0.47093799755E+00  0.14167470741E+01 -0.34648482711E+01  0.37728144233E+01  0.51100000000E-03 0. -1.
        -11    1    4    4    0    0  0.21344454246E+02  0.19772346324E+02 -0.23138367864E+02  0.37174123714E+02  0.51100000000E-03 0.  1.
         12    1    4    4    0    0  0.41695708431E+01  0.48081291439E+01  0.25073358346E+01  0.68403333156E+01  0.00000000000E+00 0. -1.
</event>
<event>
 8    1  0.2994958E-010  0.9118800E+02  0.7816164E-02  0.1184000E+00
        -11   -1    0    0    0    0  0.00000000000E+00  0.00000000000E+00  0.45593999997E+02  0.45594000000E+02  0.51100000000E-03 0. -1.
         11   -1    0    0    0    0 -0.00000000000E+00 -0.00000000000E+00 -0.45593999997E+02  0.45594000000E+02  0.51100000000E-03 0.  1.
         23    2    1    2    0    0 -0.35527136788E-14  0.88817841970E-15  0.00000000000E+00  0.91188000000E+02  0.91188000000E+02 0.  0.
    9900012    2    3    3    0    0 -0.26184212363E+02  0.70246437583E+01 -0.33891946346E+02  0.47787278529E+02  0.20000034127E+02 0.  0.
         12    1    3    3    0    0  0.26184212363E+02 -0.70246437583E+01  0.33891946346E+02  0.43400721471E+02  0.00000000000E+00 0. -1.
         11    1    4    4    0    0 -0.39106334629E+01  0.38870947311E+00 -0.12771160755E+00  0.39319791011E+01  0.51100000000E-03 0. -1.
        -11    1    4    4    0    0 -0.93848699560E+01  0.22008549585E+01 -0.28222571468E+01  0.10044136713E+02  0.51100000000E-03 0.  1.
        -12    1    4    4    0    0 -0.12888708945E+02  0.44350793267E+01 -0.30941977592E+02  0.33811162716E+02  0.00000000000E+00 0.  1.
</event>
<event>
 8    1  0.2994958E-010  0.9118800E+02  0.7816164E-02  0.1184000E+00
        -11   -1    0    0    0    0  0.00000000000E+00  0.00000000000E+00  0.45593999997E+02  0.45594000000E+02  0.51100000000E-03 0. -1.
         11   -1    0    0    0    0 -0.00000000000E+00 -0.00000000000E+00 -0.45593999997E+02  0.45594000000E+02  0.51100000000E-03 0.  1.
         23    2    1    2    0    0  0.00000000000E+00  0.00000000000E+00 -0.71054273576E-14  0.91188000000E+02  0.91188000000E+02 0.  0.
    9900012    2    3    3    0    0 -0.21071404356E+02  0.24070210788E+02 -0.29329915184E+02  0.47787273582E+02  0.20000011569E+02 0.  0.
         12    1    3    3    0    0  0.21071404356E+02 -0.24070210788E+02  0.29329915184E+02  0.43400726418E+02  0.00000000000E+00 0. -1.
         11    1    4    4    0    0 -0.11389653885E+01  0.56841518682E+01  0.17017339580E+01  0.60417483680E+01  0.51100000000E-03 0. -1.
        -11    1    4    4    0    0 -0.57703181238E+01  0.36114115926E+01 -0.41969089264E+01  0.79970563171E+01  0.51100000000E-03 0.  1.
         12    1    4    4    0    0 -0.14162120844E+02  0.14774647327E+02 -0.26834740216E+02  0.33748468897E+02  0.00000000000E+00 0. -1.
</event>
<event>
 8    1  0.2994958E-010  0.9118800E+02  0.7816164E-02  0.1184000E+00
        -11   -1    0    0    0    0  0.00000000000E+00  0.00000000000E+00  0.45593999997E+02  0.45594000000E+02  0.51100000000E-03 0. -1.
         11   -1    0    0    0    0 -0.00000000000E+00 -0.00000000000E+00 -0.45593999997E+02  0.45594000000E+02  0.51100000000E-03 0.  1.
         23    2    1    2    0    0  0.00000000000E+00  0.00000000000E+00  0.00000000000E+00  0.91188000000E+02  0.91188000000E+02 0.  0.
    9900012    2    3    3    0    0  0.21344801925E+02 -0.25759885720E+02  0.27648707128E+02  0.47787270889E+02  0.19999999292E+02 0.  0.
        -12    1    3    3    0    0 -0.21344801925E+02  0.25759885720E+02 -0.27648707128E+02  0.43400729111E+02  0.00000000000E+00 0.  1.
         11    1    4    4    0    0  0.14605115140E+02 -0.15724480358E+02  0.14394031913E+02  0.25840991192E+02  0.51100000000E-03 0. -1.
        -11    1    4    4    0    0  0.68493837604E+01 -0.72981267360E+01  0.15468430989E+02  0.18424143651E+02  0.51100000000E-03 0.  1.
        -12    1    4    4    0    0 -0.10969697589E+00 -0.27372786263E+01 -0.22137557741E+01  0.35221360468E+01  0.00000000000E+00 0.  1.
</event>
<event>
 8    1  0.2994958E-010  0.9118800E+02  0.7816164E-02  0.1184000E+00
        -11   -1    0    0    0    0  0.00000000000E+00  0.00000000000E+00  0.45593999997E+02  0.45594000000E+02  0.51100000000E-03 0. -1.
         11   -1    0    0    0    0 -0.00000000000E+00 -0.00000000000E+00 -0.45593999997E+02  0.45594000000E+02  0.51100000000E-03 0.  1.
         23    2    1    2    0    0 -0.17763568394E-14  0.00000000000E+00  0.00000000000E+00  0.91188000000E+02  0.91188000000E+02 0.  0.
    9900012    2    3    3    0    0  0.14523342080E+02  0.37381570012E+02 -0.16592590040E+02  0.47787270905E+02  0.19999999364E+02 0.  0.
         12    1    3    3    0    0 -0.14523342080E+02 -0.37381570012E+02  0.16592590040E+02  0.43400729095E+02  0.00000000000E+00 0. -1.
         11    1    4    4    0    0  0.12888231697E+02  0.18604155108E+02 -0.16141530530E+01  0.22689790521E+02  0.51100000000E-03 0. -1.
        -11    1    4    4    0    0  0.17064382411E+01  0.39571282249E+00 -0.14505594537E+01  0.22743445426E+01  0.51100000000E-03 0.  1.
        -12    1    4    4    0    0 -0.71327857523E-01  0.18381702082E+02 -0.13527877533E+02  0.22823135842E+02  0.00000000000E+00 0.  1.
</event>
<event>
 8    1  0.2994958E-010  0.9118800E+02  0.7816164E-02  0.1184000E+00
        -11   -1    0    0    0    0  0.00000000000E+00  0.00000000000E+00  0.45593999997E+02  0.45594000000E+02  0.51100000000E-03 0. -1.
         11   -1    0    0    0    0 -0.00000000000E+00 -0.00000000000E+00 -0.45593999997E+02  0.45594000000E+02  0.51100000000E-03 0.  1.
         23    2    1    2    0    0  0.00000000000E+00 -0.17763568394E-14  0.00000000000E+00  0.91188000000E+02  0.91188000000E+02 0.  0.
    9900012    2    3    3    0    0 -0.93253226655E+01  0.14487496010E+02 -0.39834329602E+02  0.47787274219E+02  0.20000014476E+02 0.  0.
         12    1    3    3    0    0  0.93253226655E+01 -0.14487496010E+02  0.39834329602E+02  0.43400725781E+02  0.00000000000E+00 0. -1.
         11    1    4    4    0    0  0.26785118743E+01 -0.61837499717E+00 -0.46226439632E+01  0.53782572428E+01  0.51100000000E-03 0. -1.
        -11    1    4    4    0    0  0.39237572775E+00 -0.22585789752E+01 -0.30908977558E+01  0.38482186654E+01  0.51100000000E-03 0.  1.
         12    1    4    4    0    0 -0.12396210268E+02  0.17364449982E+02 -0.32120787883E+02  0.38560798311E+02  0.00000000000E+00 0. -1.
</event>
<event>
 8    1  0.2994958E-010  0.9118800E+02  0.7816164E-02  0.1184000E+00
        -11   -1    0    0    0    0  0.00000000000E+00  0.00000000000E+00  0.45593999997E+02  0.45594000000E+02  0.51100000000E-03 0. -1.
         11   -1    0    0    0    0 -0.00000000000E+00 -0.00000000000E+00 -0.45593999997E+02  0.45594000000E+02  0.51100000000E-03 0.  1.
         23    2    1    2    0    0  0.00000000000E+00 -0.17763568394E-14  0.00000000000E+00  0.91188000000E+02  0.91188000000E+02 0.  0.
    9900012    2    3    3    0    0  0.38927046337E+02 -0.49115146262E+01  0.18552232829E+02  0.47787271258E+02  0.20000000972E+02 0.  0.
        -12    1    3    3    0    0 -0.38927046337E+02  0.49115146262E+01 -0.18552232829E+02  0.43400728742E+02  0.00000000000E+00 0.  1.
         11    1    4    4    0    0  0.86066547641E+01  0.37942839690E+01 -0.19816928572E+01  0.96123984472E+01  0.51100000000E-03 0. -1.
        -11    1    4    4    0    0 -0.11555086366E+00 -0.51608041624E+00 -0.48520572665E-01  0.53107956580E+00  0.51100000000E-03 0.  1.
         12    1    4    4    0    0  0.30435942436E+02 -0.81897181790E+01  0.20582446259E+02  0.37643793245E+02  0.00000000000E+00 0. -1.
</event>
<event>
 8    1  0.2994958E-010  0.9118800E+02  0.7816164E-02  0.1184000E+00
        -11   -1    0    0    0    0  0.00000000000E+00  0.00000000000E+00  0.45593999997E+02  0.45594000000E+02  0.51100000000E-03 0. -1.
         11   -1    0    0    0    0 -0.00000000000E+00 -0.00000000000E+00 -0.45593999997E+02  0.45594000000E+02  0.51100000000E-03 0.  1.
         23    2    1    2    0    0 -0.71054273576E-14  0.17763568394E-14  0.00000000000E+00  0.91188000000E+02  0.91188000000E+02 0.  0.
    9900012    2    3    3    0    0 -0.29443221950E+02  0.11892783938E+02 -0.29585158888E+02  0.47787271262E+02  0.20000000992E+02 0.  0.
         12    1    3    3    0    0  0.29443221950E+02 -0.11892783938E+02  0.29585158888E+02  0.43400728738E+02  0.00000000000E+00 0. -1.
         11    1    4    4    0    0 -0.58051572154E+00 -0.11021071376E+01 -0.42123331871E+01  0.43926517943E+01  0.51100000000E-03 0. -1.
        -11    1    4    4    0    0 -0.84173293316E+01 -0.16803486324E+01 -0.12399692711E+02  0.15080695746E+02  0.51100000000E-03 0.  1.
        -12    1    4    4    0    0 -0.20445376897E+02  0.14675239708E+02 -0.12973132989E+02  0.28313923721E+02  0.00000000000E+00 0.  1.
</event>
<event>
 8    1  0.2994958E-010  0.9118800E+02  0.7816164E-02  0.1184000E+00
        -11   -1    0    0    0    0  0.00000000000E+00  0.00000000000E+00  0.45593999997E+02  0.45594000000E+02  0.51100000000E-03 0. -1.
         11   -1    0    0    0    0 -0.00000000000E+00 -0.00000000000E+00 -0.45593999997E+02  0.45594000000E+02  0.51100000000E-03 0.  1.
         23    2    1    2    0    0  0.00000000000E+00  0.17763568394E-14  0.00000000000E+00  0.91188000000E+02  0.91188000000E+02 0.  0.
    9900012    2    3    3    0    0  0.29598608091E+02 -0.86799056781E+01  0.30532047427E+02  0.47787259411E+02  0.19999946960E+02 0.  0.
        -12    1    3    3    0    0 -0.29598608091E+02  0.86799056781E+01 -0.30532047427E+02  0.43400740589E+02  0.00000000000E+00 0.  1.
         11    1    4    4    0    0  0.25746299763E+01 -0.40263460288E+01  0.42346780701E+01  0.63853488923E+01  0.51100000000E-03 0.  1.
        -11    1    4    4    0    0  0.14274794322E+02 -0.49001167741E+01  0.24139253912E+02  0.28469009063E+02  0.51100000000E-03 0. -1.
         12    1    4    4    0    0  0.12749183793E+02  0.24655712479E+00  0.21581154455E+01  0.12932901456E+02  0.00000000000E+00 0. -1.
</event>
<event>
 8    1  0.2994958E-010  0.9118800E+02  0.7816164E-02  0.1184000E+00
        -11   -1    0    0    0    0  0.00000000000E+00  0.00000000000E+00  0.45593999997E+02  0.45594000000E+02  0.51100000000E-03 0. -1.
         11   -1    0    0    0    0 -0.00000000000E+00 -0.00000000000E+00 -0.45593999997E+02  0.45594000000E+02  0.51100000000E-03 0.  1.
         23    2    1    2    0    0  0.00000000000E+00 -0.88817841970E-15  0.00000000000E+00  0.91188000000E+02  0.91188000000E+02 0.  0.
    9900012    2    3    3    0    0 -0.10999374202E+02  0.77769108099E+01  0.41257167485E+02  0.47787303653E+02  0.20000148673E+02 0.  0.
        -12    1    3    3    0    0  0.10999374202E+02 -0.77769108099E+01 -0.41257167485E+02  0.43400696347E+02  0.00000000000E+00 0.  1.
         11    1    4    4    0    0 -0.51923434552E+01 -0.22311402153E+01  0.20186216882E+02  0.20962389403E+02  0.51100000000E-03 0. -1.
        -11    1    4    4    0    0 -0.57767595833E+01  0.62824979959E-01  0.38626725209E+01  0.69494703055E+01  0.51100000000E-03 0.  1.
         12    1    4    4    0    0 -0.30271163845E-01  0.99452260452E+01  0.17208278082E+02  0.19875443944E+02  0.00000000000E+00 0. -1.
</event>
<event>
 8    1  0.2994958E-010  0.9118800E+02  0.7816164E-02  0.1184000E+00
        -11   -1    0    0    0    0  0.00000000000E+00  0.00000000000E+00  0.45593999997E+02  0.45594000000E+02  0.51100000000E-03 0. -1.
         11   -1    0    0    0    0 -0.00000000000E+00 -0.00000000000E+00 -0.45593999997E+02  0.45594000000E+02  0.51100000000E-03 0.  1.
         23    2    1    2    0    0  0.00000000000E+00  0.00000000000E+00  0.71054273576E-14  0.91188000000E+02  0.91188000000E+02 0.  0.
    9900012    2    3    3    0    0 -0.10802987816E+02  0.24752310482E+02 -0.33974137949E+02  0.47787268793E+02  0.19999989733E+02 0.  0.
         12    1    3    3    0    0  0.10802987816E+02 -0.24752310482E+02  0.33974137949E+02  0.43400731207E+02  0.00000000000E+00 0. -1.
         11    1    4    4    0    0  0.10198202462E+01  0.68087053065E+01 -0.59217743519E+01  0.90810744420E+01  0.51100000000E-03 0. -1.
        -11    1    4    4    0    0 -0.18937097396E+01 -0.22611084851E+01 -0.81150000078E+01  0.86343484727E+01  0.51100000000E-03 0.  1.
        -12    1    4    4    0    0 -0.99290983227E+01  0.20204713660E+02 -0.19937363590E+02  0.30071845878E+02  0.00000000000E+00 0.  1.
</event>
<event>
 8    1  0.2994958E-010  0.9118800E+02  0.7816164E-02  0.1184000E+00
        -11   -1    0    0    0    0  0.00000000000E+00  0.00000000000E+00  0.45593999997E+02  0.45594000000E+02  0.51100000000E-03 0. -1.
         11   -1    0    0    0    0 -0.00000000000E+00 -0.00000000000E+00 -0.45593999997E+02  0.45594000000E+02  0.51100000000E-03 0.  1.
         23    2    1    2    0    0  0.00000000000E+00  0.35527136788E-14  0.00000000000E+00  0.91188000000E+02  0.91188000000E+02 0.  0.
    9900012    2    3    3    0    0 -0.61320450448E+01  0.23927673221E+02 -0.35685963135E+02  0.47787268589E+02  0.19999988803E+02 0.  0.
         12    1    3    3    0    0  0.61320450448E+01 -0.23927673221E+02  0.35685963135E+02  0.43400731411E+02  0.00000000000E+00 0. -1.
         11    1    4    4    0    0 -0.14562925231E+01  0.22890809155E+01 -0.13130014054E+02  0.13407384110E+02  0.51100000000E-03 0. -1.
        -11    1    4    4    0    0 -0.39801053849E+01  0.11039876225E+02 -0.20410634024E+02  0.23543875795E+02  0.51100000000E-03 0.  1.
         12    1    4    4    0    0 -0.69564713678E+00  0.10598716081E+02 -0.21453150565E+01  0.10836008683E+02  0.00000000000E+00 0. -1.
</event>
<event>
 8    1  0.2994958E-010  0.9118800E+02  0.7816164E-02  0.1184000E+00
        -11   -1    0    0    0    0  0.00000000000E+00  0.00000000000E+00  0.45593999997E+02  0.45594000000E+02  0.51100000000E-03 0. -1.
         11   -1    0    0    0    0 -0.00000000000E+00 -0.00000000000E+00 -0.45593999997E+02  0.45594000000E+02  0.51100000000E-03 0.  1.
         23    2    1    2    0    0  0.00000000000E+00  0.00000000000E+00  0.35527136788E-14  0.91188000000E+02  0.91188000000E+02 0.  0.
    9900012    2    3    3    0    0  0.32190410629E+02  0.13363754515E+02 -0.25861375873E+02  0.47787271513E+02  0.20000002134E+02 0.  0.
         12    1    3    3    0    0 -0.32190410629E+02 -0.13363754515E+02  0.25861375873E+02  0.43400728487E+02  0.00000000000E+00 0. -1.
         11    1    4    4    0    0  0.36048537958E+01 -0.21830778236E+00 -0.93892996858E+01  0.10059899504E+02  0.51100000000E-03 0. -1.
        -11    1    4    4    0    0  0.78357075707E+01  0.73519721200E+01 -0.11010862762E+02  0.15384697144E+02  0.51100000000E-03 0.  1.
         12    1    4    4    0    0  0.20749849263E+02  0.62300901775E+01 -0.54612134250E+01  0.22342674865E+02  0.00000000000E+00 0. -1.
</event>
<event>
 8    1  0.2994958E-010  0.9118800E+02  0.7816164E-02  0.1184000E+00
        -11   -1    0    0    0    0  0.00000000000E+00  0.00000000000E+00  0.45593999997E+02  0.45594000000E+02  0.51100000000E-03 0. -1.
         11   -1    0    0    0    0 -0.00000000000E+00 -0.00000000000E+00 -0.45593999997E+02  0.45594000000E+02  0.51100000000E-03 0.  1.
         23    2    1    2    0    0  0.00000000000E+00  0.00000000000E+00  0.00000000000E+00  0.91188000000E+02  0.91188000000E+02 0.  0.
    9900012    2    3    3    0    0  0.24001704605E+02 -0.35044176200E+01 -0.35989726899E+02  0.47787271791E+02  0.20000003403E+02 0.  0.
         12    1    3    3    0    0 -0.24001704605E+02  0.35044176200E+01  0.35989726899E+02  0.43400728209E+02  0.00000000000E+00 0. -1.
         11    1    4    4    0    0 -0.45036952308E+00  0.31132820115E+00 -0.41077179851E+01  0.41440445536E+01  0.51100000000E-03 0. -1.
        -11    1    4    4    0    0  0.14777915621E+02 -0.53623706281E-01 -0.63549395884E+01  0.16086482618E+02  0.51100000000E-03 0.  1.
        -12    1    4    4    0    0  0.96741585071E+01 -0.37621221149E+01 -0.25527069326E+02  0.27556744619E+02  0.00000000000E+00 0.  1.
</event>
<event>
 8    1  0.3657251E-010  0.9118800E+02  0.7816164E-02  0.1184000E+00
        -11   -1    0    0    0    0  0.00000000000E+00  0.00000000000E+00  0.45593999997E+02  0.45594000000E+02  0.51100000000E-03 0. -1.
         11   -1    0    0    0    0 -0.00000000000E+00 -0.00000000000E+00 -0.45593999997E+02  0.45594000000E+02  0.51100000000E-03 0.  1.
         23    2    1    2    0    0  0.88817841970E-15 -0.35527136788E-14  0.00000000000E+00  0.91188000000E+02  0.91188000000E+02 0.  0.
    9900012    2    3    3    0    0 -0.56423675515E+01 -0.25811820829E+02  0.34431627167E+02  0.47787270104E+02  0.19999995714E+02 0.  0.
        -12    1    3    3    0    0  0.56423675515E+01  0.25811820829E+02 -0.34431627167E+02  0.43400729896E+02  0.00000000000E+00 0.  1.
         11    1    4    4    0    0 -0.47294393362E+00 -0.53312763855E+01 -0.89193015572E-01  0.53529561476E+01  0.51100000000E-03 0. -1.
        -11    1    4    4    0    0  0.31097126040E+01 -0.48897445272E+01  0.35785876264E+01  0.68107417865E+01  0.51100000000E-03 0.  1.
         12    1    4    4    0    0 -0.82791362218E+01 -0.15590799917E+02  0.30942232556E+02  0.35623572170E+02  0.00000000000E+00 0. -1.
</event>
<event>
 8    1  0.2994958E-010  0.9118800E+02  0.7816164E-02  0.1184000E+00
        -11   -1    0    0    0    0  0.00000000000E+00  0.00000000000E+00  0.45593999997E+02  0.45594000000E+02  0.51100000000E-03 0. -1.
         11   -1    0    0    0    0 -0.00000000000E+00 -0.00000000000E+00 -0.45593999997E+02  0.45594000000E+02  0.51100000000E-03 0.  1.
         23    2    1    2    0    0 -0.17763568394E-14  0.00000000000E+00  0.00000000000E+00  0.91188000000E+02  0.91188000000E+02 0.  0.
    9900012    2    3    3    0    0 -0.91547319555E+01 -0.60287836376E+01  0.41993662811E+02  0.47787273444E+02  0.20000010940E+02 0.  0.
        -12    1    3    3    0    0  0.91547319555E+01  0.60287836376E+01 -0.41993662811E+02  0.43400726556E+02  0.00000000000E+00 0.  1.
         11    1    4    4    0    0 -0.41754718421E+01  0.53249051502E+01  0.11617889659E+02  0.13444870410E+02  0.51100000000E-03 0. -1.
        -11    1    4    4    0    0 -0.41802766781E+01 -0.35850140104E+00  0.41847622286E+01  0.59258308726E+01  0.51100000000E-03 0.  1.
         12    1    4    4    0    0 -0.79898343528E+00 -0.10995187387E+02  0.26191010923E+02  0.28416572161E+02  0.00000000000E+00 0. -1.
</event>
<event>
 8    1  0.2994958E-010  0.9118800E+02  0.7816164E-02  0.1184000E+00
        -11   -1    0    0    0    0  0.00000000000E+00  0.00000000000E+00  0.45593999997E+02  0.45594000000E+02  0.51100000000E-03 0. -1.
         11   -1    0    0    0    0 -0.00000000000E+00 -0.00000000000E+00 -0.45593999997E+02  0.45594000000E+02  0.51100000000E-03 0.  1.
         23    2    1    2    0    0  0.00000000000E+00  0.00000000000E+00 -0.35527136788E-14  0.91188000000E+02  0.91188000000E+02 0.  0.
    9900012    2    3    3    0    0 -0.16750326186E+02  0.25528900248E+02 -0.30843476249E+02  0.47787329472E+02  0.20000266392E+02 0.  0.
         12    1    3    3    0    0  0.16750326186E+02 -0.25528900248E+02  0.30843476249E+02  0.43400670528E+02  0.00000000000E+00 0. -1.
         11    1    4    4    0    0 -0.80181737483E+00  0.41083851883E+01  0.83024321698E+00  0.42674399841E+01  0.51100000000E-03 0. -1.
        -11    1    4    4    0    0 -0.35374529338E+01  0.15834876183E+02 -0.16654890407E+02  0.23251715028E+02  0.51100000000E-03 0.  1.
        -12    1    4    4    0    0 -0.12411055877E+02  0.55856388765E+01 -0.15018829059E+02  0.20268174460E+02  0.00000000000E+00 0.  1.
</event>
<event>
 8    1  0.2994958E-010  0.9118800E+02  0.7816164E-02  0.1184000E+00
        -11   -1    0    0    0    0  0.00000000000E+00  0.00000000000E+00  0.45593999997E+02  0.45594000000E+02  0.51100000000E-03 0.  1.
         11   -1    0    0    0    0 -0.00000000000E+00 -0.00000000000E+00 -0.45593999997E+02  0.45594000000E+02  0.51100000000E-03 0. -1.
         23    2    1    2    0    0 -0.33306690739E-15  0.71054273576E-14  0.00000000000E+00  0.91188000000E+02  0.91188000000E+02 0.  0.
    9900012    2    3    3    0    0  0.53017750514E+00 -0.36868148118E+02  0.22892852720E+02  0.47787261072E+02  0.19999954533E+02 0.  0.
        -12    1    3    3    0    0 -0.53017750514E+00  0.36868148118E+02 -0.22892852720E+02  0.43400738928E+02  0.00000000000E+00 0.  1.
         11    1    4    4    0    0  0.38689448212E+01 -0.31061382163E+02  0.20502104506E+02  0.37418103711E+02  0.51100000000E-03 0. -1.
        -11    1    4    4    0    0  0.56608861010E+00 -0.56552814716E+01 -0.18892676629E+00  0.56866825498E+01  0.51100000000E-03 0.  1.
        -12    1    4    4    0    0 -0.39048559262E+01 -0.15148448295E+00  0.25796749809E+01  0.46824748114E+01  0.00000000000E+00 0.  1.
</event>
<event>
 8    1  0.2994958E-010  0.9118800E+02  0.7816164E-02  0.1184000E+00
        -11   -1    0    0    0    0  0.00000000000E+00  0.00000000000E+00  0.45593999997E+02  0.45594000000E+02  0.51100000000E-03 0. -1.
         11   -1    0    0    0    0 -0.00000000000E+00 -0.00000000000E+00 -0.45593999997E+02  0.45594000000E+02  0.51100000000E-03 0.  1.
         23    2    1    2    0    0  0.00000000000E+00  0.00000000000E+00 -0.17763568394E-14  0.91188000000E+02  0.91188000000E+02 0.  0.
    9900012    2    3    3    0    0 -0.26156995103E+02 -0.31303172732E+02  0.14817093399E+02  0.47787271058E+02  0.20000000062E+02 0.  0.
        -12    1    3    3    0    0  0.26156995103E+02  0.31303172732E+02 -0.14817093399E+02  0.43400728942E+02  0.00000000000E+00 0.  1.
         11    1    4    4    0    0 -0.56643438557E+01 -0.70246123633E+01  0.83545021321E+01  0.12297466256E+02  0.51100000000E-03 0. -1.
        -11    1    4    4    0    0 -0.12142877588E+02 -0.37208650653E+01  0.19968824337E+01  0.12856198998E+02  0.51100000000E-03 0.  1.
         12    1    4    4    0    0 -0.83497736589E+01 -0.20557695303E+02  0.44657088330E+01  0.22633605805E+02  0.00000000000E+00 0. -1.
</event>
<event>
 8    1  0.2994958E-010  0.9118800E+02  0.7816164E-02  0.1184000E+00
        -11   -1    0    0    0    0  0.00000000000E+00  0.00000000000E+00  0.45593999997E+02  0.45594000000E+02  0.51100000000E-03 0. -1.
         11   -1    0    0    0    0 -0.00000000000E+00 -0.00000000000E+00 -0.45593999997E+02  0.45594000000E+02  0.51100000000E-03 0.  1.
         23    2    1    2    0    0  0.00000000000E+00 -0.35527136788E-14  0.00000000000E+00  0.91188000000E+02  0.91188000000E+02 0.  0.
    9900012    2    3    3    0    0  0.37105303510E+02  0.19311032609E+02  0.11571510939E+02  0.47787315738E+02  0.20000203775E+02 0.  0.
        -12    1    3    3    0    0 -0.37105303510E+02 -0.19311032609E+02 -0.11571510939E+02  0.43400684262E+02  0.00000000000E+00 0.  1.
         11    1    4    4    0    0  0.84630034486E+01  0.41734914221E+01  0.78426108594E+01  0.12269759711E+02  0.51100000000E-03 0. -1.
        -11    1    4    4    0    0  0.17575933852E+02  0.15234824601E+02  0.64176667677E+01  0.24128816349E+02  0.51100000000E-03 0.  1.
        -12    1    4    4    0    0  0.11066366210E+02 -0.97283414169E-01 -0.26887666885E+01  0.11388739678E+02  0.00000000000E+00 0.  1.
</event>
<event>
 8    1  0.2994958E-010  0.9118800E+02  0.7816164E-02  0.1184000E+00
        -11   -1    0    0    0    0  0.00000000000E+00  0.00000000000E+00  0.45593999997E+02  0.45594000000E+02  0.51100000000E-03 0. -1.
         11   -1    0    0    0    0 -0.00000000000E+00 -0.00000000000E+00 -0.45593999997E+02  0.45594000000E+02  0.51100000000E-03 0.  1.
         23    2    1    2    0    0  0.00000000000E+00  0.00000000000E+00  0.00000000000E+00  0.91188000000E+02  0.91188000000E+02 0.  0.
    9900012    2    3    3    0    0 -0.70528640458E+01 -0.24540267945E+02  0.35094962324E+02  0.47787262418E+02  0.19999960670E+02 0.  0.
        -12    1    3    3    0    0  0.70528640458E+01  0.24540267945E+02 -0.35094962324E+02  0.43400737582E+02  0.00000000000E+00 0.  1.
         11    1    4    4    0    0  0.32807037304E+01 -0.71691675526E+01  0.12392184007E+02  0.14687620811E+02  0.51100000000E-03 0. -1.
        -11    1    4    4    0    0 -0.12846174558E+01  0.21004636570E+01  0.13057329901E+01  0.27869568501E+01  0.51100000000E-03 0.  1.
         12    1    4    4    0    0 -0.90489503205E+01 -0.19471564050E+02  0.21397045327E+02  0.30312684757E+02  0.00000000000E+00 0. -1.
</event>
<event>
 8    1  0.2994958E-010  0.9118800E+02  0.7816164E-02  0.1184000E+00
        -11   -1    0    0    0    0  0.00000000000E+00  0.00000000000E+00  0.45593999997E+02  0.45594000000E+02  0.51100000000E-03 0. -1.
         11   -1    0    0    0    0 -0.00000000000E+00 -0.00000000000E+00 -0.45593999997E+02  0.45594000000E+02  0.51100000000E-03 0.  1.
         23    2    1    2    0    0 -0.35527136788E-14  0.00000000000E+00  0.35527136788E-14  0.91188000000E+02  0.91188000000E+02 0.  0.
    9900012    2    3    3    0    0 -0.20886671467E+02 -0.20955629791E+02  0.31752667587E+02  0.47787270009E+02  0.19999995277E+02 0.  0.
        -12    1    3    3    0    0  0.20886671467E+02  0.20955629791E+02 -0.31752667587E+02  0.43400729991E+02  0.00000000000E+00 0.  1.
         11    1    4    4    0    0 -0.97257566437E+01 -0.58977469534E+00  0.98067764873E+01  0.13824291729E+02  0.51100000000E-03 0. -1.
        -11    1    4    4    0    0 -0.93394030689E+01 -0.53242486172E+01  0.97408285715E+01  0.14507095317E+02  0.51100000000E-03 0.  1.
        -12    1    4    4    0    0 -0.18215117546E+01 -0.15041606478E+02  0.12205062528E+02  0.19455882962E+02  0.00000000000E+00 0.  1.
</event>
<event>
 8    1  0.2994958E-010  0.9118800E+02  0.7816164E-02  0.1184000E+00
        -11   -1    0    0    0    0  0.00000000000E+00  0.00000000000E+00  0.45593999997E+02  0.45594000000E+02  0.51100000000E-03 0. -1.
         11   -1    0    0    0    0 -0.00000000000E+00 -0.00000000000E+00 -0.45593999997E+02  0.45594000000E+02  0.51100000000E-03 0.  1.
         23    2    1    2    0    0  0.35527136788E-14  0.00000000000E+00 -0.35527136788E-14  0.91188000000E+02  0.91188000000E+02 0.  0.
    9900012    2    3    3    0    0  0.17735084126E+02 -0.35640022245E+02 -0.17288199018E+02  0.47787237105E+02  0.19999845257E+02 0.  0.
         12    1    3    3    0    0 -0.17735084126E+02  0.35640022245E+02  0.17288199018E+02  0.43400762895E+02  0.00000000000E+00 0. -1.
         11    1    4    4    0    0  0.92745644430E+01 -0.90107480299E+01 -0.10060346208E+02  0.16383579943E+02  0.51100000000E-03 0. -1.
        -11    1    4    4    0    0  0.74114311208E+01 -0.66502928204E+01  0.46636143443E+00  0.99686106908E+01  0.51100000000E-03 0.  1.
        -12    1    4    4    0    0  0.10490885618E+01 -0.19978981395E+02 -0.76942142438E+01  0.21435046471E+02  0.00000000000E+00 0.  1.
</event>
<event>
 8    1  0.2994958E-010  0.9118800E+02  0.7816164E-02  0.1184000E+00
        -11   -1    0    0    0    0  0.00000000000E+00  0.00000000000E+00  0.45593999997E+02  0.45594000000E+02  0.51100000000E-03 0. -1.
         11   -1    0    0    0    0 -0.00000000000E+00 -0.00000000000E+00 -0.45593999997E+02  0.45594000000E+02  0.51100000000E-03 0.  1.
         23    2    1    2    0    0 -0.44408920985E-15 -0.35527136788E-14 -0.71054273576E-14  0.91188000000E+02  0.91188000000E+02 0.  0.
    9900012    2    3    3    0    0 -0.28829875845E+01 -0.18594620202E+02 -0.39109480352E+02  0.47787274530E+02  0.20000015893E+02 0.  0.
         12    1    3    3    0    0  0.28829875845E+01  0.18594620202E+02  0.39109480352E+02  0.43400725470E+02  0.00000000000E+00 0. -1.
         11    1    4    4    0    0 -0.31344687002E+01 -0.11782372278E+02 -0.62096688934E+01  0.13682440519E+02  0.51100000000E-03 0. -1.
        -11    1    4    4    0    0  0.30324842118E+00 -0.48569899641E+01 -0.99960108281E+01  0.11117668094E+02  0.51100000000E-03 0.  1.
         12    1    4    4    0    0 -0.51767305441E-01 -0.19552579597E+01 -0.22903800631E+02  0.22987165917E+02  0.00000000000E+00 0. -1.
</event>
<event>
 8    1  0.2994958E-010  0.9118800E+02  0.7816164E-02  0.1184000E+00
        -11   -1    0    0    0    0  0.00000000000E+00  0.00000000000E+00  0.45593999997E+02  0.45594000000E+02  0.51100000000E-03 0. -1.
         11   -1    0    0    0    0 -0.00000000000E+00 -0.00000000000E+00 -0.45593999997E+02  0.45594000000E+02  0.51100000000E-03 0.  1.
         23    2    1    2    0    0  0.00000000000E+00  0.99920072216E-15  0.00000000000E+00  0.91188000000E+02  0.91188000000E+02 0.  0.
    9900012    2    3    3    0    0  0.21657135237E+02  0.46132619087E+00 -0.37608225654E+02  0.47787274598E+02  0.20000016202E+02 0.  0.
         12    1    3    3    0    0 -0.21657135237E+02 -0.46132619087E+00  0.37608225654E+02  0.43400725402E+02  0.00000000000E+00 0. -1.
         11    1    4    4    0    0 -0.13508840342E+01  0.25413917677E+01 -0.64974784627E+00  0.29505477993E+01  0.51100000000E-03 0. -1.
        -11    1    4    4    0    0  0.73351723982E+01  0.34035027200E+01 -0.17353496971E+02  0.19145037014E+02  0.51100000000E-03 0.  1.
        -12    1    4    4    0    0  0.15672846873E+02 -0.54835682968E+01 -0.19604980837E+02  0.25691689785E+02  0.00000000000E+00 0.  1.
</event>
<event>
 8    1  0.2994958E-010  0.9118800E+02  0.7816164E-02  0.1184000E+00
        -11   -1    0    0    0    0  0.00000000000E+00  0.00000000000E+00  0.45593999997E+02  0.45594000000E+02  0.51100000000E-03 0. -1.
         11   -1    0    0    0    0 -0.00000000000E+00 -0.00000000000E+00 -0.45593999997E+02  0.45594000000E+02  0.51100000000E-03 0.  1.
         23    2    1    2    0    0  0.00000000000E+00  0.00000000000E+00  0.00000000000E+00  0.91188000000E+02  0.91188000000E+02 0.  0.
    9900012    2    3    3    0    0 -0.80022625630E+01  0.10457719685E+01 -0.42643811287E+02  0.47787257078E+02  0.19999936320E+02 0.  0.
         12    1    3    3    0    0  0.80022625630E+01 -0.10457719685E+01  0.42643811287E+02  0.43400742922E+02  0.00000000000E+00 0. -1.
         11    1    4    4    0    0  0.10603449347E+01 -0.79933105380E+00 -0.11906090296E+02  0.11979910179E+02  0.51100000000E-03 0.  1.
        -11    1    4    4    0    0 -0.34331148890E+01 -0.25297774937E+00 -0.29466082336E+02  0.29666484188E+02  0.51100000000E-03 0. -1.
         12    1    4    4    0    0 -0.56294926087E+01  0.20980807717E+01 -0.12716386547E+01  0.61408627101E+01  0.00000000000E+00 0. -1.
</event>
<event>
 8    1  0.2994958E-010  0.9118800E+02  0.7816164E-02  0.1184000E+00
        -11   -1    0    0    0    0  0.00000000000E+00  0.00000000000E+00  0.45593999997E+02  0.45594000000E+02  0.51100000000E-03 0. -1.
         11   -1    0    0    0    0 -0.00000000000E+00 -0.00000000000E+00 -0.45593999997E+02  0.45594000000E+02  0.51100000000E-03 0.  1.
         23    2    1    2    0    0 -0.17763568394E-14  0.00000000000E+00  0.00000000000E+00  0.91188000000E+02  0.91188000000E+02 0.  0.
    9900012    2    3    3    0    0  0.80498560179E+01 -0.17701682957E+02 -0.38800433934E+02  0.47787269189E+02  0.19999991542E+02 0.  0.
         12    1    3    3    0    0 -0.80498560179E+01  0.17701682957E+02  0.38800433934E+02  0.43400730811E+02  0.00000000000E+00 0. -1.
         11    1    4    4    0    0 -0.20974461063E+01 -0.50713959904E+01 -0.32374226661E+01  0.63717535452E+01  0.51100000000E-03 0. -1.
        -11    1    4    4    0    0 -0.31272393524E+01 -0.42757626185E+01 -0.11905639869E+02  0.13030964388E+02  0.51100000000E-03 0.  1.
         12    1    4    4    0    0  0.13274541477E+02 -0.83545243482E+01 -0.23657371399E+02  0.28384551256E+02  0.00000000000E+00 0. -1.
</event>
<event>
 8    1  0.2994958E-010  0.9118800E+02  0.7816164E-02  0.1184000E+00
        -11   -1    0    0    0    0  0.00000000000E+00  0.00000000000E+00  0.45593999997E+02  0.45594000000E+02  0.51100000000E-03 0. -1.
         11   -1    0    0    0    0 -0.00000000000E+00 -0.00000000000E+00 -0.45593999997E+02  0.45594000000E+02  0.51100000000E-03 0.  1.
         23    2    1    2    0    0  0.00000000000E+00  0.00000000000E+00  0.00000000000E+00  0.91188000000E+02  0.91188000000E+02 0.  0.
    9900012    2    3    3    0    0 -0.19967334364E+02 -0.20314564544E+01 -0.38481188943E+02  0.47787272363E+02  0.20000006012E+02 0.  0.
         12    1    3    3    0    0  0.19967334364E+02  0.20314564544E+01  0.38481188943E+02  0.43400727637E+02  0.00000000000E+00 0. -1.
         11    1    4    4    0    0 -0.22186569114E+01  0.20211094489E+01 -0.14083119642E+02  0.14399360437E+02  0.51100000000E-03 0. -1.
        -11    1    4    4    0    0 -0.14405527164E+02 -0.22210464990E+01 -0.25541771593E+02  0.29408066186E+02  0.51100000000E-03 0.  1.
         12    1    4    4    0    0 -0.33431502885E+01 -0.18315194043E+01  0.11437022918E+01  0.39798457397E+01  0.00000000000E+00 0. -1.
</event>
<event>
 8    1  0.2994958E-010  0.9118800E+02  0.7816164E-02  0.1184000E+00
        -11   -1    0    0    0    0  0.00000000000E+00  0.00000000000E+00  0.45593999997E+02  0.45594000000E+02  0.51100000000E-03 0. -1.
         11   -1    0    0    0    0 -0.00000000000E+00 -0.00000000000E+00 -0.45593999997E+02  0.45594000000E+02  0.51100000000E-03 0.  1.
         23    2    1    2    0    0  0.00000000000E+00  0.44408920985E-15  0.00000000000E+00  0.91188000000E+02  0.91188000000E+02 0.  0.
    9900012    2    3    3    0    0  0.19492442057E+02  0.20005718249E+01 -0.38725519460E+02  0.47787269102E+02  0.19999991145E+02 0.  0.
         12    1    3    3    0    0 -0.19492442057E+02 -0.20005718249E+01  0.38725519460E+02  0.43400730898E+02  0.00000000000E+00 0. -1.
         11    1    4    4    0    0  0.17520256934E+01  0.27204025099E+01 -0.70296639951E+01  0.77386277848E+01  0.51100000000E-03 0. -1.
        -11    1    4    4    0    0  0.16075222542E+02  0.21780676021E+00 -0.11509234190E+02  0.19771765006E+02  0.51100000000E-03 0.  1.
         12    1    4    4    0    0  0.16651938220E+01 -0.93763744526E+00 -0.20186621275E+02  0.20276876311E+02  0.00000000000E+00 0. -1.
</event>
<event>
 8    1  0.2994958E-010  0.9118800E+02  0.7816164E-02  0.1184000E+00
        -11   -1    0    0    0    0  0.00000000000E+00  0.00000000000E+00  0.45593999997E+02  0.45594000000E+02  0.51100000000E-03 0. -1.
         11   -1    0    0    0    0 -0.00000000000E+00 -0.00000000000E+00 -0.45593999997E+02  0.45594000000E+02  0.51100000000E-03 0.  1.
         23    2    1    2    0    0  0.00000000000E+00  0.00000000000E+00  0.00000000000E+00  0.91188000000E+02  0.91188000000E+02 0.  0.
    9900012    2    3    3    0    0 -0.24199391183E+02 -0.21263361099E+02 -0.29084053270E+02  0.47787271740E+02  0.20000003173E+02 0.  0.
         12    1    3    3    0    0  0.24199391183E+02  0.21263361099E+02  0.29084053270E+02  0.43400728260E+02  0.00000000000E+00 0. -1.
         11    1    4    4    0    0 -0.61030106257E+01 -0.47434577065E+01 -0.11593127758E+02  0.13933690867E+02  0.51100000000E-03 0. -1.
        -11    1    4    4    0    0 -0.16373078615E+02 -0.18465161275E+02 -0.18723238770E+02  0.30977403934E+02  0.51100000000E-03 0.  1.
         12    1    4    4    0    0 -0.17233019428E+01  0.19452578828E+01  0.12323132577E+01  0.28761769386E+01  0.00000000000E+00 0. -1.
</event>
<event>
 8    1  0.2994958E-010  0.9118800E+02  0.7816164E-02  0.1184000E+00
        -11   -1    0    0    0    0  0.00000000000E+00  0.00000000000E+00  0.45593999997E+02  0.45594000000E+02  0.51100000000E-03 0. -1.
         11   -1    0    0    0    0 -0.00000000000E+00 -0.00000000000E+00 -0.45593999997E+02  0.45594000000E+02  0.51100000000E-03 0.  1.
         23    2    1    2    0    0 -0.35527136788E-14  0.00000000000E+00  0.00000000000E+00  0.91188000000E+02  0.91188000000E+02 0.  0.
    9900012    2    3    3    0    0  0.31153868251E+02 -0.49888029441E+01  0.29802206258E+02  0.47787272360E+02  0.20000005999E+02 0.  0.
        -12    1    3    3    0    0 -0.31153868251E+02  0.49888029441E+01 -0.29802206258E+02  0.43400727640E+02  0.00000000000E+00 0.  1.
         11    1    4    4    0    0  0.20173715056E+01  0.31919502008E+01  0.64760030939E+01  0.74964625131E+01  0.51100000000E-03 0. -1.
        -11    1    4    4    0    0  0.12501241697E+02 -0.78666169333E+01  0.51333650664E+01  0.15637011963E+02  0.51100000000E-03 0.  1.
         12    1    4    4    0    0  0.16635255048E+02 -0.31413621159E+00  0.18192838097E+02  0.24653797884E+02  0.00000000000E+00 0. -1.
</event>
<event>
 8    1  0.2994958E-010  0.9118800E+02  0.7816164E-02  0.1184000E+00
        -11   -1    0    0    0    0  0.00000000000E+00  0.00000000000E+00  0.45593999997E+02  0.45594000000E+02  0.51100000000E-03 0.  1.
         11   -1    0    0    0    0 -0.00000000000E+00 -0.00000000000E+00 -0.45593999997E+02  0.45594000000E+02  0.51100000000E-03 0. -1.
         23    2    1    2    0    0  0.00000000000E+00  0.00000000000E+00 -0.17763568394E-14  0.91188000000E+02  0.91188000000E+02 0.  0.
    9900012    2    3    3    0    0  0.36892295936E+02 -0.17657288748E+02 -0.14519015678E+02  0.47787272338E+02  0.20000005899E+02 0.  0.
         12    1    3    3    0    0 -0.36892295936E+02  0.17657288748E+02  0.14519015678E+02  0.43400727662E+02  0.00000000000E+00 0. -1.
         11    1    4    4    0    0 -0.73512489931E-01 -0.83644185979E+00 -0.32857317655E+00  0.90166494024E+00  0.51100000000E-03 0. -1.
        -11    1    4    4    0    0  0.28571528383E+02 -0.69548744890E+01 -0.16513205389E+02  0.33725190374E+02  0.51100000000E-03 0.  1.
        -12    1    4    4    0    0  0.83942800426E+01 -0.98659723987E+01  0.23227628877E+01  0.13160417024E+02  0.00000000000E+00 0.  1.
</event>
<event>
 8    1  0.2994958E-010  0.9118800E+02  0.7816164E-02  0.1184000E+00
        -11   -1    0    0    0    0  0.00000000000E+00  0.00000000000E+00  0.45593999997E+02  0.45594000000E+02  0.51100000000E-03 0. -1.
         11   -1    0    0    0    0 -0.00000000000E+00 -0.00000000000E+00 -0.45593999997E+02  0.45594000000E+02  0.51100000000E-03 0.  1.
         23    2    1    2    0    0  0.00000000000E+00  0.22204460493E-15  0.71054273576E-14  0.91188000000E+02  0.91188000000E+02 0.  0.
    9900012    2    3    3    0    0  0.42861050656E+01  0.14816300197E+01  0.43163175079E+02  0.47787244165E+02  0.19999877445E+02 0.  0.
        -12    1    3    3    0    0 -0.42861050656E+01 -0.14816300197E+01 -0.43163175079E+02  0.43400755835E+02  0.00000000000E+00 0.  1.
         11    1    4    4    0    0  0.30975890523E+01  0.20959337346E+01  0.11852358385E+02  0.12428451058E+02  0.51100000000E-03 0. -1.
        -11    1    4    4    0    0  0.16477421890E+01 -0.46584496673E+01  0.13494420570E+01  0.51222262495E+01  0.51100000000E-03 0.  1.
         12    1    4    4    0    0 -0.45922617577E+00  0.40441459524E+01  0.29961374638E+02  0.30236566858E+02  0.00000000000E+00 0. -1.
</event>
<event>
 8    1  0.2994958E-010  0.9118800E+02  0.7816164E-02  0.1184000E+00
        -11   -1    0    0    0    0  0.00000000000E+00  0.00000000000E+00  0.45593999997E+02  0.45594000000E+02  0.51100000000E-03 0. -1.
         11   -1    0    0    0    0 -0.00000000000E+00 -0.00000000000E+00 -0.45593999997E+02  0.45594000000E+02  0.51100000000E-03 0.  1.
         23    2    1    2    0    0  0.66613381478E-15  0.00000000000E+00  0.00000000000E+00  0.91188000000E+02  0.91188000000E+02 0.  0.
    9900012    2    3    3    0    0  0.14220158862E+01  0.78682321451E+01 -0.42657845965E+02  0.47787273870E+02  0.20000012883E+02 0.  0.
         12    1    3    3    0    0 -0.14220158862E+01 -0.78682321451E+01  0.42657845965E+02  0.43400726130E+02  0.00000000000E+00 0. -1.
         11    1    4    4    0    0 -0.64436720255E+01  0.30481962379E+00 -0.55886749594E+01  0.85350519763E+01  0.51100000000E-03 0. -1.
        -11    1    4    4    0    0 -0.62604058284E+00  0.25220851385E+01 -0.12604092559E+02  0.12869187611E+02  0.51100000000E-03 0.  1.
         12    1    4    4    0    0  0.84917284945E+01  0.50413273829E+01 -0.24465078446E+02  0.26383034283E+02  0.00000000000E+00 0. -1.
</event>
<event>
 8    1  0.2994958E-010  0.9118800E+02  0.7816164E-02  0.1184000E+00
        -11   -1    0    0    0    0  0.00000000000E+00  0.00000000000E+00  0.45593999997E+02  0.45594000000E+02  0.51100000000E-03 0. -1.
         11   -1    0    0    0    0 -0.00000000000E+00 -0.00000000000E+00 -0.45593999997E+02  0.45594000000E+02  0.51100000000E-03 0.  1.
         23    2    1    2    0    0 -0.17763568394E-14  0.17763568394E-14  0.00000000000E+00  0.91188000000E+02  0.91188000000E+02 0.  0.
    9900012    2    3    3    0    0 -0.10994542659E+02  0.14413545764E+02 -0.39433404903E+02  0.47787266227E+02  0.19999978036E+02 0.  0.
         12    1    3    3    0    0  0.10994542659E+02 -0.14413545764E+02  0.39433404903E+02  0.43400733773E+02  0.00000000000E+00 0. -1.
         11    1    4    4    0    0 -0.16152164645E+01  0.15746127761E+01  0.47527273692E+00  0.23052579156E+01  0.51100000000E-03 0. -1.
        -11    1    4    4    0    0  0.23927546412E+00  0.12011654177E+02 -0.19476314737E+02  0.22883704351E+02  0.51100000000E-03 0.  1.
         12    1    4    4    0    0 -0.96186016582E+01  0.82727881035E+00 -0.20432362904E+02  0.22598303961E+02  0.00000000000E+00 0. -1.
</event>
<event>
 8    1  0.2994958E-010  0.9118800E+02  0.7816164E-02  0.1184000E+00
        -11   -1    0    0    0    0  0.00000000000E+00  0.00000000000E+00  0.45593999997E+02  0.45594000000E+02  0.51100000000E-03 0. -1.
         11   -1    0    0    0    0 -0.00000000000E+00 -0.00000000000E+00 -0.45593999997E+02  0.45594000000E+02  0.51100000000E-03 0.  1.
         23    2    1    2    0    0  0.00000000000E+00  0.00000000000E+00  0.00000000000E+00  0.91188000000E+02  0.91188000000E+02 0.  0.
    9900012    2    3    3    0    0  0.12378209941E+02 -0.24910320237E+02  0.33314848849E+02  0.47787270864E+02  0.19999999179E+02 0.  0.
        -12    1    3    3    0    0 -0.12378209941E+02  0.24910320237E+02 -0.33314848849E+02  0.43400729136E+02  0.00000000000E+00 0.  1.
         11    1    4    4    0    0  0.43349617141E+01 -0.65906405806E+01  0.54241861337E+01  0.95734127561E+01  0.51100000000E-03 0. -1.
        -11    1    4    4    0    0 -0.16140200445E+01 -0.24626214753E+01 -0.16108995171E+01  0.33562721507E+01  0.51100000000E-03 0.  1.
         12    1    4    4    0    0  0.96572682710E+01 -0.15857058181E+02  0.29501562233E+02  0.34857585958E+02  0.00000000000E+00 0. -1.
</event>
<event>
 8    1  0.2994958E-010  0.9118800E+02  0.7816164E-02  0.1184000E+00
        -11   -1    0    0    0    0  0.00000000000E+00  0.00000000000E+00  0.45593999997E+02  0.45594000000E+02  0.51100000000E-03 0. -1.
         11   -1    0    0    0    0 -0.00000000000E+00 -0.00000000000E+00 -0.45593999997E+02  0.45594000000E+02  0.51100000000E-03 0.  1.
         23    2    1    2    0    0  0.44408920985E-15  0.00000000000E+00  0.00000000000E+00  0.91188000000E+02  0.91188000000E+02 0.  0.
    9900012    2    3    3    0    0  0.23084822064E+01  0.28140572587E+02  0.32960586407E+02  0.47787295260E+02  0.20000110408E+02 0.  0.
        -12    1    3    3    0    0 -0.23084822064E+01 -0.28140572587E+02 -0.32960586407E+02  0.43400704740E+02  0.00000000000E+00 0.  1.
         11    1    4    4    0    0 -0.56105438869E+01  0.49621857310E+01  0.67857403130E+01  0.10106817590E+02  0.51100000000E-03 0. -1.
        -11    1    4    4    0    0  0.35486956973E+01  0.34331291442E-01  0.32302301834E+01  0.47988339301E+01  0.51100000000E-03 0.  1.
         12    1    4    4    0    0  0.43703303960E+01  0.23144055565E+02  0.22944615911E+02  0.32881643740E+02  0.00000000000E+00 0. -1.
</event>
<event>
 8    1  0.2994958E-010  0.9118800E+02  0.7816164E-02  0.1184000E+00
        -11   -1    0    0    0    0  0.00000000000E+00  0.00000000000E+00  0.45593999997E+02  0.45594000000E+02  0.51100000000E-03 0. -1.
         11   -1    0    0    0    0 -0.00000000000E+00 -0.00000000000E+00 -0.45593999997E+02  0.45594000000E+02  0.51100000000E-03 0.  1.
         23    2    1    2    0    0  0.00000000000E+00  0.00000000000E+00 -0.71054273576E-14  0.91188000000E+02  0.91188000000E+02 0.  0.
    9900012    2    3    3    0    0 -0.18675513767E+02  0.99625578501E+01  0.37889259668E+02  0.47787269919E+02  0.19999994867E+02 0.  0.
        -12    1    3    3    0    0  0.18675513767E+02 -0.99625578501E+01 -0.37889259668E+02  0.43400730081E+02  0.00000000000E+00 0.  1.
         11    1    4    4    0    0 -0.32885147609E+01  0.55480681042E+01  0.97874562184E+01  0.11721334758E+02  0.51100000000E-03 0.  1.
        -11    1    4    4    0    0  0.13554510813E+01 -0.34490856701E+01  0.24573110985E+01  0.44465512130E+01  0.51100000000E-03 0. -1.
         12    1    4    4    0    0 -0.16742450088E+02  0.78635754160E+01  0.25644492351E+02  0.31619383948E+02  0.00000000000E+00 0. -1.
</event>
<event>
 8    1  0.2994958E-010  0.9118800E+02  0.7816164E-02  0.1184000E+00
        -11   -1    0    0    0    0  0.00000000000E+00  0.00000000000E+00  0.45593999997E+02  0.45594000000E+02  0.51100000000E-03 0. -1.
         11   -1    0    0    0    0 -0.00000000000E+00 -0.00000000000E+00 -0.45593999997E+02  0.45594000000E+02  0.51100000000E-03 0.  1.
         23    2    1    2    0    0 -0.35527136788E-14 -0.71054273576E-14  0.35527136788E-14  0.91188000000E+02  0.91188000000E+02 0.  0.
    9900012    2    3    3    0    0  0.30632451237E+02 -0.29245046061E+02  0.94870057498E+01  0.47787273439E+02  0.20000010918E+02 0.  0.
         12    1    3    3    0    0 -0.30632451237E+02  0.29245046061E+02 -0.94870057498E+01  0.43400726561E+02  0.00000000000E+00 0. -1.
         11    1    4    4    0    0  0.13596490428E+02 -0.92320571928E+01  0.79362330238E+01  0.18250458264E+02  0.51100000000E-03 0. -1.
        -11    1    4    4    0    0  0.19252390959E+02 -0.17002018028E+02  0.20409423050E+01  0.25766036180E+02  0.51100000000E-03 0.  1.
         12    1    4    4    0    0 -0.22164301504E+01 -0.30109708409E+01 -0.49016957906E+00  0.37707789954E+01  0.00000000000E+00 0. -1.
</event>
<event>
 8    1  0.2994958E-010  0.9118800E+02  0.7816164E-02  0.1184000E+00
        -11   -1    0    0    0    0  0.00000000000E+00  0.00000000000E+00  0.45593999997E+02  0.45594000000E+02  0.51100000000E-03 0. -1.
         11   -1    0    0    0    0 -0.00000000000E+00 -0.00000000000E+00 -0.45593999997E+02  0.45594000000E+02  0.51100000000E-03 0.  1.
         23    2    1    2    0    0  0.17763568394E-14  0.00000000000E+00  0.00000000000E+00  0.91188000000E+02  0.91188000000E+02 0.  0.
    9900012    2    3    3    0    0  0.93434292772E+01 -0.16417995132E+02 -0.39073941750E+02  0.47787272371E+02  0.20000006049E+02 0.  0.
         12    1    3    3    0    0 -0.93434292772E+01  0.16417995132E+02  0.39073941750E+02  0.43400727629E+02  0.00000000000E+00 0. -1.
         11    1    4    4    0    0  0.27255878542E+01 -0.14748579599E+01 -0.14598684798E+02  0.14923995217E+02  0.51100000000E-03 0.  1.
        -11    1    4    4    0    0  0.11154499973E+02 -0.12355649079E+02 -0.19649345648E+02  0.25752314818E+02  0.51100000000E-03 0. -1.
         12    1    4    4    0    0 -0.45366585499E+01 -0.25874880934E+01 -0.48259113045E+01  0.71109623364E+01  0.00000000000E+00 0. -1.
</event>
<event>
 8    1  0.2994958E-010  0.9118800E+02  0.7816164E-02  0.1184000E+00
        -11   -1    0    0    0    0  0.00000000000E+00  0.00000000000E+00  0.45593999997E+02  0.45594000000E+02  0.51100000000E-03 0. -1.
         11   -1    0    0    0    0 -0.00000000000E+00 -0.00000000000E+00 -0.45593999997E+02  0.45594000000E+02  0.51100000000E-03 0.  1.
         23    2    1    2    0    0  0.00000000000E+00  0.00000000000E+00  0.00000000000E+00  0.91188000000E+02  0.91188000000E+02 0.  0.
    9900012    2    3    3    0    0 -0.28846471006E+02 -0.24206034265E+02 -0.21577125304E+02  0.47787270505E+02  0.19999997541E+02 0.  0.
         12    1    3    3    0    0  0.28846471006E+02  0.24206034265E+02  0.21577125304E+02  0.43400729495E+02  0.00000000000E+00 0. -1.
         11    1    4    4    0    0 -0.19489791828E+02 -0.16122677225E+02 -0.32882432285E+01  0.25506964738E+02  0.51100000000E-03 0. -1.
        -11    1    4    4    0    0 -0.40759350403E+01 -0.23207187628E+01 -0.49439230324E+01  0.68147895961E+01  0.51100000000E-03 0.  1.
         12    1    4    4    0    0 -0.52807441375E+01 -0.57626382773E+01 -0.13344959043E+02  0.15465516171E+02  0.00000000000E+00 0. -1.
</event>
<event>
 8    1  0.2994958E-010  0.9118800E+02  0.7816164E-02  0.1184000E+00
        -11   -1    0    0    0    0  0.00000000000E+00  0.00000000000E+00  0.45593999997E+02  0.45594000000E+02  0.51100000000E-03 0. -1.
         11   -1    0    0    0    0 -0.00000000000E+00 -0.00000000000E+00 -0.45593999997E+02  0.45594000000E+02  0.51100000000E-03 0.  1.
         23    2    1    2    0    0  0.71054273576E-14 -0.35527136788E-14  0.88817841970E-15  0.91188000000E+02  0.91188000000E+02 0.  0.
    9900012    2    3    3    0    0 -0.35988951444E+02  0.23916315685E+02 -0.40530923909E+01  0.47787281804E+02  0.20000049057E+02 0.  0.
         12    1    3    3    0    0  0.35988951444E+02 -0.23916315685E+02  0.40530923909E+01  0.43400718196E+02  0.00000000000E+00 0. -1.
         11    1    4    4    0    0 -0.88338249898E+01  0.75131123069E+01 -0.60631186274E+00  0.11612533523E+02  0.51100000000E-03 0. -1.
        -11    1    4    4    0    0 -0.26388650399E+02  0.11534337699E+02 -0.75376291064E+01  0.29769408272E+02  0.51100000000E-03 0.  1.
         12    1    4    4    0    0 -0.76647605503E+00  0.48688656791E+01  0.40908485782E+01  0.64053400093E+01  0.00000000000E+00 0. -1.
</event>
<event>
 8    1  0.2994958E-010  0.9118800E+02  0.7816164E-02  0.1184000E+00
        -11   -1    0    0    0    0  0.00000000000E+00  0.00000000000E+00  0.45593999997E+02  0.45594000000E+02  0.51100000000E-03 0. -1.
         11   -1    0    0    0    0 -0.00000000000E+00 -0.00000000000E+00 -0.45593999997E+02  0.45594000000E+02  0.51100000000E-03 0.  1.
         23    2    1    2    0    0 -0.13322676296E-14 -0.17763568394E-14 -0.71054273576E-14  0.91188000000E+02  0.91188000000E+02 0.  0.
    9900012    2    3    3    0    0  0.53235752648E+00  0.81580076763E+01  0.42623776471E+02  0.47787276338E+02  0.20000024133E+02 0.  0.
        -12    1    3    3    0    0 -0.53235752648E+00 -0.81580076763E+01 -0.42623776471E+02  0.43400723662E+02  0.00000000000E+00 0.  1.
         11    1    4    4    0    0  0.36738128605E+01  0.42519393513E+01  0.87325935123E+01  0.10384318894E+02  0.51100000000E-03 0.  1.
        -11    1    4    4    0    0  0.29800408360E+01  0.93380379818E+00  0.28634084380E+02  0.28803878583E+02  0.51100000000E-03 0. -1.
        -12    1    4    4    0    0 -0.61214961700E+01  0.29722645268E+01  0.52570985791E+01  0.85990788603E+01  0.00000000000E+00 0.  1.
</event>
<event>
 8    1  0.2994958E-010  0.9118800E+02  0.7816164E-02  0.1184000E+00
        -11   -1    0    0    0    0  0.00000000000E+00  0.00000000000E+00  0.45593999997E+02  0.45594000000E+02  0.51100000000E-03 0. -1.
         11   -1    0    0    0    0 -0.00000000000E+00 -0.00000000000E+00 -0.45593999997E+02  0.45594000000E+02  0.51100000000E-03 0.  1.
         23    2    1    2    0    0  0.00000000000E+00  0.00000000000E+00  0.00000000000E+00  0.91188000000E+02  0.91188000000E+02 0.  0.
    9900012    2    3    3    0    0  0.74742467203E+01 -0.11687760830E+02 -0.41123655008E+02  0.47787272834E+02  0.20000008161E+02 0.  0.
         12    1    3    3    0    0 -0.74742467203E+01  0.11687760830E+02  0.41123655008E+02  0.43400727166E+02  0.00000000000E+00 0. -1.
         11    1    4    4    0    0 -0.12235023819E+01  0.40804878024E+01 -0.34583650853E+01  0.54870418358E+01  0.51100000000E-03 0. -1.
        -11    1    4    4    0    0  0.13423881474E+01 -0.40980239525E+01 -0.38555168573E+01  0.57845325439E+01  0.51100000000E-03 0.  1.
        -12    1    4    4    0    0  0.73553609548E+01 -0.11670224680E+02 -0.33809773066E+02  0.36515698455E+02  0.00000000000E+00 0.  1.
</event>
<event>
 8    1  0.2994958E-010  0.9118800E+02  0.7816164E-02  0.1184000E+00
        -11   -1    0    0    0    0  0.00000000000E+00  0.00000000000E+00  0.45593999997E+02  0.45594000000E+02  0.51100000000E-03 0. -1.
         11   -1    0    0    0    0 -0.00000000000E+00 -0.00000000000E+00 -0.45593999997E+02  0.45594000000E+02  0.51100000000E-03 0.  1.
         23    2    1    2    0    0  0.17763568394E-14  0.00000000000E+00  0.00000000000E+00  0.91188000000E+02  0.91188000000E+02 0.  0.
    9900012    2    3    3    0    0 -0.89463512495E+01 -0.35516663545E+02  0.23284167299E+02  0.47787273775E+02  0.20000012450E+02 0.  0.
        -12    1    3    3    0    0  0.89463512495E+01  0.35516663545E+02 -0.23284167299E+02  0.43400726225E+02  0.00000000000E+00 0.  1.
         11    1    4    4    0    0 -0.35860320408E+01 -0.19210648744E+02  0.22025311794E+02  0.29445254471E+02  0.51100000000E-03 0.  1.
        -11    1    4    4    0    0 -0.64588257269E+01 -0.10916158948E+02  0.18162697413E+01  0.12813188205E+02  0.51100000000E-03 0. -1.
        -12    1    4    4    0    0  0.10985065182E+01 -0.53898558533E+01 -0.55741423702E+00  0.55288310990E+01  0.00000000000E+00 0.  1.
</event>
<event>
 8    1  0.2994958E-010  0.9118800E+02  0.7816164E-02  0.1184000E+00
        -11   -1    0    0    0    0  0.00000000000E+00  0.00000000000E+00  0.45593999997E+02  0.45594000000E+02  0.51100000000E-03 0. -1.
         11   -1    0    0    0    0 -0.00000000000E+00 -0.00000000000E+00 -0.45593999997E+02  0.45594000000E+02  0.51100000000E-03 0.  1.
         23    2    1    2    0    0 -0.17763568394E-14  0.00000000000E+00  0.00000000000E+00  0.91188000000E+02  0.91188000000E+02 0.  0.
    9900012    2    3    3    0    0  0.12927589592E+02 -0.19468532763E+02  0.36571517838E+02  0.47787282753E+02  0.20000053384E+02 0.  0.
        -12    1    3    3    0    0 -0.12927589592E+02  0.19468532763E+02 -0.36571517838E+02  0.43400717247E+02  0.00000000000E+00 0.  1.
         11    1    4    4    0    0  0.70675261428E+01 -0.80101982872E+01  0.26508550005E+02  0.28580000455E+02  0.51100000000E-03 0. -1.
        -11    1    4    4    0    0  0.52308411574E+00 -0.59215396091E+01  0.98612164968E+01  0.11514418761E+02  0.51100000000E-03 0.  1.
         12    1    4    4    0    0  0.53369793333E+01 -0.55367948665E+01  0.20175133542E+00  0.76928635370E+01  0.00000000000E+00 0. -1.
</event>
<event>
 8    1  0.2994958E-010  0.9118800E+02  0.7816164E-02  0.1184000E+00
        -11   -1    0    0    0    0  0.00000000000E+00  0.00000000000E+00  0.45593999997E+02  0.45594000000E+02  0.51100000000E-03 0.  1.
         11   -1    0    0    0    0 -0.00000000000E+00 -0.00000000000E+00 -0.45593999997E+02  0.45594000000E+02  0.51100000000E-03 0. -1.
         23    2    1    2    0    0  0.00000000000E+00  0.00000000000E+00  0.00000000000E+00  0.91188000000E+02  0.91188000000E+02 0.  0.
    9900012    2    3    3    0    0 -0.28688094264E+02 -0.22536740916E+02  0.23509828379E+02  0.47787268739E+02  0.19999989488E+02 0.  0.
         12    1    3    3    0    0  0.28688094264E+02  0.22536740916E+02 -0.23509828379E+02  0.43400731261E+02  0.00000000000E+00 0. -1.
         11    1    4    4    0    0 -0.14738516834E+02 -0.21646447272E+02  0.17366469372E+02  0.31422711797E+02  0.51100000000E-03 0. -1.
        -11    1    4    4    0    0 -0.30630033829E+01 -0.20201742606E+01 -0.26964393285E+00  0.36791034069E+01  0.51100000000E-03 0.  1.
         12    1    4    4    0    0 -0.10886574047E+02  0.11298806163E+01  0.64130029396E+01  0.12685453535E+02  0.00000000000E+00 0. -1.
</event>
<event>
 8    1  0.2994958E-010  0.9118800E+02  0.7816164E-02  0.1184000E+00
        -11   -1    0    0    0    0  0.00000000000E+00  0.00000000000E+00  0.45593999997E+02  0.45594000000E+02  0.51100000000E-03 0. -1.
         11   -1    0    0    0    0 -0.00000000000E+00 -0.00000000000E+00 -0.45593999997E+02  0.45594000000E+02  0.51100000000E-03 0.  1.
         23    2    1    2    0    0  0.00000000000E+00  0.00000000000E+00  0.00000000000E+00  0.91188000000E+02  0.91188000000E+02 0.  0.
    9900012    2    3    3    0    0 -0.17776826975E+02  0.17455351501E+02 -0.35537567210E+02  0.47787267788E+02  0.19999985151E+02 0.  0.
         12    1    3    3    0    0  0.17776826975E+02 -0.17455351501E+02  0.35537567210E+02  0.43400732212E+02  0.00000000000E+00 0. -1.
         11    1    4    4    0    0 -0.46447949451E+01  0.12202210335E+02 -0.53977960344E+01  0.14128137153E+02  0.51100000000E-03 0. -1.
        -11    1    4    4    0    0 -0.55484901825E+01  0.18772732460E+01 -0.73114464585E+01  0.93684122306E+01  0.51100000000E-03 0.  1.
         12    1    4    4    0    0 -0.75835418473E+01  0.33758679207E+01 -0.22828324717E+02  0.24290718404E+02  0.00000000000E+00 0. -1.
</event>
<event>
 8    1  0.2994958E-010  0.9118800E+02  0.7816164E-02  0.1184000E+00
        -11   -1    0    0    0    0  0.00000000000E+00  0.00000000000E+00  0.45593999997E+02  0.45594000000E+02  0.51100000000E-03 0. -1.
         11   -1    0    0    0    0 -0.00000000000E+00 -0.00000000000E+00 -0.45593999997E+02  0.45594000000E+02  0.51100000000E-03 0.  1.
         23    2    1    2    0    0  0.00000000000E+00 -0.17763568394E-14  0.00000000000E+00  0.91188000000E+02  0.91188000000E+02 0.  0.
    9900012    2    3    3    0    0  0.40015089855E+02  0.13383752494E+02 -0.10163212925E+02  0.47787272542E+02  0.20000006828E+02 0.  0.
         12    1    3    3    0    0 -0.40015089855E+02 -0.13383752494E+02  0.10163212925E+02  0.43400727458E+02  0.00000000000E+00 0. -1.
         11    1    4    4    0    0  0.26029168980E+02  0.78004812701E+01 -0.39818980684E+01  0.27463078092E+02  0.51100000000E-03 0. -1.
        -11    1    4    4    0    0  0.14573351344E+02  0.86471751743E+00 -0.49041589921E+01  0.15400684448E+02  0.51100000000E-03 0.  1.
         12    1    4    4    0    0 -0.58743046852E+00  0.47185537066E+01 -0.12771558647E+01  0.49235100020E+01  0.00000000000E+00 0. -1.
</event>
<event>
 8    1  0.2994958E-010  0.9118800E+02  0.7816164E-02  0.1184000E+00
        -11   -1    0    0    0    0  0.00000000000E+00  0.00000000000E+00  0.45593999997E+02  0.45594000000E+02  0.51100000000E-03 0. -1.
         11   -1    0    0    0    0 -0.00000000000E+00 -0.00000000000E+00 -0.45593999997E+02  0.45594000000E+02  0.51100000000E-03 0.  1.
         23    2    1    2    0    0 -0.35527136788E-14 -0.88817841970E-15  0.00000000000E+00  0.91188000000E+02  0.91188000000E+02 0.  0.
    9900012    2    3    3    0    0  0.19207934247E+02  0.52215809162E+01 -0.38566998427E+02  0.47787274050E+02  0.20000013704E+02 0.  0.
         12    1    3    3    0    0 -0.19207934247E+02 -0.52215809162E+01  0.38566998427E+02  0.43400725950E+02  0.00000000000E+00 0. -1.
         11    1    4    4    0    0  0.21027138737E+01  0.38330348776E+01 -0.11315671102E+02  0.12130868673E+02  0.51100000000E-03 0. -1.
        -11    1    4    4    0    0  0.26538507365E+01  0.32721450718E+01  0.56774305360E+00  0.42511397929E+01  0.51100000000E-03 0.  1.
        -12    1    4    4    0    0  0.14451369637E+02 -0.18835990332E+01 -0.27819070378E+02  0.31405265584E+02  0.00000000000E+00 0.  1.
</event>
<event>
 8    1  0.2994958E-010  0.9118800E+02  0.7816164E-02  0.1184000E+00
        -11   -1    0    0    0    0  0.00000000000E+00  0.00000000000E+00  0.45593999997E+02  0.45594000000E+02  0.51100000000E-03 0. -1.
         11   -1    0    0    0    0 -0.00000000000E+00 -0.00000000000E+00 -0.45593999997E+02  0.45594000000E+02  0.51100000000E-03 0.  1.
         23    2    1    2    0    0 -0.35527136788E-14  0.00000000000E+00 -0.35527136788E-14  0.91188000000E+02  0.91188000000E+02 0.  0.
    9900012    2    3    3    0    0 -0.29212768076E+02 -0.18299576328E+02  0.26369742378E+02  0.47787266994E+02  0.19999981531E+02 0.  0.
        -12    1    3    3    0    0  0.29212768076E+02  0.18299576328E+02 -0.26369742378E+02  0.43400733006E+02  0.00000000000E+00 0.  1.
         11    1    4    4    0    0 -0.21685320613E+02 -0.20655276447E+02  0.21581889112E+02  0.36914380844E+02  0.51100000000E-03 0. -1.
        -11    1    4    4    0    0 -0.62300314734E+01  0.66546442209E-01  0.53148855591E+01  0.81893668471E+01  0.51100000000E-03 0.  1.
        -12    1    4    4    0    0 -0.12974159889E+01  0.22891536775E+01 -0.52703229345E+00  0.26835193023E+01  0.00000000000E+00 0.  1.
</event>
<event>
 8    1  0.2994958E-010  0.9118800E+02  0.7816164E-02  0.1184000E+00
        -11   -1    0    0    0    0  0.00000000000E+00  0.00000000000E+00  0.45593999997E+02  0.45594000000E+02  0.51100000000E-03 0.  1.
         11   -1    0    0    0    0 -0.00000000000E+00 -0.00000000000E+00 -0.45593999997E+02  0.45594000000E+02  0.51100000000E-03 0. -1.
         23    2    1    2    0    0  0.00000000000E+00  0.00000000000E+00 -0.88817841970E-15  0.91188000000E+02  0.91188000000E+02 0.  0.
    9900012    2    3    3    0    0  0.17390843178E+02  0.39271244360E+02  0.62411158768E+01  0.47787267432E+02  0.19999983530E+02 0.  0.
         12    1    3    3    0    0 -0.17390843178E+02 -0.39271244360E+02 -0.62411158768E+01  0.43400732568E+02  0.00000000000E+00 0. -1.
         11    1    4    4    0    0 -0.81611990664E+00  0.69372114961E+00  0.96421227111E+00  0.14411822578E+01  0.51100000000E-03 0. -1.
        -11    1    4    4    0    0  0.20649794406E+02  0.29760328438E+02  0.73591535021E+01  0.36962796137E+02  0.51100000000E-03 0.  1.
         12    1    4    4    0    0 -0.24428313211E+01  0.88171947726E+01 -0.20822498964E+01  0.93832890370E+01  0.00000000000E+00 0. -1.
</event>
<event>
 8    1  0.2994958E-010  0.9118800E+02  0.7816164E-02  0.1184000E+00
        -11   -1    0    0    0    0  0.00000000000E+00  0.00000000000E+00  0.45593999997E+02  0.45594000000E+02  0.51100000000E-03 0. -1.
         11   -1    0    0    0    0 -0.00000000000E+00 -0.00000000000E+00 -0.45593999997E+02  0.45594000000E+02  0.51100000000E-03 0.  1.
         23    2    1    2    0    0  0.17763568394E-14  0.35527136788E-14  0.00000000000E+00  0.91188000000E+02  0.91188000000E+02 0.  0.
    9900012    2    3    3    0    0 -0.14340966441E+02  0.17835715993E+02 -0.36876114576E+02  0.47787263720E+02  0.19999966605E+02 0.  0.
         12    1    3    3    0    0  0.14340966441E+02 -0.17835715993E+02  0.36876114576E+02  0.43400736280E+02  0.00000000000E+00 0. -1.
         11    1    4    4    0    0 -0.12306376050E+02  0.86536318663E+01 -0.20059768085E+02  0.25074419871E+02  0.51100000000E-03 0. -1.
        -11    1    4    4    0    0 -0.54145550253E+01  0.64878324192E+01 -0.43211191629E+01  0.94911246279E+01  0.51100000000E-03 0.  1.
         12    1    4    4    0    0  0.33799646347E+01  0.26942517072E+01 -0.12495227328E+02  0.13221719222E+02  0.00000000000E+00 0. -1.
</event>
<event>
 8    1  0.2994958E-010  0.9118800E+02  0.7816164E-02  0.1184000E+00
        -11   -1    0    0    0    0  0.00000000000E+00  0.00000000000E+00  0.45593999997E+02  0.45594000000E+02  0.51100000000E-03 0. -1.
         11   -1    0    0    0    0 -0.00000000000E+00 -0.00000000000E+00 -0.45593999997E+02  0.45594000000E+02  0.51100000000E-03 0.  1.
         23    2    1    2    0    0 -0.44408920985E-15  0.00000000000E+00  0.71054273576E-14  0.91188000000E+02  0.91188000000E+02 0.  0.
    9900012    2    3    3    0    0  0.30117789151E+01  0.97992988120E+01 -0.42172579664E+02  0.47787267922E+02  0.19999985762E+02 0.  0.
         12    1    3    3    0    0 -0.30117789151E+01 -0.97992988120E+01  0.42172579664E+02  0.43400732078E+02  0.00000000000E+00 0. -1.
         11    1    4    4    0    0 -0.80826461945E+00 -0.16307628862E+01 -0.13669451000E+02  0.13790089565E+02  0.51100000000E-03 0. -1.
        -11    1    4    4    0    0  0.35323216016E+01  0.13944217222E+02 -0.27908789685E+02  0.31397755203E+02  0.51100000000E-03 0.  1.
         12    1    4    4    0    0  0.28772193294E+00 -0.25141555243E+01 -0.59433897790E+00  0.25994231536E+01  0.00000000000E+00 0. -1.
</event>
<event>
 8    1  0.2994958E-010  0.9118800E+02  0.7816164E-02  0.1184000E+00
        -11   -1    0    0    0    0  0.00000000000E+00  0.00000000000E+00  0.45593999997E+02  0.45594000000E+02  0.51100000000E-03 0. -1.
         11   -1    0    0    0    0 -0.00000000000E+00 -0.00000000000E+00 -0.45593999997E+02  0.45594000000E+02  0.51100000000E-03 0.  1.
         23    2    1    2    0    0 -0.88817841970E-15  0.00000000000E+00  0.00000000000E+00  0.91188000000E+02  0.91188000000E+02 0.  0.
    9900012    2    3    3    0    0 -0.52650981453E+01  0.19043830927E+02 -0.38642397885E+02  0.47787266491E+02  0.19999979237E+02 0.  0.
         12    1    3    3    0    0  0.52650981453E+01 -0.19043830927E+02  0.38642397885E+02  0.43400733509E+02  0.00000000000E+00 0. -1.
         11    1    4    4    0    0  0.21502578659E+01  0.49724841247E+00 -0.18250099645E+02  0.18383062916E+02  0.51100000000E-03 0. -1.
        -11    1    4    4    0    0  0.51476838829E+00 -0.31067192000E+00 -0.13835623562E+00  0.61696535115E+00  0.51100000000E-03 0.  1.
        -12    1    4    4    0    0 -0.79301243995E+01  0.18857254434E+02 -0.20253942005E+02  0.28787238223E+02  0.00000000000E+00 0.  1.
</event>
<event>
 8    1  0.2994958E-010  0.9118800E+02  0.7816164E-02  0.1184000E+00
        -11   -1    0    0    0    0  0.00000000000E+00  0.00000000000E+00  0.45593999997E+02  0.45594000000E+02  0.51100000000E-03 0. -1.
         11   -1    0    0    0    0 -0.00000000000E+00 -0.00000000000E+00 -0.45593999997E+02  0.45594000000E+02  0.51100000000E-03 0.  1.
         23    2    1    2    0    0  0.00000000000E+00  0.71054273576E-14  0.00000000000E+00  0.91188000000E+02  0.91188000000E+02 0.  0.
    9900012    2    3    3    0    0  0.18994240372E+02  0.38746313947E+02 -0.46438135611E+01  0.47787274013E+02  0.20000013537E+02 0.  0.
         12    1    3    3    0    0 -0.18994240372E+02 -0.38746313947E+02  0.46438135611E+01  0.43400725987E+02  0.00000000000E+00 0. -1.
         11    1    4    4    0    0  0.12102326194E+02  0.28666799925E+02  0.55895037732E+01  0.31614779296E+02  0.51100000000E-03 0. -1.
        -11    1    4    4    0    0  0.24684935364E+01  0.16476578330E+01 -0.19419822693E+01  0.35467636049E+01  0.51100000000E-03 0.  1.
         12    1    4    4    0    0  0.44234206415E+01  0.84318561886E+01 -0.82913350650E+01  0.12625731112E+02  0.00000000000E+00 0. -1.
</event>
<event>
 8    1  0.2994958E-010  0.9118800E+02  0.7816164E-02  0.1184000E+00
        -11   -1    0    0    0    0  0.00000000000E+00  0.00000000000E+00  0.45593999997E+02  0.45594000000E+02  0.51100000000E-03 0.  1.
         11   -1    0    0    0    0 -0.00000000000E+00 -0.00000000000E+00 -0.45593999997E+02  0.45594000000E+02  0.51100000000E-03 0. -1.
         23    2    1    2    0    0 -0.35527136788E-14 -0.35527136788E-14  0.00000000000E+00  0.91188000000E+02  0.91188000000E+02 0.  0.
    9900012    2    3    3    0    0 -0.23094891497E+02 -0.28678787794E+02  0.22973405313E+02  0.47787259980E+02  0.19999949553E+02 0.  0.
        -12    1    3    3    0    0  0.23094891497E+02  0.28678787794E+02 -0.22973405313E+02  0.43400740020E+02  0.00000000000E+00 0.  1.
         11    1    4    4    0    0 -0.86767395365E+00 -0.92040039168E+01  0.13709814561E+02  0.16535584711E+02  0.51100000000E-03 0. -1.
        -11    1    4    4    0    0 -0.11388846408E+02 -0.11203209254E+02  0.69535299304E+01  0.17423240193E+02  0.51100000000E-03 0.  1.
        -12    1    4    4    0    0 -0.10838371136E+02 -0.82715746238E+01  0.23100608217E+01  0.13828435076E+02  0.00000000000E+00 0.  1.
</event>
<event>
 8    1  0.2994958E-010  0.9118800E+02  0.7816164E-02  0.1184000E+00
        -11   -1    0    0    0    0  0.00000000000E+00  0.00000000000E+00  0.45593999997E+02  0.45594000000E+02  0.51100000000E-03 0. -1.
         11   -1    0    0    0    0 -0.00000000000E+00 -0.00000000000E+00 -0.45593999997E+02  0.45594000000E+02  0.51100000000E-03 0.  1.
         23    2    1    2    0    0  0.17763568394E-14  0.00000000000E+00  0.00000000000E+00  0.91188000000E+02  0.91188000000E+02 0.  0.
    9900012    2    3    3    0    0  0.15190969686E+02 -0.40315104861E+02 -0.52488429994E+01  0.47787267370E+02  0.19999983247E+02 0.  0.
         12    1    3    3    0    0 -0.15190969686E+02  0.40315104861E+02  0.52488429994E+01  0.43400732630E+02  0.00000000000E+00 0. -1.
         11    1    4    4    0    0  0.22341563104E+00 -0.10198252298E+01  0.20599628443E+01  0.23094166416E+01  0.51100000000E-03 0. -1.
        -11    1    4    4    0    0  0.10188079425E+02 -0.98740631181E+01 -0.66368098259E+01  0.15663375427E+02  0.51100000000E-03 0.  1.
         12    1    4    4    0    0  0.47794746302E+01 -0.29421216513E+02 -0.67199601780E+00  0.29814475302E+02  0.00000000000E+00 0. -1.
</event>
<event>
 8    1  0.2994958E-010  0.9118800E+02  0.7816164E-02  0.1184000E+00
        -11   -1    0    0    0    0  0.00000000000E+00  0.00000000000E+00  0.45593999997E+02  0.45594000000E+02  0.51100000000E-03 0. -1.
         11   -1    0    0    0    0 -0.00000000000E+00 -0.00000000000E+00 -0.45593999997E+02  0.45594000000E+02  0.51100000000E-03 0.  1.
         23    2    1    2    0    0  0.17763568394E-14  0.00000000000E+00  0.71054273576E-14  0.91188000000E+02  0.91188000000E+02 0.  0.
    9900012    2    3    3    0    0  0.13676691143E+02 -0.19460455057E+02  0.36302366352E+02  0.47787274264E+02  0.20000014678E+02 0.  0.
        -12    1    3    3    0    0 -0.13676691143E+02  0.19460455057E+02 -0.36302366352E+02  0.43400725736E+02  0.00000000000E+00 0.  1.
         11    1    4    4    0    0  0.92423641631E+01 -0.90686002603E+01  0.19370555102E+02  0.23299768480E+02  0.51100000000E-03 0. -1.
        -11    1    4    4    0    0  0.84592028542E+00 -0.40056665733E+01  0.16661611470E+02  0.17157221304E+02  0.51100000000E-03 0.  1.
        -12    1    4    4    0    0  0.35884066942E+01 -0.63861882238E+01  0.27019978006E+00  0.73302844797E+01  0.00000000000E+00 0.  1.
</event>
<event>
 8    1  0.2994958E-010  0.9118800E+02  0.7816164E-02  0.1184000E+00
        -11   -1    0    0    0    0  0.00000000000E+00  0.00000000000E+00  0.45593999997E+02  0.45594000000E+02  0.51100000000E-03 0. -1.
         11   -1    0    0    0    0 -0.00000000000E+00 -0.00000000000E+00 -0.45593999997E+02  0.45594000000E+02  0.51100000000E-03 0.  1.
         23    2    1    2    0    0  0.00000000000E+00  0.00000000000E+00  0.00000000000E+00  0.91188000000E+02  0.91188000000E+02 0.  0.
    9900012    2    3    3    0    0  0.19696844511E+02 -0.34547327408E+02  0.17382165867E+02  0.47787271839E+02  0.20000003622E+02 0.  0.
        -12    1    3    3    0    0 -0.19696844511E+02  0.34547327408E+02 -0.17382165867E+02  0.43400728161E+02  0.00000000000E+00 0.  1.
         11    1    4    4    0    0  0.13394031999E+01 -0.58682268808E+01  0.20669394901E+01  0.63641438367E+01  0.51100000000E-03 0. -1.
        -11    1    4    4    0    0 -0.22285140617E+01  0.52017674321E+00 -0.51650884644E+00  0.23459838910E+01  0.51100000000E-03 0.  1.
        -12    1    4    4    0    0  0.20585955373E+02 -0.29199277270E+02  0.15831735223E+02  0.39077144111E+02  0.00000000000E+00 0.  1.
</event>
<event>
 8    1  0.2994958E-010  0.9118800E+02  0.7816164E-02  0.1184000E+00
        -11   -1    0    0    0    0  0.00000000000E+00  0.00000000000E+00  0.45593999997E+02  0.45594000000E+02  0.51100000000E-03 0. -1.
         11   -1    0    0    0    0 -0.00000000000E+00 -0.00000000000E+00 -0.45593999997E+02  0.45594000000E+02  0.51100000000E-03 0.  1.
         23    2    1    2    0    0  0.35527136788E-14  0.17763568394E-14  0.35527136788E-14  0.91188000000E+02  0.91188000000E+02 0.  0.
    9900012    2    3    3    0    0  0.27756554939E+02  0.15790974363E+02  0.29391194356E+02  0.47787268220E+02  0.19999987121E+02 0.  0.
        -12    1    3    3    0    0 -0.27756554939E+02 -0.15790974363E+02 -0.29391194356E+02  0.43400731780E+02  0.00000000000E+00 0.  1.
         11    1    4    4    0    0  0.13871197299E+02  0.49998154405E+01  0.14574580475E+02  0.20732261460E+02  0.51100000000E-03 0. -1.
        -11    1    4    4    0    0  0.11798984052E+02  0.23630930017E+01  0.13805735282E+02  0.18313889814E+02  0.51100000000E-03 0.  1.
        -12    1    4    4    0    0  0.20863735883E+01  0.84280659205E+01  0.10108785980E+01  0.87411169452E+01  0.00000000000E+00 0.  1.
</event>
<event>
 8    1  0.2994958E-010  0.9118800E+02  0.7816164E-02  0.1184000E+00
        -11   -1    0    0    0    0  0.00000000000E+00  0.00000000000E+00  0.45593999997E+02  0.45594000000E+02  0.51100000000E-03 0. -1.
         11   -1    0    0    0    0 -0.00000000000E+00 -0.00000000000E+00 -0.45593999997E+02  0.45594000000E+02  0.51100000000E-03 0.  1.
         23    2    1    2    0    0 -0.35527136788E-14  0.00000000000E+00  0.00000000000E+00  0.91188000000E+02  0.91188000000E+02 0.  0.
    9900012    2    3    3    0    0  0.20782748601E+02  0.13488267992E+02  0.35633814725E+02  0.47787253870E+02  0.19999921695E+02 0.  0.
        -12    1    3    3    0    0 -0.20782748601E+02 -0.13488267992E+02 -0.35633814725E+02  0.43400746130E+02  0.00000000000E+00 0.  1.
         11    1    4    4    0    0  0.52874543317E+01 -0.23689547772E+01  0.73014385399E+01  0.93209508667E+01  0.51100000000E-03 0. -1.
        -11    1    4    4    0    0 -0.10872046010E+01  0.35775530635E+01  0.43093676779E+00  0.37638552743E+01  0.51100000000E-03 0.  1.
         12    1    4    4    0    0  0.16582498870E+02  0.12279669706E+02  0.27901439417E+02  0.34702447729E+02  0.00000000000E+00 0. -1.
</event>
<event>
 8    1  0.2994958E-010  0.9118800E+02  0.7816164E-02  0.1184000E+00
        -11   -1    0    0    0    0  0.00000000000E+00  0.00000000000E+00  0.45593999997E+02  0.45594000000E+02  0.51100000000E-03 0. -1.
         11   -1    0    0    0    0 -0.00000000000E+00 -0.00000000000E+00 -0.45593999997E+02  0.45594000000E+02  0.51100000000E-03 0.  1.
         23    2    1    2    0    0  0.88817841970E-15 -0.35527136788E-14  0.00000000000E+00  0.91188000000E+02  0.91188000000E+02 0.  0.
    9900012    2    3    3    0    0  0.62385501052E+01 -0.30330512360E+02 -0.30409929966E+02  0.47787270421E+02  0.19999997159E+02 0.  0.
         12    1    3    3    0    0 -0.62385501052E+01  0.30330512360E+02  0.30409929966E+02  0.43400729579E+02  0.00000000000E+00 0. -1.
         11    1    4    4    0    0  0.50752989203E+01 -0.76901255698E+01 -0.98161885656E+01  0.13463069807E+02  0.51100000000E-03 0. -1.
        -11    1    4    4    0    0  0.55314028269E+00  0.20944197008E+01 -0.53294949735E-01  0.21668868610E+01  0.51100000000E-03 0.  1.
        -12    1    4    4    0    0  0.61011090221E+00 -0.24734806491E+02 -0.20540446451E+02  0.32157313753E+02  0.00000000000E+00 0.  1.
</event>
<event>
 8    1  0.2994958E-010  0.9118800E+02  0.7816164E-02  0.1184000E+00
        -11   -1    0    0    0    0  0.00000000000E+00  0.00000000000E+00  0.45593999997E+02  0.45594000000E+02  0.51100000000E-03 0. -1.
         11   -1    0    0    0    0 -0.00000000000E+00 -0.00000000000E+00 -0.45593999997E+02  0.45594000000E+02  0.51100000000E-03 0.  1.
         23    2    1    2    0    0  0.00000000000E+00 -0.17763568394E-14  0.00000000000E+00  0.91188000000E+02  0.91188000000E+02 0.  0.
    9900012    2    3    3    0    0 -0.26102889754E+02  0.93194516224E+01 -0.33397758551E+02  0.47787270648E+02  0.19999998193E+02 0.  0.
         12    1    3    3    0    0  0.26102889754E+02 -0.93194516224E+01  0.33397758551E+02  0.43400729352E+02  0.00000000000E+00 0. -1.
         11    1    4    4    0    0 -0.19230017754E+01  0.20426436177E+01 -0.12184993369E+02  0.12503775128E+02  0.51100000000E-03 0. -1.
        -11    1    4    4    0    0 -0.10937537211E+02 -0.10484690222E+01 -0.14669310518E+02  0.18328057150E+02  0.51100000000E-03 0.  1.
         12    1    4    4    0    0 -0.13242350767E+02  0.83252770269E+01 -0.65434546636E+01  0.16955438371E+02  0.00000000000E+00 0. -1.
</event>
<event>
 8    1  0.2994958E-010  0.9118800E+02  0.7816164E-02  0.1184000E+00
        -11   -1    0    0    0    0  0.00000000000E+00  0.00000000000E+00  0.45593999997E+02  0.45594000000E+02  0.51100000000E-03 0.  1.
         11   -1    0    0    0    0 -0.00000000000E+00 -0.00000000000E+00 -0.45593999997E+02  0.45594000000E+02  0.51100000000E-03 0. -1.
         23    2    1    2    0    0  0.35527136788E-14  0.35527136788E-14  0.00000000000E+00  0.91188000000E+02  0.91188000000E+02 0.  0.
    9900012    2    3    3    0    0  0.20393079953E+02  0.30448681671E+02  0.23251305538E+02  0.47787272648E+02  0.20000007313E+02 0.  0.
        -12    1    3    3    0    0 -0.20393079953E+02 -0.30448681671E+02 -0.23251305538E+02  0.43400727352E+02  0.00000000000E+00 0.  1.
         11    1    4    4    0    0 -0.25577538551E-01  0.15124009488E+02  0.70385655187E+01  0.16681658252E+02  0.51100000000E-03 0. -1.
        -11    1    4    4    0    0  0.12062562634E+02  0.84378178474E+01  0.50733426606E+01  0.15570516797E+02  0.51100000000E-03 0.  1.
        -12    1    4    4    0    0  0.83560948572E+01  0.68868543349E+01  0.11139397359E+02  0.15535097599E+02  0.00000000000E+00 0.  1.
</event>
<event>
 8    1  0.2994958E-010  0.9118800E+02  0.7816164E-02  0.1184000E+00
        -11   -1    0    0    0    0  0.00000000000E+00  0.00000000000E+00  0.45593999997E+02  0.45594000000E+02  0.51100000000E-03 0. -1.
         11   -1    0    0    0    0 -0.00000000000E+00 -0.00000000000E+00 -0.45593999997E+02  0.45594000000E+02  0.51100000000E-03 0.  1.
         23    2    1    2    0    0  0.00000000000E+00  0.00000000000E+00  0.00000000000E+00  0.91188000000E+02  0.91188000000E+02 0.  0.
    9900012    2    3    3    0    0 -0.64962206797E+01 -0.34723990689E+02  0.25212443690E+02  0.47787265797E+02  0.19999976076E+02 0.  0.
        -12    1    3    3    0    0  0.64962206797E+01  0.34723990689E+02 -0.25212443690E+02  0.43400734203E+02  0.00000000000E+00 0.  1.
         11    1    4    4    0    0 -0.22666656224E+01 -0.44867766425E+01  0.29194782778E+01  0.58131137404E+01  0.51100000000E-03 0. -1.
        -11    1    4    4    0    0  0.18057997523E+01 -0.44896120042E+00 -0.22419723042E+01  0.29135749482E+01  0.51100000000E-03 0.  1.
         12    1    4    4    0    0 -0.60353548096E+01 -0.29788252846E+02  0.24534937716E+02  0.39060577109E+02  0.00000000000E+00 0. -1.
</event>
<event>
 8    1  0.2994958E-010  0.9118800E+02  0.7816164E-02  0.1184000E+00
        -11   -1    0    0    0    0  0.00000000000E+00  0.00000000000E+00  0.45593999997E+02  0.45594000000E+02  0.51100000000E-03 0. -1.
         11   -1    0    0    0    0 -0.00000000000E+00 -0.00000000000E+00 -0.45593999997E+02  0.45594000000E+02  0.51100000000E-03 0.  1.
         23    2    1    2    0    0  0.00000000000E+00  0.00000000000E+00 -0.35527136788E-14  0.91188000000E+02  0.91188000000E+02 0.  0.
    9900012    2    3    3    0    0  0.28494638679E+02  0.12242061947E+02  0.30361335735E+02  0.47787271645E+02  0.20000002737E+02 0.  0.
        -12    1    3    3    0    0 -0.28494638679E+02 -0.12242061947E+02 -0.30361335735E+02  0.43400728355E+02  0.00000000000E+00 0.  1.
         11    1    4    4    0    0  0.79824108332E+01 -0.15006310935E+01  0.14317159229E+02  0.16460614358E+02  0.51100000000E-03 0. -1.
        -11    1    4    4    0    0  0.88111844768E+01 -0.41005449995E-01  0.57412534192E+01  0.10516684098E+02  0.51100000000E-03 0.  1.
        -12    1    4    4    0    0  0.11701043369E+02  0.13783698490E+02  0.10302923087E+02  0.20809973189E+02  0.00000000000E+00 0.  1.
</event>
<event>
 8    1  0.2994958E-010  0.9118800E+02  0.7816164E-02  0.1184000E+00
        -11   -1    0    0    0    0  0.00000000000E+00  0.00000000000E+00  0.45593999997E+02  0.45594000000E+02  0.51100000000E-03 0. -1.
         11   -1    0    0    0    0 -0.00000000000E+00 -0.00000000000E+00 -0.45593999997E+02  0.45594000000E+02  0.51100000000E-03 0.  1.
         23    2    1    2    0    0 -0.35527136788E-14  0.00000000000E+00  0.00000000000E+00  0.91188000000E+02  0.91188000000E+02 0.  0.
    9900012    2    3    3    0    0 -0.24894912180E+02 -0.11833828807E+02  0.33523530840E+02  0.47787271012E+02  0.19999999853E+02 0.  0.
        -12    1    3    3    0    0  0.24894912180E+02  0.11833828807E+02 -0.33523530840E+02  0.43400728988E+02  0.00000000000E+00 0.  1.
         11    1    4    4    0    0 -0.34679868376E+01 -0.74665581492E+00  0.68814381993E+01  0.77420035884E+01  0.51100000000E-03 0. -1.
        -11    1    4    4    0    0 -0.11634545207E+01  0.24245950579E+01 -0.12929260819E+01  0.29839480108E+01  0.51100000000E-03 0.  1.
         12    1    4    4    0    0 -0.20263470821E+02 -0.13511768050E+02  0.27935018723E+02  0.37061319413E+02  0.00000000000E+00 0. -1.
</event>
<event>
 8    1  0.2994958E-010  0.9118800E+02  0.7816164E-02  0.1184000E+00
        -11   -1    0    0    0    0  0.00000000000E+00  0.00000000000E+00  0.45593999997E+02  0.45594000000E+02  0.51100000000E-03 0. -1.
         11   -1    0    0    0    0 -0.00000000000E+00 -0.00000000000E+00 -0.45593999997E+02  0.45594000000E+02  0.51100000000E-03 0.  1.
         23    2    1    2    0    0  0.00000000000E+00 -0.35527136788E-14  0.00000000000E+00  0.91188000000E+02  0.91188000000E+02 0.  0.
    9900012    2    3    3    0    0 -0.26365738148E+02  0.28240767994E+02  0.19771952785E+02  0.47787271413E+02  0.20000001679E+02 0.  0.
        -12    1    3    3    0    0  0.26365738148E+02 -0.28240767994E+02 -0.19771952785E+02  0.43400728587E+02  0.00000000000E+00 0.  1.
         11    1    4    4    0    0 -0.82975371769E+01  0.36060623821E+01  0.96816333602E+01  0.13250918228E+02  0.51100000000E-03 0. -1.
        -11    1    4    4    0    0 -0.68197881062E+01  0.13486583451E+02  0.10970781813E+02  0.18674996568E+02  0.51100000000E-03 0.  1.
        -12    1    4    4    0    0 -0.11248412865E+02  0.11148122161E+02 -0.88046238752E+00  0.15861356616E+02  0.00000000000E+00 0.  1.
</event>
<event>
 8    1  0.2994958E-010  0.9118800E+02  0.7816164E-02  0.1184000E+00
        -11   -1    0    0    0    0  0.00000000000E+00  0.00000000000E+00  0.45593999997E+02  0.45594000000E+02  0.51100000000E-03 0. -1.
         11   -1    0    0    0    0 -0.00000000000E+00 -0.00000000000E+00 -0.45593999997E+02  0.45594000000E+02  0.51100000000E-03 0.  1.
         23    2    1    2    0    0  0.00000000000E+00  0.00000000000E+00  0.00000000000E+00  0.91188000000E+02  0.91188000000E+02 0.  0.
    9900012    2    3    3    0    0  0.10786199087E+02  0.31084383406E+01  0.41923962272E+02  0.47787273137E+02  0.20000009539E+02 0.  0.
        -12    1    3    3    0    0 -0.10786199087E+02 -0.31084383406E+01 -0.41923962272E+02  0.43400726863E+02  0.00000000000E+00 0.  1.
         11    1    4    4    0    0  0.66824595720E+01  0.64552969917E+01  0.27203371592E+02  0.28746296308E+02  0.51100000000E-03 0. -1.
        -11    1    4    4    0    0  0.31721500607E+01 -0.38154594333E+01  0.16361172209E+02  0.17097023805E+02  0.51100000000E-03 0.  1.
         12    1    4    4    0    0  0.93158945401E+00  0.46860078220E+00 -0.16405815287E+01  0.19439530232E+01  0.00000000000E+00 0. -1.
</event>
<event>
 8    1  0.3001847E-010  0.9118800E+02  0.7816164E-02  0.1184000E+00
        -11   -1    0    0    0    0  0.00000000000E+00  0.00000000000E+00  0.45593999997E+02  0.45594000000E+02  0.51100000000E-03 0. -1.
         11   -1    0    0    0    0 -0.00000000000E+00 -0.00000000000E+00 -0.45593999997E+02  0.45594000000E+02  0.51100000000E-03 0.  1.
         23    2    1    2    0    0 -0.35527136788E-14  0.00000000000E+00  0.00000000000E+00  0.91188000000E+02  0.91188000000E+02 0.  0.
    9900012    2    3    3    0    0 -0.31741880132E+02 -0.35188912119E+01  0.29388659136E+02  0.47787276095E+02  0.20000023027E+02 0.  0.
        -12    1    3    3    0    0  0.31741880132E+02  0.35188912119E+01 -0.29388659136E+02  0.43400723905E+02  0.00000000000E+00 0.  1.
         11    1    4    4    0    0 -0.42523913026E+01 -0.24875270559E+01  0.39830279658E+00  0.49425972953E+01  0.51100000000E-03 0. -1.
        -11    1    4    4    0    0 -0.15940092120E+02  0.25042831479E-01  0.58846245517E+01  0.16991644133E+02  0.51100000000E-03 0.  1.
         12    1    4    4    0    0 -0.11549396709E+02 -0.10564069876E+01  0.23105731787E+02  0.25853034667E+02  0.00000000000E+00 0. -1.
</event>
<event>
 8    1  0.2994958E-010  0.9118800E+02  0.7816164E-02  0.1184000E+00
        -11   -1    0    0    0    0  0.00000000000E+00  0.00000000000E+00  0.45593999997E+02  0.45594000000E+02  0.51100000000E-03 0. -1.
         11   -1    0    0    0    0 -0.00000000000E+00 -0.00000000000E+00 -0.45593999997E+02  0.45594000000E+02  0.51100000000E-03 0.  1.
         23    2    1    2    0    0  0.00000000000E+00  0.00000000000E+00  0.00000000000E+00  0.91188000000E+02  0.91188000000E+02 0.  0.
    9900012    2    3    3    0    0 -0.24176334482E+02  0.22879266929E+02  0.27850810455E+02  0.47787266744E+02  0.19999980391E+02 0.  0.
        -12    1    3    3    0    0  0.24176334482E+02 -0.22879266929E+02 -0.27850810455E+02  0.43400733256E+02  0.00000000000E+00 0.  1.
         11    1    4    4    0    0 -0.47693076496E+01 -0.32571264540E+00  0.58794016274E+01  0.75775819324E+01  0.51100000000E-03 0. -1.
        -11    1    4    4    0    0 -0.12870914292E+01  0.17560381953E+01  0.90368348101E+01  0.92954105954E+01  0.51100000000E-03 0.  1.
         12    1    4    4    0    0 -0.18119935403E+02  0.21448941379E+02  0.12934574017E+02  0.30914274216E+02  0.00000000000E+00 0. -1.
</event>
<event>
 8    1  0.2994958E-010  0.9118800E+02  0.7816164E-02  0.1184000E+00
        -11   -1    0    0    0    0  0.00000000000E+00  0.00000000000E+00  0.45593999997E+02  0.45594000000E+02  0.51100000000E-03 0. -1.
         11   -1    0    0    0    0 -0.00000000000E+00 -0.00000000000E+00 -0.45593999997E+02  0.45594000000E+02  0.51100000000E-03 0.  1.
         23    2    1    2    0    0  0.00000000000E+00  0.35527136788E-14  0.00000000000E+00  0.91188000000E+02  0.91188000000E+02 0.  0.
    9900012    2    3    3    0    0  0.63244643678E+01  0.29782919277E+02 -0.30928986017E+02  0.47787270672E+02  0.19999998301E+02 0.  0.
         12    1    3    3    0    0 -0.63244643678E+01 -0.29782919277E+02  0.30928986017E+02  0.43400729328E+02  0.00000000000E+00 0. -1.
         11    1    4    4    0    0  0.38518253528E+01  0.17671554464E+02 -0.10281862589E+02  0.20804737304E+02  0.51100000000E-03 0. -1.
        -11    1    4    4    0    0  0.15307854020E+01  0.13463365204E+02 -0.11753005942E+02  0.17937074887E+02  0.51100000000E-03 0.  1.
         12    1    4    4    0    0  0.94185361305E+00 -0.13520003910E+01 -0.88941174852E+01  0.90454584807E+01  0.00000000000E+00 0. -1.
</event>
<event>
 8    1  0.2994958E-010  0.9118800E+02  0.7816164E-02  0.1184000E+00
        -11   -1    0    0    0    0  0.00000000000E+00  0.00000000000E+00  0.45593999997E+02  0.45594000000E+02  0.51100000000E-03 0. -1.
         11   -1    0    0    0    0 -0.00000000000E+00 -0.00000000000E+00 -0.45593999997E+02  0.45594000000E+02  0.51100000000E-03 0.  1.
         23    2    1    2    0    0 -0.44408920985E-15  0.00000000000E+00  0.00000000000E+00  0.91188000000E+02  0.91188000000E+02 0.  0.
    9900012    2    3    3    0    0 -0.37787770907E+01  0.12842164694E+02 -0.41284659901E+02  0.47787268515E+02  0.19999988465E+02 0.  0.
         12    1    3    3    0    0  0.37787770907E+01 -0.12842164694E+02  0.41284659901E+02  0.43400731485E+02  0.00000000000E+00 0. -1.
         11    1    4    4    0    0  0.21250419492E+01 -0.77753876266E+00  0.11547111524E+01  0.25404188473E+01  0.51100000000E-03 0. -1.
        -11    1    4    4    0    0 -0.15686047375E+01  0.45828321074E+01 -0.77562451198E+01  0.91445180063E+01  0.51100000000E-03 0.  1.
        -12    1    4    4    0    0 -0.43352143023E+01  0.90368713491E+01 -0.34683125934E+02  0.36102331661E+02  0.00000000000E+00 0.  1.
</event>
<event>
 8    1  0.2994958E-010  0.9118800E+02  0.7816164E-02  0.1184000E+00
        -11   -1    0    0    0    0  0.00000000000E+00  0.00000000000E+00  0.45593999997E+02  0.45594000000E+02  0.51100000000E-03 0. -1.
         11   -1    0    0    0    0 -0.00000000000E+00 -0.00000000000E+00 -0.45593999997E+02  0.45594000000E+02  0.51100000000E-03 0.  1.
         23    2    1    2    0    0 -0.71054273576E-14  0.00000000000E+00  0.35527136788E-14  0.91188000000E+02  0.91188000000E+02 0.  0.
    9900012    2    3    3    0    0  0.23135368014E+02 -0.31162998528E+02 -0.19422808104E+02  0.47787271837E+02  0.20000003615E+02 0.  0.
         12    1    3    3    0    0 -0.23135368014E+02  0.31162998528E+02  0.19422808104E+02  0.43400728163E+02  0.00000000000E+00 0. -1.
         11    1    4    4    0    0  0.10150178423E+02 -0.75157174055E+01 -0.64440026658E+01  0.14178762314E+02  0.51100000000E-03 0. -1.
        -11    1    4    4    0    0  0.16074722830E+02 -0.22562340952E+02 -0.11193311818E+02  0.29878858295E+02  0.51100000000E-03 0.  1.
         12    1    4    4    0    0 -0.30895332397E+01 -0.10849401701E+01 -0.17854936212E+01  0.37296512281E+01  0.00000000000E+00 0. -1.
</event>
<event>
 8    1  0.2994958E-010  0.9118800E+02  0.7816164E-02  0.1184000E+00
        -11   -1    0    0    0    0  0.00000000000E+00  0.00000000000E+00  0.45593999997E+02  0.45594000000E+02  0.51100000000E-03 0. -1.
         11   -1    0    0    0    0 -0.00000000000E+00 -0.00000000000E+00 -0.45593999997E+02  0.45594000000E+02  0.51100000000E-03 0.  1.
         23    2    1    2    0    0  0.00000000000E+00 -0.44408920985E-15  0.00000000000E+00  0.91188000000E+02  0.91188000000E+02 0.  0.
    9900012    2    3    3    0    0 -0.18833174921E+02  0.20856970241E+01 -0.39045910330E+02  0.47787288909E+02  0.20000081453E+02 0.  0.
         12    1    3    3    0    0  0.18833174921E+02 -0.20856970241E+01  0.39045910330E+02  0.43400711091E+02  0.00000000000E+00 0. -1.
         11    1    4    4    0    0  0.12592663553E+01 -0.22984940945E+01 -0.30627977943E+01  0.40310739817E+01  0.51100000000E-03 0. -1.
        -11    1    4    4    0    0 -0.49283171434E+01 -0.48503703849E+01 -0.75770805055E+01  0.10257999414E+02  0.51100000000E-03 0.  1.
        -12    1    4    4    0    0 -0.15164124133E+02  0.92345615035E+01 -0.28406032030E+02  0.33498215513E+02  0.00000000000E+00 0.  1.
</event>
<event>
 8    1  0.2994958E-010  0.9118800E+02  0.7816164E-02  0.1184000E+00
        -11   -1    0    0    0    0  0.00000000000E+00  0.00000000000E+00  0.45593999997E+02  0.45594000000E+02  0.51100000000E-03 0. -1.
         11   -1    0    0    0    0 -0.00000000000E+00 -0.00000000000E+00 -0.45593999997E+02  0.45594000000E+02  0.51100000000E-03 0.  1.
         23    2    1    2    0    0  0.71054273576E-14  0.17763568394E-14 -0.22204460493E-15  0.91188000000E+02  0.91188000000E+02 0.  0.
    9900012    2    3    3    0    0 -0.41053150018E+02 -0.14034486218E+02  0.11381003944E+01  0.47787271869E+02  0.20000003761E+02 0.  0.
        -12    1    3    3    0    0  0.41053150018E+02  0.14034486218E+02 -0.11381003944E+01  0.43400728131E+02  0.00000000000E+00 0.  1.
         11    1    4    4    0    0  0.27096165932E+00 -0.40135457347E+01  0.26622510454E+01  0.48238522443E+01  0.51100000000E-03 0. -1.
        -11    1    4    4    0    0 -0.45673774333E+00  0.24044137639E+00  0.57817870237E+00  0.77505631709E+00  0.51100000000E-03 0.  1.
         12    1    4    4    0    0 -0.40867373934E+02 -0.10261381859E+02 -0.21023293533E+01  0.42188363308E+02  0.00000000000E+00 0. -1.
</event>
<event>
 8    1  0.2994958E-010  0.9118800E+02  0.7816164E-02  0.1184000E+00
        -11   -1    0    0    0    0  0.00000000000E+00  0.00000000000E+00  0.45593999997E+02  0.45594000000E+02  0.51100000000E-03 0. -1.
         11   -1    0    0    0    0 -0.00000000000E+00 -0.00000000000E+00 -0.45593999997E+02  0.45594000000E+02  0.51100000000E-03 0.  1.
         23    2    1    2    0    0  0.00000000000E+00  0.00000000000E+00  0.17763568394E-14  0.91188000000E+02  0.91188000000E+02 0.  0.
    9900012    2    3    3    0    0 -0.31289519235E+02  0.26445959920E+02 -0.14324828728E+02  0.47787268115E+02  0.19999986645E+02 0.  0.
         12    1    3    3    0    0  0.31289519235E+02 -0.26445959920E+02  0.14324828728E+02  0.43400731885E+02  0.00000000000E+00 0. -1.
         11    1    4    4    0    0 -0.17992661904E+00 -0.62012852392E+00  0.36760874755E+00  0.74301374605E+00  0.51100000000E-03 0. -1.
        -11    1    4    4    0    0 -0.19007466157E+02  0.12565102860E+02 -0.16409022434E+02  0.28078846079E+02  0.51100000000E-03 0.  1.
        -12    1    4    4    0    0 -0.12102126459E+02  0.14500985584E+02  0.17165849584E+01  0.18965408291E+02  0.00000000000E+00 0.  1.
</event>
<event>
 8    1  0.2994958E-010  0.9118800E+02  0.7816164E-02  0.1184000E+00
        -11   -1    0    0    0    0  0.00000000000E+00  0.00000000000E+00  0.45593999997E+02  0.45594000000E+02  0.51100000000E-03 0. -1.
         11   -1    0    0    0    0 -0.00000000000E+00 -0.00000000000E+00 -0.45593999997E+02  0.45594000000E+02  0.51100000000E-03 0.  1.
         23    2    1    2    0    0 -0.88817841970E-15 -0.88817841970E-15  0.00000000000E+00  0.91188000000E+02  0.91188000000E+02 0.  0.
    9900012    2    3    3    0    0 -0.60036196977E+01  0.47017240873E+01  0.42725561202E+02  0.47787271448E+02  0.20000001839E+02 0.  0.
        -12    1    3    3    0    0  0.60036196977E+01 -0.47017240873E+01 -0.42725561202E+02  0.43400728552E+02  0.00000000000E+00 0.  1.
         11    1    4    4    0    0  0.28011926784E+01  0.26280455958E+01  0.93525758895E+01  0.10110587525E+02  0.51100000000E-03 0. -1.
        -11    1    4    4    0    0 -0.40213468199E+01  0.77711931441E+01  0.10744247360E+02  0.13856461479E+02  0.51100000000E-03 0.  1.
         12    1    4    4    0    0 -0.47834655562E+01 -0.56975146526E+01  0.22628737952E+02  0.23820222443E+02  0.00000000000E+00 0. -1.
</event>
<event>
 8    1  0.2994958E-010  0.9118800E+02  0.7816164E-02  0.1184000E+00
        -11   -1    0    0    0    0  0.00000000000E+00  0.00000000000E+00  0.45593999997E+02  0.45594000000E+02  0.51100000000E-03 0. -1.
         11   -1    0    0    0    0 -0.00000000000E+00 -0.00000000000E+00 -0.45593999997E+02  0.45594000000E+02  0.51100000000E-03 0.  1.
         23    2    1    2    0    0  0.17763568394E-14  0.00000000000E+00  0.00000000000E+00  0.91188000000E+02  0.91188000000E+02 0.  0.
    9900012    2    3    3    0    0 -0.15409349618E+02 -0.13099566783E+02  0.38400221414E+02  0.47787266018E+02  0.19999977082E+02 0.  0.
        -12    1    3    3    0    0  0.15409349618E+02  0.13099566783E+02 -0.38400221414E+02  0.43400733982E+02  0.00000000000E+00 0.  1.
         11    1    4    4    0    0  0.14125989870E+01 -0.18134057088E+00  0.10127783829E+02  0.10227430070E+02  0.51100000000E-03 0. -1.
        -11    1    4    4    0    0 -0.51972819262E+01 -0.28461971580E+01  0.67280603467E+00  0.59636604450E+01  0.51100000000E-03 0.  1.
         12    1    4    4    0    0 -0.11624666679E+02 -0.10072029054E+02  0.27599631550E+02  0.31596175502E+02  0.00000000000E+00 0. -1.
</event>
<event>
 8    1  0.2994958E-010  0.9118800E+02  0.7816164E-02  0.1184000E+00
        -11   -1    0    0    0    0  0.00000000000E+00  0.00000000000E+00  0.45593999997E+02  0.45594000000E+02  0.51100000000E-03 0. -1.
         11   -1    0    0    0    0 -0.00000000000E+00 -0.00000000000E+00 -0.45593999997E+02  0.45594000000E+02  0.51100000000E-03 0.  1.
         23    2    1    2    0    0 -0.88817841970E-15 -0.88817841970E-15 -0.71054273576E-14  0.91188000000E+02  0.91188000000E+02 0.  0.
    9900012    2    3    3    0    0  0.50770632770E+01  0.71907068621E+01  0.42498710938E+02  0.47787271111E+02  0.20000000305E+02 0.  0.
        -12    1    3    3    0    0 -0.50770632770E+01 -0.71907068621E+01 -0.42498710938E+02  0.43400728889E+02  0.00000000000E+00 0.  1.
         11    1    4    4    0    0  0.38095533868E+01 -0.13657183657E+01  0.15388603526E+02  0.15911851005E+02  0.51100000000E-03 0. -1.
        -11    1    4    4    0    0  0.54182519175E+01  0.58607297551E+01  0.54688419605E+01  0.96754245258E+01  0.51100000000E-03 0.  1.
         12    1    4    4    0    0 -0.41507420272E+01  0.26956954727E+01  0.21641265451E+02  0.22199995581E+02  0.00000000000E+00 0. -1.
</event>
<event>
 8    1  0.2994958E-010  0.9118800E+02  0.7816164E-02  0.1184000E+00
        -11   -1    0    0    0    0  0.00000000000E+00  0.00000000000E+00  0.45593999997E+02  0.45594000000E+02  0.51100000000E-03 0. -1.
         11   -1    0    0    0    0 -0.00000000000E+00 -0.00000000000E+00 -0.45593999997E+02  0.45594000000E+02  0.51100000000E-03 0.  1.
         23    2    1    2    0    0 -0.17763568394E-14  0.35527136788E-14  0.00000000000E+00  0.91188000000E+02  0.91188000000E+02 0.  0.
    9900012    2    3    3    0    0 -0.83202064699E+01 -0.22061834421E+02 -0.36437245866E+02  0.47787271204E+02  0.20000000728E+02 0.  0.
         12    1    3    3    0    0  0.83202064699E+01  0.22061834421E+02  0.36437245866E+02  0.43400728796E+02  0.00000000000E+00 0. -1.
         11    1    4    4    0    0  0.11057740320E+01  0.10313605577E+01 -0.14471398076E+01  0.20930013602E+01  0.51100000000E-03 0. -1.
        -11    1    4    4    0    0  0.32525804628E+01 -0.60397994911E+01 -0.15111951941E+02  0.16596070296E+02  0.51100000000E-03 0.  1.
        -12    1    4    4    0    0 -0.12678560965E+02 -0.17053395488E+02 -0.19878154117E+02  0.29098199548E+02  0.00000000000E+00 0.  1.
</event>
<event>
 8    1  0.2994958E-010  0.9118800E+02  0.7816164E-02  0.1184000E+00
        -11   -1    0    0    0    0  0.00000000000E+00  0.00000000000E+00  0.45593999997E+02  0.45594000000E+02  0.51100000000E-03 0. -1.
         11   -1    0    0    0    0 -0.00000000000E+00 -0.00000000000E+00 -0.45593999997E+02  0.45594000000E+02  0.51100000000E-03 0.  1.
         23    2    1    2    0    0  0.00000000000E+00 -0.88817841970E-15  0.00000000000E+00  0.91188000000E+02  0.91188000000E+02 0.  0.
    9900012    2    3    3    0    0 -0.41653063230E+02 -0.71378748035E+01  0.98841473097E+01  0.47787270730E+02  0.19999998565E+02 0.  0.
        -12    1    3    3    0    0  0.41653063230E+02  0.71378748035E+01 -0.98841473097E+01  0.43400729270E+02  0.00000000000E+00 0.  1.
         11    1    4    4    0    0 -0.35359045916E+01 -0.83440504072E+00  0.36796307359E+01  0.51709317987E+01  0.51100000000E-03 0. -1.
        -11    1    4    4    0    0 -0.43628554883E+01 -0.70834178567E+01  0.18920844454E+00  0.83213650707E+01  0.51100000000E-03 0.  1.
         12    1    4    4    0    0 -0.33754303150E+02  0.77994809395E+00  0.60153081292E+01  0.34294973860E+02  0.00000000000E+00 0. -1.
</event>
<event>
 8    1  0.2994958E-010  0.9118800E+02  0.7816164E-02  0.1184000E+00
        -11   -1    0    0    0    0  0.00000000000E+00  0.00000000000E+00  0.45593999997E+02  0.45594000000E+02  0.51100000000E-03 0. -1.
         11   -1    0    0    0    0 -0.00000000000E+00 -0.00000000000E+00 -0.45593999997E+02  0.45594000000E+02  0.51100000000E-03 0.  1.
         23    2    1    2    0    0 -0.35527136788E-14  0.00000000000E+00  0.00000000000E+00  0.91188000000E+02  0.91188000000E+02 0.  0.
    9900012    2    3    3    0    0 -0.18452900718E+02  0.91583147307E+01 -0.38199989328E+02  0.47787268920E+02  0.19999990313E+02 0.  0.
         12    1    3    3    0    0  0.18452900718E+02 -0.91583147307E+01  0.38199989328E+02  0.43400731080E+02  0.00000000000E+00 0. -1.
         11    1    4    4    0    0 -0.68292568379E+01 -0.44140163514E+01 -0.98448504519E+01  0.12768843722E+02  0.51100000000E-03 0.  1.
        -11    1    4    4    0    0 -0.44243544858E+01  0.65528171244E+00 -0.12785971097E+02  0.13545676945E+02  0.51100000000E-03 0. -1.
        -12    1    4    4    0    0 -0.71992893943E+01  0.12917049370E+02 -0.15569167779E+02  0.21472748253E+02  0.00000000000E+00 0.  1.
</event>
<event>
 8    1  0.2994958E-010  0.9118800E+02  0.7816164E-02  0.1184000E+00
        -11   -1    0    0    0    0  0.00000000000E+00  0.00000000000E+00  0.45593999997E+02  0.45594000000E+02  0.51100000000E-03 0. -1.
         11   -1    0    0    0    0 -0.00000000000E+00 -0.00000000000E+00 -0.45593999997E+02  0.45594000000E+02  0.51100000000E-03 0.  1.
         23    2    1    2    0    0  0.00000000000E+00 -0.88817841970E-15 -0.71054273576E-14  0.91188000000E+02  0.91188000000E+02 0.  0.
    9900012    2    3    3    0    0  0.27397707000E+02 -0.70746184307E+01 -0.32908037656E+02  0.47787268241E+02  0.19999987219E+02 0.  0.
         12    1    3    3    0    0 -0.27397707000E+02  0.70746184307E+01  0.32908037656E+02  0.43400731759E+02  0.00000000000E+00 0. -1.
         11    1    4    4    0    0  0.80732967609E+01  0.10395600717E+01 -0.11324444066E+02  0.13946391627E+02  0.51100000000E-03 0. -1.
        -11    1    4    4    0    0  0.18507345440E+02 -0.77395392760E+01 -0.23990002600E+02  0.31272072660E+02  0.51100000000E-03 0.  1.
         12    1    4    4    0    0  0.81706479890E+00 -0.37463922644E+00  0.24064090097E+01  0.25688039547E+01  0.00000000000E+00 0. -1.
</event>
<event>
 8    1  0.2994958E-010  0.9118800E+02  0.7816164E-02  0.1184000E+00
        -11   -1    0    0    0    0  0.00000000000E+00  0.00000000000E+00  0.45593999997E+02  0.45594000000E+02  0.51100000000E-03 0.  1.
         11   -1    0    0    0    0 -0.00000000000E+00 -0.00000000000E+00 -0.45593999997E+02  0.45594000000E+02  0.51100000000E-03 0. -1.
         23    2    1    2    0    0  0.00000000000E+00 -0.88817841970E-15 -0.17763568394E-14  0.91188000000E+02  0.91188000000E+02 0.  0.
    9900012    2    3    3    0    0 -0.41348473682E+02  0.51603855395E+01 -0.12136607948E+02  0.47787272964E+02  0.20000008754E+02 0.  0.
         12    1    3    3    0    0  0.41348473682E+02 -0.51603855395E+01  0.12136607948E+02  0.43400727036E+02  0.00000000000E+00 0. -1.
         11    1    4    4    0    0 -0.26004451786E+01  0.35993634514E+01  0.27357599071E+01  0.52155646782E+01  0.51100000000E-03 0. -1.
        -11    1    4    4    0    0 -0.18338671600E+02  0.44428201902E+01 -0.40793897329E+01  0.19305101609E+02  0.51100000000E-03 0.  1.
         12    1    4    4    0    0 -0.20409356904E+02 -0.28817981020E+01 -0.10792978122E+02  0.23266606677E+02  0.00000000000E+00 0. -1.
</event>
<event>
 8    1  0.2994958E-010  0.9118800E+02  0.7816164E-02  0.1184000E+00
        -11   -1    0    0    0    0  0.00000000000E+00  0.00000000000E+00  0.45593999997E+02  0.45594000000E+02  0.51100000000E-03 0. -1.
         11   -1    0    0    0    0 -0.00000000000E+00 -0.00000000000E+00 -0.45593999997E+02  0.45594000000E+02  0.51100000000E-03 0.  1.
         23    2    1    2    0    0  0.00000000000E+00 -0.35527136788E-14 -0.71054273576E-14  0.91188000000E+02  0.91188000000E+02 0.  0.
    9900012    2    3    3    0    0  0.13430845657E+02 -0.24881724722E+02 -0.32926209446E+02  0.47787272948E+02  0.20000008677E+02 0.  0.
         12    1    3    3    0    0 -0.13430845657E+02  0.24881724722E+02  0.32926209446E+02  0.43400727052E+02  0.00000000000E+00 0. -1.
         11    1    4    4    0    0 -0.57632815529E+00 -0.36638704331E+01 -0.66622619659E+01  0.76250793738E+01  0.51100000000E-03 0. -1.
        -11    1    4    4    0    0  0.45553554073E+00  0.14646193064E+01 -0.77469717513E+01  0.78973536022E+01  0.51100000000E-03 0.  1.
         12    1    4    4    0    0  0.13551638271E+02 -0.22682473596E+02 -0.18516975728E+02  0.32264839972E+02  0.00000000000E+00 0. -1.
</event>
<event>
 8    1  0.2994958E-010  0.9118800E+02  0.7816164E-02  0.1184000E+00
        -11   -1    0    0    0    0  0.00000000000E+00  0.00000000000E+00  0.45593999997E+02  0.45594000000E+02  0.51100000000E-03 0. -1.
         11   -1    0    0    0    0 -0.00000000000E+00 -0.00000000000E+00 -0.45593999997E+02  0.45594000000E+02  0.51100000000E-03 0.  1.
         23    2    1    2    0    0  0.00000000000E+00  0.00000000000E+00  0.00000000000E+00  0.91188000000E+02  0.91188000000E+02 0.  0.
    9900012    2    3    3    0    0  0.36583632619E+02  0.70864074465E+01 -0.22249585054E+02  0.47787269808E+02  0.19999994363E+02 0.  0.
         12    1    3    3    0    0 -0.36583632619E+02 -0.70864074465E+01  0.22249585054E+02  0.43400730192E+02  0.00000000000E+00 0. -1.
         11    1    4    4    0    0  0.71050698582E+01  0.60842894984E+01 -0.17774454192E+01  0.95215497095E+01  0.51100000000E-03 0. -1.
        -11    1    4    4    0    0 -0.78238155421E+00 -0.10106123899E+01 -0.30097024520E+01  0.32698268164E+01  0.51100000000E-03 0.  1.
        -12    1    4    4    0    0  0.30260944315E+02  0.20127303380E+01 -0.17462437183E+02  0.34995893282E+02  0.00000000000E+00 0.  1.
</event>
<event>
 8    1  0.2994958E-010  0.9118800E+02  0.7816164E-02  0.1184000E+00
        -11   -1    0    0    0    0  0.00000000000E+00  0.00000000000E+00  0.45593999997E+02  0.45594000000E+02  0.51100000000E-03 0. -1.
         11   -1    0    0    0    0 -0.00000000000E+00 -0.00000000000E+00 -0.45593999997E+02  0.45594000000E+02  0.51100000000E-03 0.  1.
         23    2    1    2    0    0  0.00000000000E+00 -0.17763568394E-14  0.00000000000E+00  0.91188000000E+02  0.91188000000E+02 0.  0.
    9900012    2    3    3    0    0  0.23329717998E+02 -0.92769775204E+01  0.35401772505E+02  0.47787267860E+02  0.19999985481E+02 0.  0.
        -12    1    3    3    0    0 -0.23329717998E+02  0.92769775204E+01 -0.35401772505E+02  0.43400732140E+02  0.00000000000E+00 0.  1.
         11    1    4    4    0    0  0.73167285558E+01 -0.37505941110E+01  0.52051547708E+01  0.97311412175E+01  0.51100000000E-03 0. -1.
        -11    1    4    4    0    0 -0.23027778362E+01  0.72362756896E+00  0.28605390306E+00  0.24306891447E+01  0.51100000000E-03 0.  1.
         12    1    4    4    0    0  0.18315767278E+02 -0.62500109783E+01  0.29910563831E+02  0.35625437498E+02  0.00000000000E+00 0. -1.
</event>
<event>
 8    1  0.2994958E-010  0.9118800E+02  0.7816164E-02  0.1184000E+00
        -11   -1    0    0    0    0  0.00000000000E+00  0.00000000000E+00  0.45593999997E+02  0.45594000000E+02  0.51100000000E-03 0. -1.
         11   -1    0    0    0    0 -0.00000000000E+00 -0.00000000000E+00 -0.45593999997E+02  0.45594000000E+02  0.51100000000E-03 0.  1.
         23    2    1    2    0    0  0.00000000000E+00  0.00000000000E+00  0.00000000000E+00  0.91188000000E+02  0.91188000000E+02 0.  0.
    9900012    2    3    3    0    0 -0.61663072433E+01  0.31537000683E+02 -0.29172207578E+02  0.47787268992E+02  0.19999990640E+02 0.  0.
         12    1    3    3    0    0  0.61663072433E+01 -0.31537000683E+02  0.29172207578E+02  0.43400731008E+02  0.00000000000E+00 0. -1.
         11    1    4    4    0    0  0.10868552306E+01  0.15214366059E+01 -0.40764035376E+01  0.44847619447E+01  0.51100000000E-03 0.  1.
        -11    1    4    4    0    0  0.27375187964E+01  0.50389242516E+01 -0.12178779674E+02  0.13461331338E+02  0.51100000000E-03 0. -1.
         12    1    4    4    0    0 -0.99906812703E+01  0.24976639825E+02 -0.12917024366E+02  0.29841175709E+02  0.00000000000E+00 0. -1.
</event>
<event>
 8    1  0.2994958E-010  0.9118800E+02  0.7816164E-02  0.1184000E+00
        -11   -1    0    0    0    0  0.00000000000E+00  0.00000000000E+00  0.45593999997E+02  0.45594000000E+02  0.51100000000E-03 0. -1.
         11   -1    0    0    0    0 -0.00000000000E+00 -0.00000000000E+00 -0.45593999997E+02  0.45594000000E+02  0.51100000000E-03 0.  1.
         23    2    1    2    0    0 -0.88817841970E-15  0.71054273576E-14  0.00000000000E+00  0.91188000000E+02  0.91188000000E+02 0.  0.
    9900012    2    3    3    0    0 -0.70332191636E+01  0.39388321113E+02 -0.16814200737E+02  0.47787270072E+02  0.19999995565E+02 0.  0.
         12    1    3    3    0    0  0.70332191636E+01 -0.39388321113E+02  0.16814200737E+02  0.43400729928E+02  0.00000000000E+00 0. -1.
         11    1    4    4    0    0 -0.14417652471E+01 -0.91832185181E+00 -0.50284346791E+00  0.17818119614E+01  0.51100000000E-03 0. -1.
        -11    1    4    4    0    0  0.14517871229E+01  0.18978135071E+02 -0.14837515590E+01  0.19091328282E+02  0.51100000000E-03 0.  1.
        -12    1    4    4    0    0 -0.70432410394E+01  0.21328507893E+02 -0.14827605710E+02  0.26914129828E+02  0.00000000000E+00 0.  1.
</event>
<event>
 8    1  0.2994958E-010  0.9118800E+02  0.7816164E-02  0.1184000E+00
        -11   -1    0    0    0    0  0.00000000000E+00  0.00000000000E+00  0.45593999997E+02  0.45594000000E+02  0.51100000000E-03 0. -1.
         11   -1    0    0    0    0 -0.00000000000E+00 -0.00000000000E+00 -0.45593999997E+02  0.45594000000E+02  0.51100000000E-03 0.  1.
         23    2    1    2    0    0  0.00000000000E+00  0.00000000000E+00  0.00000000000E+00  0.91188000000E+02  0.91188000000E+02 0.  0.
    9900012    2    3    3    0    0  0.15021694037E+02 -0.34737547736E+02 -0.21243253974E+02  0.47787258603E+02  0.19999943272E+02 0.  0.
         12    1    3    3    0    0 -0.15021694037E+02  0.34737547736E+02  0.21243253974E+02  0.43400741397E+02  0.00000000000E+00 0. -1.
         11    1    4    4    0    0  0.63225658791E+01 -0.68328386128E+01  0.47369588892E+00  0.93213148675E+01  0.51100000000E-03 0. -1.
        -11    1    4    4    0    0 -0.74983149638E+00 -0.46534277044E+01  0.76011789087E+00  0.47743498136E+01  0.51100000000E-03 0.  1.
         12    1    4    4    0    0  0.94489596543E+01 -0.23251281419E+02 -0.22477067753E+02  0.33691593921E+02  0.00000000000E+00 0. -1.
</event>
<event>
 8    1  0.2994958E-010  0.9118800E+02  0.7816164E-02  0.1184000E+00
        -11   -1    0    0    0    0  0.00000000000E+00  0.00000000000E+00  0.45593999997E+02  0.45594000000E+02  0.51100000000E-03 0. -1.
         11   -1    0    0    0    0 -0.00000000000E+00 -0.00000000000E+00 -0.45593999997E+02  0.45594000000E+02  0.51100000000E-03 0.  1.
         23    2    1    2    0    0  0.00000000000E+00  0.00000000000E+00  0.00000000000E+00  0.91188000000E+02  0.91188000000E+02 0.  0.
    9900012    2    3    3    0    0 -0.34850067272E+02  0.22926304153E+02  0.11978359263E+02  0.47787266117E+02  0.19999977532E+02 0.  0.
        -12    1    3    3    0    0  0.34850067272E+02 -0.22926304153E+02 -0.11978359263E+02  0.43400733883E+02  0.00000000000E+00 0.  1.
         11    1    4    4    0    0 -0.57494079711E+01  0.66776446536E+00  0.30061703772E+01  0.65221669710E+01  0.51100000000E-03 0. -1.
        -11    1    4    4    0    0 -0.90863548718E+00  0.91218095159E+01  0.16887958689E+01  0.93212155346E+01  0.51100000000E-03 0.  1.
         12    1    4    4    0    0 -0.28192023814E+02  0.13136730172E+02  0.72833930171E+01  0.31943883611E+02  0.00000000000E+00 0. -1.
</event>
<event>
 8    1  0.2994958E-010  0.9118800E+02  0.7816164E-02  0.1184000E+00
        -11   -1    0    0    0    0  0.00000000000E+00  0.00000000000E+00  0.45593999997E+02  0.45594000000E+02  0.51100000000E-03 0. -1.
         11   -1    0    0    0    0 -0.00000000000E+00 -0.00000000000E+00 -0.45593999997E+02  0.45594000000E+02  0.51100000000E-03 0.  1.
         23    2    1    2    0    0  0.00000000000E+00  0.00000000000E+00  0.17763568394E-14  0.91188000000E+02  0.91188000000E+02 0.  0.
    9900012    2    3    3    0    0 -0.39425972591E+02 -0.92931964151E+01 -0.15583811349E+02  0.47787239748E+02  0.19999857305E+02 0.  0.
         12    1    3    3    0    0  0.39425972591E+02  0.92931964151E+01  0.15583811349E+02  0.43400760252E+02  0.00000000000E+00 0. -1.
         11    1    4    4    0    0  0.14966867414E+01 -0.19563558536E+01 -0.20785204407E+01  0.32229872652E+01  0.51100000000E-03 0. -1.
        -11    1    4    4    0    0 -0.11768743650E+02 -0.89359795239E+00 -0.78532045624E+01  0.14176553409E+02  0.51100000000E-03 0.  1.
         12    1    4    4    0    0 -0.29153915682E+02 -0.64432426091E+01 -0.56520863461E+01  0.30387699074E+02  0.00000000000E+00 0. -1.
</event>
<event>
 8    1  0.2994958E-010  0.9118800E+02  0.7816164E-02  0.1184000E+00
        -11   -1    0    0    0    0  0.00000000000E+00  0.00000000000E+00  0.45593999997E+02  0.45594000000E+02  0.51100000000E-03 0. -1.
         11   -1    0    0    0    0 -0.00000000000E+00 -0.00000000000E+00 -0.45593999997E+02  0.45594000000E+02  0.51100000000E-03 0.  1.
         23    2    1    2    0    0 -0.35527136788E-14 -0.44408920985E-15  0.71054273576E-14  0.91188000000E+02  0.91188000000E+02 0.  0.
    9900012    2    3    3    0    0 -0.19513181235E+02  0.24916407134E+01  0.38686558427E+02  0.47787282053E+02  0.20000050193E+02 0.  0.
        -12    1    3    3    0    0  0.19513181235E+02 -0.24916407134E+01 -0.38686558427E+02  0.43400717947E+02  0.00000000000E+00 0.  1.
         11    1    4    4    0    0 -0.11843735396E+02  0.31518058360E+01  0.11462245457E+02  0.16780673984E+02  0.51100000000E-03 0. -1.
        -11    1    4    4    0    0 -0.71479205462E+01  0.49798159055E+01  0.20088568548E+02  0.21896162247E+02  0.51100000000E-03 0.  1.
        -12    1    4    4    0    0 -0.52152529280E+00 -0.56399810281E+01  0.71357444218E+01  0.91104458224E+01  0.00000000000E+00 0.  1.
</event>
<event>
 8    1  0.2994958E-010  0.9118800E+02  0.7816164E-02  0.1184000E+00
        -11   -1    0    0    0    0  0.00000000000E+00  0.00000000000E+00  0.45593999997E+02  0.45594000000E+02  0.51100000000E-03 0. -1.
         11   -1    0    0    0    0 -0.00000000000E+00 -0.00000000000E+00 -0.45593999997E+02  0.45594000000E+02  0.51100000000E-03 0.  1.
         23    2    1    2    0    0  0.00000000000E+00  0.00000000000E+00 -0.17763568394E-14  0.91188000000E+02  0.91188000000E+02 0.  0.
    9900012    2    3    3    0    0  0.23405450791E+02  0.34195578846E+02  0.12902367372E+02  0.47787264717E+02  0.19999971148E+02 0.  0.
        -12    1    3    3    0    0 -0.23405450791E+02 -0.34195578846E+02 -0.12902367372E+02  0.43400735283E+02  0.00000000000E+00 0.  1.
         11    1    4    4    0    0  0.15177601872E+00 -0.94596340237E+00  0.10940371776E+00  0.96428841798E+00  0.51100000000E-03 0. -1.
        -11    1    4    4    0    0  0.18380770828E+02  0.13601118907E+02  0.50203650196E+01  0.23410408731E+02  0.51100000000E-03 0.  1.
         12    1    4    4    0    0  0.48729039444E+01  0.21540423342E+02  0.77725986344E+01  0.23412567568E+02  0.00000000000E+00 0. -1.
</event>
<event>
 8    1  0.2994958E-010  0.9118800E+02  0.7816164E-02  0.1184000E+00
        -11   -1    0    0    0    0  0.00000000000E+00  0.00000000000E+00  0.45593999997E+02  0.45594000000E+02  0.51100000000E-03 0. -1.
         11   -1    0    0    0    0 -0.00000000000E+00 -0.00000000000E+00 -0.45593999997E+02  0.45594000000E+02  0.51100000000E-03 0.  1.
         23    2    1    2    0    0  0.00000000000E+00  0.00000000000E+00  0.00000000000E+00  0.91188000000E+02  0.91188000000E+02 0.  0.
    9900012    2    3    3    0    0 -0.18239506171E+02 -0.18660468126E+02 -0.34680403546E+02  0.47787273668E+02  0.20000011961E+02 0.  0.
         12    1    3    3    0    0  0.18239506171E+02  0.18660468126E+02  0.34680403546E+02  0.43400726332E+02  0.00000000000E+00 0. -1.
         11    1    4    4    0    0 -0.76931720988E+01 -0.72568210120E+01 -0.34545490532E+01  0.11125657624E+02  0.51100000000E-03 0. -1.
        -11    1    4    4    0    0 -0.11443836869E+02 -0.45789950197E+01 -0.19903194206E+02  0.23410803864E+02  0.51100000000E-03 0.  1.
         12    1    4    4    0    0  0.89750279606E+00 -0.68246520942E+01 -0.11322660286E+02  0.13250812180E+02  0.00000000000E+00 0. -1.
</event>
<event>
 8    1  0.2994958E-010  0.9118800E+02  0.7816164E-02  0.1184000E+00
        -11   -1    0    0    0    0  0.00000000000E+00  0.00000000000E+00  0.45593999997E+02  0.45594000000E+02  0.51100000000E-03 0. -1.
         11   -1    0    0    0    0 -0.00000000000E+00 -0.00000000000E+00 -0.45593999997E+02  0.45594000000E+02  0.51100000000E-03 0.  1.
         23    2    1    2    0    0  0.35527136788E-14 -0.17763568394E-14  0.00000000000E+00  0.91188000000E+02  0.91188000000E+02 0.  0.
    9900012    2    3    3    0    0  0.31606952104E+02 -0.74344817601E+01  0.28798475349E+02  0.47787272785E+02  0.20000007937E+02 0.  0.
        -12    1    3    3    0    0 -0.31606952104E+02  0.74344817601E+01 -0.28798475349E+02  0.43400727215E+02  0.00000000000E+00 0.  1.
         11    1    4    4    0    0  0.12573560366E+02 -0.50618001378E+01  0.57724836305E+01  0.14732203109E+02  0.51100000000E-03 0. -1.
        -11    1    4    4    0    0  0.69858284906E+01 -0.37632766777E+01  0.18465782158E+02  0.20098486560E+02  0.51100000000E-03 0.  1.
        -12    1    4    4    0    0  0.12047563247E+02  0.13905950553E+01  0.45602095609E+01  0.12956583116E+02  0.00000000000E+00 0.  1.
</event>
<event>
 8    1  0.3084020E-010  0.9118800E+02  0.7816164E-02  0.1184000E+00
        -11   -1    0    0    0    0  0.00000000000E+00  0.00000000000E+00  0.45593999997E+02  0.45594000000E+02  0.51100000000E-03 0. -1.
         11   -1    0    0    0    0 -0.00000000000E+00 -0.00000000000E+00 -0.45593999997E+02  0.45594000000E+02  0.51100000000E-03 0.  1.
         23    2    1    2    0    0 -0.44408920985E-15  0.00000000000E+00  0.00000000000E+00  0.91188000000E+02  0.91188000000E+02 0.  0.
    9900012    2    3    3    0    0  0.21748261498E+01 -0.10368943217E+02  0.42087751229E+02  0.47787266645E+02  0.19999979942E+02 0.  0.
        -12    1    3    3    0    0 -0.21748261498E+01  0.10368943217E+02 -0.42087751229E+02  0.43400733355E+02  0.00000000000E+00 0.  1.
         11    1    4    4    0    0  0.22145054031E+01 -0.27636019434E+01  0.26984021939E+02  0.27215417875E+02  0.51100000000E-03 0. -1.
        -11    1    4    4    0    0 -0.19927212643E+01 -0.10380978668E+02  0.11259952495E+02  0.15444163512E+02  0.51100000000E-03 0.  1.
         12    1    4    4    0    0  0.19530420111E+01  0.27756373949E+01  0.38437767955E+01  0.51276852574E+01  0.00000000000E+00 0. -1.
</event>
<event>
 8    1  0.2994958E-010  0.9118800E+02  0.7816164E-02  0.1184000E+00
        -11   -1    0    0    0    0  0.00000000000E+00  0.00000000000E+00  0.45593999997E+02  0.45594000000E+02  0.51100000000E-03 0. -1.
         11   -1    0    0    0    0 -0.00000000000E+00 -0.00000000000E+00 -0.45593999997E+02  0.45594000000E+02  0.51100000000E-03 0.  1.
         23    2    1    2    0    0  0.00000000000E+00  0.00000000000E+00  0.35527136788E-14  0.91188000000E+02  0.91188000000E+02 0.  0.
    9900012    2    3    3    0    0  0.28851880298E+02  0.56916074224E+01  0.31918614831E+02  0.47787270000E+02  0.19999995239E+02 0.  0.
        -12    1    3    3    0    0 -0.28851880298E+02 -0.56916074224E+01 -0.31918614831E+02  0.43400730000E+02  0.00000000000E+00 0.  1.
         11    1    4    4    0    0  0.22628474409E+02  0.80095628069E+01  0.15876324380E+02  0.28779482735E+02  0.51100000000E-03 0. -1.
        -11    1    4    4    0    0  0.29065848969E+00  0.25216681168E+01  0.39180989338E+01  0.46684892594E+01  0.51100000000E-03 0.  1.
         12    1    4    4    0    0  0.59327473995E+01 -0.48396235013E+01  0.12124191518E+02  0.14339298006E+02  0.00000000000E+00 0. -1.
</event>
<event>
 8    1  0.2994958E-010  0.9118800E+02  0.7816164E-02  0.1184000E+00
        -11   -1    0    0    0    0  0.00000000000E+00  0.00000000000E+00  0.45593999997E+02  0.45594000000E+02  0.51100000000E-03 0.  1.
         11   -1    0    0    0    0 -0.00000000000E+00 -0.00000000000E+00 -0.45593999997E+02  0.45594000000E+02  0.51100000000E-03 0. -1.
         23    2    1    2    0    0  0.00000000000E+00  0.00000000000E+00  0.44408920985E-15  0.91188000000E+02  0.91188000000E+02 0.  0.
    9900012    2    3    3    0    0  0.28569087732E+02 -0.32522756772E+02  0.31146151735E+01  0.47787270633E+02  0.19999998122E+02 0.  0.
         12    1    3    3    0    0 -0.28569087732E+02  0.32522756772E+02 -0.31146151735E+01  0.43400729367E+02  0.00000000000E+00 0. -1.
         11    1    4    4    0    0  0.65100686876E+01 -0.14582270580E+02  0.36422536995E+00  0.15973611676E+02  0.51100000000E-03 0. -1.
        -11    1    4    4    0    0  0.12133988604E+02 -0.13712165317E+02 -0.44503292944E+01  0.18843104527E+02  0.51100000000E-03 0.  1.
        -12    1    4    4    0    0  0.99250304412E+01 -0.42283208746E+01  0.72007190980E+01  0.12970554429E+02  0.00000000000E+00 0.  1.
</event>
<event>
 8    1  0.2994958E-010  0.9118800E+02  0.7816164E-02  0.1184000E+00
        -11   -1    0    0    0    0  0.00000000000E+00  0.00000000000E+00  0.45593999997E+02  0.45594000000E+02  0.51100000000E-03 0. -1.
         11   -1    0    0    0    0 -0.00000000000E+00 -0.00000000000E+00 -0.45593999997E+02  0.45594000000E+02  0.51100000000E-03 0.  1.
         23    2    1    2    0    0  0.33306690739E-15  0.00000000000E+00  0.00000000000E+00  0.91188000000E+02  0.91188000000E+02 0.  0.
    9900012    2    3    3    0    0 -0.20091829663E+00 -0.39803082203E+02 -0.17300212966E+02  0.47787273167E+02  0.20000009676E+02 0.  0.
         12    1    3    3    0    0  0.20091829663E+00  0.39803082203E+02  0.17300212966E+02  0.43400726833E+02  0.00000000000E+00 0. -1.
         11    1    4    4    0    0  0.39284354721E+01 -0.38038115412E+01  0.41269697541E-01  0.54683901606E+01  0.51100000000E-03 0.  1.
        -11    1    4    4    0    0 -0.10250063170E+01  0.10240114366E+01 -0.69306730660E+00  0.16061070714E+01  0.51100000000E-03 0. -1.
        -12    1    4    4    0    0 -0.31043474517E+01 -0.37023282098E+02 -0.16648415357E+02  0.40712775935E+02  0.00000000000E+00 0.  1.
</event>
<event>
 8    1  0.2994958E-010  0.9118800E+02  0.7816164E-02  0.1184000E+00
        -11   -1    0    0    0    0  0.00000000000E+00  0.00000000000E+00  0.45593999997E+02  0.45594000000E+02  0.51100000000E-03 0. -1.
         11   -1    0    0    0    0 -0.00000000000E+00 -0.00000000000E+00 -0.45593999997E+02  0.45594000000E+02  0.51100000000E-03 0.  1.
         23    2    1    2    0    0 -0.35527136788E-14 -0.35527136788E-14 -0.35527136788E-14  0.91188000000E+02  0.91188000000E+02 0.  0.
    9900012    2    3    3    0    0  0.20210350528E+02  0.23173162609E+02 -0.30629552967E+02  0.47787271334E+02  0.20000001319E+02 0.  0.
         12    1    3    3    0    0 -0.20210350528E+02 -0.23173162609E+02  0.30629552967E+02  0.43400728666E+02  0.00000000000E+00 0. -1.
         11    1    4    4    0    0  0.31723514699E+01  0.76499157716E+01 -0.57916373405E+01  0.10105844275E+02  0.51100000000E-03 0. -1.
        -11    1    4    4    0    0  0.25547995366E+01  0.12850795273E+02 -0.15260523570E+02  0.20113515847E+02  0.51100000000E-03 0.  1.
         12    1    4    4    0    0  0.14483199522E+02  0.26724515646E+01 -0.95773920564E+01  0.17567911212E+02  0.00000000000E+00 0. -1.
</event>
<event>
 8    1  0.2994958E-010  0.9118800E+02  0.7816164E-02  0.1184000E+00
        -11   -1    0    0    0    0  0.00000000000E+00  0.00000000000E+00  0.45593999997E+02  0.45594000000E+02  0.51100000000E-03 0. -1.
         11   -1    0    0    0    0 -0.00000000000E+00 -0.00000000000E+00 -0.45593999997E+02  0.45594000000E+02  0.51100000000E-03 0.  1.
         23    2    1    2    0    0  0.00000000000E+00  0.11102230246E-15  0.00000000000E+00  0.91188000000E+02  0.91188000000E+02 0.  0.
    9900012    2    3    3    0    0  0.19868158548E+02 -0.71809450932E+00 -0.38579335533E+02  0.47787256757E+02  0.19999934860E+02 0.  0.
         12    1    3    3    0    0 -0.19868158548E+02  0.71809450932E+00  0.38579335533E+02  0.43400743243E+02  0.00000000000E+00 0. -1.
         11    1    4    4    0    0  0.23739302048E+01  0.18056316114E+01 -0.92942406633E+00  0.31240485734E+01  0.51100000000E-03 0. -1.
        -11    1    4    4    0    0  0.94495370042E+01 -0.89468189628E+01 -0.15502361882E+02  0.20240122118E+02  0.51100000000E-03 0.  1.
        -12    1    4    4    0    0  0.80446913392E+01  0.64230928421E+01 -0.22147549585E+02  0.24423086066E+02  0.00000000000E+00 0.  1.
</event>
<event>
 8    1  0.2994958E-010  0.9118800E+02  0.7816164E-02  0.1184000E+00
        -11   -1    0    0    0    0  0.00000000000E+00  0.00000000000E+00  0.45593999997E+02  0.45594000000E+02  0.51100000000E-03 0. -1.
         11   -1    0    0    0    0 -0.00000000000E+00 -0.00000000000E+00 -0.45593999997E+02  0.45594000000E+02  0.51100000000E-03 0.  1.
         23    2    1    2    0    0 -0.35527136788E-14  0.00000000000E+00  0.71054273576E-14  0.91188000000E+02  0.91188000000E+02 0.  0.
    9900012    2    3    3    0    0  0.15345212400E+02  0.10235971069E+02 -0.39285782108E+02  0.47787270477E+02  0.19999997412E+02 0.  0.
         12    1    3    3    0    0 -0.15345212400E+02 -0.10235971069E+02  0.39285782108E+02  0.43400729523E+02  0.00000000000E+00 0. -1.
         11    1    4    4    0    0  0.89887498632E+01  0.69156985940E+01 -0.78965323359E+01  0.13819541756E+02  0.51100000000E-03 0.  1.
        -11    1    4    4    0    0  0.75009713978E+01 -0.85293844979E+00 -0.12616225387E+02  0.14702422222E+02  0.51100000000E-03 0. -1.
        -12    1    4    4    0    0 -0.11445088612E+01  0.41732109253E+01 -0.18773024384E+02  0.19265306499E+02  0.00000000000E+00 0.  1.
</event>
<event>
 8    1  0.2994958E-010  0.9118800E+02  0.7816164E-02  0.1184000E+00
        -11   -1    0    0    0    0  0.00000000000E+00  0.00000000000E+00  0.45593999997E+02  0.45594000000E+02  0.51100000000E-03 0. -1.
         11   -1    0    0    0    0 -0.00000000000E+00 -0.00000000000E+00 -0.45593999997E+02  0.45594000000E+02  0.51100000000E-03 0.  1.
         23    2    1    2    0    0  0.17763568394E-14 -0.88817841970E-15  0.71054273576E-14  0.91188000000E+02  0.91188000000E+02 0.  0.
    9900012    2    3    3    0    0  0.14083644180E+02 -0.33245025457E+01  0.40917257788E+02  0.47787270335E+02  0.19999996767E+02 0.  0.
        -12    1    3    3    0    0 -0.14083644180E+02  0.33245025457E+01 -0.40917257788E+02  0.43400729665E+02  0.00000000000E+00 0.  1.
         11    1    4    4    0    0  0.21235138160E+01 -0.77324935779E+01  0.59094879158E+01  0.99610649805E+01  0.51100000000E-03 0.  1.
        -11    1    4    4    0    0  0.70534761178E+01 -0.75449709979E+00  0.15113813442E+02  0.16695752401E+02  0.51100000000E-03 0. -1.
         12    1    4    4    0    0  0.49066542461E+01  0.51624881319E+01  0.19893956429E+02  0.21130452954E+02  0.00000000000E+00 0. -1.
</event>
<event>
 8    1  0.2994958E-010  0.9118800E+02  0.7816164E-02  0.1184000E+00
        -11   -1    0    0    0    0  0.00000000000E+00  0.00000000000E+00  0.45593999997E+02  0.45594000000E+02  0.51100000000E-03 0. -1.
         11   -1    0    0    0    0 -0.00000000000E+00 -0.00000000000E+00 -0.45593999997E+02  0.45594000000E+02  0.51100000000E-03 0.  1.
         23    2    1    2    0    0  0.35527136788E-14  0.00000000000E+00 -0.35527136788E-14  0.91188000000E+02  0.91188000000E+02 0.  0.
    9900012    2    3    3    0    0 -0.25464168916E+02  0.27821733196E+02  0.21474408692E+02  0.47787274600E+02  0.20000016211E+02 0.  0.
        -12    1    3    3    0    0  0.25464168916E+02 -0.27821733196E+02 -0.21474408692E+02  0.43400725400E+02  0.00000000000E+00 0.  1.
         11    1    4    4    0    0 -0.96480477634E+01  0.11201086150E+02  0.44215618229E+01  0.15430468748E+02  0.51100000000E-03 0. -1.
        -11    1    4    4    0    0 -0.11274145756E+02  0.66198657414E+01  0.12802642887E+01  0.13136516352E+02  0.51100000000E-03 0.  1.
         12    1    4    4    0    0 -0.45419753967E+01  0.10000781305E+02  0.15772582580E+02  0.19220289500E+02  0.00000000000E+00 0. -1.
</event>
<event>
 8    1  0.2994958E-010  0.9118800E+02  0.7816164E-02  0.1184000E+00
        -11   -1    0    0    0    0  0.00000000000E+00  0.00000000000E+00  0.45593999997E+02  0.45594000000E+02  0.51100000000E-03 0. -1.
         11   -1    0    0    0    0 -0.00000000000E+00 -0.00000000000E+00 -0.45593999997E+02  0.45594000000E+02  0.51100000000E-03 0.  1.
         23    2    1    2    0    0  0.71054273576E-14  0.00000000000E+00  0.00000000000E+00  0.91188000000E+02  0.91188000000E+02 0.  0.
    9900012    2    3    3    0    0  0.37305334243E+02  0.17852811894E+02  0.13161011773E+02  0.47787273204E+02  0.20000009848E+02 0.  0.
        -12    1    3    3    0    0 -0.37305334243E+02 -0.17852811894E+02 -0.13161011773E+02  0.43400726796E+02  0.00000000000E+00 0.  1.
         11    1    4    4    0    0  0.23309185027E+02  0.15603165066E+02  0.12681534565E+02  0.30783082787E+02  0.51100000000E-03 0.  1.
        -11    1    4    4    0    0  0.23776162105E+01  0.43218089470E+01  0.15068600601E+01  0.51576854228E+01  0.51100000000E-03 0. -1.
        -12    1    4    4    0    0  0.11618533006E+02 -0.20721621190E+01 -0.10273828526E+01  0.11846504994E+02  0.00000000000E+00 0.  1.
</event>
<event>
 8    1  0.2994958E-010  0.9118800E+02  0.7816164E-02  0.1184000E+00
        -11   -1    0    0    0    0  0.00000000000E+00  0.00000000000E+00  0.45593999997E+02  0.45594000000E+02  0.51100000000E-03 0. -1.
         11   -1    0    0    0    0 -0.00000000000E+00 -0.00000000000E+00 -0.45593999997E+02  0.45594000000E+02  0.51100000000E-03 0.  1.
         23    2    1    2    0    0  0.00000000000E+00  0.00000000000E+00  0.00000000000E+00  0.91188000000E+02  0.91188000000E+02 0.  0.
    9900012    2    3    3    0    0 -0.15321441025E+02  0.14491457035E+02 -0.37932497629E+02  0.47787271222E+02  0.20000000810E+02 0.  0.
         12    1    3    3    0    0  0.15321441025E+02 -0.14491457035E+02  0.37932497629E+02  0.43400728778E+02  0.00000000000E+00 0. -1.
         11    1    4    4    0    0 -0.36035644923E+01  0.47224493095E+01 -0.14325432344E+02  0.15508230609E+02  0.51100000000E-03 0.  1.
        -11    1    4    4    0    0 -0.71890416789E+01  0.12376863394E+02 -0.93556084971E+01  0.17099604625E+02  0.51100000000E-03 0. -1.
         12    1    4    4    0    0 -0.45288348541E+01 -0.26078556683E+01 -0.14251456788E+02  0.15179435988E+02  0.00000000000E+00 0. -1.
</event>
<event>
 8    1  0.2994958E-010  0.9118800E+02  0.7816164E-02  0.1184000E+00
        -11   -1    0    0    0    0  0.00000000000E+00  0.00000000000E+00  0.45593999997E+02  0.45594000000E+02  0.51100000000E-03 0. -1.
         11   -1    0    0    0    0 -0.00000000000E+00 -0.00000000000E+00 -0.45593999997E+02  0.45594000000E+02  0.51100000000E-03 0.  1.
         23    2    1    2    0    0  0.35527136788E-14  0.00000000000E+00 -0.35527136788E-14  0.91188000000E+02  0.91188000000E+02 0.  0.
    9900012    2    3    3    0    0  0.30442856747E+02 -0.22644849921E+02 -0.21072843018E+02  0.47787291852E+02  0.20000094871E+02 0.  0.
         12    1    3    3    0    0 -0.30442856747E+02  0.22644849921E+02  0.21072843018E+02  0.43400708148E+02  0.00000000000E+00 0. -1.
         11    1    4    4    0    0  0.16814868346E+02 -0.85525972675E+01 -0.72046580498E+01  0.20193905402E+02  0.51100000000E-03 0. -1.
        -11    1    4    4    0    0  0.14809600845E+02 -0.15618647213E+02 -0.13970931975E+02  0.25660346031E+02  0.51100000000E-03 0.  1.
        -12    1    4    4    0    0 -0.11816124432E+01  0.15263945587E+01  0.10274700702E+00  0.19330404192E+01  0.00000000000E+00 0.  1.
</event>
<event>
 8    1  0.2994958E-010  0.9118800E+02  0.7816164E-02  0.1184000E+00
        -11   -1    0    0    0    0  0.00000000000E+00  0.00000000000E+00  0.45593999997E+02  0.45594000000E+02  0.51100000000E-03 0. -1.
         11   -1    0    0    0    0 -0.00000000000E+00 -0.00000000000E+00 -0.45593999997E+02  0.45594000000E+02  0.51100000000E-03 0.  1.
         23    2    1    2    0    0  0.00000000000E+00  0.35527136788E-14 -0.71054273576E-14  0.91188000000E+02  0.91188000000E+02 0.  0.
    9900012    2    3    3    0    0  0.15106805060E+02  0.19352181194E+02 -0.35789676109E+02  0.47787269683E+02  0.19999993791E+02 0.  0.
         12    1    3    3    0    0 -0.15106805060E+02 -0.19352181194E+02  0.35789676109E+02  0.43400730317E+02  0.00000000000E+00 0. -1.
         11    1    4    4    0    0 -0.39688747479E+00  0.10718362313E+01  0.51015508433E+00  0.12516433380E+01  0.51100000000E-03 0. -1.
        -11    1    4    4    0    0  0.18139934924E+02  0.14023547794E+02 -0.23692735267E+02  0.32970635973E+02  0.51100000000E-03 0.  1.
        -12    1    4    4    0    0 -0.26362423894E+01  0.42567971688E+01 -0.12607095927E+02  0.13564990371E+02  0.00000000000E+00 0.  1.
</event>
<event>
 8    1  0.2994958E-010  0.9118800E+02  0.7816164E-02  0.1184000E+00
        -11   -1    0    0    0    0  0.00000000000E+00  0.00000000000E+00  0.45593999997E+02  0.45594000000E+02  0.51100000000E-03 0. -1.
         11   -1    0    0    0    0 -0.00000000000E+00 -0.00000000000E+00 -0.45593999997E+02  0.45594000000E+02  0.51100000000E-03 0.  1.
         23    2    1    2    0    0 -0.17763568394E-14  0.17763568394E-14  0.00000000000E+00  0.91188000000E+02  0.91188000000E+02 0.  0.
    9900012    2    3    3    0    0 -0.15774795347E+02  0.11188636968E+02  0.38853487059E+02  0.47787271641E+02  0.20000002721E+02 0.  0.
        -12    1    3    3    0    0  0.15774795347E+02 -0.11188636968E+02 -0.38853487059E+02  0.43400728359E+02  0.00000000000E+00 0.  1.
         11    1    4    4    0    0 -0.65969854858E+01  0.32794196523E+01  0.48861574482E+01  0.88402118541E+01  0.51100000000E-03 0.  1.
        -11    1    4    4    0    0 -0.18719331980E+01  0.10503706499E+02  0.14577929930E+02  0.18065105187E+02  0.51100000000E-03 0. -1.
        -12    1    4    4    0    0 -0.73058766628E+01 -0.25944891834E+01  0.19389399681E+02  0.20881954600E+02  0.00000000000E+00 0.  1.
</event>
<event>
 8    1  0.2994958E-010  0.9118800E+02  0.7816164E-02  0.1184000E+00
        -11   -1    0    0    0    0  0.00000000000E+00  0.00000000000E+00  0.45593999997E+02  0.45594000000E+02  0.51100000000E-03 0. -1.
         11   -1    0    0    0    0 -0.00000000000E+00 -0.00000000000E+00 -0.45593999997E+02  0.45594000000E+02  0.51100000000E-03 0.  1.
         23    2    1    2    0    0  0.00000000000E+00  0.00000000000E+00  0.00000000000E+00  0.91188000000E+02  0.91188000000E+02 0.  0.
    9900012    2    3    3    0    0  0.94691071967E+01 -0.39229125590E+01 -0.42173098547E+02  0.47787268726E+02  0.19999989428E+02 0.  0.
         12    1    3    3    0    0 -0.94691071967E+01  0.39229125590E+01  0.42173098547E+02  0.43400731274E+02  0.00000000000E+00 0. -1.
         11    1    4    4    0    0  0.64195290271E+01 -0.69549565003E+01 -0.75816802835E+01  0.12126980211E+02  0.51100000000E-03 0. -1.
        -11    1    4    4    0    0  0.12488384409E+01  0.43182344747E+01 -0.99334113000E+01  0.10903183331E+02  0.51100000000E-03 0.  1.
        -12    1    4    4    0    0  0.18007397287E+01 -0.12861905334E+01 -0.24658006964E+02  0.24757105184E+02  0.00000000000E+00 0.  1.
</event>
<event>
 8    1  0.2994958E-010  0.9118800E+02  0.7816164E-02  0.1184000E+00
        -11   -1    0    0    0    0  0.00000000000E+00  0.00000000000E+00  0.45593999997E+02  0.45594000000E+02  0.51100000000E-03 0. -1.
         11   -1    0    0    0    0 -0.00000000000E+00 -0.00000000000E+00 -0.45593999997E+02  0.45594000000E+02  0.51100000000E-03 0.  1.
         23    2    1    2    0    0  0.00000000000E+00  0.00000000000E+00  0.00000000000E+00  0.91188000000E+02  0.91188000000E+02 0.  0.
    9900012    2    3    3    0    0  0.30077758451E+02 -0.22621884518E+02 -0.21614864378E+02  0.47787267579E+02  0.19999984201E+02 0.  0.
         12    1    3    3    0    0 -0.30077758451E+02  0.22621884518E+02  0.21614864378E+02  0.43400732421E+02  0.00000000000E+00 0. -1.
         11    1    4    4    0    0  0.12609552822E+02 -0.59698522047E+01 -0.48267076752E+01  0.14762691657E+02  0.51100000000E-03 0. -1.
        -11    1    4    4    0    0  0.16522912998E+02 -0.57535598774E+01 -0.10070919040E+02  0.20187459369E+02  0.51100000000E-03 0.  1.
         12    1    4    4    0    0  0.94529263141E+00 -0.10898472435E+02 -0.67172376624E+01  0.12837116553E+02  0.00000000000E+00 0. -1.
</event>
<event>
 8    1  0.2994958E-010  0.9118800E+02  0.7816164E-02  0.1184000E+00
        -11   -1    0    0    0    0  0.00000000000E+00  0.00000000000E+00  0.45593999997E+02  0.45594000000E+02  0.51100000000E-03 0. -1.
         11   -1    0    0    0    0 -0.00000000000E+00 -0.00000000000E+00 -0.45593999997E+02  0.45594000000E+02  0.51100000000E-03 0.  1.
         23    2    1    2    0    0  0.00000000000E+00  0.00000000000E+00  0.00000000000E+00  0.91188000000E+02  0.91188000000E+02 0.  0.
    9900012    2    3    3    0    0  0.27570251356E+02 -0.21623841078E+02 -0.25610851510E+02  0.47787251414E+02  0.19999910495E+02 0.  0.
         12    1    3    3    0    0 -0.27570251356E+02  0.21623841078E+02  0.25610851510E+02  0.43400748586E+02  0.00000000000E+00 0. -1.
         11    1    4    4    0    0  0.25475984651E+01  0.47945444092E+00 -0.62627535652E+01  0.67780688238E+01  0.51100000000E-03 0. -1.
        -11    1    4    4    0    0  0.88308129737E+01 -0.11931764491E+02 -0.15580746954E+02  0.21519989255E+02  0.51100000000E-03 0.  1.
        -12    1    4    4    0    0  0.16191839917E+02 -0.10171531028E+02 -0.37673509916E+01  0.19489193335E+02  0.00000000000E+00 0.  1.
</event>
<event>
 8    1  0.2994958E-010  0.9118800E+02  0.7816164E-02  0.1184000E+00
        -11   -1    0    0    0    0  0.00000000000E+00  0.00000000000E+00  0.45593999997E+02  0.45594000000E+02  0.51100000000E-03 0. -1.
         11   -1    0    0    0    0 -0.00000000000E+00 -0.00000000000E+00 -0.45593999997E+02  0.45594000000E+02  0.51100000000E-03 0.  1.
         23    2    1    2    0    0  0.00000000000E+00  0.00000000000E+00 -0.17763568394E-14  0.91188000000E+02  0.91188000000E+02 0.  0.
    9900012    2    3    3    0    0  0.37513616160E+02 -0.18733276508E+02  0.11198938311E+02  0.47787271142E+02  0.20000000446E+02 0.  0.
        -12    1    3    3    0    0 -0.37513616160E+02  0.18733276508E+02 -0.11198938311E+02  0.43400728858E+02  0.00000000000E+00 0.  1.
         11    1    4    4    0    0  0.18815815784E+02 -0.57790171012E+01  0.83655396257E+01  0.21387244230E+02  0.51100000000E-03 0. -1.
        -11    1    4    4    0    0  0.52910103953E+01  0.15524790820E+01  0.36790750379E+01  0.66287687921E+01  0.51100000000E-03 0.  1.
        -12    1    4    4    0    0  0.13406789980E+02 -0.14506738489E+02 -0.84567635212E+00  0.19771258120E+02  0.00000000000E+00 0.  1.
</event>
<event>
 8    1  0.2994958E-010  0.9118800E+02  0.7816164E-02  0.1184000E+00
        -11   -1    0    0    0    0  0.00000000000E+00  0.00000000000E+00  0.45593999997E+02  0.45594000000E+02  0.51100000000E-03 0. -1.
         11   -1    0    0    0    0 -0.00000000000E+00 -0.00000000000E+00 -0.45593999997E+02  0.45594000000E+02  0.51100000000E-03 0.  1.
         23    2    1    2    0    0  0.88817841970E-15  0.00000000000E+00  0.00000000000E+00  0.91188000000E+02  0.91188000000E+02 0.  0.
    9900012    2    3    3    0    0  0.35943240211E+01  0.24548006521E+02  0.35610384288E+02  0.47787271221E+02  0.20000000807E+02 0.  0.
        -12    1    3    3    0    0 -0.35943240211E+01 -0.24548006521E+02 -0.35610384288E+02  0.43400728779E+02  0.00000000000E+00 0.  1.
         11    1    4    4    0    0 -0.11980357635E+01  0.28559757040E+01  0.46976953801E+01  0.56267423131E+01  0.51100000000E-03 0. -1.
        -11    1    4    4    0    0  0.88275456619E+01  0.31944402346E+01  0.13463897744E+02  0.16413608791E+02  0.51100000000E-03 0.  1.
        -12    1    4    4    0    0 -0.40351858773E+01  0.18497590583E+02  0.17448791164E+02  0.25746920117E+02  0.00000000000E+00 0.  1.
</event>
<event>
 8    1  0.2994958E-010  0.9118800E+02  0.7816164E-02  0.1184000E+00
        -11   -1    0    0    0    0  0.00000000000E+00  0.00000000000E+00  0.45593999997E+02  0.45594000000E+02  0.51100000000E-03 0. -1.
         11   -1    0    0    0    0 -0.00000000000E+00 -0.00000000000E+00 -0.45593999997E+02  0.45594000000E+02  0.51100000000E-03 0.  1.
         23    2    1    2    0    0  0.35527136788E-14  0.00000000000E+00 -0.35527136788E-14  0.91188000000E+02  0.91188000000E+02 0.  0.
    9900012    2    3    3    0    0 -0.31285772895E+02  0.22575512312E+02  0.19878885159E+02  0.47787269396E+02  0.19999992483E+02 0.  0.
        -12    1    3    3    0    0  0.31285772895E+02 -0.22575512312E+02 -0.19878885159E+02  0.43400730604E+02  0.00000000000E+00 0.  1.
         11    1    4    4    0    0 -0.96132423652E+01  0.54726970382E+01  0.15875561164E+02  0.19349374258E+02  0.51100000000E-03 0. -1.
        -11    1    4    4    0    0 -0.47281240489E+01  0.12922195052E+01 -0.98623357918E-01  0.49025213002E+01  0.51100000000E-03 0.  1.
         12    1    4    4    0    0 -0.16944406481E+02  0.15810595769E+02  0.41019473523E+01  0.23535373837E+02  0.00000000000E+00 0. -1.
</event>
<event>
 8    1  0.2994958E-010  0.9118800E+02  0.7816164E-02  0.1184000E+00
        -11   -1    0    0    0    0  0.00000000000E+00  0.00000000000E+00  0.45593999997E+02  0.45594000000E+02  0.51100000000E-03 0. -1.
         11   -1    0    0    0    0 -0.00000000000E+00 -0.00000000000E+00 -0.45593999997E+02  0.45594000000E+02  0.51100000000E-03 0.  1.
         23    2    1    2    0    0  0.00000000000E+00  0.17763568394E-14  0.00000000000E+00  0.91188000000E+02  0.91188000000E+02 0.  0.
    9900012    2    3    3    0    0 -0.36273815172E+02  0.99157509319E+01  0.21668218473E+02  0.47787268722E+02  0.19999989411E+02 0.  0.
        -12    1    3    3    0    0  0.36273815172E+02 -0.99157509319E+01 -0.21668218473E+02  0.43400731278E+02  0.00000000000E+00 0.  1.
         11    1    4    4    0    0 -0.93685365732E+01  0.68297584572E+01  0.11828680752E+02  0.16562993893E+02  0.51100000000E-03 0. -1.
        -11    1    4    4    0    0 -0.15779861740E+02 -0.33832673294E+01  0.86219289067E+01  0.18297218168E+02  0.51100000000E-03 0.  1.
        -12    1    4    4    0    0 -0.11125416859E+02  0.64692598042E+01  0.12176088151E+01  0.12927056661E+02  0.00000000000E+00 0.  1.
</event>
<event>
 8    1  0.2994958E-010  0.9118800E+02  0.7816164E-02  0.1184000E+00
        -11   -1    0    0    0    0  0.00000000000E+00  0.00000000000E+00  0.45593999997E+02  0.45594000000E+02  0.51100000000E-03 0. -1.
         11   -1    0    0    0    0 -0.00000000000E+00 -0.00000000000E+00 -0.45593999997E+02  0.45594000000E+02  0.51100000000E-03 0.  1.
         23    2    1    2    0    0  0.00000000000E+00  0.17763568394E-14 -0.71054273576E-14  0.91188000000E+02  0.91188000000E+02 0.  0.
    9900012    2    3    3    0    0 -0.28342558520E+02  0.77305629606E+01 -0.31946223828E+02  0.47787269084E+02  0.19999991063E+02 0.  0.
         12    1    3    3    0    0  0.28342558520E+02 -0.77305629606E+01  0.31946223828E+02  0.43400730916E+02  0.00000000000E+00 0. -1.
         11    1    4    4    0    0 -0.20941823465E+02  0.79729465343E+01 -0.20579921543E+02  0.30424677770E+02  0.51100000000E-03 0. -1.
        -11    1    4    4    0    0 -0.80799242479E+01 -0.18807942382E+01 -0.12681902505E+02  0.15154313387E+02  0.51100000000E-03 0.  1.
         12    1    4    4    0    0  0.67918919238E+00  0.16384106646E+01  0.13156002199E+01  0.22082779272E+01  0.00000000000E+00 0. -1.
</event>
<event>
 8    1  0.2994958E-010  0.9118800E+02  0.7816164E-02  0.1184000E+00
        -11   -1    0    0    0    0  0.00000000000E+00  0.00000000000E+00  0.45593999997E+02  0.45594000000E+02  0.51100000000E-03 0.  1.
         11   -1    0    0    0    0 -0.00000000000E+00 -0.00000000000E+00 -0.45593999997E+02  0.45594000000E+02  0.51100000000E-03 0. -1.
         23    2    1    2    0    0  0.00000000000E+00  0.00000000000E+00 -0.35527136788E-14  0.91188000000E+02  0.91188000000E+02 0.  0.
    9900012    2    3    3    0    0  0.37813229060E+02 -0.10173918696E+02  0.18715619735E+02  0.47787270333E+02  0.19999996756E+02 0.  0.
        -12    1    3    3    0    0 -0.37813229060E+02  0.10173918696E+02 -0.18715619735E+02  0.43400729667E+02  0.00000000000E+00 0.  1.
         11    1    4    4    0    0  0.35206353038E+01 -0.41618043230E+01  0.10001862558E+02  0.11390906156E+02  0.51100000000E-03 0.  1.
        -11    1    4    4    0    0  0.15068834893E+02  0.34105530491E+00  0.31320251180E+01  0.15394664184E+02  0.51100000000E-03 0. -1.
        -12    1    4    4    0    0  0.19223758864E+02 -0.63531696776E+01  0.55817320584E+01  0.21001699992E+02  0.00000000000E+00 0.  1.
</event>
<event>
 8    1  0.2994958E-010  0.9118800E+02  0.7816164E-02  0.1184000E+00
        -11   -1    0    0    0    0  0.00000000000E+00  0.00000000000E+00  0.45593999997E+02  0.45594000000E+02  0.51100000000E-03 0. -1.
         11   -1    0    0    0    0 -0.00000000000E+00 -0.00000000000E+00 -0.45593999997E+02  0.45594000000E+02  0.51100000000E-03 0.  1.
         23    2    1    2    0    0 -0.35527136788E-14  0.00000000000E+00  0.00000000000E+00  0.91188000000E+02  0.91188000000E+02 0.  0.
    9900012    2    3    3    0    0  0.24096249472E+02 -0.13230112084E+02 -0.33585092967E+02  0.47787267587E+02  0.19999984235E+02 0.  0.
         12    1    3    3    0    0 -0.24096249472E+02  0.13230112084E+02  0.33585092967E+02  0.43400732413E+02  0.00000000000E+00 0. -1.
         11    1    4    4    0    0  0.62425605555E+01 -0.73354413833E+01 -0.73593315368E+01  0.12121799516E+02  0.51100000000E-03 0. -1.
        -11    1    4    4    0    0  0.13636193793E+02  0.21330286530E+01 -0.21202279266E+02  0.25298858447E+02  0.51100000000E-03 0.  1.
        -12    1    4    4    0    0  0.42174951242E+01 -0.80276993536E+01 -0.50234821646E+01  0.10366609624E+02  0.00000000000E+00 0.  1.
</event>
<event>
 8    1  0.2994958E-010  0.9118800E+02  0.7816164E-02  0.1184000E+00
        -11   -1    0    0    0    0  0.00000000000E+00  0.00000000000E+00  0.45593999997E+02  0.45594000000E+02  0.51100000000E-03 0. -1.
         11   -1    0    0    0    0 -0.00000000000E+00 -0.00000000000E+00 -0.45593999997E+02  0.45594000000E+02  0.51100000000E-03 0.  1.
         23    2    1    2    0    0  0.00000000000E+00 -0.55511151231E-16  0.00000000000E+00  0.91188000000E+02  0.91188000000E+02 0.  0.
    9900012    2    3    3    0    0 -0.18657339344E+02 -0.36511793829E+00 -0.39184089222E+02  0.47787280298E+02  0.20000042190E+02 0.  0.
         12    1    3    3    0    0  0.18657339344E+02  0.36511793829E+00  0.39184089222E+02  0.43400719702E+02  0.00000000000E+00 0. -1.
         11    1    4    4    0    0 -0.23850947987E+00  0.32618541643E+01 -0.15339549065E+01  0.36124226327E+01  0.51100000000E-03 0. -1.
        -11    1    4    4    0    0 -0.10720040898E+02  0.27023264694E+01 -0.10475288492E+02  0.15230020172E+02  0.51100000000E-03 0.  1.
        -12    1    4    4    0    0 -0.76987889662E+01 -0.63292985719E+01 -0.27174845824E+02  0.28944837493E+02  0.00000000000E+00 0.  1.
</event>
<event>
 8    1  0.2994958E-010  0.9118800E+02  0.7816164E-02  0.1184000E+00
        -11   -1    0    0    0    0  0.00000000000E+00  0.00000000000E+00  0.45593999997E+02  0.45594000000E+02  0.51100000000E-03 0. -1.
         11   -1    0    0    0    0 -0.00000000000E+00 -0.00000000000E+00 -0.45593999997E+02  0.45594000000E+02  0.51100000000E-03 0.  1.
         23    2    1    2    0    0  0.44408920985E-15 -0.44408920985E-15  0.71054273576E-14  0.91188000000E+02  0.91188000000E+02 0.  0.
    9900012    2    3    3    0    0  0.39710719924E+01  0.11229526927E+01 -0.43204079444E+02  0.47787275166E+02  0.20000018794E+02 0.  0.
         12    1    3    3    0    0 -0.39710719924E+01 -0.11229526927E+01  0.43204079444E+02  0.43400724834E+02  0.00000000000E+00 0. -1.
         11    1    4    4    0    0  0.43716663997E+01  0.10029239578E+01 -0.14843682280E+02  0.15506522095E+02  0.51100000000E-03 0. -1.
        -11    1    4    4    0    0 -0.30169933043E+01 -0.66261310227E+01 -0.19659302176E+02  0.20964160446E+02  0.51100000000E-03 0.  1.
        -12    1    4    4    0    0  0.26163988970E+01  0.67461597575E+01 -0.87010949876E+01  0.11316592625E+02  0.00000000000E+00 0.  1.
</event>
<event>
 8    1  0.2994958E-010  0.9118800E+02  0.7816164E-02  0.1184000E+00
        -11   -1    0    0    0    0  0.00000000000E+00  0.00000000000E+00  0.45593999997E+02  0.45594000000E+02  0.51100000000E-03 0. -1.
         11   -1    0    0    0    0 -0.00000000000E+00 -0.00000000000E+00 -0.45593999997E+02  0.45594000000E+02  0.51100000000E-03 0.  1.
         23    2    1    2    0    0  0.00000000000E+00 -0.35527136788E-14  0.35527136788E-14  0.91188000000E+02  0.91188000000E+02 0.  0.
    9900012    2    3    3    0    0  0.22229830878E+02 -0.27423468110E+02  0.25246976293E+02  0.47787288070E+02  0.20000077628E+02 0.  0.
        -12    1    3    3    0    0 -0.22229830878E+02  0.27423468110E+02 -0.25246976293E+02  0.43400711930E+02  0.00000000000E+00 0.  1.
         11    1    4    4    0    0 -0.20805254802E+01 -0.21942967808E+01 -0.14018247207E+01  0.33329622627E+01  0.51100000000E-03 0.  1.
        -11    1    4    4    0    0  0.26842225192E+01 -0.57414244399E+01  0.62987587946E+01  0.89355116108E+01  0.51100000000E-03 0. -1.
         12    1    4    4    0    0  0.21626133839E+02 -0.19487746889E+02  0.20350042219E+02  0.35518814197E+02  0.00000000000E+00 0. -1.
</event>
<event>
 8    1  0.2994958E-010  0.9118800E+02  0.7816164E-02  0.1184000E+00
        -11   -1    0    0    0    0  0.00000000000E+00  0.00000000000E+00  0.45593999997E+02  0.45594000000E+02  0.51100000000E-03 0. -1.
         11   -1    0    0    0    0 -0.00000000000E+00 -0.00000000000E+00 -0.45593999997E+02  0.45594000000E+02  0.51100000000E-03 0.  1.
         23    2    1    2    0    0 -0.35527136788E-14 -0.88817841970E-15  0.35527136788E-14  0.91188000000E+02  0.91188000000E+02 0.  0.
    9900012    2    3    3    0    0 -0.29951334610E+02 -0.66045974190E+01  0.30707002489E+02  0.47787272427E+02  0.20000006305E+02 0.  0.
        -12    1    3    3    0    0  0.29951334610E+02  0.66045974190E+01 -0.30707002489E+02  0.43400727573E+02  0.00000000000E+00 0.  1.
         11    1    4    4    0    0  0.56726600664E+00  0.47102965417E+00  0.49033509146E+00  0.88548767379E+00  0.51100000000E-03 0. -1.
        -11    1    4    4    0    0 -0.91285681891E+01 -0.74847404246E+01  0.19929027436E+02  0.23162863191E+02  0.51100000000E-03 0.  1.
         12    1    4    4    0    0 -0.21390032427E+02  0.40911335150E+00  0.10287639962E+02  0.23738921563E+02  0.00000000000E+00 0. -1.
</event>
<event>
 8    1  0.2994958E-010  0.9118800E+02  0.7816164E-02  0.1184000E+00
        -11   -1    0    0    0    0  0.00000000000E+00  0.00000000000E+00  0.45593999997E+02  0.45594000000E+02  0.51100000000E-03 0. -1.
         11   -1    0    0    0    0 -0.00000000000E+00 -0.00000000000E+00 -0.45593999997E+02  0.45594000000E+02  0.51100000000E-03 0.  1.
         23    2    1    2    0    0 -0.13877787808E-14  0.00000000000E+00 -0.35527136788E-14  0.91188000000E+02  0.91188000000E+02 0.  0.
    9900012    2    3    3    0    0 -0.42004467768E+00 -0.29465003401E+02 -0.31863151915E+02  0.47787270594E+02  0.19999997947E+02 0.  0.
         12    1    3    3    0    0  0.42004467768E+00  0.29465003401E+02  0.31863151915E+02  0.43400729406E+02  0.00000000000E+00 0. -1.
         11    1    4    4    0    0 -0.35947637158E+00 -0.70910608607E+01 -0.10473212936E+02  0.12653084875E+02  0.51100000000E-03 0. -1.
        -11    1    4    4    0    0 -0.67065295968E+01 -0.19504306173E+02 -0.15450565095E+02  0.25770437725E+02  0.51100000000E-03 0.  1.
         12    1    4    4    0    0  0.66459612907E+01 -0.28696363678E+01 -0.59393738840E+01  0.93637479940E+01  0.00000000000E+00 0. -1.
</event>
<event>
 8    1  0.2994958E-010  0.9118800E+02  0.7816164E-02  0.1184000E+00
        -11   -1    0    0    0    0  0.00000000000E+00  0.00000000000E+00  0.45593999997E+02  0.45594000000E+02  0.51100000000E-03 0. -1.
         11   -1    0    0    0    0 -0.00000000000E+00 -0.00000000000E+00 -0.45593999997E+02  0.45594000000E+02  0.51100000000E-03 0.  1.
         23    2    1    2    0    0 -0.71054273576E-14  0.00000000000E+00  0.00000000000E+00  0.91188000000E+02  0.91188000000E+02 0.  0.
    9900012    2    3    3    0    0 -0.37555026153E+02  0.17889705784E+01 -0.21680448655E+02  0.47787282737E+02  0.20000053312E+02 0.  0.
         12    1    3    3    0    0  0.37555026153E+02 -0.17889705784E+01  0.21680448655E+02  0.43400717263E+02  0.00000000000E+00 0. -1.
         11    1    4    4    0    0 -0.14209134831E+02  0.30947264584E+01 -0.17581051478E+02  0.22816007885E+02  0.51100000000E-03 0. -1.
        -11    1    4    4    0    0 -0.33803166266E+01 -0.29335411106E+01 -0.17355976037E+01  0.48004690652E+01  0.51100000000E-03 0.  1.
        -12    1    4    4    0    0 -0.19965574695E+02  0.16277852306E+01 -0.23637995732E+01  0.20170805787E+02  0.00000000000E+00 0.  1.
</event>
<event>
 8    1  0.2994958E-010  0.9118800E+02  0.7816164E-02  0.1184000E+00
        -11   -1    0    0    0    0  0.00000000000E+00  0.00000000000E+00  0.45593999997E+02  0.45594000000E+02  0.51100000000E-03 0. -1.
         11   -1    0    0    0    0 -0.00000000000E+00 -0.00000000000E+00 -0.45593999997E+02  0.45594000000E+02  0.51100000000E-03 0.  1.
         23    2    1    2    0    0  0.00000000000E+00  0.00000000000E+00  0.00000000000E+00  0.91188000000E+02  0.91188000000E+02 0.  0.
    9900012    2    3    3    0    0  0.98087960980E+01 -0.17940342934E+02 -0.38282561720E+02  0.47787275152E+02  0.20000018730E+02 0.  0.
         12    1    3    3    0    0 -0.98087960980E+01  0.17940342934E+02  0.38282561720E+02  0.43400724848E+02  0.00000000000E+00 0. -1.
         11    1    4    4    0    0  0.27097890450E+01 -0.46850600148E+00 -0.12917732227E+02  0.13207204878E+02  0.51100000000E-03 0. -1.
        -11    1    4    4    0    0  0.22176847745E+01  0.21909901130E+00 -0.11139789217E+02  0.11360503255E+02  0.51100000000E-03 0.  1.
         12    1    4    4    0    0  0.48813222785E+01 -0.17690935944E+02 -0.14225040276E+02  0.23219567020E+02  0.00000000000E+00 0. -1.
</event>
<event>
 8    1  0.2994958E-010  0.9118800E+02  0.7816164E-02  0.1184000E+00
        -11   -1    0    0    0    0  0.00000000000E+00  0.00000000000E+00  0.45593999997E+02  0.45594000000E+02  0.51100000000E-03 0. -1.
         11   -1    0    0    0    0 -0.00000000000E+00 -0.00000000000E+00 -0.45593999997E+02  0.45594000000E+02  0.51100000000E-03 0.  1.
         23    2    1    2    0    0  0.88817841970E-15  0.00000000000E+00  0.00000000000E+00  0.91188000000E+02  0.91188000000E+02 0.  0.
    9900012    2    3    3    0    0 -0.42741488149E+01 -0.99646551220E+01  0.42024524795E+02  0.47787269776E+02  0.19999994215E+02 0.  0.
        -12    1    3    3    0    0  0.42741488149E+01  0.99646551220E+01 -0.42024524795E+02  0.43400730224E+02  0.00000000000E+00 0.  1.
         11    1    4    4    0    0 -0.18715454853E+00  0.58760152397E+00  0.34014546127E+00  0.70427379047E+00  0.51100000000E-03 0. -1.
        -11    1    4    4    0    0 -0.74433072340E+01 -0.29321548634E+01  0.49296318786E+01  0.93968944573E+01  0.51100000000E-03 0.  1.
         12    1    4    4    0    0  0.33563129676E+01 -0.76201017827E+01  0.36754747455E+02  0.37686101528E+02  0.00000000000E+00 0. -1.
</event>
<event>
 8    1  0.2994958E-010  0.9118800E+02  0.7816164E-02  0.1184000E+00
        -11   -1    0    0    0    0  0.00000000000E+00  0.00000000000E+00  0.45593999997E+02  0.45594000000E+02  0.51100000000E-03 0. -1.
         11   -1    0    0    0    0 -0.00000000000E+00 -0.00000000000E+00 -0.45593999997E+02  0.45594000000E+02  0.51100000000E-03 0.  1.
         23    2    1    2    0    0  0.00000000000E+00  0.17763568394E-14  0.00000000000E+00  0.91188000000E+02  0.91188000000E+02 0.  0.
    9900012    2    3    3    0    0 -0.24945750499E+02 -0.81493839440E+01  0.34567620386E+02  0.47787270677E+02  0.19999998326E+02 0.  0.
        -12    1    3    3    0    0  0.24945750499E+02  0.81493839440E+01 -0.34567620386E+02  0.43400729323E+02  0.00000000000E+00 0.  1.
         11    1    4    4    0    0  0.70840475128E+00 -0.65962620300E+00 -0.14955312366E+01  0.17814482760E+01  0.51100000000E-03 0.  1.
        -11    1    4    4    0    0 -0.72502991428E+01 -0.70544628741E+01  0.13975879007E+02  0.17252752777E+02  0.51100000000E-03 0. -1.
        -12    1    4    4    0    0 -0.18403856107E+02 -0.43529486687E+00  0.22087272616E+02  0.28753069625E+02  0.00000000000E+00 0.  1.
</event>
<event>
 8    1  0.2994958E-010  0.9118800E+02  0.7816164E-02  0.1184000E+00
        -11   -1    0    0    0    0  0.00000000000E+00  0.00000000000E+00  0.45593999997E+02  0.45594000000E+02  0.51100000000E-03 0. -1.
         11   -1    0    0    0    0 -0.00000000000E+00 -0.00000000000E+00 -0.45593999997E+02  0.45594000000E+02  0.51100000000E-03 0.  1.
         23    2    1    2    0    0  0.00000000000E+00  0.00000000000E+00 -0.17763568394E-14  0.91188000000E+02  0.91188000000E+02 0.  0.
    9900012    2    3    3    0    0  0.10508297411E+02  0.41854847077E+02 -0.46228249364E+01  0.47787273639E+02  0.20000011829E+02 0.  0.
         12    1    3    3    0    0 -0.10508297411E+02 -0.41854847077E+02  0.46228249364E+01  0.43400726361E+02  0.00000000000E+00 0. -1.
         11    1    4    4    0    0  0.47011466502E+01  0.35546586741E+01 -0.45269782000E-01  0.58939314325E+01  0.51100000000E-03 0. -1.
        -11    1    4    4    0    0  0.26820280209E+01  0.10232974614E+02  0.54818163354E+01  0.11914585782E+02  0.51100000000E-03 0.  1.
        -12    1    4    4    0    0  0.31251227402E+01  0.28067213789E+02 -0.10059371490E+02  0.29978756425E+02  0.00000000000E+00 0.  1.
</event>
<event>
 8    1  0.2994958E-010  0.9118800E+02  0.7816164E-02  0.1184000E+00
        -11   -1    0    0    0    0  0.00000000000E+00  0.00000000000E+00  0.45593999997E+02  0.45594000000E+02  0.51100000000E-03 0. -1.
         11   -1    0    0    0    0 -0.00000000000E+00 -0.00000000000E+00 -0.45593999997E+02  0.45594000000E+02  0.51100000000E-03 0.  1.
         23    2    1    2    0    0  0.00000000000E+00  0.00000000000E+00  0.00000000000E+00  0.91188000000E+02  0.91188000000E+02 0.  0.
    9900012    2    3    3    0    0 -0.29005199699E+02 -0.17499105014E+02  0.27131217400E+02  0.47787271395E+02  0.20000001598E+02 0.  0.
        -12    1    3    3    0    0  0.29005199699E+02  0.17499105014E+02 -0.27131217400E+02  0.43400728605E+02  0.00000000000E+00 0.  1.
         11    1    4    4    0    0 -0.17602707403E+01 -0.64497471751E+01  0.88809915090E+01  0.11116195489E+02  0.51100000000E-03 0. -1.
        -11    1    4    4    0    0 -0.15322590990E+02 -0.63779343313E+01  0.17075504048E+02  0.23812448000E+02  0.51100000000E-03 0.  1.
        -12    1    4    4    0    0 -0.11922337969E+02 -0.46714235072E+01  0.11747218427E+01  0.12858627906E+02  0.00000000000E+00 0.  1.
</event>
<event>
 8    1  0.2994958E-010  0.9118800E+02  0.7816164E-02  0.1184000E+00
        -11   -1    0    0    0    0  0.00000000000E+00  0.00000000000E+00  0.45593999997E+02  0.45594000000E+02  0.51100000000E-03 0. -1.
         11   -1    0    0    0    0 -0.00000000000E+00 -0.00000000000E+00 -0.45593999997E+02  0.45594000000E+02  0.51100000000E-03 0.  1.
         23    2    1    2    0    0  0.00000000000E+00  0.88817841970E-15 -0.71054273576E-14  0.91188000000E+02  0.91188000000E+02 0.  0.
    9900012    2    3    3    0    0  0.31705123889E+02  0.66593186124E+01 -0.28880127727E+02  0.47787272094E+02  0.20000004785E+02 0.  0.
         12    1    3    3    0    0 -0.31705123889E+02 -0.66593186124E+01  0.28880127727E+02  0.43400727906E+02  0.00000000000E+00 0. -1.
         11    1    4    4    0    0  0.30588649866E+01  0.92526234379E-01  0.22607775791E+01  0.38047774749E+01  0.51100000000E-03 0. -1.
        -11    1    4    4    0    0  0.21277653758E+02  0.47059037087E+01 -0.28626874765E+02  0.35977521291E+02  0.51100000000E-03 0.  1.
         12    1    4    4    0    0  0.73686051449E+01  0.18608886694E+01 -0.25140305413E+01  0.80049733281E+01  0.00000000000E+00 0. -1.
</event>
<event>
 8    1  0.2994958E-010  0.9118800E+02  0.7816164E-02  0.1184000E+00
        -11   -1    0    0    0    0  0.00000000000E+00  0.00000000000E+00  0.45593999997E+02  0.45594000000E+02  0.51100000000E-03 0.  1.
         11   -1    0    0    0    0 -0.00000000000E+00 -0.00000000000E+00 -0.45593999997E+02  0.45594000000E+02  0.51100000000E-03 0. -1.
         23    2    1    2    0    0  0.00000000000E+00  0.71054273576E-14 -0.35527136788E-14  0.91188000000E+02  0.91188000000E+02 0.  0.
    9900012    2    3    3    0    0 -0.22689911508E+01  0.29999267540E+02 -0.31281280604E+02  0.47787275467E+02  0.20000020165E+02 0.  0.
         12    1    3    3    0    0  0.22689911508E+01 -0.29999267540E+02  0.31281280604E+02  0.43400724533E+02  0.00000000000E+00 0. -1.
         11    1    4    4    0    0  0.13898681822E+01  0.19684067627E+02 -0.12224321459E+02  0.23212675143E+02  0.51100000000E-03 0. -1.
        -11    1    4    4    0    0 -0.15221498712E+01  0.12381441582E+02 -0.16252386677E+02  0.20487974737E+02  0.51100000000E-03 0.  1.
         12    1    4    4    0    0 -0.21367094618E+01 -0.20662416691E+01 -0.28045724679E+01  0.40866255868E+01  0.00000000000E+00 0. -1.
</event>
<event>
 8    1  0.2994958E-010  0.9118800E+02  0.7816164E-02  0.1184000E+00
        -11   -1    0    0    0    0  0.00000000000E+00  0.00000000000E+00  0.45593999997E+02  0.45594000000E+02  0.51100000000E-03 0. -1.
         11   -1    0    0    0    0 -0.00000000000E+00 -0.00000000000E+00 -0.45593999997E+02  0.45594000000E+02  0.51100000000E-03 0.  1.
         23    2    1    2    0    0  0.00000000000E+00  0.00000000000E+00  0.00000000000E+00  0.91188000000E+02  0.91188000000E+02 0.  0.
    9900012    2    3    3    0    0 -0.16907785689E+02  0.11617270679E+02  0.38246426867E+02  0.47787270017E+02  0.19999995314E+02 0.  0.
        -12    1    3    3    0    0  0.16907785689E+02 -0.11617270679E+02 -0.38246426867E+02  0.43400729983E+02  0.00000000000E+00 0.  1.
         11    1    4    4    0    0 -0.10294730836E+02  0.95457839744E+01  0.13313898844E+02  0.19348472223E+02  0.51100000000E-03 0. -1.
        -11    1    4    4    0    0 -0.31108829651E+00  0.58033406521E+01  0.15088549876E+02  0.16169102519E+02  0.51100000000E-03 0.  1.
        -12    1    4    4    0    0 -0.63019665567E+01 -0.37318539471E+01  0.98439781470E+01  0.12269695274E+02  0.00000000000E+00 0.  1.
</event>
<event>
 8    1  0.2994958E-010  0.9118800E+02  0.7816164E-02  0.1184000E+00
        -11   -1    0    0    0    0  0.00000000000E+00  0.00000000000E+00  0.45593999997E+02  0.45594000000E+02  0.51100000000E-03 0. -1.
         11   -1    0    0    0    0 -0.00000000000E+00 -0.00000000000E+00 -0.45593999997E+02  0.45594000000E+02  0.51100000000E-03 0.  1.
         23    2    1    2    0    0  0.00000000000E+00  0.44408920985E-15  0.00000000000E+00  0.91188000000E+02  0.91188000000E+02 0.  0.
    9900012    2    3    3    0    0  0.23954523411E+02  0.21968535083E+01 -0.36124479742E+02  0.47787269663E+02  0.19999993699E+02 0.  0.
         12    1    3    3    0    0 -0.23954523411E+02 -0.21968535083E+01  0.36124479742E+02  0.43400730337E+02  0.00000000000E+00 0. -1.
         11    1    4    4    0    0  0.11414545176E+01  0.34394744950E+01 -0.11739550070E+02  0.12286168618E+02  0.51100000000E-03 0. -1.
        -11    1    4    4    0    0  0.64648785966E+01 -0.49959968882E+01 -0.12540227824E+02  0.14967028908E+02  0.51100000000E-03 0.  1.
        -12    1    4    4    0    0  0.16348190297E+02  0.37533759014E+01 -0.11844701848E+02  0.20534072137E+02  0.00000000000E+00 0.  1.
</event>
<event>
 8    1  0.2994958E-010  0.9118800E+02  0.7816164E-02  0.1184000E+00
        -11   -1    0    0    0    0  0.00000000000E+00  0.00000000000E+00  0.45593999997E+02  0.45594000000E+02  0.51100000000E-03 0. -1.
         11   -1    0    0    0    0 -0.00000000000E+00 -0.00000000000E+00 -0.45593999997E+02  0.45594000000E+02  0.51100000000E-03 0.  1.
         23    2    1    2    0    0  0.00000000000E+00  0.00000000000E+00  0.00000000000E+00  0.91188000000E+02  0.91188000000E+02 0.  0.
    9900012    2    3    3    0    0  0.16807372361E+02 -0.69127703758E+01 -0.39412553141E+02  0.47787268381E+02  0.19999987857E+02 0.  0.
         12    1    3    3    0    0 -0.16807372361E+02  0.69127703758E+01  0.39412553141E+02  0.43400731619E+02  0.00000000000E+00 0. -1.
         11    1    4    4    0    0  0.29186032217E+01 -0.69847244511E+01 -0.53924486061E+01  0.92942521299E+01  0.51100000000E-03 0. -1.
        -11    1    4    4    0    0 -0.17193763874E+01 -0.79496901928E+00 -0.15194138010E+01  0.24283429459E+01  0.51100000000E-03 0.  1.
         12    1    4    4    0    0  0.15608145527E+02  0.86692309455E+00 -0.32500690734E+02  0.36064673305E+02  0.00000000000E+00 0. -1.
</event>
<event>
 8    1  0.2994958E-010  0.9118800E+02  0.7816164E-02  0.1184000E+00
        -11   -1    0    0    0    0  0.00000000000E+00  0.00000000000E+00  0.45593999997E+02  0.45594000000E+02  0.51100000000E-03 0. -1.
         11   -1    0    0    0    0 -0.00000000000E+00 -0.00000000000E+00 -0.45593999997E+02  0.45594000000E+02  0.51100000000E-03 0.  1.
         23    2    1    2    0    0  0.00000000000E+00  0.00000000000E+00 -0.66613381478E-15  0.91188000000E+02  0.91188000000E+02 0.  0.
    9900012    2    3    3    0    0 -0.25670035693E+02 -0.34970340625E+02 -0.13220218099E+01  0.47787271923E+02  0.20000004008E+02 0.  0.
        -12    1    3    3    0    0  0.25670035693E+02  0.34970340625E+02  0.13220218099E+01  0.43400728077E+02  0.00000000000E+00 0.  1.
         11    1    4    4    0    0 -0.60884842383E+01 -0.15132604102E+02 -0.99318666627E+00  0.16341718614E+02  0.51100000000E-03 0. -1.
        -11    1    4    4    0    0 -0.21431567646E+02 -0.19249247284E+02 -0.20105009102E+01  0.28877114242E+02  0.51100000000E-03 0.  1.
        -12    1    4    4    0    0  0.18500161918E+01 -0.58848923875E+00  0.16816657666E+01  0.25684390677E+01  0.00000000000E+00 0.  1.
</event>
<event>
 8    1  0.2994958E-010  0.9118800E+02  0.7816164E-02  0.1184000E+00
        -11   -1    0    0    0    0  0.00000000000E+00  0.00000000000E+00  0.45593999997E+02  0.45594000000E+02  0.51100000000E-03 0. -1.
         11   -1    0    0    0    0 -0.00000000000E+00 -0.00000000000E+00 -0.45593999997E+02  0.45594000000E+02  0.51100000000E-03 0.  1.
         23    2    1    2    0    0  0.00000000000E+00  0.00000000000E+00  0.00000000000E+00  0.91188000000E+02  0.91188000000E+02 0.  0.
    9900012    2    3    3    0    0 -0.17773852399E+02  0.39014542141E+02 -0.67512823650E+01  0.47787261053E+02  0.19999954445E+02 0.  0.
         12    1    3    3    0    0  0.17773852399E+02 -0.39014542141E+02  0.67512823650E+01  0.43400738947E+02  0.00000000000E+00 0. -1.
         11    1    4    4    0    0 -0.90665756539E+01  0.15943884914E+02  0.62805292744E-01  0.18341597668E+02  0.51100000000E-03 0. -1.
        -11    1    4    4    0    0 -0.18560853569E+01  0.21497910686E+02 -0.44725414389E+01  0.22036534299E+02  0.51100000000E-03 0.  1.
         12    1    4    4    0    0 -0.68511913884E+01  0.15727465407E+01 -0.23415462188E+01  0.74091290862E+01  0.00000000000E+00 0. -1.
</event>
<event>
 8    1  0.2994958E-010  0.9118800E+02  0.7816164E-02  0.1184000E+00
        -11   -1    0    0    0    0  0.00000000000E+00  0.00000000000E+00  0.45593999997E+02  0.45594000000E+02  0.51100000000E-03 0. -1.
         11   -1    0    0    0    0 -0.00000000000E+00 -0.00000000000E+00 -0.45593999997E+02  0.45594000000E+02  0.51100000000E-03 0.  1.
         23    2    1    2    0    0 -0.35527136788E-14  0.44408920985E-15  0.00000000000E+00  0.91188000000E+02  0.91188000000E+02 0.  0.
    9900012    2    3    3    0    0  0.26461478620E+02  0.33322132555E+01 -0.34238958736E+02  0.47787311166E+02  0.20000182929E+02 0.  0.
         12    1    3    3    0    0 -0.26461478620E+02 -0.33322132555E+01  0.34238958736E+02  0.43400688834E+02  0.00000000000E+00 0. -1.
         11    1    4    4    0    0  0.62632068104E+01  0.42209233893E+01 -0.77673995246E+01  0.10834041233E+02  0.51100000000E-03 0. -1.
        -11    1    4    4    0    0  0.21179652615E+02  0.25211326570E+01 -0.18526224794E+02  0.28251633583E+02  0.51100000000E-03 0.  1.
         12    1    4    4    0    0 -0.98138080536E+00 -0.34098427908E+01 -0.79453344178E+01  0.87016363492E+01  0.00000000000E+00 0. -1.
</event>
<event>
 8    1  0.2994958E-010  0.9118800E+02  0.7816164E-02  0.1184000E+00
        -11   -1    0    0    0    0  0.00000000000E+00  0.00000000000E+00  0.45593999997E+02  0.45594000000E+02  0.51100000000E-03 0. -1.
         11   -1    0    0    0    0 -0.00000000000E+00 -0.00000000000E+00 -0.45593999997E+02  0.45594000000E+02  0.51100000000E-03 0.  1.
         23    2    1    2    0    0  0.71054273576E-14 -0.17763568394E-14  0.00000000000E+00  0.91188000000E+02  0.91188000000E+02 0.  0.
    9900012    2    3    3    0    0 -0.29431240305E+02  0.13532380075E+02 -0.28884250380E+02  0.47787272628E+02  0.20000007221E+02 0.  0.
         12    1    3    3    0    0  0.29431240305E+02 -0.13532380075E+02  0.28884250380E+02  0.43400727372E+02  0.00000000000E+00 0. -1.
         11    1    4    4    0    0 -0.67313382169E+01 -0.20223441399E+01 -0.66973093642E+01  0.97084881929E+01  0.51100000000E-03 0. -1.
        -11    1    4    4    0    0 -0.15480381516E+02  0.74291534547E+01 -0.21027559925E+02  0.27147611490E+02  0.51100000000E-03 0.  1.
        -12    1    4    4    0    0 -0.72195205714E+01  0.81255707600E+01 -0.11593810916E+01  0.10931172946E+02  0.00000000000E+00 0.  1.
</event>
<event>
 8    1  0.2994958E-010  0.9118800E+02  0.7816164E-02  0.1184000E+00
        -11   -1    0    0    0    0  0.00000000000E+00  0.00000000000E+00  0.45593999997E+02  0.45594000000E+02  0.51100000000E-03 0. -1.
         11   -1    0    0    0    0 -0.00000000000E+00 -0.00000000000E+00 -0.45593999997E+02  0.45594000000E+02  0.51100000000E-03 0.  1.
         23    2    1    2    0    0 -0.44408920985E-15  0.00000000000E+00  0.00000000000E+00  0.91188000000E+02  0.91188000000E+02 0.  0.
    9900012    2    3    3    0    0 -0.31314468128E+01 -0.10637917997E+02  0.41960125260E+02  0.47787269933E+02  0.19999994934E+02 0.  0.
        -12    1    3    3    0    0  0.31314468128E+01  0.10637917997E+02 -0.41960125260E+02  0.43400730067E+02  0.00000000000E+00 0.  1.
         11    1    4    4    0    0 -0.31172773470E+00 -0.22945997881E+01  0.20661533121E+02  0.20790894967E+02  0.51100000000E-03 0. -1.
        -11    1    4    4    0    0  0.47967196729E+01 -0.55578723244E+01  0.15095980108E+02  0.16786514828E+02  0.51100000000E-03 0.  1.
        -12    1    4    4    0    0 -0.76164387510E+01 -0.27854458849E+01  0.62026120309E+01  0.10209860138E+02  0.00000000000E+00 0.  1.
</event>
<event>
 8    1  0.2994958E-010  0.9118800E+02  0.7816164E-02  0.1184000E+00
        -11   -1    0    0    0    0  0.00000000000E+00  0.00000000000E+00  0.45593999997E+02  0.45594000000E+02  0.51100000000E-03 0. -1.
         11   -1    0    0    0    0 -0.00000000000E+00 -0.00000000000E+00 -0.45593999997E+02  0.45594000000E+02  0.51100000000E-03 0.  1.
         23    2    1    2    0    0  0.00000000000E+00  0.00000000000E+00  0.00000000000E+00  0.91188000000E+02  0.91188000000E+02 0.  0.
    9900012    2    3    3    0    0 -0.22769522450E+01  0.24957680699E+02 -0.35433776991E+02  0.47787275475E+02  0.20000020201E+02 0.  0.
         12    1    3    3    0    0  0.22769522450E+01 -0.24957680699E+02  0.35433776991E+02  0.43400724525E+02  0.00000000000E+00 0. -1.
         11    1    4    4    0    0  0.46240833230E+01 -0.66460569134E+00 -0.19864021049E+01  0.50763806877E+01  0.51100000000E-03 0. -1.
        -11    1    4    4    0    0 -0.18068081870E+01  0.53883958312E+01 -0.66303103471E+01  0.87327189935E+01  0.51100000000E-03 0.  1.
         12    1    4    4    0    0 -0.50942273810E+01  0.20233890560E+02 -0.26817064539E+02  0.33978175794E+02  0.00000000000E+00 0. -1.
</event>
<event>
 8    1  0.2994958E-010  0.9118800E+02  0.7816164E-02  0.1184000E+00
        -11   -1    0    0    0    0  0.00000000000E+00  0.00000000000E+00  0.45593999997E+02  0.45594000000E+02  0.51100000000E-03 0. -1.
         11   -1    0    0    0    0 -0.00000000000E+00 -0.00000000000E+00 -0.45593999997E+02  0.45594000000E+02  0.51100000000E-03 0.  1.
         23    2    1    2    0    0  0.00000000000E+00  0.35527136788E-14  0.00000000000E+00  0.91188000000E+02  0.91188000000E+02 0.  0.
    9900012    2    3    3    0    0  0.58529717163E+01  0.25343990737E+02  0.34742599403E+02  0.47787270079E+02  0.19999995599E+02 0.  0.
        -12    1    3    3    0    0 -0.58529717163E+01 -0.25343990737E+02 -0.34742599403E+02  0.43400729921E+02  0.00000000000E+00 0.  1.
         11    1    4    4    0    0  0.78956021939E+01  0.13469052360E+02  0.10205765819E+02  0.18652441173E+02  0.51100000000E-03 0. -1.
        -11    1    4    4    0    0 -0.29774383260E+01  0.97611409359E+01  0.95692286471E+01  0.13989823034E+02  0.51100000000E-03 0.  1.
         12    1    4    4    0    0  0.93480784845E+00  0.21137974410E+01  0.14967604937E+02  0.15145005873E+02  0.00000000000E+00 0. -1.
</event>
<event>
 8    1  0.2994958E-010  0.9118800E+02  0.7816164E-02  0.1184000E+00
        -11   -1    0    0    0    0  0.00000000000E+00  0.00000000000E+00  0.45593999997E+02  0.45594000000E+02  0.51100000000E-03 0. -1.
         11   -1    0    0    0    0 -0.00000000000E+00 -0.00000000000E+00 -0.45593999997E+02  0.45594000000E+02  0.51100000000E-03 0.  1.
         23    2    1    2    0    0  0.00000000000E+00  0.00000000000E+00 -0.71054273576E-14  0.91188000000E+02  0.91188000000E+02 0.  0.
    9900012    2    3    3    0    0  0.61354713644E+01  0.10156327353E+02  0.41747195990E+02  0.47787269969E+02  0.19999995099E+02 0.  0.
        -12    1    3    3    0    0 -0.61354713644E+01 -0.10156327353E+02 -0.41747195990E+02  0.43400730031E+02  0.00000000000E+00 0.  1.
         11    1    4    4    0    0 -0.30634469446E+01  0.54662181474E+01  0.13650353978E+02  0.15019867243E+02  0.51100000000E-03 0. -1.
        -11    1    4    4    0    0 -0.11555527256E+01  0.57651664398E+01  0.63314211532E+01  0.86405636541E+01  0.51100000000E-03 0.  1.
         12    1    4    4    0    0  0.10354471035E+02 -0.10750572340E+01  0.21765420858E+02  0.24126839072E+02  0.00000000000E+00 0. -1.
</event>
<event>
 8    1  0.2994958E-010  0.9118800E+02  0.7816164E-02  0.1184000E+00
        -11   -1    0    0    0    0  0.00000000000E+00  0.00000000000E+00  0.45593999997E+02  0.45594000000E+02  0.51100000000E-03 0. -1.
         11   -1    0    0    0    0 -0.00000000000E+00 -0.00000000000E+00 -0.45593999997E+02  0.45594000000E+02  0.51100000000E-03 0.  1.
         23    2    1    2    0    0  0.00000000000E+00  0.17763568394E-14  0.00000000000E+00  0.91188000000E+02  0.91188000000E+02 0.  0.
    9900012    2    3    3    0    0  0.17601393305E+02  0.15147695413E+02  0.36665535554E+02  0.47787271664E+02  0.20000002826E+02 0.  0.
        -12    1    3    3    0    0 -0.17601393305E+02 -0.15147695413E+02 -0.36665535554E+02  0.43400728336E+02  0.00000000000E+00 0.  1.
         11    1    4    4    0    0  0.23524983121E+01  0.35130158773E+01  0.18730832592E+01  0.46242804867E+01  0.51100000000E-03 0. -1.
        -11    1    4    4    0    0  0.93447973096E+01  0.67132886601E+01  0.52687504069E+01  0.12655165447E+02  0.51100000000E-03 0.  1.
         12    1    4    4    0    0  0.59040976831E+01  0.49213908752E+01  0.29523701888E+02  0.30507825730E+02  0.00000000000E+00 0. -1.
</event>
<event>
 8    1  0.2994958E-010  0.9118800E+02  0.7816164E-02  0.1184000E+00
        -11   -1    0    0    0    0  0.00000000000E+00  0.00000000000E+00  0.45593999997E+02  0.45594000000E+02  0.51100000000E-03 0. -1.
         11   -1    0    0    0    0 -0.00000000000E+00 -0.00000000000E+00 -0.45593999997E+02  0.45594000000E+02  0.51100000000E-03 0.  1.
         23    2    1    2    0    0  0.00000000000E+00  0.00000000000E+00  0.00000000000E+00  0.91188000000E+02  0.91188000000E+02 0.  0.
    9900012    2    3    3    0    0  0.84945513542E+01 -0.33826627803E+02  0.25830706194E+02  0.47787268051E+02  0.19999986352E+02 0.  0.
        -12    1    3    3    0    0 -0.84945513542E+01  0.33826627803E+02 -0.25830706194E+02  0.43400731949E+02  0.00000000000E+00 0.  1.
         11    1    4    4    0    0 -0.27313706022E+01 -0.82373225614E+01  0.88226112358E+01  0.12375473228E+02  0.51100000000E-03 0. -1.
        -11    1    4    4    0    0 -0.93524974124E+00 -0.10909793579E+00 -0.14146023632E+01  0.16993217897E+01  0.51100000000E-03 0.  1.
         12    1    4    4    0    0  0.12161171698E+02 -0.25480207306E+02  0.18422697321E+02  0.33712473033E+02  0.00000000000E+00 0. -1.
</event>
<event>
 8    1  0.2994958E-010  0.9118800E+02  0.7816164E-02  0.1184000E+00
        -11   -1    0    0    0    0  0.00000000000E+00  0.00000000000E+00  0.45593999997E+02  0.45594000000E+02  0.51100000000E-03 0.  1.
         11   -1    0    0    0    0 -0.00000000000E+00 -0.00000000000E+00 -0.45593999997E+02  0.45594000000E+02  0.51100000000E-03 0. -1.
         23    2    1    2    0    0 -0.35527136788E-14  0.35527136788E-14  0.17763568394E-14  0.91188000000E+02  0.91188000000E+02 0.  0.
    9900012    2    3    3    0    0 -0.30245158074E+02  0.29686561444E+02  0.93574583854E+01  0.47787267924E+02  0.19999985775E+02 0.  0.
        -12    1    3    3    0    0  0.30245158074E+02 -0.29686561444E+02 -0.93574583854E+01  0.43400732076E+02  0.00000000000E+00 0.  1.
         11    1    4    4    0    0 -0.26382056947E+02  0.16054628058E+02  0.53087270101E+01  0.31336027086E+02  0.51100000000E-03 0. -1.
        -11    1    4    4    0    0 -0.27515604044E+01  0.60458702579E+00  0.12413118289E+01  0.30785492442E+01  0.51100000000E-03 0.  1.
        -12    1    4    4    0    0 -0.11115407225E+01  0.13027346360E+02  0.28074195464E+01  0.13372691594E+02  0.00000000000E+00 0.  1.
</event>
<event>
 8    1  0.2994958E-010  0.9118800E+02  0.7816164E-02  0.1184000E+00
        -11   -1    0    0    0    0  0.00000000000E+00  0.00000000000E+00  0.45593999997E+02  0.45594000000E+02  0.51100000000E-03 0. -1.
         11   -1    0    0    0    0 -0.00000000000E+00 -0.00000000000E+00 -0.45593999997E+02  0.45594000000E+02  0.51100000000E-03 0.  1.
         23    2    1    2    0    0  0.00000000000E+00  0.22204460493E-15  0.00000000000E+00  0.91188000000E+02  0.91188000000E+02 0.  0.
    9900012    2    3    3    0    0  0.40274373809E+02  0.10874319662E+01  0.16137387964E+02  0.47787274381E+02  0.20000015211E+02 0.  0.
        -12    1    3    3    0    0 -0.40274373809E+02 -0.10874319662E+01 -0.16137387964E+02  0.43400725619E+02  0.00000000000E+00 0.  1.
         11    1    4    4    0    0  0.30083089603E+02  0.13526490126E+01  0.15872243198E+02  0.34040417798E+02  0.51100000000E-03 0. -1.
        -11    1    4    4    0    0  0.11155532016E+02 -0.22975289294E+01  0.85388089862E+00  0.11421630645E+02  0.51100000000E-03 0.  1.
         12    1    4    4    0    0 -0.96424780972E+00  0.20323118831E+01 -0.58873613343E+00  0.23252259381E+01  0.00000000000E+00 0. -1.
</event>
<event>
 8    1  0.2994958E-010  0.9118800E+02  0.7816164E-02  0.1184000E+00
        -11   -1    0    0    0    0  0.00000000000E+00  0.00000000000E+00  0.45593999997E+02  0.45594000000E+02  0.51100000000E-03 0. -1.
         11   -1    0    0    0    0 -0.00000000000E+00 -0.00000000000E+00 -0.45593999997E+02  0.45594000000E+02  0.51100000000E-03 0.  1.
         23    2    1    2    0    0  0.00000000000E+00  0.00000000000E+00  0.00000000000E+00  0.91188000000E+02  0.91188000000E+02 0.  0.
    9900012    2    3    3    0    0  0.31190740748E+02 -0.20797232907E+02  0.21868612569E+02  0.47787269353E+02  0.19999992289E+02 0.  0.
        -12    1    3    3    0    0 -0.31190740748E+02  0.20797232907E+02 -0.21868612569E+02  0.43400730647E+02  0.00000000000E+00 0.  1.
         11    1    4    4    0    0  0.15056426429E+02 -0.41539729563E+01  0.68722350362E+01  0.17063970311E+02  0.51100000000E-03 0. -1.
        -11    1    4    4    0    0  0.69168331871E+01  0.91731050129E+00  0.41550216541E+01  0.81208524861E+01  0.51100000000E-03 0.  1.
        -12    1    4    4    0    0  0.92174811319E+01 -0.17560570452E+02  0.10841355879E+02  0.22602446556E+02  0.00000000000E+00 0.  1.
</event>
<event>
 8    1  0.2994958E-010  0.9118800E+02  0.7816164E-02  0.1184000E+00
        -11   -1    0    0    0    0  0.00000000000E+00  0.00000000000E+00  0.45593999997E+02  0.45594000000E+02  0.51100000000E-03 0. -1.
         11   -1    0    0    0    0 -0.00000000000E+00 -0.00000000000E+00 -0.45593999997E+02  0.45594000000E+02  0.51100000000E-03 0.  1.
         23    2    1    2    0    0  0.00000000000E+00 -0.35527136788E-14  0.00000000000E+00  0.91188000000E+02  0.91188000000E+02 0.  0.
    9900012    2    3    3    0    0 -0.93233808704E+01  0.24737910438E+02 -0.34419960423E+02  0.47787270522E+02  0.19999997619E+02 0.  0.
         12    1    3    3    0    0  0.93233808704E+01 -0.24737910438E+02  0.34419960423E+02  0.43400729478E+02  0.00000000000E+00 0. -1.
         11    1    4    4    0    0  0.35124580387E+01  0.81650178970E+01 -0.58711197912E+01  0.10652461058E+02  0.51100000000E-03 0. -1.
        -11    1    4    4    0    0 -0.59629935380E+01  0.15730436775E+02 -0.20361545055E+02  0.26412051234E+02  0.51100000000E-03 0.  1.
         12    1    4    4    0    0 -0.68728453711E+01  0.84245576559E+00 -0.81872955767E+01  0.10722758231E+02  0.00000000000E+00 0. -1.
</event>
<event>
 8    1  0.2994958E-010  0.9118800E+02  0.7816164E-02  0.1184000E+00
        -11   -1    0    0    0    0  0.00000000000E+00  0.00000000000E+00  0.45593999997E+02  0.45594000000E+02  0.51100000000E-03 0. -1.
         11   -1    0    0    0    0 -0.00000000000E+00 -0.00000000000E+00 -0.45593999997E+02  0.45594000000E+02  0.51100000000E-03 0.  1.
         23    2    1    2    0    0 -0.88817841970E-15  0.00000000000E+00  0.71054273576E-14  0.91188000000E+02  0.91188000000E+02 0.  0.
    9900012    2    3    3    0    0  0.63564705037E+01 -0.15862404422E+02 -0.39894892895E+02  0.47787273388E+02  0.20000010686E+02 0.  0.
         12    1    3    3    0    0 -0.63564705037E+01  0.15862404422E+02  0.39894892895E+02  0.43400726612E+02  0.00000000000E+00 0. -1.
         11    1    4    4    0    0 -0.18540301119E+01 -0.35984690059E+01 -0.18826338820E+02  0.19256620692E+02  0.51100000000E-03 0. -1.
        -11    1    4    4    0    0  0.77651169967E+01 -0.41926321081E+01 -0.17690956697E+02  0.19769804124E+02  0.51100000000E-03 0.  1.
         12    1    4    4    0    0  0.44538361879E+00 -0.80713033085E+01 -0.33775973775E+01  0.87608485725E+01  0.00000000000E+00 0. -1.
</event>
<event>
 8    1  0.2994958E-010  0.9118800E+02  0.7816164E-02  0.1184000E+00
        -11   -1    0    0    0    0  0.00000000000E+00  0.00000000000E+00  0.45593999997E+02  0.45594000000E+02  0.51100000000E-03 0. -1.
         11   -1    0    0    0    0 -0.00000000000E+00 -0.00000000000E+00 -0.45593999997E+02  0.45594000000E+02  0.51100000000E-03 0.  1.
         23    2    1    2    0    0  0.00000000000E+00  0.71054273576E-14 -0.35527136788E-14  0.91188000000E+02  0.91188000000E+02 0.  0.
    9900012    2    3    3    0    0  0.59593637024E+01 -0.31033855487E+02 -0.29749110691E+02  0.47787265109E+02  0.19999972939E+02 0.  0.
         12    1    3    3    0    0 -0.59593637024E+01  0.31033855487E+02  0.29749110691E+02  0.43400734891E+02  0.00000000000E+00 0. -1.
         11    1    4    4    0    0  0.79539197602E+00 -0.91947612582E+01 -0.28649989088E+01  0.96635656980E+01  0.51100000000E-03 0.  1.
        -11    1    4    4    0    0  0.67141500483E+00 -0.22221800250E+02 -0.24263507237E+02  0.32908615713E+02  0.51100000000E-03 0. -1.
         12    1    4    4    0    0  0.44925567216E+01  0.38270602104E+00 -0.26206045457E+01  0.52150836982E+01  0.00000000000E+00 0. -1.
</event>
<event>
 8    1  0.2994958E-010  0.9118800E+02  0.7816164E-02  0.1184000E+00
        -11   -1    0    0    0    0  0.00000000000E+00  0.00000000000E+00  0.45593999997E+02  0.45594000000E+02  0.51100000000E-03 0. -1.
         11   -1    0    0    0    0 -0.00000000000E+00 -0.00000000000E+00 -0.45593999997E+02  0.45594000000E+02  0.51100000000E-03 0.  1.
         23    2    1    2    0    0  0.17763568394E-14  0.00000000000E+00  0.00000000000E+00  0.91188000000E+02  0.91188000000E+02 0.  0.
    9900012    2    3    3    0    0  0.14060819664E+02  0.34085896719E+02  0.22892543780E+02  0.47787267685E+02  0.19999984683E+02 0.  0.
        -12    1    3    3    0    0 -0.14060819664E+02 -0.34085896719E+02 -0.22892543780E+02  0.43400732315E+02  0.00000000000E+00 0.  1.
         11    1    4    4    0    0  0.89688028317E+01  0.17179361751E+02  0.11023327563E+02  0.22295372731E+02  0.51100000000E-03 0. -1.
        -11    1    4    4    0    0  0.27946795675E+01  0.14502028023E+02  0.17884440801E+01  0.14876746390E+02  0.51100000000E-03 0.  1.
        -12    1    4    4    0    0  0.22973372643E+01  0.24045069453E+01  0.10080772136E+02  0.10615148563E+02  0.00000000000E+00 0.  1.
</event>
<event>
 8    1  0.2994958E-010  0.9118800E+02  0.7816164E-02  0.1184000E+00
        -11   -1    0    0    0    0  0.00000000000E+00  0.00000000000E+00  0.45593999997E+02  0.45594000000E+02  0.51100000000E-03 0. -1.
         11   -1    0    0    0    0 -0.00000000000E+00 -0.00000000000E+00 -0.45593999997E+02  0.45594000000E+02  0.51100000000E-03 0.  1.
         23    2    1    2    0    0 -0.35527136788E-14 -0.17763568394E-14  0.71054273576E-14  0.91188000000E+02  0.91188000000E+02 0.  0.
    9900012    2    3    3    0    0 -0.16133495480E+02 -0.12822661739E+02  0.38195716076E+02  0.47787273542E+02  0.20000011387E+02 0.  0.
        -12    1    3    3    0    0  0.16133495480E+02  0.12822661739E+02 -0.38195716076E+02  0.43400726458E+02  0.00000000000E+00 0.  1.
         11    1    4    4    0    0 -0.47520778616E+01 -0.10261207741E+02  0.28347820164E+02  0.30520051386E+02  0.51100000000E-03 0. -1.
        -11    1    4    4    0    0  0.11064627983E+01 -0.64210917079E+00  0.20612456309E+01  0.24259632980E+01  0.51100000000E-03 0.  1.
        -12    1    4    4    0    0 -0.12487880417E+02 -0.19193448278E+01  0.77866502813E+01  0.14841258858E+02  0.00000000000E+00 0.  1.
</event>
<event>
 8    1  0.2994958E-010  0.9118800E+02  0.7816164E-02  0.1184000E+00
        -11   -1    0    0    0    0  0.00000000000E+00  0.00000000000E+00  0.45593999997E+02  0.45594000000E+02  0.51100000000E-03 0.  1.
         11   -1    0    0    0    0 -0.00000000000E+00 -0.00000000000E+00 -0.45593999997E+02  0.45594000000E+02  0.51100000000E-03 0. -1.
         23    2    1    2    0    0  0.00000000000E+00  0.00000000000E+00  0.00000000000E+00  0.91188000000E+02  0.91188000000E+02 0.  0.
    9900012    2    3    3    0    0  0.40806117361E+02  0.91735781181E+01 -0.11589964070E+02  0.47787297048E+02  0.20000118558E+02 0.  0.
        -12    1    3    3    0    0 -0.40806117361E+02 -0.91735781181E+01  0.11589964070E+02  0.43400702952E+02  0.00000000000E+00 0.  1.
         11    1    4    4    0    0 -0.50650690487E+00  0.49645433304E+00  0.29556125591E+00  0.76835725193E+00  0.51100000000E-03 0. -1.
        -11    1    4    4    0    0 -0.39954021263E+00  0.31629692153E+01  0.33357079865E+00  0.32055071950E+01  0.51100000000E-03 0.  1.
         12    1    4    4    0    0  0.41712164479E+02  0.55141545698E+01 -0.12219096125E+02  0.43813432601E+02  0.00000000000E+00 0. -1.
</event>
<event>
 8    1  0.2994958E-010  0.9118800E+02  0.7816164E-02  0.1184000E+00
        -11   -1    0    0    0    0  0.00000000000E+00  0.00000000000E+00  0.45593999997E+02  0.45594000000E+02  0.51100000000E-03 0. -1.
         11   -1    0    0    0    0 -0.00000000000E+00 -0.00000000000E+00 -0.45593999997E+02  0.45594000000E+02  0.51100000000E-03 0.  1.
         23    2    1    2    0    0  0.00000000000E+00  0.00000000000E+00  0.00000000000E+00  0.91188000000E+02  0.91188000000E+02 0.  0.
    9900012    2    3    3    0    0 -0.10242294272E+02  0.10210309861E+02 -0.40920268949E+02  0.47787269242E+02  0.19999991783E+02 0.  0.
         12    1    3    3    0    0  0.10242294272E+02 -0.10210309861E+02  0.40920268949E+02  0.43400730758E+02  0.00000000000E+00 0. -1.
         11    1    4    4    0    0  0.20173806240E+01 -0.26475221651E+01 -0.40798097600E+01  0.52653628684E+01  0.51100000000E-03 0. -1.
        -11    1    4    4    0    0 -0.58488910551E+01 -0.62186835591E+00 -0.14564789023E+02  0.15707620010E+02  0.51100000000E-03 0.  1.
         12    1    4    4    0    0 -0.64107838410E+01  0.13479700382E+02 -0.22275670166E+02  0.26814286364E+02  0.00000000000E+00 0. -1.
</event>
<event>
 8    1  0.2994958E-010  0.9118800E+02  0.7816164E-02  0.1184000E+00
        -11   -1    0    0    0    0  0.00000000000E+00  0.00000000000E+00  0.45593999997E+02  0.45594000000E+02  0.51100000000E-03 0. -1.
         11   -1    0    0    0    0 -0.00000000000E+00 -0.00000000000E+00 -0.45593999997E+02  0.45594000000E+02  0.51100000000E-03 0.  1.
         23    2    1    2    0    0  0.00000000000E+00  0.35527136788E-14 -0.71054273576E-14  0.91188000000E+02  0.91188000000E+02 0.  0.
    9900012    2    3    3    0    0  0.18573371835E+02  0.17365127650E+02 -0.35172495562E+02  0.47787282913E+02  0.20000054112E+02 0.  0.
         12    1    3    3    0    0 -0.18573371835E+02 -0.17365127650E+02  0.35172495562E+02  0.43400717087E+02  0.00000000000E+00 0. -1.
         11    1    4    4    0    0  0.55133624195E+01  0.42587731492E+01 -0.14626891902E+02  0.16201243189E+02  0.51100000000E-03 0. -1.
        -11    1    4    4    0    0 -0.10728263770E+01  0.73914869280E+01 -0.11930462838E+02  0.14075545432E+02  0.51100000000E-03 0.  1.
         12    1    4    4    0    0  0.14132835793E+02  0.57148675732E+01 -0.86151408226E+01  0.17510494291E+02  0.00000000000E+00 0. -1.
</event>
<event>
 8    1  0.2994958E-010  0.9118800E+02  0.7816164E-02  0.1184000E+00
        -11   -1    0    0    0    0  0.00000000000E+00  0.00000000000E+00  0.45593999997E+02  0.45594000000E+02  0.51100000000E-03 0.  1.
         11   -1    0    0    0    0 -0.00000000000E+00 -0.00000000000E+00 -0.45593999997E+02  0.45594000000E+02  0.51100000000E-03 0. -1.
         23    2    1    2    0    0  0.00000000000E+00  0.00000000000E+00  0.35527136788E-14  0.91188000000E+02  0.91188000000E+02 0.  0.
    9900012    2    3    3    0    0 -0.25797158479E+02  0.17123052790E+02  0.30412678464E+02  0.47787270354E+02  0.19999996852E+02 0.  0.
        -12    1    3    3    0    0  0.25797158479E+02 -0.17123052790E+02 -0.30412678464E+02  0.43400729646E+02  0.00000000000E+00 0.  1.
         11    1    4    4    0    0 -0.47839118261E+01  0.99823964173E+00  0.14643328949E+00  0.48891448855E+01  0.51100000000E-03 0. -1.
        -11    1    4    4    0    0 -0.77561336195E+01  0.10593700837E+02  0.54322908868E+01  0.14208937000E+02  0.51100000000E-03 0.  1.
        -12    1    4    4    0    0 -0.13257113033E+02  0.55311123117E+01  0.24833954288E+02  0.28689188468E+02  0.00000000000E+00 0.  1.
</event>
<event>
 8    1  0.2994958E-010  0.9118800E+02  0.7816164E-02  0.1184000E+00
        -11   -1    0    0    0    0  0.00000000000E+00  0.00000000000E+00  0.45593999997E+02  0.45594000000E+02  0.51100000000E-03 0. -1.
         11   -1    0    0    0    0 -0.00000000000E+00 -0.00000000000E+00 -0.45593999997E+02  0.45594000000E+02  0.51100000000E-03 0.  1.
         23    2    1    2    0    0  0.88817841970E-15  0.00000000000E+00  0.00000000000E+00  0.91188000000E+02  0.91188000000E+02 0.  0.
    9900012    2    3    3    0    0 -0.30207492040E+01 -0.19887214283E+02 -0.38457733249E+02  0.47787268850E+02  0.19999989996E+02 0.  0.
         12    1    3    3    0    0  0.30207492040E+01  0.19887214283E+02  0.38457733249E+02  0.43400731150E+02  0.00000000000E+00 0. -1.
         11    1    4    4    0    0 -0.16434401827E+00 -0.78533749862E+01 -0.52117052434E+01  0.94267905161E+01  0.51100000000E-03 0. -1.
        -11    1    4    4    0    0  0.14295751900E+01 -0.58946206182E+00  0.11048938480E+01  0.19005108320E+01  0.51100000000E-03 0.  1.
        -12    1    4    4    0    0 -0.42859803757E+01 -0.11444377235E+02 -0.34350921854E+02  0.36459967502E+02  0.00000000000E+00 0.  1.
</event>
<event>
 8    1  0.2994958E-010  0.9118800E+02  0.7816164E-02  0.1184000E+00
        -11   -1    0    0    0    0  0.00000000000E+00  0.00000000000E+00  0.45593999997E+02  0.45594000000E+02  0.51100000000E-03 0.  1.
         11   -1    0    0    0    0 -0.00000000000E+00 -0.00000000000E+00 -0.45593999997E+02  0.45594000000E+02  0.51100000000E-03 0. -1.
         23    2    1    2    0    0  0.00000000000E+00  0.27755575616E-15  0.00000000000E+00  0.91188000000E+02  0.91188000000E+02 0.  0.
    9900012    2    3    3    0    0 -0.41769088466E+02  0.40903857260E+00  0.11781302578E+02  0.47787272423E+02  0.20000006283E+02 0.  0.
         12    1    3    3    0    0  0.41769088466E+02 -0.40903857260E+00 -0.11781302578E+02  0.43400727577E+02  0.00000000000E+00 0. -1.
         11    1    4    4    0    0 -0.10775216844E+02 -0.67035889528E+00  0.86092683677E+00  0.10830321988E+02  0.51100000000E-03 0.  1.
        -11    1    4    4    0    0 -0.17887957807E+02  0.46122135357E+01 -0.15323150500E+01  0.18536438112E+02  0.51100000000E-03 0. -1.
         12    1    4    4    0    0 -0.13105913814E+02 -0.35328160678E+01  0.12452690791E+02  0.18420512322E+02  0.00000000000E+00 0. -1.
</event>
<event>
 8    1  0.2994958E-010  0.9118800E+02  0.7816164E-02  0.1184000E+00
        -11   -1    0    0    0    0  0.00000000000E+00  0.00000000000E+00  0.45593999997E+02  0.45594000000E+02  0.51100000000E-03 0. -1.
         11   -1    0    0    0    0 -0.00000000000E+00 -0.00000000000E+00 -0.45593999997E+02  0.45594000000E+02  0.51100000000E-03 0.  1.
         23    2    1    2    0    0 -0.88817841970E-15  0.88817841970E-15  0.71054273576E-14  0.91188000000E+02  0.91188000000E+02 0.  0.
    9900012    2    3    3    0    0 -0.65273550484E+01 -0.40153946184E+01 -0.42718772700E+02  0.47787270757E+02  0.19999998688E+02 0.  0.
         12    1    3    3    0    0  0.65273550484E+01  0.40153946184E+01  0.42718772700E+02  0.43400729243E+02  0.00000000000E+00 0. -1.
         11    1    4    4    0    0 -0.41793275221E+01  0.34551708444E+00 -0.46791300448E+01  0.62833445577E+01  0.51100000000E-03 0.  1.
        -11    1    4    4    0    0 -0.12923263864E+01 -0.10041338046E+02 -0.18043027610E+02  0.20689355303E+02  0.51100000000E-03 0. -1.
         12    1    4    4    0    0 -0.10557011399E+01  0.56804263431E+01 -0.19996615045E+02  0.20814570896E+02  0.00000000000E+00 0. -1.
</event>
<event>
 8    1  0.2994958E-010  0.9118800E+02  0.7816164E-02  0.1184000E+00
        -11   -1    0    0    0    0  0.00000000000E+00  0.00000000000E+00  0.45593999997E+02  0.45594000000E+02  0.51100000000E-03 0. -1.
         11   -1    0    0    0    0 -0.00000000000E+00 -0.00000000000E+00 -0.45593999997E+02  0.45594000000E+02  0.51100000000E-03 0.  1.
         23    2    1    2    0    0 -0.88817841970E-15  0.00000000000E+00  0.00000000000E+00  0.91188000000E+02  0.91188000000E+02 0.  0.
    9900012    2    3    3    0    0  0.57219691605E+01  0.23711109435E+02 -0.35897994748E+02  0.47787266496E+02  0.19999979264E+02 0.  0.
         12    1    3    3    0    0 -0.57219691605E+01 -0.23711109435E+02  0.35897994748E+02  0.43400733504E+02  0.00000000000E+00 0. -1.
         11    1    4    4    0    0  0.42706467394E+01  0.78757469535E+01 -0.26884918497E+01  0.93538121820E+01  0.51100000000E-03 0. -1.
        -11    1    4    4    0    0  0.39737016663E+01  0.11617298268E+02 -0.14074407785E+02  0.18677282424E+02  0.51100000000E-03 0.  1.
        -12    1    4    4    0    0 -0.25223792452E+01  0.42180642128E+01 -0.19135095113E+02  0.19756171890E+02  0.00000000000E+00 0.  1.
</event>
<event>
 8    1  0.2994958E-010  0.9118800E+02  0.7816164E-02  0.1184000E+00
        -11   -1    0    0    0    0  0.00000000000E+00  0.00000000000E+00  0.45593999997E+02  0.45594000000E+02  0.51100000000E-03 0.  1.
         11   -1    0    0    0    0 -0.00000000000E+00 -0.00000000000E+00 -0.45593999997E+02  0.45594000000E+02  0.51100000000E-03 0. -1.
         23    2    1    2    0    0 -0.35527136788E-14  0.00000000000E+00 -0.44408920985E-15  0.91188000000E+02  0.91188000000E+02 0.  0.
    9900012    2    3    3    0    0 -0.25045166550E+02  0.35439080513E+02 -0.65940392226E+00  0.47787267188E+02  0.19999982416E+02 0.  0.
        -12    1    3    3    0    0  0.25045166550E+02 -0.35439080513E+02  0.65940392226E+00  0.43400732812E+02  0.00000000000E+00 0.  1.
         11    1    4    4    0    0 -0.18952506151E+01  0.31097496089E+01 -0.13765704202E+01  0.38932587773E+01  0.51100000000E-03 0. -1.
        -11    1    4    4    0    0 -0.19238696826E+01  0.16346540878E+02 -0.39252358434E+01  0.16920938210E+02  0.51100000000E-03 0.  1.
        -12    1    4    4    0    0 -0.21226046253E+02  0.15982790026E+02  0.46424023413E+01  0.26973070200E+02  0.00000000000E+00 0.  1.
</event>
<event>
 8    1  0.2994958E-010  0.9118800E+02  0.7816164E-02  0.1184000E+00
        -11   -1    0    0    0    0  0.00000000000E+00  0.00000000000E+00  0.45593999997E+02  0.45594000000E+02  0.51100000000E-03 0. -1.
         11   -1    0    0    0    0 -0.00000000000E+00 -0.00000000000E+00 -0.45593999997E+02  0.45594000000E+02  0.51100000000E-03 0.  1.
         23    2    1    2    0    0 -0.35527136788E-14 -0.88817841970E-15  0.00000000000E+00  0.91188000000E+02  0.91188000000E+02 0.  0.
    9900012    2    3    3    0    0 -0.25548020872E+02  0.65898356807E+01 -0.34460060118E+02  0.47787273646E+02  0.20000011860E+02 0.  0.
         12    1    3    3    0    0  0.25548020872E+02 -0.65898356807E+01  0.34460060118E+02  0.43400726354E+02  0.00000000000E+00 0. -1.
         11    1    4    4    0    0 -0.33948425203E+01  0.14845138357E+01 -0.70384825778E+01  0.79541796765E+01  0.51100000000E-03 0. -1.
        -11    1    4    4    0    0 -0.14176083966E+02  0.48773272554E+01 -0.28074042456E+02  0.31826114086E+02  0.51100000000E-03 0.  1.
         12    1    4    4    0    0 -0.79770943860E+01  0.22799458952E+00  0.65246491606E+00  0.80069798828E+01  0.00000000000E+00 0. -1.
</event>
<event>
 8    1  0.2994958E-010  0.9118800E+02  0.7816164E-02  0.1184000E+00
        -11   -1    0    0    0    0  0.00000000000E+00  0.00000000000E+00  0.45593999997E+02  0.45594000000E+02  0.51100000000E-03 0. -1.
         11   -1    0    0    0    0 -0.00000000000E+00 -0.00000000000E+00 -0.45593999997E+02  0.45594000000E+02  0.51100000000E-03 0.  1.
         23    2    1    2    0    0  0.00000000000E+00  0.71054273576E-14  0.17763568394E-14  0.91188000000E+02  0.91188000000E+02 0.  0.
    9900012    2    3    3    0    0 -0.61280990601E+01  0.40067044792E+02  0.15514562030E+02  0.47787270612E+02  0.19999998028E+02 0.  0.
        -12    1    3    3    0    0  0.61280990601E+01 -0.40067044792E+02 -0.15514562030E+02  0.43400729388E+02  0.00000000000E+00 0.  1.
         11    1    4    4    0    0 -0.24349715471E+01  0.11324444206E+02 -0.49413533201E-01  0.11583374507E+02  0.51100000000E-03 0. -1.
        -11    1    4    4    0    0  0.26654501918E+01  0.47912167742E+01 -0.19929850302E+01  0.58337271528E+01  0.51100000000E-03 0.  1.
         12    1    4    4    0    0 -0.63585777047E+01  0.23951383811E+02  0.17556960593E+02  0.30370168952E+02  0.00000000000E+00 0. -1.
</event>
<event>
 8    1  0.2994958E-010  0.9118800E+02  0.7816164E-02  0.1184000E+00
        -11   -1    0    0    0    0  0.00000000000E+00  0.00000000000E+00  0.45593999997E+02  0.45594000000E+02  0.51100000000E-03 0.  1.
         11   -1    0    0    0    0 -0.00000000000E+00 -0.00000000000E+00 -0.45593999997E+02  0.45594000000E+02  0.51100000000E-03 0. -1.
         23    2    1    2    0    0  0.00000000000E+00  0.35527136788E-14 -0.88817841970E-15  0.91188000000E+02  0.91188000000E+02 0.  0.
    9900012    2    3    3    0    0 -0.32832322702E+02 -0.27852494189E+02  0.54681811450E+01  0.47787264388E+02  0.19999969651E+02 0.  0.
         12    1    3    3    0    0  0.32832322702E+02  0.27852494189E+02 -0.54681811450E+01  0.43400735612E+02  0.00000000000E+00 0. -1.
         11    1    4    4    0    0  0.58998594621E+00  0.11688574857E+01 -0.13671068698E+01  0.18929587140E+01  0.51100000000E-03 0. -1.
        -11    1    4    4    0    0 -0.10302026707E+02 -0.12715600720E+02 -0.14092614838E+01  0.16425719896E+02  0.51100000000E-03 0.  1.
        -12    1    4    4    0    0 -0.23120281942E+02 -0.16305750956E+02  0.82445494986E+01  0.29468585778E+02  0.00000000000E+00 0.  1.
</event>
<event>
 8    1  0.2994958E-010  0.9118800E+02  0.7816164E-02  0.1184000E+00
        -11   -1    0    0    0    0  0.00000000000E+00  0.00000000000E+00  0.45593999997E+02  0.45594000000E+02  0.51100000000E-03 0. -1.
         11   -1    0    0    0    0 -0.00000000000E+00 -0.00000000000E+00 -0.45593999997E+02  0.45594000000E+02  0.51100000000E-03 0.  1.
         23    2    1    2    0    0  0.35527136788E-14  0.00000000000E+00  0.00000000000E+00  0.91188000000E+02  0.91188000000E+02 0.  0.
    9900012    2    3    3    0    0  0.27325536614E+02  0.17490561226E+02  0.28827391904E+02  0.47787271812E+02  0.20000003499E+02 0.  0.
        -12    1    3    3    0    0 -0.27325536614E+02 -0.17490561226E+02 -0.28827391904E+02  0.43400728188E+02  0.00000000000E+00 0.  1.
         11    1    4    4    0    0  0.10326299060E+02  0.35836420338E+01  0.17214249373E+02  0.20391305114E+02  0.51100000000E-03 0. -1.
        -11    1    4    4    0    0 -0.16176976580E+01  0.74315032720E-01  0.76832364875E+00  0.17924257104E+01  0.51100000000E-03 0.  1.
         12    1    4    4    0    0  0.18616935212E+02  0.13832604160E+02  0.10844818883E+02  0.25603540988E+02  0.00000000000E+00 0. -1.
</event>
<event>
 8    1  0.2994958E-010  0.9118800E+02  0.7816164E-02  0.1184000E+00
        -11   -1    0    0    0    0  0.00000000000E+00  0.00000000000E+00  0.45593999997E+02  0.45594000000E+02  0.51100000000E-03 0. -1.
         11   -1    0    0    0    0 -0.00000000000E+00 -0.00000000000E+00 -0.45593999997E+02  0.45594000000E+02  0.51100000000E-03 0.  1.
         23    2    1    2    0    0  0.00000000000E+00  0.00000000000E+00  0.00000000000E+00  0.91188000000E+02  0.91188000000E+02 0.  0.
    9900012    2    3    3    0    0 -0.13656786497E+02  0.16589415038E+02 -0.37708178802E+02  0.47787271235E+02  0.20000000870E+02 0.  0.
         12    1    3    3    0    0  0.13656786497E+02 -0.16589415038E+02  0.37708178802E+02  0.43400728765E+02  0.00000000000E+00 0. -1.
         11    1    4    4    0    0 -0.94972867071E+01  0.64066460848E+01 -0.72397825357E+01  0.13552048564E+02  0.51100000000E-03 0. -1.
        -11    1    4    4    0    0 -0.71077234047E+01  0.99614317201E+01 -0.20884078023E+02  0.24205259120E+02  0.51100000000E-03 0.  1.
         12    1    4    4    0    0  0.29482236148E+01  0.22133723277E+00 -0.95843182433E+01  0.10029963551E+02  0.00000000000E+00 0. -1.
</event>
<event>
 8    1  0.2994958E-010  0.9118800E+02  0.7816164E-02  0.1184000E+00
        -11   -1    0    0    0    0  0.00000000000E+00  0.00000000000E+00  0.45593999997E+02  0.45594000000E+02  0.51100000000E-03 0. -1.
         11   -1    0    0    0    0 -0.00000000000E+00 -0.00000000000E+00 -0.45593999997E+02  0.45594000000E+02  0.51100000000E-03 0.  1.
         23    2    1    2    0    0 -0.71054273576E-14  0.00000000000E+00  0.00000000000E+00  0.91188000000E+02  0.91188000000E+02 0.  0.
    9900012    2    3    3    0    0 -0.42239757796E+02  0.13788118364E+01  0.98754808937E+01  0.47787269780E+02  0.19999994237E+02 0.  0.
        -12    1    3    3    0    0  0.42239757796E+02 -0.13788118364E+01 -0.98754808937E+01  0.43400730220E+02  0.00000000000E+00 0.  1.
         11    1    4    4    0    0 -0.29276340140E+02  0.67157674864E+00  0.71750131162E+01  0.30150222567E+02  0.51100000000E-03 0. -1.
        -11    1    4    4    0    0 -0.14831073283E+02  0.25318265132E-01  0.38734618975E+01  0.15328570810E+02  0.51100000000E-03 0.  1.
        -12    1    4    4    0    0  0.18676556284E+01  0.68191682263E+00 -0.11729941199E+01  0.23084764033E+01  0.00000000000E+00 0.  1.
</event>
<event>
 8    1  0.2994958E-010  0.9118800E+02  0.7816164E-02  0.1184000E+00
        -11   -1    0    0    0    0  0.00000000000E+00  0.00000000000E+00  0.45593999997E+02  0.45594000000E+02  0.51100000000E-03 0. -1.
         11   -1    0    0    0    0 -0.00000000000E+00 -0.00000000000E+00 -0.45593999997E+02  0.45594000000E+02  0.51100000000E-03 0.  1.
         23    2    1    2    0    0 -0.35527136788E-14  0.17763568394E-14  0.00000000000E+00  0.91188000000E+02  0.91188000000E+02 0.  0.
    9900012    2    3    3    0    0  0.28777562909E+02 -0.87136036818E+01 -0.31297733736E+02  0.47787272436E+02  0.20000006345E+02 0.  0.
         12    1    3    3    0    0 -0.28777562909E+02  0.87136036818E+01  0.31297733736E+02  0.43400727564E+02  0.00000000000E+00 0. -1.
         11    1    4    4    0    0  0.37344087342E+01 -0.44138490907E+01 -0.42138432648E+01  0.71543237075E+01  0.51100000000E-03 0. -1.
        -11    1    4    4    0    0  0.27410437116E+02 -0.30337959388E+01 -0.24164019384E+02  0.36666548975E+02  0.51100000000E-03 0.  1.
         12    1    4    4    0    0 -0.23672829419E+01 -0.12659586523E+01 -0.29198710874E+01  0.39663997534E+01  0.00000000000E+00 0. -1.
</event>
<event>
 8    1  0.2994958E-010  0.9118800E+02  0.7816164E-02  0.1184000E+00
        -11   -1    0    0    0    0  0.00000000000E+00  0.00000000000E+00  0.45593999997E+02  0.45594000000E+02  0.51100000000E-03 0. -1.
         11   -1    0    0    0    0 -0.00000000000E+00 -0.00000000000E+00 -0.45593999997E+02  0.45594000000E+02  0.51100000000E-03 0.  1.
         23    2    1    2    0    0  0.00000000000E+00  0.00000000000E+00 -0.35527136788E-14  0.91188000000E+02  0.91188000000E+02 0.  0.
    9900012    2    3    3    0    0 -0.32343914987E+02 -0.13801514606E+02 -0.25436450291E+02  0.47787266763E+02  0.19999980480E+02 0.  0.
         12    1    3    3    0    0  0.32343914987E+02  0.13801514606E+02  0.25436450291E+02  0.43400733237E+02  0.00000000000E+00 0. -1.
         11    1    4    4    0    0  0.62171683562E+00  0.72582419223E+00  0.14913965609E+01  0.17713318562E+01  0.51100000000E-03 0. -1.
        -11    1    4    4    0    0 -0.69694126701E+01 -0.21445636756E+01 -0.11768146700E+01  0.73862547582E+01  0.51100000000E-03 0.  1.
        -12    1    4    4    0    0 -0.25996219152E+02 -0.12382775123E+02 -0.25751032182E+02  0.38629680149E+02  0.00000000000E+00 0.  1.
</event>
<event>
 8    1  0.2994958E-010  0.9118800E+02  0.7816164E-02  0.1184000E+00
        -11   -1    0    0    0    0  0.00000000000E+00  0.00000000000E+00  0.45593999997E+02  0.45594000000E+02  0.51100000000E-03 0. -1.
         11   -1    0    0    0    0 -0.00000000000E+00 -0.00000000000E+00 -0.45593999997E+02  0.45594000000E+02  0.51100000000E-03 0.  1.
         23    2    1    2    0    0  0.00000000000E+00  0.00000000000E+00  0.00000000000E+00  0.91188000000E+02  0.91188000000E+02 0.  0.
    9900012    2    3    3    0    0  0.37024289976E+02  0.19844515791E+02 -0.10909654414E+02  0.47787269423E+02  0.19999992607E+02 0.  0.
         12    1    3    3    0    0 -0.37024289976E+02 -0.19844515791E+02  0.10909654414E+02  0.43400730577E+02  0.00000000000E+00 0. -1.
         11    1    4    4    0    0  0.30512510472E+01  0.72939183348E+00 -0.26581430410E+01  0.41119180546E+01  0.51100000000E-03 0.  1.
        -11    1    4    4    0    0  0.17486583487E+01  0.17995941718E+00  0.39784345844E+01  0.43494980648E+01  0.51100000000E-03 0. -1.
         12    1    4    4    0    0  0.32224380580E+02  0.18935164540E+02 -0.12229945957E+02  0.39325853303E+02  0.00000000000E+00 0. -1.
</event>
<event>
 8    1  0.2994958E-010  0.9118800E+02  0.7816164E-02  0.1184000E+00
        -11   -1    0    0    0    0  0.00000000000E+00  0.00000000000E+00  0.45593999997E+02  0.45594000000E+02  0.51100000000E-03 0. -1.
         11   -1    0    0    0    0 -0.00000000000E+00 -0.00000000000E+00 -0.45593999997E+02  0.45594000000E+02  0.51100000000E-03 0.  1.
         23    2    1    2    0    0  0.00000000000E+00  0.00000000000E+00  0.00000000000E+00  0.91188000000E+02  0.91188000000E+02 0.  0.
    9900012    2    3    3    0    0 -0.18186223199E+02 -0.36082219991E+02  0.15841654827E+02  0.47787270267E+02  0.19999996455E+02 0.  0.
        -12    1    3    3    0    0  0.18186223199E+02  0.36082219991E+02 -0.15841654827E+02  0.43400729733E+02  0.00000000000E+00 0.  1.
         11    1    4    4    0    0 -0.64977929179E+01 -0.29808299907E+01  0.54983418917E+01  0.90187817391E+01  0.51100000000E-03 0. -1.
        -11    1    4    4    0    0 -0.12600502264E+02 -0.18349623961E+02  0.37026847814E+01  0.22565266044E+02  0.51100000000E-03 0.  1.
        -12    1    4    4    0    0  0.91207198228E+00 -0.14751766039E+02  0.66406281536E+01  0.16203222483E+02  0.00000000000E+00 0.  1.
</event>
<event>
 8    1  0.2994958E-010  0.9118800E+02  0.7816164E-02  0.1184000E+00
        -11   -1    0    0    0    0  0.00000000000E+00  0.00000000000E+00  0.45593999997E+02  0.45594000000E+02  0.51100000000E-03 0.  1.
         11   -1    0    0    0    0 -0.00000000000E+00 -0.00000000000E+00 -0.45593999997E+02  0.45594000000E+02  0.51100000000E-03 0. -1.
         23    2    1    2    0    0  0.00000000000E+00  0.71054273576E-14  0.00000000000E+00  0.91188000000E+02  0.91188000000E+02 0.  0.
    9900012    2    3    3    0    0  0.82294897454E+01  0.39558493650E+02  0.15843792893E+02  0.47787254677E+02  0.19999925376E+02 0.  0.
        -12    1    3    3    0    0 -0.82294897454E+01 -0.39558493650E+02 -0.15843792893E+02  0.43400745323E+02  0.00000000000E+00 0.  1.
         11    1    4    4    0    0  0.27598515804E+01  0.20633318468E+02  0.83002517545E+01  0.22410818619E+02  0.51100000000E-03 0. -1.
        -11    1    4    4    0    0  0.21403170505E+00  0.58078020685E+01  0.94735763956E+01  0.11114181230E+02  0.51100000000E-03 0.  1.
        -12    1    4    4    0    0  0.52556064599E+01  0.13117373114E+02 -0.19300352576E+01  0.14262254828E+02  0.00000000000E+00 0.  1.
</event>
<event>
 8    1  0.2994958E-010  0.9118800E+02  0.7816164E-02  0.1184000E+00
        -11   -1    0    0    0    0  0.00000000000E+00  0.00000000000E+00  0.45593999997E+02  0.45594000000E+02  0.51100000000E-03 0. -1.
         11   -1    0    0    0    0 -0.00000000000E+00 -0.00000000000E+00 -0.45593999997E+02  0.45594000000E+02  0.51100000000E-03 0.  1.
         23    2    1    2    0    0  0.00000000000E+00  0.00000000000E+00  0.71054273576E-14  0.91188000000E+02  0.91188000000E+02 0.  0.
    9900012    2    3    3    0    0 -0.23047434381E+02 -0.17288472283E+02  0.32458392285E+02  0.47787277251E+02  0.20000028297E+02 0.  0.
        -12    1    3    3    0    0  0.23047434381E+02  0.17288472283E+02 -0.32458392285E+02  0.43400722749E+02  0.00000000000E+00 0.  1.
         11    1    4    4    0    0 -0.10940914192E+00 -0.39579745665E+01  0.92762685817E+01  0.10085965105E+02  0.51100000000E-03 0. -1.
        -11    1    4    4    0    0 -0.58654544982E+01 -0.97784098308E+01  0.48238799156E+01  0.12381061061E+02  0.51100000000E-03 0.  1.
        -12    1    4    4    0    0 -0.17072570741E+02 -0.35520878855E+01  0.18358243788E+02  0.25320251085E+02  0.00000000000E+00 0.  1.
</event>
<event>
 8    1  0.2994958E-010  0.9118800E+02  0.7816164E-02  0.1184000E+00
        -11   -1    0    0    0    0  0.00000000000E+00  0.00000000000E+00  0.45593999997E+02  0.45594000000E+02  0.51100000000E-03 0. -1.
         11   -1    0    0    0    0 -0.00000000000E+00 -0.00000000000E+00 -0.45593999997E+02  0.45594000000E+02  0.51100000000E-03 0.  1.
         23    2    1    2    0    0  0.17763568394E-14  0.44408920985E-15  0.71054273576E-14  0.91188000000E+02  0.91188000000E+02 0.  0.
    9900012    2    3    3    0    0  0.13879443906E+02  0.31504070257E+01  0.41000721702E+02  0.47787271807E+02  0.20000003478E+02 0.  0.
        -12    1    3    3    0    0 -0.13879443906E+02 -0.31504070257E+01 -0.41000721702E+02  0.43400728193E+02  0.00000000000E+00 0.  1.
         11    1    4    4    0    0  0.75676831891E+01  0.67052591622E+01  0.68916910376E+01  0.12236246765E+02  0.51100000000E-03 0. -1.
        -11    1    4    4    0    0 -0.13611815397E+01 -0.10660921201E+01  0.36004872997E+01  0.39941052376E+01  0.51100000000E-03 0.  1.
        -12    1    4    4    0    0  0.76729422565E+01 -0.24887600164E+01  0.30508543365E+02  0.31556919804E+02  0.00000000000E+00 0.  1.
</event>
<event>
 8    1  0.2994958E-010  0.9118800E+02  0.7816164E-02  0.1184000E+00
        -11   -1    0    0    0    0  0.00000000000E+00  0.00000000000E+00  0.45593999997E+02  0.45594000000E+02  0.51100000000E-03 0. -1.
         11   -1    0    0    0    0 -0.00000000000E+00 -0.00000000000E+00 -0.45593999997E+02  0.45594000000E+02  0.51100000000E-03 0.  1.
         23    2    1    2    0    0  0.44408920985E-15  0.00000000000E+00  0.00000000000E+00  0.91188000000E+02  0.91188000000E+02 0.  0.
    9900012    2    3    3    0    0  0.34805159583E+01  0.96995446765E+01 -0.42159551614E+02  0.47787274769E+02  0.20000016983E+02 0.  0.
         12    1    3    3    0    0 -0.34805159583E+01 -0.96995446765E+01  0.42159551614E+02  0.43400725231E+02  0.00000000000E+00 0. -1.
         11    1    4    4    0    0 -0.24171199001E+01 -0.20869156154E+01 -0.17385649052E+02  0.17676495088E+02  0.51100000000E-03 0. -1.
        -11    1    4    4    0    0 -0.10688241608E+01  0.25289829065E+00  0.69323079449E+00  0.12988116983E+01  0.51100000000E-03 0.  1.
        -12    1    4    4    0    0  0.69664600191E+01  0.11533562001E+02 -0.25467133357E+02  0.28811967983E+02  0.00000000000E+00 0.  1.
</event>
<event>
 8    1  0.2994958E-010  0.9118800E+02  0.7816164E-02  0.1184000E+00
        -11   -1    0    0    0    0  0.00000000000E+00  0.00000000000E+00  0.45593999997E+02  0.45594000000E+02  0.51100000000E-03 0. -1.
         11   -1    0    0    0    0 -0.00000000000E+00 -0.00000000000E+00 -0.45593999997E+02  0.45594000000E+02  0.51100000000E-03 0.  1.
         23    2    1    2    0    0  0.00000000000E+00  0.00000000000E+00 -0.88817841970E-15  0.91188000000E+02  0.91188000000E+02 0.  0.
    9900012    2    3    3    0    0  0.16949154086E+02  0.39418539309E+02  0.65213683125E+01  0.47787270626E+02  0.19999998094E+02 0.  0.
        -12    1    3    3    0    0 -0.16949154086E+02 -0.39418539309E+02 -0.65213683125E+01  0.43400729374E+02  0.00000000000E+00 0.  1.
         11    1    4    4    0    0 -0.13962986620E+01  0.45485538464E+01  0.18107063042E+01  0.50909379910E+01  0.51100000000E-03 0. -1.
        -11    1    4    4    0    0  0.13360971991E+02  0.11872458143E+02  0.66831054279E+01  0.19082314674E+02  0.51100000000E-03 0.  1.
        -12    1    4    4    0    0  0.49844807572E+01  0.22997527320E+02 -0.19724434196E+01  0.23614017962E+02  0.00000000000E+00 0.  1.
</event>
<event>
 8    1  0.2994958E-010  0.9118800E+02  0.7816164E-02  0.1184000E+00
        -11   -1    0    0    0    0  0.00000000000E+00  0.00000000000E+00  0.45593999997E+02  0.45594000000E+02  0.51100000000E-03 0. -1.
         11   -1    0    0    0    0 -0.00000000000E+00 -0.00000000000E+00 -0.45593999997E+02  0.45594000000E+02  0.51100000000E-03 0.  1.
         23    2    1    2    0    0  0.00000000000E+00 -0.35527136788E-14  0.00000000000E+00  0.91188000000E+02  0.91188000000E+02 0.  0.
    9900012    2    3    3    0    0 -0.23003276319E+02 -0.31549071984E+02 -0.18950706121E+02  0.47787263520E+02  0.19999965695E+02 0.  0.
         12    1    3    3    0    0  0.23003276319E+02  0.31549071984E+02  0.18950706121E+02  0.43400736480E+02  0.00000000000E+00 0. -1.
         11    1    4    4    0    0 -0.59025839345E+01 -0.17136484533E+00 -0.46026130167E+01  0.74869159108E+01  0.51100000000E-03 0. -1.
        -11    1    4    4    0    0  0.17937939169E+01 -0.27484259298E+01 -0.55346346474E+00  0.33283424968E+01  0.51100000000E-03 0.  1.
        -12    1    4    4    0    0 -0.18894486302E+02 -0.28629281209E+02 -0.13794629639E+02  0.36972005113E+02  0.00000000000E+00 0.  1.
</event>
<event>
 8    1  0.2994958E-010  0.9118800E+02  0.7816164E-02  0.1184000E+00
        -11   -1    0    0    0    0  0.00000000000E+00  0.00000000000E+00  0.45593999997E+02  0.45594000000E+02  0.51100000000E-03 0. -1.
         11   -1    0    0    0    0 -0.00000000000E+00 -0.00000000000E+00 -0.45593999997E+02  0.45594000000E+02  0.51100000000E-03 0.  1.
         23    2    1    2    0    0  0.44408920985E-15  0.00000000000E+00  0.88817841970E-15  0.91188000000E+02  0.91188000000E+02 0.  0.
    9900012    2    3    3    0    0  0.34381769417E+01 -0.43026869022E+02  0.45266563533E+01  0.47787272630E+02  0.20000007228E+02 0.  0.
         12    1    3    3    0    0 -0.34381769417E+01  0.43026869022E+02 -0.45266563533E+01  0.43400727370E+02  0.00000000000E+00 0. -1.
         11    1    4    4    0    0 -0.45986799746E+00 -0.23987243930E+01  0.22584495189E+01  0.33265525366E+01  0.51100000000E-03 0. -1.
        -11    1    4    4    0    0  0.97682817600E+00 -0.41373968074E+02  0.22305011149E+01  0.41445561439E+02  0.51100000000E-03 0.  1.
         12    1    4    4    0    0  0.29212167631E+01  0.74582344530E+00  0.37705719570E-01  0.30151586542E+01  0.00000000000E+00 0. -1.
</event>
<event>
 8    1  0.2994958E-010  0.9118800E+02  0.7816164E-02  0.1184000E+00
        -11   -1    0    0    0    0  0.00000000000E+00  0.00000000000E+00  0.45593999997E+02  0.45594000000E+02  0.51100000000E-03 0. -1.
         11   -1    0    0    0    0 -0.00000000000E+00 -0.00000000000E+00 -0.45593999997E+02  0.45594000000E+02  0.51100000000E-03 0.  1.
         23    2    1    2    0    0 -0.66613381478E-15  0.00000000000E+00  0.71054273576E-14  0.91188000000E+02  0.91188000000E+02 0.  0.
    9900012    2    3    3    0    0  0.12881290727E+01  0.32847691181E+02 -0.28337143214E+02  0.47787265238E+02  0.19999973524E+02 0.  0.
         12    1    3    3    0    0 -0.12881290727E+01 -0.32847691181E+02  0.28337143214E+02  0.43400734762E+02  0.00000000000E+00 0. -1.
         11    1    4    4    0    0  0.22332710526E+01  0.18948555668E+02 -0.16938841405E+02  0.25513910125E+02  0.51100000000E-03 0. -1.
        -11    1    4    4    0    0  0.60148868903E+01  0.67865137271E+01 -0.66609269764E+01  0.11251825688E+02  0.51100000000E-03 0.  1.
         12    1    4    4    0    0 -0.69600288702E+01  0.71126217858E+01 -0.47373748323E+01  0.11021529424E+02  0.00000000000E+00 0. -1.
</event>
<event>
 8    1  0.2994958E-010  0.9118800E+02  0.7816164E-02  0.1184000E+00
        -11   -1    0    0    0    0  0.00000000000E+00  0.00000000000E+00  0.45593999997E+02  0.45594000000E+02  0.51100000000E-03 0.  1.
         11   -1    0    0    0    0 -0.00000000000E+00 -0.00000000000E+00 -0.45593999997E+02  0.45594000000E+02  0.51100000000E-03 0. -1.
         23    2    1    2    0    0 -0.71054273576E-14  0.88817841970E-15  0.00000000000E+00  0.91188000000E+02  0.91188000000E+02 0.  0.
    9900012    2    3    3    0    0 -0.38205815633E+02 -0.75619445556E+01  0.19150804504E+02  0.47787301079E+02  0.20000136938E+02 0.  0.
        -12    1    3    3    0    0  0.38205815633E+02  0.75619445556E+01 -0.19150804504E+02  0.43400698921E+02  0.00000000000E+00 0.  1.
         11    1    4    4    0    0 -0.14042826056E+01 -0.49950912899E+01  0.18446478081E+01  0.55068750147E+01  0.51100000000E-03 0.  1.
        -11    1    4    4    0    0 -0.28082940339E+01  0.51285137327E+00 -0.15887581999E+01  0.32670605735E+01  0.51100000000E-03 0. -1.
         12    1    4    4    0    0 -0.33993238994E+02 -0.30797046390E+01  0.18894914896E+02  0.39013365491E+02  0.00000000000E+00 0. -1.
</event>
<event>
 8    1  0.2994958E-010  0.9118800E+02  0.7816164E-02  0.1184000E+00
        -11   -1    0    0    0    0  0.00000000000E+00  0.00000000000E+00  0.45593999997E+02  0.45594000000E+02  0.51100000000E-03 0. -1.
         11   -1    0    0    0    0 -0.00000000000E+00 -0.00000000000E+00 -0.45593999997E+02  0.45594000000E+02  0.51100000000E-03 0.  1.
         23    2    1    2    0    0  0.35527136788E-14  0.00000000000E+00  0.35527136788E-14  0.91188000000E+02  0.91188000000E+02 0.  0.
    9900012    2    3    3    0    0  0.14702634941E+02  0.32898822785E+02  0.24189316393E+02  0.47787273711E+02  0.20000012158E+02 0.  0.
        -12    1    3    3    0    0 -0.14702634941E+02 -0.32898822785E+02 -0.24189316393E+02  0.43400726289E+02  0.00000000000E+00 0.  1.
         11    1    4    4    0    0 -0.14221679208E+01  0.23427446154E+01  0.19103165145E+01  0.33407070172E+01  0.51100000000E-03 0. -1.
        -11    1    4    4    0    0 -0.29028093830E+01  0.93360037674E+01  0.38597492569E+01  0.10511181344E+02  0.51100000000E-03 0.  1.
         12    1    4    4    0    0  0.19027612245E+02  0.21220074402E+02  0.18419250622E+02  0.33935385350E+02  0.00000000000E+00 0. -1.
</event>
<event>
 8    1  0.2994958E-010  0.9118800E+02  0.7816164E-02  0.1184000E+00
        -11   -1    0    0    0    0  0.00000000000E+00  0.00000000000E+00  0.45593999997E+02  0.45594000000E+02  0.51100000000E-03 0. -1.
         11   -1    0    0    0    0 -0.00000000000E+00 -0.00000000000E+00 -0.45593999997E+02  0.45594000000E+02  0.51100000000E-03 0.  1.
         23    2    1    2    0    0  0.00000000000E+00  0.00000000000E+00  0.44408920985E-15  0.91188000000E+02  0.91188000000E+02 0.  0.
    9900012    2    3    3    0    0 -0.40450450646E+02 -0.15240435921E+02  0.38875831694E+01  0.47787272501E+02  0.20000006640E+02 0.  0.
        -12    1    3    3    0    0  0.40450450646E+02  0.15240435921E+02 -0.38875831694E+01  0.43400727499E+02  0.00000000000E+00 0.  1.
         11    1    4    4    0    0 -0.15012192515E+02 -0.58690530071E+01  0.83722367853E+01  0.18163316227E+02  0.51100000000E-03 0. -1.
        -11    1    4    4    0    0 -0.25165773517E+01 -0.51770231996E+01  0.55488788495E+00  0.57829604531E+01  0.51100000000E-03 0.  1.
         12    1    4    4    0    0 -0.22921680780E+02 -0.41943597144E+01 -0.50395415009E+01  0.23840995821E+02  0.00000000000E+00 0. -1.
</event>
<event>
 8    1  0.2994958E-010  0.9118800E+02  0.7816164E-02  0.1184000E+00
        -11   -1    0    0    0    0  0.00000000000E+00  0.00000000000E+00  0.45593999997E+02  0.45594000000E+02  0.51100000000E-03 0. -1.
         11   -1    0    0    0    0 -0.00000000000E+00 -0.00000000000E+00 -0.45593999997E+02  0.45594000000E+02  0.51100000000E-03 0.  1.
         23    2    1    2    0    0  0.35527136788E-14  0.35527136788E-14 -0.35527136788E-14  0.91188000000E+02  0.91188000000E+02 0.  0.
    9900012    2    3    3    0    0  0.27551206595E+02  0.13394673452E+02 -0.30743076517E+02  0.47787274022E+02  0.20000013574E+02 0.  0.
         12    1    3    3    0    0 -0.27551206595E+02 -0.13394673452E+02  0.30743076517E+02  0.43400725978E+02  0.00000000000E+00 0. -1.
         11    1    4    4    0    0  0.21727033387E+02  0.10545835456E+02 -0.16044201660E+02  0.28994741462E+02  0.51100000000E-03 0. -1.
        -11    1    4    4    0    0  0.66761124247E+01  0.49987698316E+01 -0.14135197645E+02  0.16412251207E+02  0.51100000000E-03 0.  1.
         12    1    4    4    0    0 -0.85193921606E+00 -0.21499318349E+01 -0.56367721079E+00  0.23802813533E+01  0.00000000000E+00 0. -1.
</event>
<event>
 8    1  0.2994958E-010  0.9118800E+02  0.7816164E-02  0.1184000E+00
        -11   -1    0    0    0    0  0.00000000000E+00  0.00000000000E+00  0.45593999997E+02  0.45594000000E+02  0.51100000000E-03 0. -1.
         11   -1    0    0    0    0 -0.00000000000E+00 -0.00000000000E+00 -0.45593999997E+02  0.45594000000E+02  0.51100000000E-03 0.  1.
         23    2    1    2    0    0 -0.88817841970E-15  0.00000000000E+00 -0.71054273576E-14  0.91188000000E+02  0.91188000000E+02 0.  0.
    9900012    2    3    3    0    0 -0.65039127773E+01 -0.21391727357E+02  0.37198343722E+02  0.47787266638E+02  0.19999979908E+02 0.  0.
        -12    1    3    3    0    0  0.65039127773E+01  0.21391727357E+02 -0.37198343722E+02  0.43400733362E+02  0.00000000000E+00 0.  1.
         11    1    4    4    0    0 -0.63807795855E+01 -0.40492526063E+01  0.64169585468E+01  0.99140381299E+01  0.51100000000E-03 0. -1.
        -11    1    4    4    0    0 -0.23935006059E+01  0.15066589938E+01  0.23064647128E+01  0.36494720449E+01  0.51100000000E-03 0.  1.
        -12    1    4    4    0    0  0.22703674141E+01 -0.18849133744E+02  0.28474920462E+02  0.34223756463E+02  0.00000000000E+00 0.  1.
</event>
<event>
 8    1  0.2994958E-010  0.9118800E+02  0.7816164E-02  0.1184000E+00
        -11   -1    0    0    0    0  0.00000000000E+00  0.00000000000E+00  0.45593999997E+02  0.45594000000E+02  0.51100000000E-03 0. -1.
         11   -1    0    0    0    0 -0.00000000000E+00 -0.00000000000E+00 -0.45593999997E+02  0.45594000000E+02  0.51100000000E-03 0.  1.
         23    2    1    2    0    0  0.00000000000E+00 -0.88817841970E-15  0.00000000000E+00  0.91188000000E+02  0.91188000000E+02 0.  0.
    9900012    2    3    3    0    0  0.29143555132E+02  0.48313295685E+01 -0.31795200717E+02  0.47787270285E+02  0.19999996539E+02 0.  0.
         12    1    3    3    0    0 -0.29143555132E+02 -0.48313295685E+01  0.31795200717E+02  0.43400729715E+02  0.00000000000E+00 0. -1.
         11    1    4    4    0    0  0.14471880837E+02  0.46149724796E+01 -0.19615043817E+02  0.24808934886E+02  0.51100000000E-03 0. -1.
        -11    1    4    4    0    0  0.10661281848E+02  0.15706090396E+01 -0.14566291126E+02  0.18119232346E+02  0.51100000000E-03 0.  1.
         12    1    4    4    0    0  0.40103924477E+01 -0.13542519507E+01  0.23861342270E+01  0.48591030531E+01  0.00000000000E+00 0. -1.
</event>
<event>
 8    1  0.2994958E-010  0.9118800E+02  0.7816164E-02  0.1184000E+00
        -11   -1    0    0    0    0  0.00000000000E+00  0.00000000000E+00  0.45593999997E+02  0.45594000000E+02  0.51100000000E-03 0. -1.
         11   -1    0    0    0    0 -0.00000000000E+00 -0.00000000000E+00 -0.45593999997E+02  0.45594000000E+02  0.51100000000E-03 0.  1.
         23    2    1    2    0    0  0.44408920985E-15 -0.35527136788E-14  0.71054273576E-14  0.91188000000E+02  0.91188000000E+02 0.  0.
    9900012    2    3    3    0    0  0.32146172244E+01  0.18104763858E+02 -0.39312935991E+02  0.47787272190E+02  0.20000005221E+02 0.  0.
         12    1    3    3    0    0 -0.32146172244E+01 -0.18104763858E+02  0.39312935991E+02  0.43400727810E+02  0.00000000000E+00 0. -1.
         11    1    4    4    0    0  0.69204026369E+01  0.30609550966E+01 -0.15327977900E+02  0.17094102069E+02  0.51100000000E-03 0. -1.
        -11    1    4    4    0    0  0.34520076221E+01  0.89059038295E+01 -0.10021027247E+02  0.13843860264E+02  0.51100000000E-03 0.  1.
        -12    1    4    4    0    0 -0.71577930346E+01  0.61379049315E+01 -0.13963930843E+02  0.16849309857E+02  0.00000000000E+00 0.  1.
</event>
<event>
 8    1  0.2994958E-010  0.9118800E+02  0.7816164E-02  0.1184000E+00
        -11   -1    0    0    0    0  0.00000000000E+00  0.00000000000E+00  0.45593999997E+02  0.45594000000E+02  0.51100000000E-03 0. -1.
         11   -1    0    0    0    0 -0.00000000000E+00 -0.00000000000E+00 -0.45593999997E+02  0.45594000000E+02  0.51100000000E-03 0.  1.
         23    2    1    2    0    0 -0.17763568394E-14  0.00000000000E+00  0.00000000000E+00  0.91188000000E+02  0.91188000000E+02 0.  0.
    9900012    2    3    3    0    0 -0.14149970516E+02  0.20385807385E+02  0.35606467899E+02  0.47787269999E+02  0.19999995236E+02 0.  0.
        -12    1    3    3    0    0  0.14149970516E+02 -0.20385807385E+02 -0.35606467899E+02  0.43400730001E+02  0.00000000000E+00 0.  1.
         11    1    4    4    0    0 -0.21155955507E+01  0.38757029119E+01 -0.18545185304E+01  0.47891603477E+01  0.51100000000E-03 0. -1.
        -11    1    4    4    0    0 -0.83853198396E+01  0.81502380163E+01  0.17444161849E+02  0.21000922633E+02  0.51100000000E-03 0.  1.
        -12    1    4    4    0    0 -0.36490551255E+01  0.83598664565E+01  0.20016824580E+02  0.21997187019E+02  0.00000000000E+00 0.  1.
</event>
<event>
 8    1  0.2994958E-010  0.9118800E+02  0.7816164E-02  0.1184000E+00
        -11   -1    0    0    0    0  0.00000000000E+00  0.00000000000E+00  0.45593999997E+02  0.45594000000E+02  0.51100000000E-03 0.  1.
         11   -1    0    0    0    0 -0.00000000000E+00 -0.00000000000E+00 -0.45593999997E+02  0.45594000000E+02  0.51100000000E-03 0. -1.
         23    2    1    2    0    0  0.00000000000E+00 -0.88817841970E-15  0.22204460493E-15  0.91188000000E+02  0.91188000000E+02 0.  0.
    9900012    2    3    3    0    0  0.43334078947E+02 -0.16550554363E+01  0.17440476358E+01  0.47787270641E+02  0.19999998162E+02 0.  0.
         12    1    3    3    0    0 -0.43334078947E+02  0.16550554363E+01 -0.17440476358E+01  0.43400729359E+02  0.00000000000E+00 0. -1.
         11    1    4    4    0    0  0.10539333852E+02 -0.83263616130E-01 -0.56551860795E+00  0.10554823657E+02  0.51100000000E-03 0. -1.
        -11    1    4    4    0    0  0.27378012588E+02 -0.78418721291E+01  0.40509316850E+01  0.28765614534E+02  0.51100000000E-03 0.  1.
         12    1    4    4    0    0  0.54167325069E+01  0.62700803089E+01 -0.17413654413E+01  0.84668324497E+01  0.00000000000E+00 0. -1.
</event>
<event>
 8    1  0.2994958E-010  0.9118800E+02  0.7816164E-02  0.1184000E+00
        -11   -1    0    0    0    0  0.00000000000E+00  0.00000000000E+00  0.45593999997E+02  0.45594000000E+02  0.51100000000E-03 0. -1.
         11   -1    0    0    0    0 -0.00000000000E+00 -0.00000000000E+00 -0.45593999997E+02  0.45594000000E+02  0.51100000000E-03 0.  1.
         23    2    1    2    0    0 -0.71054273576E-14  0.35527136788E-14 -0.10658141036E-13  0.91188000000E+02  0.91188000000E+02 0.  0.
    9900012    2    3    3    0    0  0.20972773697E+02 -0.24598998451E+02  0.28959547851E+02  0.47787269901E+02  0.19999994788E+02 0.  0.
        -12    1    3    3    0    0 -0.20972773697E+02  0.24598998451E+02 -0.28959547851E+02  0.43400730099E+02  0.00000000000E+00 0.  1.
         11    1    4    4    0    0  0.21685304257E+02 -0.25493388882E+02  0.26974500435E+02  0.42985915965E+02  0.51100000000E-03 0. -1.
        -11    1    4    4    0    0 -0.85017058362E+00 -0.11791215006E+01  0.22784431305E+01  0.27026692166E+01  0.51100000000E-03 0.  1.
         12    1    4    4    0    0  0.13764002384E+00  0.20735119313E+01 -0.29339571443E+00  0.20986847192E+01  0.00000000000E+00 0. -1.
</event>
<event>
 8    1  0.2994958E-010  0.9118800E+02  0.7816164E-02  0.1184000E+00
        -11   -1    0    0    0    0  0.00000000000E+00  0.00000000000E+00  0.45593999997E+02  0.45594000000E+02  0.51100000000E-03 0. -1.
         11   -1    0    0    0    0 -0.00000000000E+00 -0.00000000000E+00 -0.45593999997E+02  0.45594000000E+02  0.51100000000E-03 0.  1.
         23    2    1    2    0    0  0.22204460493E-15 -0.44408920985E-15  0.00000000000E+00  0.91188000000E+02  0.91188000000E+02 0.  0.
    9900012    2    3    3    0    0  0.51118843899E+00 -0.27884105297E+01 -0.43308054171E+02  0.47787261493E+02  0.19999956452E+02 0.  0.
         12    1    3    3    0    0 -0.51118843899E+00  0.27884105297E+01  0.43308054171E+02  0.43400738507E+02  0.00000000000E+00 0. -1.
         11    1    4    4    0    0 -0.33544380903E+01 -0.62520538900E+01 -0.13211875130E+02  0.14996468832E+02  0.51100000000E-03 0. -1.
        -11    1    4    4    0    0  0.36989249788E-01 -0.42518147677E+01 -0.12422352693E+02  0.13129895039E+02  0.51100000000E-03 0.  1.
        -12    1    4    4    0    0  0.38286372795E+01  0.77154581279E+01 -0.17673826348E+02  0.19660897622E+02  0.00000000000E+00 0.  1.
</event>
<event>
 8    1  0.3953432E-010  0.9118800E+02  0.7816164E-02  0.1184000E+00
        -11   -1    0    0    0    0  0.00000000000E+00  0.00000000000E+00  0.45593999997E+02  0.45594000000E+02  0.51100000000E-03 0. -1.
         11   -1    0    0    0    0 -0.00000000000E+00 -0.00000000000E+00 -0.45593999997E+02  0.45594000000E+02  0.51100000000E-03 0.  1.
         23    2    1    2    0    0 -0.88817841970E-15  0.17763568394E-14  0.71054273576E-14  0.91188000000E+02  0.91188000000E+02 0.  0.
    9900012    2    3    3    0    0  0.36502138622E+01  0.72062988088E+01  0.42642327649E+02  0.47787275224E+02  0.20000019057E+02 0.  0.
        -12    1    3    3    0    0 -0.36502138622E+01 -0.72062988088E+01 -0.42642327649E+02  0.43400724776E+02  0.00000000000E+00 0.  1.
         11    1    4    4    0    0 -0.46954776111E+01 -0.16184874241E+01  0.72734060649E+01  0.88073519054E+01  0.51100000000E-03 0. -1.
        -11    1    4    4    0    0 -0.61478102863E+00  0.43614368989E+01  0.36549295168E+01  0.57235126950E+01  0.51100000000E-03 0.  1.
         12    1    4    4    0    0  0.89604725019E+01  0.44633493340E+01  0.31713992067E+02  0.33256410624E+02  0.00000000000E+00 0. -1.
</event>
<event>
 8    1  0.2994958E-010  0.9118800E+02  0.7816164E-02  0.1184000E+00
        -11   -1    0    0    0    0  0.00000000000E+00  0.00000000000E+00  0.45593999997E+02  0.45594000000E+02  0.51100000000E-03 0.  1.
         11   -1    0    0    0    0 -0.00000000000E+00 -0.00000000000E+00 -0.45593999997E+02  0.45594000000E+02  0.51100000000E-03 0. -1.
         23    2    1    2    0    0  0.17763568394E-14  0.00000000000E+00 -0.17763568394E-14  0.91188000000E+02  0.91188000000E+02 0.  0.
    9900012    2    3    3    0    0  0.11794355174E+02  0.38888236079E+02 -0.15238805674E+02  0.47787275148E+02  0.20000018710E+02 0.  0.
        -12    1    3    3    0    0 -0.11794355174E+02 -0.38888236079E+02  0.15238805674E+02  0.43400724852E+02  0.00000000000E+00 0.  1.
         11    1    4    4    0    0  0.70836470310E+01  0.29212593907E+01 -0.15097401482E+01  0.78096816365E+01  0.51100000000E-03 0. -1.
        -11    1    4    4    0    0  0.41413533429E+01  0.59180954740E+01 -0.46155617128E+01  0.85719351220E+01  0.51100000000E-03 0.  1.
        -12    1    4    4    0    0  0.56935480029E+00  0.30048881214E+02 -0.91135038128E+01  0.31405658389E+02  0.00000000000E+00 0.  1.
</event>
<event>
 8    1  0.2994958E-010  0.9118800E+02  0.7816164E-02  0.1184000E+00
        -11   -1    0    0    0    0  0.00000000000E+00  0.00000000000E+00  0.45593999997E+02  0.45594000000E+02  0.51100000000E-03 0. -1.
         11   -1    0    0    0    0 -0.00000000000E+00 -0.00000000000E+00 -0.45593999997E+02  0.45594000000E+02  0.51100000000E-03 0.  1.
         23    2    1    2    0    0  0.00000000000E+00  0.00000000000E+00  0.00000000000E+00  0.91188000000E+02  0.91188000000E+02 0.  0.
    9900012    2    3    3    0    0  0.21176044936E+02  0.11464179223E+02  0.36107768816E+02  0.47787271282E+02  0.20000001084E+02 0.  0.
        -12    1    3    3    0    0 -0.21176044936E+02 -0.11464179223E+02 -0.36107768816E+02  0.43400728718E+02  0.00000000000E+00 0.  1.
         11    1    4    4    0    0 -0.12170871263E+01  0.63174242113E+01  0.47696710737E+01  0.80088021671E+01  0.51100000000E-03 0. -1.
        -11    1    4    4    0    0  0.17005537343E+01 -0.16197845875E+01  0.55692298432E+01  0.60441630042E+01  0.51100000000E-03 0.  1.
        -12    1    4    4    0    0  0.20692578328E+02  0.67665395993E+01  0.25768867899E+02  0.33734306111E+02  0.00000000000E+00 0.  1.
</event>
<event>
 8    1  0.2994958E-010  0.9118800E+02  0.7816164E-02  0.1184000E+00
        -11   -1    0    0    0    0  0.00000000000E+00  0.00000000000E+00  0.45593999997E+02  0.45594000000E+02  0.51100000000E-03 0. -1.
         11   -1    0    0    0    0 -0.00000000000E+00 -0.00000000000E+00 -0.45593999997E+02  0.45594000000E+02  0.51100000000E-03 0.  1.
         23    2    1    2    0    0 -0.71054273576E-14  0.00000000000E+00  0.00000000000E+00  0.91188000000E+02  0.91188000000E+02 0.  0.
    9900012    2    3    3    0    0 -0.26190021608E+02  0.11097717184E+02 -0.32780331751E+02  0.47787231479E+02  0.19999819606E+02 0.  0.
         12    1    3    3    0    0  0.26190021608E+02 -0.11097717184E+02  0.32780331751E+02  0.43400768521E+02  0.00000000000E+00 0. -1.
         11    1    4    4    0    0 -0.12047996482E+01  0.43667513489E+01 -0.97078503467E+01  0.10712722257E+02  0.51100000000E-03 0. -1.
        -11    1    4    4    0    0 -0.23931751829E+02  0.27698275273E+01 -0.22446992546E+02  0.32928227476E+02  0.51100000000E-03 0.  1.
         12    1    4    4    0    0 -0.10534701308E+01  0.39611383075E+01 -0.62548885844E+00  0.41462817463E+01  0.00000000000E+00 0. -1.
</event>
<event>
 8    1  0.2994958E-010  0.9118800E+02  0.7816164E-02  0.1184000E+00
        -11   -1    0    0    0    0  0.00000000000E+00  0.00000000000E+00  0.45593999997E+02  0.45594000000E+02  0.51100000000E-03 0. -1.
         11   -1    0    0    0    0 -0.00000000000E+00 -0.00000000000E+00 -0.45593999997E+02  0.45594000000E+02  0.51100000000E-03 0.  1.
         23    2    1    2    0    0  0.00000000000E+00  0.00000000000E+00  0.00000000000E+00  0.91188000000E+02  0.91188000000E+02 0.  0.
    9900012    2    3    3    0    0 -0.25995281093E+02  0.20717724898E+01 -0.34692597002E+02  0.47787272274E+02  0.20000005608E+02 0.  0.
         12    1    3    3    0    0  0.25995281093E+02 -0.20717724898E+01  0.34692597002E+02  0.43400727726E+02  0.00000000000E+00 0. -1.
         11    1    4    4    0    0 -0.55301789209E+00 -0.16861395215E+01 -0.98575714010E+01  0.10016017645E+02  0.51100000000E-03 0. -1.
        -11    1    4    4    0    0 -0.38604216696E+01  0.35204403265E+01 -0.10880520522E+02  0.12069883291E+02  0.51100000000E-03 0.  1.
        -12    1    4    4    0    0 -0.21581841532E+02  0.23747168480E+00 -0.13954505079E+02  0.25701371339E+02  0.00000000000E+00 0.  1.
</event>
<event>
 8    1  0.2994958E-010  0.9118800E+02  0.7816164E-02  0.1184000E+00
        -11   -1    0    0    0    0  0.00000000000E+00  0.00000000000E+00  0.45593999997E+02  0.45594000000E+02  0.51100000000E-03 0. -1.
         11   -1    0    0    0    0 -0.00000000000E+00 -0.00000000000E+00 -0.45593999997E+02  0.45594000000E+02  0.51100000000E-03 0.  1.
         23    2    1    2    0    0  0.17763568394E-14  0.00000000000E+00  0.00000000000E+00  0.91188000000E+02  0.91188000000E+02 0.  0.
    9900012    2    3    3    0    0  0.83097828335E+01 -0.25877629051E+02 -0.33836657863E+02  0.47787267387E+02  0.19999983323E+02 0.  0.
         12    1    3    3    0    0 -0.83097828335E+01  0.25877629051E+02  0.33836657863E+02  0.43400732613E+02  0.00000000000E+00 0. -1.
         11    1    4    4    0    0 -0.10394997522E+01 -0.91325011539E-01  0.10955965669E+01  0.15130208495E+01  0.51100000000E-03 0. -1.
        -11    1    4    4    0    0 -0.15072694501E+01 -0.79028668282E+01 -0.16645317352E+02  0.18487664951E+02  0.51100000000E-03 0.  1.
         12    1    4    4    0    0  0.10856552036E+02 -0.17883437211E+02 -0.18286937078E+02  0.27786581587E+02  0.00000000000E+00 0. -1.
</event>
<event>
 8    1  0.2994958E-010  0.9118800E+02  0.7816164E-02  0.1184000E+00
        -11   -1    0    0    0    0  0.00000000000E+00  0.00000000000E+00  0.45593999997E+02  0.45594000000E+02  0.51100000000E-03 0. -1.
         11   -1    0    0    0    0 -0.00000000000E+00 -0.00000000000E+00 -0.45593999997E+02  0.45594000000E+02  0.51100000000E-03 0.  1.
         23    2    1    2    0    0  0.00000000000E+00  0.00000000000E+00 -0.71054273576E-14  0.91188000000E+02  0.91188000000E+02 0.  0.
    9900012    2    3    3    0    0  0.19821250783E+02 -0.40707472761E+01 -0.38394926369E+02  0.47787270319E+02  0.19999996694E+02 0.  0.
         12    1    3    3    0    0 -0.19821250783E+02  0.40707472761E+01  0.38394926369E+02  0.43400729681E+02  0.00000000000E+00 0. -1.
         11    1    4    4    0    0  0.14177601188E+02  0.44065506755E+01 -0.26074227642E+02  0.30004789813E+02  0.51100000000E-03 0. -1.
        -11    1    4    4    0    0  0.71622322107E+01 -0.48191929172E+01 -0.99229921092E+01  0.13152488862E+02  0.51100000000E-03 0.  1.
         12    1    4    4    0    0 -0.15185826161E+01 -0.36581050344E+01 -0.23977066171E+01  0.46299916443E+01  0.00000000000E+00 0. -1.
</event>
<event>
 8    1  0.2994958E-010  0.9118800E+02  0.7816164E-02  0.1184000E+00
        -11   -1    0    0    0    0  0.00000000000E+00  0.00000000000E+00  0.45593999997E+02  0.45594000000E+02  0.51100000000E-03 0. -1.
         11   -1    0    0    0    0 -0.00000000000E+00 -0.00000000000E+00 -0.45593999997E+02  0.45594000000E+02  0.51100000000E-03 0.  1.
         23    2    1    2    0    0 -0.88817841970E-15 -0.17763568394E-14  0.00000000000E+00  0.91188000000E+02  0.91188000000E+02 0.  0.
    9900012    2    3    3    0    0 -0.50081019020E+01 -0.15769749007E+02 -0.40123020794E+02  0.47787275743E+02  0.20000021423E+02 0.  0.
         12    1    3    3    0    0  0.50081019020E+01  0.15769749007E+02  0.40123020794E+02  0.43400724257E+02  0.00000000000E+00 0. -1.
         11    1    4    4    0    0 -0.38382700854E+01 -0.23129098715E+01 -0.44566561828E+01  0.63200992013E+01  0.51100000000E-03 0. -1.
        -11    1    4    4    0    0 -0.18149720354E+01 -0.17183361488E+02 -0.30648462256E+02  0.35183664880E+02  0.51100000000E-03 0.  1.
         12    1    4    4    0    0  0.64514021874E+00  0.37265223530E+01 -0.50179023556E+01  0.62835116614E+01  0.00000000000E+00 0. -1.
</event>
<event>
 8    1  0.2994958E-010  0.9118800E+02  0.7816164E-02  0.1184000E+00
        -11   -1    0    0    0    0  0.00000000000E+00  0.00000000000E+00  0.45593999997E+02  0.45594000000E+02  0.51100000000E-03 0. -1.
         11   -1    0    0    0    0 -0.00000000000E+00 -0.00000000000E+00 -0.45593999997E+02  0.45594000000E+02  0.51100000000E-03 0.  1.
         23    2    1    2    0    0  0.00000000000E+00  0.00000000000E+00  0.00000000000E+00  0.91188000000E+02  0.91188000000E+02 0.  0.
    9900012    2    3    3    0    0  0.90723325390E+01 -0.29842319223E+02 -0.30178673050E+02  0.47787267962E+02  0.19999985948E+02 0.  0.
         12    1    3    3    0    0 -0.90723325390E+01  0.29842319223E+02  0.30178673050E+02  0.43400732038E+02  0.00000000000E+00 0. -1.
         11    1    4    4    0    0  0.38306341018E+01 -0.13073114916E+02 -0.18017023581E+02  0.22587457364E+02  0.51100000000E-03 0.  1.
        -11    1    4    4    0    0  0.90674777230E+01 -0.14937549541E+02 -0.11469336614E+02  0.20902038685E+02  0.51100000000E-03 0. -1.
        -12    1    4    4    0    0 -0.38257792857E+01 -0.18316547660E+01 -0.69231285542E+00  0.42977719128E+01  0.00000000000E+00 0.  1.
</event>
<event>
 8    1  0.2994958E-010  0.9118800E+02  0.7816164E-02  0.1184000E+00
        -11   -1    0    0    0    0  0.00000000000E+00  0.00000000000E+00  0.45593999997E+02  0.45594000000E+02  0.51100000000E-03 0. -1.
         11   -1    0    0    0    0 -0.00000000000E+00 -0.00000000000E+00 -0.45593999997E+02  0.45594000000E+02  0.51100000000E-03 0.  1.
         23    2    1    2    0    0 -0.35527136788E-14  0.88817841970E-15  0.00000000000E+00  0.91188000000E+02  0.91188000000E+02 0.  0.
    9900012    2    3    3    0    0  0.28588605573E+02  0.48156029280E+01  0.32297441035E+02  0.47787273075E+02  0.20000009259E+02 0.  0.
        -12    1    3    3    0    0 -0.28588605573E+02 -0.48156029280E+01 -0.32297441035E+02  0.43400726925E+02  0.00000000000E+00 0.  1.
         11    1    4    4    0    0  0.61131786448E+01  0.19229997618E+01  0.85497970879E+01  0.10684938546E+02  0.51100000000E-03 0. -1.
        -11    1    4    4    0    0  0.11573747138E+02  0.30617256506E+01  0.11687248943E+01  0.12028786510E+02  0.51100000000E-03 0.  1.
        -12    1    4    4    0    0  0.10901679791E+02 -0.16912248433E+00  0.22578919053E+02  0.25073548019E+02  0.00000000000E+00 0.  1.
</event>
<event>
 8    1  0.2994958E-010  0.9118800E+02  0.7816164E-02  0.1184000E+00
        -11   -1    0    0    0    0  0.00000000000E+00  0.00000000000E+00  0.45593999997E+02  0.45594000000E+02  0.51100000000E-03 0. -1.
         11   -1    0    0    0    0 -0.00000000000E+00 -0.00000000000E+00 -0.45593999997E+02  0.45594000000E+02  0.51100000000E-03 0.  1.
         23    2    1    2    0    0 -0.17763568394E-14  0.00000000000E+00  0.00000000000E+00  0.91188000000E+02  0.91188000000E+02 0.  0.
    9900012    2    3    3    0    0 -0.11744806622E+02  0.11609584625E+02  0.40136025474E+02  0.47787268685E+02  0.19999989244E+02 0.  0.
        -12    1    3    3    0    0  0.11744806622E+02 -0.11609584625E+02 -0.40136025474E+02  0.43400731315E+02  0.00000000000E+00 0.  1.
         11    1    4    4    0    0 -0.54229540375E+01  0.72491331474E+01  0.95704136941E+01  0.13173882511E+02  0.51100000000E-03 0. -1.
        -11    1    4    4    0    0 -0.89560495581E+01  0.33305448034E+01  0.99147523967E+01  0.13769737388E+02  0.51100000000E-03 0.  1.
         12    1    4    4    0    0  0.26341969733E+01  0.10299066745E+01  0.20650859384E+02  0.20843648786E+02  0.00000000000E+00 0. -1.
</event>
<event>
 8    1  0.2994958E-010  0.9118800E+02  0.7816164E-02  0.1184000E+00
        -11   -1    0    0    0    0  0.00000000000E+00  0.00000000000E+00  0.45593999997E+02  0.45594000000E+02  0.51100000000E-03 0. -1.
         11   -1    0    0    0    0 -0.00000000000E+00 -0.00000000000E+00 -0.45593999997E+02  0.45594000000E+02  0.51100000000E-03 0.  1.
         23    2    1    2    0    0  0.00000000000E+00  0.00000000000E+00  0.35527136788E-14  0.91188000000E+02  0.91188000000E+02 0.  0.
    9900012    2    3    3    0    0 -0.27681074101E+02  0.18398642703E+02  0.27908265316E+02  0.47787272014E+02  0.20000004423E+02 0.  0.
        -12    1    3    3    0    0  0.27681074101E+02 -0.18398642703E+02 -0.27908265316E+02  0.43400727986E+02  0.00000000000E+00 0.  1.
         11    1    4    4    0    0 -0.21817417332E+02  0.65108889322E+01  0.11539833957E+02  0.25525656539E+02  0.51100000000E-03 0. -1.
        -11    1    4    4    0    0 -0.25842331516E+01  0.58283826505E+01  0.26386499341E+01  0.69000564518E+01  0.51100000000E-03 0.  1.
         12    1    4    4    0    0 -0.32794236170E+01  0.60593711205E+01  0.13729781426E+02  0.15361559024E+02  0.00000000000E+00 0. -1.
</event>
<event>
 8    1  0.2994958E-010  0.9118800E+02  0.7816164E-02  0.1184000E+00
        -11   -1    0    0    0    0  0.00000000000E+00  0.00000000000E+00  0.45593999997E+02  0.45594000000E+02  0.51100000000E-03 0. -1.
         11   -1    0    0    0    0 -0.00000000000E+00 -0.00000000000E+00 -0.45593999997E+02  0.45594000000E+02  0.51100000000E-03 0.  1.
         23    2    1    2    0    0 -0.17763568394E-14  0.00000000000E+00  0.00000000000E+00  0.91188000000E+02  0.91188000000E+02 0.  0.
    9900012    2    3    3    0    0 -0.13176405228E+02 -0.59971203916E+01  0.40915035341E+02  0.47787271611E+02  0.20000002582E+02 0.  0.
        -12    1    3    3    0    0  0.13176405228E+02  0.59971203916E+01 -0.40915035341E+02  0.43400728389E+02  0.00000000000E+00 0.  1.
         11    1    4    4    0    0 -0.78130154472E+00 -0.20844635974E+01  0.18066830290E+02  0.18203455100E+02  0.51100000000E-03 0.  1.
        -11    1    4    4    0    0 -0.64609284285E+01 -0.89712740969E+00  0.21911511649E+02  0.22861819192E+02  0.51100000000E-03 0. -1.
        -12    1    4    4    0    0 -0.59341752546E+01 -0.30155293846E+01  0.93669340194E+00  0.67219973186E+01  0.00000000000E+00 0.  1.
</event>
<event>
 8    1  0.2994958E-010  0.9118800E+02  0.7816164E-02  0.1184000E+00
        -11   -1    0    0    0    0  0.00000000000E+00  0.00000000000E+00  0.45593999997E+02  0.45594000000E+02  0.51100000000E-03 0. -1.
         11   -1    0    0    0    0 -0.00000000000E+00 -0.00000000000E+00 -0.45593999997E+02  0.45594000000E+02  0.51100000000E-03 0.  1.
         23    2    1    2    0    0  0.00000000000E+00  0.00000000000E+00  0.00000000000E+00  0.91188000000E+02  0.91188000000E+02 0.  0.
    9900012    2    3    3    0    0 -0.14823232391E+01 -0.33914358193E+02  0.27041453875E+02  0.47787294919E+02  0.20000108854E+02 0.  0.
        -12    1    3    3    0    0  0.14823232391E+01  0.33914358193E+02 -0.27041453875E+02  0.43400705081E+02  0.00000000000E+00 0.  1.
         11    1    4    4    0    0 -0.58741779700E+01 -0.10070724743E+02  0.33460918560E+01  0.12129377339E+02  0.51100000000E-03 0. -1.
        -11    1    4    4    0    0 -0.21817682940E+01 -0.38936503358E+00  0.27571631703E+01  0.35374661874E+01  0.51100000000E-03 0.  1.
         12    1    4    4    0    0  0.65736230250E+01 -0.23454268417E+02  0.20938198848E+02  0.32120451393E+02  0.00000000000E+00 0. -1.
</event>
<event>
 8    1  0.2994958E-010  0.9118800E+02  0.7816164E-02  0.1184000E+00
        -11   -1    0    0    0    0  0.00000000000E+00  0.00000000000E+00  0.45593999997E+02  0.45594000000E+02  0.51100000000E-03 0. -1.
         11   -1    0    0    0    0 -0.00000000000E+00 -0.00000000000E+00 -0.45593999997E+02  0.45594000000E+02  0.51100000000E-03 0.  1.
         23    2    1    2    0    0 -0.17763568394E-14  0.71054273576E-14  0.35527136788E-14  0.91188000000E+02  0.91188000000E+02 0.  0.
    9900012    2    3    3    0    0  0.14268469586E+02  0.29476613915E+02  0.28480915177E+02  0.47787279711E+02  0.20000039516E+02 0.  0.
        -12    1    3    3    0    0 -0.14268469586E+02 -0.29476613915E+02 -0.28480915177E+02  0.43400720289E+02  0.00000000000E+00 0.  1.
         11    1    4    4    0    0  0.12643024046E+02  0.17052723339E+02  0.13107482601E+02  0.24948898387E+02  0.51100000000E-03 0. -1.
        -11    1    4    4    0    0  0.62394249406E+01  0.69418690573E+01  0.11071157744E+02  0.14480694170E+02  0.51100000000E-03 0.  1.
        -12    1    4    4    0    0 -0.46139794004E+01  0.54820215189E+01  0.43022748322E+01  0.83576871545E+01  0.00000000000E+00 0.  1.
</event>
<event>
 8    1  0.2994958E-010  0.9118800E+02  0.7816164E-02  0.1184000E+00
        -11   -1    0    0    0    0  0.00000000000E+00  0.00000000000E+00  0.45593999997E+02  0.45594000000E+02  0.51100000000E-03 0. -1.
         11   -1    0    0    0    0 -0.00000000000E+00 -0.00000000000E+00 -0.45593999997E+02  0.45594000000E+02  0.51100000000E-03 0.  1.
         23    2    1    2    0    0 -0.88817841970E-15  0.00000000000E+00 -0.71054273576E-14  0.91188000000E+02  0.91188000000E+02 0.  0.
    9900012    2    3    3    0    0  0.45096019481E+01  0.18838220563E+02 -0.38838227046E+02  0.47787274847E+02  0.20000017336E+02 0.  0.
         12    1    3    3    0    0 -0.45096019481E+01 -0.18838220563E+02  0.38838227046E+02  0.43400725153E+02  0.00000000000E+00 0. -1.
         11    1    4    4    0    0 -0.15256939440E+01  0.76750178114E+01 -0.17186472783E+01  0.80117032611E+01  0.51100000000E-03 0. -1.
        -11    1    4    4    0    0 -0.27791804291E+00  0.63235119943E+01 -0.15851304287E+02  0.17068330037E+02  0.51100000000E-03 0.  1.
        -12    1    4    4    0    0  0.63132139351E+01  0.48396907574E+01 -0.21268275481E+02  0.22707241549E+02  0.00000000000E+00 0.  1.
</event>
<event>
 8    1  0.2994958E-010  0.9118800E+02  0.7816164E-02  0.1184000E+00
        -11   -1    0    0    0    0  0.00000000000E+00  0.00000000000E+00  0.45593999997E+02  0.45594000000E+02  0.51100000000E-03 0. -1.
         11   -1    0    0    0    0 -0.00000000000E+00 -0.00000000000E+00 -0.45593999997E+02  0.45594000000E+02  0.51100000000E-03 0.  1.
         23    2    1    2    0    0  0.88817841970E-15  0.00000000000E+00  0.17763568394E-14  0.91188000000E+02  0.91188000000E+02 0.  0.
    9900012    2    3    3    0    0 -0.70036626786E+01  0.40168377548E+02  0.14868554907E+02  0.47787265320E+02  0.19999973899E+02 0.  0.
        -12    1    3    3    0    0  0.70036626786E+01 -0.40168377548E+02 -0.14868554907E+02  0.43400734680E+02  0.00000000000E+00 0.  1.
         11    1    4    4    0    0 -0.47009432662E+01  0.18758634092E+02  0.53757641771E+01  0.20071972034E+02  0.51100000000E-03 0. -1.
        -11    1    4    4    0    0 -0.45203758741E+01  0.83174625035E+01 -0.25339132036E+01  0.97997294312E+01  0.51100000000E-03 0.  1.
        -12    1    4    4    0    0  0.22176564617E+01  0.13092280952E+02  0.12026703934E+02  0.17915563855E+02  0.00000000000E+00 0.  1.
</event>
<event>
 8    1  0.2994958E-010  0.9118800E+02  0.7816164E-02  0.1184000E+00
        -11   -1    0    0    0    0  0.00000000000E+00  0.00000000000E+00  0.45593999997E+02  0.45594000000E+02  0.51100000000E-03 0. -1.
         11   -1    0    0    0    0 -0.00000000000E+00 -0.00000000000E+00 -0.45593999997E+02  0.45594000000E+02  0.51100000000E-03 0.  1.
         23    2    1    2    0    0 -0.71054273576E-14 -0.88817841970E-15  0.00000000000E+00  0.91188000000E+02  0.91188000000E+02 0.  0.
    9900012    2    3    3    0    0 -0.40964090244E+02 -0.49593519780E+01 -0.13452533197E+02  0.47787279834E+02  0.20000040074E+02 0.  0.
         12    1    3    3    0    0  0.40964090244E+02  0.49593519780E+01  0.13452533197E+02  0.43400720166E+02  0.00000000000E+00 0. -1.
         11    1    4    4    0    0 -0.44048154708E+01  0.10994902262E+01  0.20888147743E+01  0.49974418968E+01  0.51100000000E-03 0. -1.
        -11    1    4    4    0    0 -0.20221625224E+02 -0.84189689645E+01 -0.31071055781E+01  0.22123455211E+02  0.51100000000E-03 0.  1.
        -12    1    4    4    0    0 -0.16337649549E+02  0.23601267603E+01 -0.12434242393E+02  0.20666382726E+02  0.00000000000E+00 0.  1.
</event>
<event>
 8    1  0.2994958E-010  0.9118800E+02  0.7816164E-02  0.1184000E+00
        -11   -1    0    0    0    0  0.00000000000E+00  0.00000000000E+00  0.45593999997E+02  0.45594000000E+02  0.51100000000E-03 0. -1.
         11   -1    0    0    0    0 -0.00000000000E+00 -0.00000000000E+00 -0.45593999997E+02  0.45594000000E+02  0.51100000000E-03 0.  1.
         23    2    1    2    0    0  0.33306690739E-15  0.00000000000E+00  0.00000000000E+00  0.91188000000E+02  0.91188000000E+02 0.  0.
    9900012    2    3    3    0    0  0.86271099576E-01 -0.16075667348E+02 -0.40313630522E+02  0.47787270407E+02  0.19999997094E+02 0.  0.
         12    1    3    3    0    0 -0.86271099576E-01  0.16075667348E+02  0.40313630522E+02  0.43400729593E+02  0.00000000000E+00 0. -1.
         11    1    4    4    0    0 -0.26122353522E+01 -0.33288859132E+01 -0.26689196229E+01  0.50028379119E+01  0.51100000000E-03 0. -1.
        -11    1    4    4    0    0  0.32414262177E+01  0.28344399921E+01 -0.12261262895E+02  0.12995363097E+02  0.51100000000E-03 0.  1.
        -12    1    4    4    0    0 -0.54291976594E+00 -0.15581221427E+02 -0.25383448004E+02  0.29789069398E+02  0.00000000000E+00 0.  1.
</event>
<event>
 8    1  0.2994958E-010  0.9118800E+02  0.7816164E-02  0.1184000E+00
        -11   -1    0    0    0    0  0.00000000000E+00  0.00000000000E+00  0.45593999997E+02  0.45594000000E+02  0.51100000000E-03 0. -1.
         11   -1    0    0    0    0 -0.00000000000E+00 -0.00000000000E+00 -0.45593999997E+02  0.45594000000E+02  0.51100000000E-03 0.  1.
         23    2    1    2    0    0  0.00000000000E+00  0.00000000000E+00  0.00000000000E+00  0.91188000000E+02  0.91188000000E+02 0.  0.
    9900012    2    3    3    0    0  0.37539095763E+02  0.82026722454E+01  0.20178106651E+02  0.47787268086E+02  0.19999986511E+02 0.  0.
        -12    1    3    3    0    0 -0.37539095763E+02 -0.82026722454E+01 -0.20178106651E+02  0.43400731914E+02  0.00000000000E+00 0.  1.
         11    1    4    4    0    0  0.29672763071E+02  0.10964363980E+02  0.92705973845E+01  0.32964133871E+02  0.51100000000E-03 0. -1.
        -11    1    4    4    0    0  0.18537307953E+00  0.13002448662E+01  0.18813629051E+01  0.22944556070E+01  0.51100000000E-03 0.  1.
         12    1    4    4    0    0  0.76809596122E+01 -0.40619366007E+01  0.90261463614E+01  0.12528678608E+02  0.00000000000E+00 0. -1.
</event>
<event>
 8    1  0.2994958E-010  0.9118800E+02  0.7816164E-02  0.1184000E+00
        -11   -1    0    0    0    0  0.00000000000E+00  0.00000000000E+00  0.45593999997E+02  0.45594000000E+02  0.51100000000E-03 0. -1.
         11   -1    0    0    0    0 -0.00000000000E+00 -0.00000000000E+00 -0.45593999997E+02  0.45594000000E+02  0.51100000000E-03 0.  1.
         23    2    1    2    0    0  0.17763568394E-14  0.35527136788E-14  0.00000000000E+00  0.91188000000E+02  0.91188000000E+02 0.  0.
    9900012    2    3    3    0    0 -0.15795487394E+02 -0.15892196107E+02  0.37169399245E+02  0.47787267756E+02  0.19999985006E+02 0.  0.
        -12    1    3    3    0    0  0.15795487394E+02  0.15892196107E+02 -0.37169399245E+02  0.43400732244E+02  0.00000000000E+00 0.  1.
         11    1    4    4    0    0 -0.81740253293E+01  0.34773849972E+01  0.11961684935E+02  0.14899288683E+02  0.51100000000E-03 0. -1.
        -11    1    4    4    0    0 -0.23302579359E+00 -0.46264661721E+01  0.55062073905E+01  0.71956104919E+01  0.51100000000E-03 0.  1.
        -12    1    4    4    0    0 -0.73884362710E+01 -0.14743114932E+02  0.19701506919E+02  0.25692368581E+02  0.00000000000E+00 0.  1.
</event>
<event>
 8    1  0.2994958E-010  0.9118800E+02  0.7816164E-02  0.1184000E+00
        -11   -1    0    0    0    0  0.00000000000E+00  0.00000000000E+00  0.45593999997E+02  0.45594000000E+02  0.51100000000E-03 0. -1.
         11   -1    0    0    0    0 -0.00000000000E+00 -0.00000000000E+00 -0.45593999997E+02  0.45594000000E+02  0.51100000000E-03 0.  1.
         23    2    1    2    0    0 -0.17763568394E-14  0.35527136788E-14  0.00000000000E+00  0.91188000000E+02  0.91188000000E+02 0.  0.
    9900012    2    3    3    0    0 -0.15791239702E+02  0.19899077203E+02  0.35189290566E+02  0.47787277709E+02  0.20000030384E+02 0.  0.
        -12    1    3    3    0    0  0.15791239702E+02 -0.19899077203E+02 -0.35189290566E+02  0.43400722291E+02  0.00000000000E+00 0.  1.
         11    1    4    4    0    0 -0.11950581565E+02  0.32496425766E+01  0.10995300159E+02  0.16561195683E+02  0.51100000000E-03 0. -1.
        -11    1    4    4    0    0 -0.14334462162E+01  0.58099388923E+00 -0.53534062760E+00  0.16367381595E+01  0.51100000000E-03 0.  1.
        -12    1    4    4    0    0 -0.24072119209E+01  0.16068440737E+02  0.24729331035E+02  0.29589343866E+02  0.00000000000E+00 0.  1.
</event>
<event>
 8    1  0.2994958E-010  0.9118800E+02  0.7816164E-02  0.1184000E+00
        -11   -1    0    0    0    0  0.00000000000E+00  0.00000000000E+00  0.45593999997E+02  0.45594000000E+02  0.51100000000E-03 0.  1.
         11   -1    0    0    0    0 -0.00000000000E+00 -0.00000000000E+00 -0.45593999997E+02  0.45594000000E+02  0.51100000000E-03 0. -1.
         23    2    1    2    0    0  0.00000000000E+00  0.00000000000E+00  0.17763568394E-14  0.91188000000E+02  0.91188000000E+02 0.  0.
    9900012    2    3    3    0    0  0.32390562320E+02  0.24577987310E+02  0.15178841133E+02  0.47787271829E+02  0.20000003577E+02 0.  0.
        -12    1    3    3    0    0 -0.32390562320E+02 -0.24577987310E+02 -0.15178841133E+02  0.43400728171E+02  0.00000000000E+00 0.  1.
         11    1    4    4    0    0  0.48378029710E+01  0.10315308538E+02  0.59329212218E+01  0.12845601672E+02  0.51100000000E-03 0. -1.
        -11    1    4    4    0    0 -0.19445816555E+00  0.15925316246E+01  0.35714076561E+01  0.39152169622E+01  0.51100000000E-03 0.  1.
        -12    1    4    4    0    0  0.27747217515E+02  0.12670147147E+02  0.56745122553E+01  0.31026453195E+02  0.00000000000E+00 0.  1.
</event>
<event>
 8    1  0.2994958E-010  0.9118800E+02  0.7816164E-02  0.1184000E+00
        -11   -1    0    0    0    0  0.00000000000E+00  0.00000000000E+00  0.45593999997E+02  0.45594000000E+02  0.51100000000E-03 0. -1.
         11   -1    0    0    0    0 -0.00000000000E+00 -0.00000000000E+00 -0.45593999997E+02  0.45594000000E+02  0.51100000000E-03 0.  1.
         23    2    1    2    0    0  0.35527136788E-14 -0.35527136788E-14  0.35527136788E-14  0.91188000000E+02  0.91188000000E+02 0.  0.
    9900012    2    3    3    0    0  0.20628495838E+02 -0.30097564470E+02  0.23499472657E+02  0.47787269099E+02  0.19999991131E+02 0.  0.
        -12    1    3    3    0    0 -0.20628495838E+02  0.30097564470E+02 -0.23499472657E+02  0.43400730901E+02  0.00000000000E+00 0.  1.
         11    1    4    4    0    0  0.10703878832E+02 -0.14151898563E+02  0.18762377686E+02  0.25823943767E+02  0.51100000000E-03 0. -1.
        -11    1    4    4    0    0  0.31967510423E+01 -0.75910963260E+01  0.72197566634E+01  0.10953029133E+02  0.51100000000E-03 0.  1.
        -12    1    4    4    0    0  0.67278659643E+01 -0.83545695810E+01 -0.24826616923E+01  0.11010296199E+02  0.00000000000E+00 0.  1.
</event>
<event>
 8    1  0.2994958E-010  0.9118800E+02  0.7816164E-02  0.1184000E+00
        -11   -1    0    0    0    0  0.00000000000E+00  0.00000000000E+00  0.45593999997E+02  0.45594000000E+02  0.51100000000E-03 0. -1.
         11   -1    0    0    0    0 -0.00000000000E+00 -0.00000000000E+00 -0.45593999997E+02  0.45594000000E+02  0.51100000000E-03 0.  1.
         23    2    1    2    0    0 -0.35527136788E-14  0.00000000000E+00  0.00000000000E+00  0.91188000000E+02  0.91188000000E+02 0.  0.
    9900012    2    3    3    0    0  0.28281778239E+02  0.15697615379E+02  0.28936901399E+02  0.47787327522E+02  0.20000257504E+02 0.  0.
        -12    1    3    3    0    0 -0.28281778239E+02 -0.15697615379E+02 -0.28936901399E+02  0.43400672478E+02  0.00000000000E+00 0.  1.
         11    1    4    4    0    0  0.13754452540E+02  0.12422341058E+01  0.12436110217E+02  0.18584535180E+02  0.51100000000E-03 0. -1.
        -11    1    4    4    0    0 -0.44262043573E+00  0.10473501641E+00  0.58915750512E+01  0.59091064569E+01  0.51100000000E-03 0.  1.
        -12    1    4    4    0    0  0.14969946134E+02  0.14350646256E+02  0.10609216131E+02  0.23293685886E+02  0.00000000000E+00 0.  1.
</event>
<event>
 8    1  0.2994958E-010  0.9118800E+02  0.7816164E-02  0.1184000E+00
        -11   -1    0    0    0    0  0.00000000000E+00  0.00000000000E+00  0.45593999997E+02  0.45594000000E+02  0.51100000000E-03 0. -1.
         11   -1    0    0    0    0 -0.00000000000E+00 -0.00000000000E+00 -0.45593999997E+02  0.45594000000E+02  0.51100000000E-03 0.  1.
         23    2    1    2    0    0  0.00000000000E+00  0.00000000000E+00  0.00000000000E+00  0.91188000000E+02  0.91188000000E+02 0.  0.
    9900012    2    3    3    0    0  0.12220031343E+02  0.19234752779E+02  0.36936682358E+02  0.47787269775E+02  0.19999994211E+02 0.  0.
        -12    1    3    3    0    0 -0.12220031343E+02 -0.19234752779E+02 -0.36936682358E+02  0.43400730225E+02  0.00000000000E+00 0.  1.
         11    1    4    4    0    0  0.62187208276E+00  0.93895608771E+01  0.20218632809E+02  0.22301203808E+02  0.51100000000E-03 0. -1.
        -11    1    4    4    0    0  0.10266905176E+02  0.10927296527E+02  0.17939307296E+02  0.23380203117E+02  0.51100000000E-03 0.  1.
         12    1    4    4    0    0  0.13312540847E+01 -0.10821046258E+01 -0.12212577466E+01  0.21058628500E+01  0.00000000000E+00 0. -1.
</event>
<event>
 8    1  0.2994958E-010  0.9118800E+02  0.7816164E-02  0.1184000E+00
        -11   -1    0    0    0    0  0.00000000000E+00  0.00000000000E+00  0.45593999997E+02  0.45594000000E+02  0.51100000000E-03 0. -1.
         11   -1    0    0    0    0 -0.00000000000E+00 -0.00000000000E+00 -0.45593999997E+02  0.45594000000E+02  0.51100000000E-03 0.  1.
         23    2    1    2    0    0  0.00000000000E+00  0.00000000000E+00  0.00000000000E+00  0.91188000000E+02  0.91188000000E+02 0.  0.
    9900012    2    3    3    0    0 -0.16856620140E+02 -0.12375031549E+02  0.38030729193E+02  0.47787269461E+02  0.19999992781E+02 0.  0.
        -12    1    3    3    0    0  0.16856620140E+02  0.12375031549E+02 -0.38030729193E+02  0.43400730539E+02  0.00000000000E+00 0.  1.
         11    1    4    4    0    0 -0.12728191935E+02 -0.32739958676E+01  0.20210427391E+02  0.24107826415E+02  0.51100000000E-03 0. -1.
        -11    1    4    4    0    0 -0.66062135646E+01 -0.38428051132E+01  0.15754696227E+02  0.17510558593E+02  0.51100000000E-03 0.  1.
        -12    1    4    4    0    0  0.24777853601E+01 -0.52582305680E+01  0.20656055757E+01  0.61688844528E+01  0.00000000000E+00 0.  1.
</event>
<event>
 8    1  0.2994958E-010  0.9118800E+02  0.7816164E-02  0.1184000E+00
        -11   -1    0    0    0    0  0.00000000000E+00  0.00000000000E+00  0.45593999997E+02  0.45594000000E+02  0.51100000000E-03 0. -1.
         11   -1    0    0    0    0 -0.00000000000E+00 -0.00000000000E+00 -0.45593999997E+02  0.45594000000E+02  0.51100000000E-03 0.  1.
         23    2    1    2    0    0  0.35527136788E-14 -0.88817841970E-15  0.00000000000E+00  0.91188000000E+02  0.91188000000E+02 0.  0.
    9900012    2    3    3    0    0 -0.26133401865E+02  0.45301048959E+01  0.34353267668E+02  0.47787267945E+02  0.19999985870E+02 0.  0.
        -12    1    3    3    0    0  0.26133401865E+02 -0.45301048959E+01 -0.34353267668E+02  0.43400732055E+02  0.00000000000E+00 0.  1.
         11    1    4    4    0    0 -0.22330418543E+02 -0.35668007710E+01  0.18731316807E+02  0.29363785343E+02  0.51100000000E-03 0. -1.
        -11    1    4    4    0    0 -0.37377058794E+01  0.59065172323E+01  0.86835779558E+01  0.11147282962E+02  0.51100000000E-03 0.  1.
        -12    1    4    4    0    0 -0.65277442119E-01  0.21903884347E+01  0.69383729051E+01  0.72761996405E+01  0.00000000000E+00 0.  1.
</event>
<event>
 8    1  0.2994958E-010  0.9118800E+02  0.7816164E-02  0.1184000E+00
        -11   -1    0    0    0    0  0.00000000000E+00  0.00000000000E+00  0.45593999997E+02  0.45594000000E+02  0.51100000000E-03 0. -1.
         11   -1    0    0    0    0 -0.00000000000E+00 -0.00000000000E+00 -0.45593999997E+02  0.45594000000E+02  0.51100000000E-03 0.  1.
         23    2    1    2    0    0  0.35527136788E-14 -0.35527136788E-14  0.00000000000E+00  0.91188000000E+02  0.91188000000E+02 0.  0.
    9900012    2    3    3    0    0 -0.23905274307E+02  0.20096404699E+02  0.30137942544E+02  0.47787271868E+02  0.20000003757E+02 0.  0.
        -12    1    3    3    0    0  0.23905274307E+02 -0.20096404699E+02 -0.30137942544E+02  0.43400728132E+02  0.00000000000E+00 0.  1.
         11    1    4    4    0    0 -0.74133262013E+01  0.99305464744E+01  0.19807328890E+02  0.23364576535E+02  0.51100000000E-03 0. -1.
        -11    1    4    4    0    0 -0.74959502328E+01 -0.40921117098E+00  0.72947095881E+00  0.75424698750E+01  0.51100000000E-03 0.  1.
         12    1    4    4    0    0 -0.89959978732E+01  0.10575069396E+02  0.96011426957E+01  0.16880225458E+02  0.00000000000E+00 0. -1.
</event>
<event>
 8    1  0.2994958E-010  0.9118800E+02  0.7816164E-02  0.1184000E+00
        -11   -1    0    0    0    0  0.00000000000E+00  0.00000000000E+00  0.45593999997E+02  0.45594000000E+02  0.51100000000E-03 0. -1.
         11   -1    0    0    0    0 -0.00000000000E+00 -0.00000000000E+00 -0.45593999997E+02  0.45594000000E+02  0.51100000000E-03 0.  1.
         23    2    1    2    0    0  0.00000000000E+00 -0.88817841970E-15  0.00000000000E+00  0.91188000000E+02  0.91188000000E+02 0.  0.
    9900012    2    3    3    0    0  0.10050926093E+02  0.46561542520E+01 -0.41963351648E+02  0.47787265337E+02  0.19999973980E+02 0.  0.
         12    1    3    3    0    0 -0.10050926093E+02 -0.46561542520E+01  0.41963351648E+02  0.43400734663E+02  0.00000000000E+00 0. -1.
         11    1    4    4    0    0  0.41228871971E+01 -0.43963460631E+00 -0.15488317971E-01  0.41462896155E+01  0.51100000000E-03 0. -1.
        -11    1    4    4    0    0  0.33055596420E+01  0.12294216112E+01 -0.37101833831E+01  0.51189513616E+01  0.51100000000E-03 0.  1.
        -12    1    4    4    0    0  0.26224792538E+01  0.38663672471E+01 -0.38237679947E+02  0.38522024360E+02  0.00000000000E+00 0.  1.
</event>
<event>
 8    1  0.2994958E-010  0.9118800E+02  0.7816164E-02  0.1184000E+00
        -11   -1    0    0    0    0  0.00000000000E+00  0.00000000000E+00  0.45593999997E+02  0.45594000000E+02  0.51100000000E-03 0. -1.
         11   -1    0    0    0    0 -0.00000000000E+00 -0.00000000000E+00 -0.45593999997E+02  0.45594000000E+02  0.51100000000E-03 0.  1.
         23    2    1    2    0    0  0.00000000000E+00 -0.35527136788E-14  0.00000000000E+00  0.91188000000E+02  0.91188000000E+02 0.  0.
    9900012    2    3    3    0    0  0.19275829769E+01 -0.31449444908E+02 -0.29846940069E+02  0.47787274284E+02  0.20000014772E+02 0.  0.
         12    1    3    3    0    0 -0.19275829769E+01  0.31449444908E+02  0.29846940069E+02  0.43400725716E+02  0.00000000000E+00 0. -1.
         11    1    4    4    0    0  0.58560982008E+01 -0.44437372447E+01 -0.97007781089E+01  0.12171515231E+02  0.51100000000E-03 0. -1.
        -11    1    4    4    0    0  0.31208097292E+01 -0.11313809351E+02 -0.11213640835E+02  0.16232297325E+02  0.51100000000E-03 0.  1.
        -12    1    4    4    0    0 -0.70493249530E+01 -0.15691898313E+02 -0.89325211245E+01  0.19383461729E+02  0.00000000000E+00 0.  1.
</event>
<event>
 8    1  0.2994958E-010  0.9118800E+02  0.7816164E-02  0.1184000E+00
        -11   -1    0    0    0    0  0.00000000000E+00  0.00000000000E+00  0.45593999997E+02  0.45594000000E+02  0.51100000000E-03 0.  1.
         11   -1    0    0    0    0 -0.00000000000E+00 -0.00000000000E+00 -0.45593999997E+02  0.45594000000E+02  0.51100000000E-03 0. -1.
         23    2    1    2    0    0 -0.71054273576E-14  0.00000000000E+00  0.00000000000E+00  0.91188000000E+02  0.91188000000E+02 0.  0.
    9900012    2    3    3    0    0  0.34030950844E+02  0.10780406670E+02 -0.24684015536E+02  0.47787269519E+02  0.19999993045E+02 0.  0.
         12    1    3    3    0    0 -0.34030950844E+02 -0.10780406670E+02  0.24684015536E+02  0.43400730481E+02  0.00000000000E+00 0. -1.
         11    1    4    4    0    0  0.82651551983E+01 -0.17180763571E+01 -0.37610539189E+00  0.84502090121E+01  0.51100000000E-03 0. -1.
        -11    1    4    4    0    0  0.92927920055E+01  0.53001073642E+01 -0.23397721427E+01  0.10950874635E+02  0.51100000000E-03 0.  1.
         12    1    4    4    0    0  0.16473003640E+02  0.71983756632E+01 -0.21968138001E+02  0.28386185872E+02  0.00000000000E+00 0. -1.
</event>
<event>
 8    1  0.2994958E-010  0.9118800E+02  0.7816164E-02  0.1184000E+00
        -11   -1    0    0    0    0  0.00000000000E+00  0.00000000000E+00  0.45593999997E+02  0.45594000000E+02  0.51100000000E-03 0. -1.
         11   -1    0    0    0    0 -0.00000000000E+00 -0.00000000000E+00 -0.45593999997E+02  0.45594000000E+02  0.51100000000E-03 0.  1.
         23    2    1    2    0    0  0.00000000000E+00  0.00000000000E+00  0.00000000000E+00  0.91188000000E+02  0.91188000000E+02 0.  0.
    9900012    2    3    3    0    0 -0.43065358197E+01  0.12601089654E+02 -0.41307241143E+02  0.47787287078E+02  0.20000073105E+02 0.  0.
         12    1    3    3    0    0  0.43065358197E+01 -0.12601089654E+02  0.41307241143E+02  0.43400712922E+02  0.00000000000E+00 0. -1.
         11    1    4    4    0    0 -0.27570329846E+00  0.52904224422E+00 -0.26644321334E+02  0.26650999186E+02  0.51100000000E-03 0. -1.
        -11    1    4    4    0    0  0.17101674593E+01  0.61970494365E+01 -0.93738418278E+01  0.11366486059E+02  0.51100000000E-03 0.  1.
         12    1    4    4    0    0 -0.57409999805E+01  0.58749979733E+01 -0.52890779811E+01  0.97698018329E+01  0.00000000000E+00 0. -1.
</event>
<event>
 8    1  0.2994958E-010  0.9118800E+02  0.7816164E-02  0.1184000E+00
        -11   -1    0    0    0    0  0.00000000000E+00  0.00000000000E+00  0.45593999997E+02  0.45594000000E+02  0.51100000000E-03 0. -1.
         11   -1    0    0    0    0 -0.00000000000E+00 -0.00000000000E+00 -0.45593999997E+02  0.45594000000E+02  0.51100000000E-03 0.  1.
         23    2    1    2    0    0  0.22204460493E-15  0.00000000000E+00  0.00000000000E+00  0.91188000000E+02  0.91188000000E+02 0.  0.
    9900012    2    3    3    0    0  0.10314036611E+01 -0.20999519582E+02 -0.37968140394E+02  0.47787270730E+02  0.19999998568E+02 0.  0.
         12    1    3    3    0    0 -0.10314036611E+01  0.20999519582E+02  0.37968140394E+02  0.43400729270E+02  0.00000000000E+00 0. -1.
         11    1    4    4    0    0 -0.21392848729E+01 -0.42889783594E+00 -0.15490278200E+02  0.15643184206E+02  0.51100000000E-03 0. -1.
        -11    1    4    4    0    0 -0.98699819863E-01  0.72914582584E+00  0.29406046970E+00  0.79238066025E+00  0.51100000000E-03 0.  1.
        -12    1    4    4    0    0  0.32693883539E+01 -0.21299767571E+02 -0.22771922664E+02  0.31351705864E+02  0.00000000000E+00 0.  1.
</event>
<event>
 8    1  0.2994958E-010  0.9118800E+02  0.7816164E-02  0.1184000E+00
        -11   -1    0    0    0    0  0.00000000000E+00  0.00000000000E+00  0.45593999997E+02  0.45594000000E+02  0.51100000000E-03 0. -1.
         11   -1    0    0    0    0 -0.00000000000E+00 -0.00000000000E+00 -0.45593999997E+02  0.45594000000E+02  0.51100000000E-03 0.  1.
         23    2    1    2    0    0  0.16653345369E-15  0.00000000000E+00  0.00000000000E+00  0.91188000000E+02  0.91188000000E+02 0.  0.
    9900012    2    3    3    0    0  0.44986854632E+00 -0.19733504208E+02 -0.38652429723E+02  0.47787263906E+02  0.19999967452E+02 0.  0.
         12    1    3    3    0    0 -0.44986854632E+00  0.19733504208E+02  0.38652429723E+02  0.43400736094E+02  0.00000000000E+00 0. -1.
         11    1    4    4    0    0  0.54717799034E+01 -0.46005902821E+01 -0.71991573027E+01  0.10145623312E+02  0.51100000000E-03 0. -1.
        -11    1    4    4    0    0  0.14319001868E+01 -0.11509576950E+02 -0.25932616689E+02  0.28408120464E+02  0.51100000000E-03 0.  1.
         12    1    4    4    0    0 -0.64538115439E+01 -0.36233369752E+01 -0.55206557316E+01  0.92335201297E+01  0.00000000000E+00 0. -1.
</event>
<event>
 8    1  0.2994958E-010  0.9118800E+02  0.7816164E-02  0.1184000E+00
        -11   -1    0    0    0    0  0.00000000000E+00  0.00000000000E+00  0.45593999997E+02  0.45594000000E+02  0.51100000000E-03 0. -1.
         11   -1    0    0    0    0 -0.00000000000E+00 -0.00000000000E+00 -0.45593999997E+02  0.45594000000E+02  0.51100000000E-03 0.  1.
         23    2    1    2    0    0  0.00000000000E+00 -0.88817841970E-15  0.00000000000E+00  0.91188000000E+02  0.91188000000E+02 0.  0.
    9900012    2    3    3    0    0 -0.16155708933E+02  0.44430893909E+01 -0.40035921930E+02  0.47787273977E+02  0.20000013373E+02 0.  0.
         12    1    3    3    0    0  0.16155708933E+02 -0.44430893909E+01  0.40035921930E+02  0.43400726023E+02  0.00000000000E+00 0. -1.
         11    1    4    4    0    0 -0.32170163093E+01  0.82435073802E+01 -0.18596858001E+02  0.20594847307E+02  0.51100000000E-03 0. -1.
        -11    1    4    4    0    0 -0.91495335913E+01  0.17308476591E+01 -0.16192159694E+02  0.18678753555E+02  0.51100000000E-03 0.  1.
         12    1    4    4    0    0 -0.37891590325E+01 -0.55312656485E+01 -0.52469042359E+01  0.85136731149E+01  0.00000000000E+00 0. -1.
</event>
<event>
 8    1  0.2994958E-010  0.9118800E+02  0.7816164E-02  0.1184000E+00
        -11   -1    0    0    0    0  0.00000000000E+00  0.00000000000E+00  0.45593999997E+02  0.45594000000E+02  0.51100000000E-03 0. -1.
         11   -1    0    0    0    0 -0.00000000000E+00 -0.00000000000E+00 -0.45593999997E+02  0.45594000000E+02  0.51100000000E-03 0.  1.
         23    2    1    2    0    0 -0.22204460493E-15  0.00000000000E+00  0.00000000000E+00  0.91188000000E+02  0.91188000000E+02 0.  0.
    9900012    2    3    3    0    0 -0.45814067709E+00 -0.76392369436E+01  0.42720650774E+02  0.47787287604E+02  0.20000075502E+02 0.  0.
        -12    1    3    3    0    0  0.45814067709E+00  0.76392369436E+01 -0.42720650774E+02  0.43400712396E+02  0.00000000000E+00 0.  1.
         11    1    4    4    0    0 -0.31945526533E+01  0.11418817882E+01  0.61915361068E+01  0.70600410973E+01  0.51100000000E-03 0. -1.
        -11    1    4    4    0    0  0.61340655012E+01 -0.12361986408E+01  0.46614633328E+01  0.78028320062E+01  0.51100000000E-03 0.  1.
         12    1    4    4    0    0 -0.33976535249E+01 -0.75449200910E+01  0.31867651334E+02  0.32924414501E+02  0.00000000000E+00 0. -1.
</event>
<event>
 8    1  0.2994958E-010  0.9118800E+02  0.7816164E-02  0.1184000E+00
        -11   -1    0    0    0    0  0.00000000000E+00  0.00000000000E+00  0.45593999997E+02  0.45594000000E+02  0.51100000000E-03 0. -1.
         11   -1    0    0    0    0 -0.00000000000E+00 -0.00000000000E+00 -0.45593999997E+02  0.45594000000E+02  0.51100000000E-03 0.  1.
         23    2    1    2    0    0  0.00000000000E+00  0.00000000000E+00  0.00000000000E+00  0.91188000000E+02  0.91188000000E+02 0.  0.
    9900012    2    3    3    0    0 -0.10964670732E+02 -0.22200558478E+02  0.35644553702E+02  0.47787274089E+02  0.20000013881E+02 0.  0.
        -12    1    3    3    0    0  0.10964670732E+02  0.22200558478E+02 -0.35644553702E+02  0.43400725911E+02  0.00000000000E+00 0.  1.
         11    1    4    4    0    0  0.65172589269E+00 -0.33302875261E+01  0.64547469707E+01  0.72924152626E+01  0.51100000000E-03 0. -1.
        -11    1    4    4    0    0  0.14743282042E+01 -0.44750908178E+00 -0.16519982075E+01  0.22589834818E+01  0.51100000000E-03 0.  1.
        -12    1    4    4    0    0 -0.13090724829E+02 -0.18422761870E+02  0.30841804939E+02  0.38235875345E+02  0.00000000000E+00 0.  1.
</event>
<event>
 8    1  0.2994958E-010  0.9118800E+02  0.7816164E-02  0.1184000E+00
        -11   -1    0    0    0    0  0.00000000000E+00  0.00000000000E+00  0.45593999997E+02  0.45594000000E+02  0.51100000000E-03 0. -1.
         11   -1    0    0    0    0 -0.00000000000E+00 -0.00000000000E+00 -0.45593999997E+02  0.45594000000E+02  0.51100000000E-03 0.  1.
         23    2    1    2    0    0  0.00000000000E+00  0.00000000000E+00  0.35527136788E-14  0.91188000000E+02  0.91188000000E+02 0.  0.
    9900012    2    3    3    0    0  0.39072380862E+02 -0.11251879354E+02 -0.15177869942E+02  0.47787268771E+02  0.19999989636E+02 0.  0.
         12    1    3    3    0    0 -0.39072380862E+02  0.11251879354E+02  0.15177869942E+02  0.43400731229E+02  0.00000000000E+00 0. -1.
         11    1    4    4    0    0  0.76260279185E+01 -0.29984001524E+01  0.22404259714E-01  0.81943399673E+01  0.51100000000E-03 0. -1.
        -11    1    4    4    0    0  0.36991168864E+01 -0.97518240229E+00  0.36341355556E+01  0.52764939074E+01  0.51100000000E-03 0.  1.
        -12    1    4    4    0    0  0.27747236057E+02 -0.72782967993E+01 -0.18834409758E+02  0.34316434897E+02  0.00000000000E+00 0.  1.
</event>
<event>
 8    1  0.2994958E-010  0.9118800E+02  0.7816164E-02  0.1184000E+00
        -11   -1    0    0    0    0  0.00000000000E+00  0.00000000000E+00  0.45593999997E+02  0.45594000000E+02  0.51100000000E-03 0. -1.
         11   -1    0    0    0    0 -0.00000000000E+00 -0.00000000000E+00 -0.45593999997E+02  0.45594000000E+02  0.51100000000E-03 0.  1.
         23    2    1    2    0    0 -0.17763568394E-14  0.00000000000E+00  0.00000000000E+00  0.91188000000E+02  0.91188000000E+02 0.  0.
    9900012    2    3    3    0    0  0.99261247865E+01 -0.38285899785E+02  0.17868542822E+02  0.47787275372E+02  0.20000019732E+02 0.  0.
        -12    1    3    3    0    0 -0.99261247865E+01  0.38285899785E+02 -0.17868542822E+02  0.43400724628E+02  0.00000000000E+00 0.  1.
         11    1    4    4    0    0  0.69128673582E+01 -0.44418774005E+01  0.25554582476E+01  0.86051366677E+01  0.51100000000E-03 0. -1.
        -11    1    4    4    0    0  0.46946722012E+01 -0.39889829633E+01  0.28082166761E+01  0.67703776349E+01  0.51100000000E-03 0.  1.
         12    1    4    4    0    0 -0.16814147728E+01 -0.29855039421E+02  0.12504867899E+02  0.32411761070E+02  0.00000000000E+00 0. -1.
</event>
<event>
 8    1  0.2994958E-010  0.9118800E+02  0.7816164E-02  0.1184000E+00
        -11   -1    0    0    0    0  0.00000000000E+00  0.00000000000E+00  0.45593999997E+02  0.45594000000E+02  0.51100000000E-03 0. -1.
         11   -1    0    0    0    0 -0.00000000000E+00 -0.00000000000E+00 -0.45593999997E+02  0.45594000000E+02  0.51100000000E-03 0.  1.
         23    2    1    2    0    0  0.35527136788E-14  0.00000000000E+00 -0.35527136788E-14  0.91188000000E+02  0.91188000000E+02 0.  0.
    9900012    2    3    3    0    0 -0.23607634786E+02  0.26517864559E+02  0.24962087423E+02  0.47787269943E+02  0.19999994979E+02 0.  0.
        -12    1    3    3    0    0  0.23607634786E+02 -0.26517864559E+02 -0.24962087423E+02  0.43400730057E+02  0.00000000000E+00 0.  1.
         11    1    4    4    0    0 -0.22964096846E+02  0.14559741476E+02  0.14559877684E+02  0.30843570712E+02  0.51100000000E-03 0. -1.
        -11    1    4    4    0    0 -0.18995930796E+01  0.67649657526E+00  0.13776927178E+01  0.24421586702E+01  0.51100000000E-03 0.  1.
        -12    1    4    4    0    0  0.12560551401E+01  0.11281626509E+02  0.90245170204E+01  0.14501540561E+02  0.00000000000E+00 0.  1.
</event>
<event>
 8    1  0.2994958E-010  0.9118800E+02  0.7816164E-02  0.1184000E+00
        -11   -1    0    0    0    0  0.00000000000E+00  0.00000000000E+00  0.45593999997E+02  0.45594000000E+02  0.51100000000E-03 0. -1.
         11   -1    0    0    0    0 -0.00000000000E+00 -0.00000000000E+00 -0.45593999997E+02  0.45594000000E+02  0.51100000000E-03 0.  1.
         23    2    1    2    0    0  0.44408920985E-15  0.00000000000E+00 -0.35527136788E-14  0.91188000000E+02  0.91188000000E+02 0.  0.
    9900012    2    3    3    0    0  0.12123116986E+01  0.34511629432E+02 -0.26288796796E+02  0.47787273017E+02  0.20000008992E+02 0.  0.
         12    1    3    3    0    0 -0.12123116986E+01 -0.34511629432E+02  0.26288796796E+02  0.43400726983E+02  0.00000000000E+00 0. -1.
         11    1    4    4    0    0  0.29742020651E+00  0.82799724623E+01 -0.26020828885E+01  0.86843098963E+01  0.51100000000E-03 0. -1.
        -11    1    4    4    0    0 -0.37073450261E+01 -0.69612120586E+00 -0.24418990572E+01  0.44935357061E+01  0.51100000000E-03 0.  1.
        -12    1    4    4    0    0  0.46222365182E+01  0.26927778176E+02 -0.21244814850E+02  0.34609427414E+02  0.00000000000E+00 0.  1.
</event>
<event>
 8    1  0.2994958E-010  0.9118800E+02  0.7816164E-02  0.1184000E+00
        -11   -1    0    0    0    0  0.00000000000E+00  0.00000000000E+00  0.45593999997E+02  0.45594000000E+02  0.51100000000E-03 0. -1.
         11   -1    0    0    0    0 -0.00000000000E+00 -0.00000000000E+00 -0.45593999997E+02  0.45594000000E+02  0.51100000000E-03 0.  1.
         23    2    1    2    0    0  0.00000000000E+00  0.00000000000E+00 -0.17763568394E-14  0.91188000000E+02  0.91188000000E+02 0.  0.
    9900012    2    3    3    0    0  0.48236799825E+01  0.42599405149E+02 -0.67562026771E+01  0.47787268644E+02  0.19999989057E+02 0.  0.
         12    1    3    3    0    0 -0.48236799825E+01 -0.42599405149E+02  0.67562026771E+01  0.43400731356E+02  0.00000000000E+00 0. -1.
         11    1    4    4    0    0 -0.22845612284E+01  0.16567429363E+02 -0.88725670485E+01  0.18932020019E+02  0.51100000000E-03 0.  1.
        -11    1    4    4    0    0 -0.78914208969E+00  0.49389149083E+00  0.19081505505E+01  0.21231374960E+01  0.51100000000E-03 0. -1.
         12    1    4    4    0    0  0.78973833006E+01  0.25538084295E+02  0.20821382086E+00  0.26732111130E+02  0.00000000000E+00 0. -1.
</event>
<event>
 8    1  0.2994958E-010  0.9118800E+02  0.7816164E-02  0.1184000E+00
        -11   -1    0    0    0    0  0.00000000000E+00  0.00000000000E+00  0.45593999997E+02  0.45594000000E+02  0.51100000000E-03 0. -1.
         11   -1    0    0    0    0 -0.00000000000E+00 -0.00000000000E+00 -0.45593999997E+02  0.45594000000E+02  0.51100000000E-03 0.  1.
         23    2    1    2    0    0 -0.71054273576E-14  0.00000000000E+00  0.00000000000E+00  0.91188000000E+02  0.91188000000E+02 0.  0.
    9900012    2    3    3    0    0 -0.33569518957E+02 -0.19653657810E+02 -0.19246930297E+02  0.47787271963E+02  0.20000004189E+02 0.  0.
         12    1    3    3    0    0  0.33569518957E+02  0.19653657810E+02  0.19246930297E+02  0.43400728037E+02  0.00000000000E+00 0. -1.
         11    1    4    4    0    0 -0.11144155956E+02 -0.66422312579E+01 -0.63775107395E+01  0.14456282079E+02  0.51100000000E-03 0. -1.
        -11    1    4    4    0    0 -0.15183693497E+02 -0.13333702927E+02 -0.20544221172E+01  0.20311396615E+02  0.51100000000E-03 0.  1.
         12    1    4    4    0    0 -0.72416695039E+01  0.32227637525E+00 -0.10814997440E+02  0.13019593269E+02  0.00000000000E+00 0. -1.
</event>
<event>
 8    1  0.2994958E-010  0.9118800E+02  0.7816164E-02  0.1184000E+00
        -11   -1    0    0    0    0  0.00000000000E+00  0.00000000000E+00  0.45593999997E+02  0.45594000000E+02  0.51100000000E-03 0. -1.
         11   -1    0    0    0    0 -0.00000000000E+00 -0.00000000000E+00 -0.45593999997E+02  0.45594000000E+02  0.51100000000E-03 0.  1.
         23    2    1    2    0    0  0.00000000000E+00 -0.88817841970E-15  0.71054273576E-14  0.91188000000E+02  0.91188000000E+02 0.  0.
    9900012    2    3    3    0    0 -0.11634273838E+02  0.18818243355E+01  0.41769914498E+02  0.47787270193E+02  0.19999996117E+02 0.  0.
        -12    1    3    3    0    0  0.11634273838E+02 -0.18818243355E+01 -0.41769914498E+02  0.43400729807E+02  0.00000000000E+00 0.  1.
         11    1    4    4    0    0 -0.43226843982E+01 -0.21240496200E+01  0.97905906868E+01  0.10911134380E+02  0.51100000000E-03 0. -1.
        -11    1    4    4    0    0 -0.18509539118E+01 -0.48047868544E+01  0.21607577434E+02  0.22212595749E+02  0.51100000000E-03 0.  1.
        -12    1    4    4    0    0 -0.54606355284E+01  0.88106608099E+01  0.10371746378E+02  0.14663540064E+02  0.00000000000E+00 0.  1.
</event>
<event>
 8    1  0.2994958E-010  0.9118800E+02  0.7816164E-02  0.1184000E+00
        -11   -1    0    0    0    0  0.00000000000E+00  0.00000000000E+00  0.45593999997E+02  0.45594000000E+02  0.51100000000E-03 0. -1.
         11   -1    0    0    0    0 -0.00000000000E+00 -0.00000000000E+00 -0.45593999997E+02  0.45594000000E+02  0.51100000000E-03 0.  1.
         23    2    1    2    0    0  0.35527136788E-14  0.17763568394E-14  0.00000000000E+00  0.91188000000E+02  0.91188000000E+02 0.  0.
    9900012    2    3    3    0    0  0.22789837617E+02  0.14697137350E+02  0.33885703741E+02  0.47787268867E+02  0.19999990070E+02 0.  0.
        -12    1    3    3    0    0 -0.22789837617E+02 -0.14697137350E+02 -0.33885703741E+02  0.43400731133E+02  0.00000000000E+00 0.  1.
         11    1    4    4    0    0  0.20557755026E+02  0.12677493975E+02  0.29469904292E+02  0.38102695501E+02  0.51100000000E-03 0. -1.
        -11    1    4    4    0    0  0.17333646285E+01  0.51575235992E+01  0.28583785363E+01  0.61461313629E+01  0.51100000000E-03 0.  1.
        -12    1    4    4    0    0  0.49871796203E+00 -0.31378802241E+01  0.15574209128E+01  0.35384420026E+01  0.00000000000E+00 0.  1.
</event>
<event>
 8    1  0.2994958E-010  0.9118800E+02  0.7816164E-02  0.1184000E+00
        -11   -1    0    0    0    0  0.00000000000E+00  0.00000000000E+00  0.45593999997E+02  0.45594000000E+02  0.51100000000E-03 0. -1.
         11   -1    0    0    0    0 -0.00000000000E+00 -0.00000000000E+00 -0.45593999997E+02  0.45594000000E+02  0.51100000000E-03 0.  1.
         23    2    1    2    0    0 -0.35527136788E-14  0.00000000000E+00  0.00000000000E+00  0.91188000000E+02  0.91188000000E+02 0.  0.
    9900012    2    3    3    0    0  0.25585837653E+02  0.12914120143E+02  0.32591545786E+02  0.47787326685E+02  0.20000253686E+02 0.  0.
        -12    1    3    3    0    0 -0.25585837653E+02 -0.12914120143E+02 -0.32591545786E+02  0.43400673315E+02  0.00000000000E+00 0.  1.
         11    1    4    4    0    0  0.12412639435E+02  0.12362090030E+02  0.19495141287E+02  0.26209834446E+02  0.51100000000E-03 0. -1.
        -11    1    4    4    0    0  0.10190056568E+02  0.12943531078E+01  0.14836282714E+02  0.18045162451E+02  0.51100000000E-03 0.  1.
        -12    1    4    4    0    0  0.29831416498E+01 -0.74232299472E+00 -0.17398782148E+01  0.35323297883E+01  0.00000000000E+00 0.  1.
</event>
<event>
 8    1  0.2994958E-010  0.9118800E+02  0.7816164E-02  0.1184000E+00
        -11   -1    0    0    0    0  0.00000000000E+00  0.00000000000E+00  0.45593999997E+02  0.45594000000E+02  0.51100000000E-03 0. -1.
         11   -1    0    0    0    0 -0.00000000000E+00 -0.00000000000E+00 -0.45593999997E+02  0.45594000000E+02  0.51100000000E-03 0.  1.
         23    2    1    2    0    0 -0.17763568394E-14 -0.35527136788E-14 -0.71054273576E-14  0.91188000000E+02  0.91188000000E+02 0.  0.
    9900012    2    3    3    0    0 -0.12952120732E+02 -0.24293739602E+02  0.33551149994E+02  0.47787275568E+02  0.20000020623E+02 0.  0.
        -12    1    3    3    0    0  0.12952120732E+02  0.24293739602E+02 -0.33551149994E+02  0.43400724432E+02  0.00000000000E+00 0.  1.
         11    1    4    4    0    0  0.13281612690E+00 -0.67629932453E+01  0.51188710920E+01  0.84828391048E+01  0.51100000000E-03 0. -1.
        -11    1    4    4    0    0 -0.10942230822E+00 -0.97535970357E+01  0.39462047653E+01  0.10522222231E+02  0.51100000000E-03 0.  1.
         12    1    4    4    0    0 -0.12975514550E+02 -0.77771493214E+01  0.24486074137E+02  0.28782214231E+02  0.00000000000E+00 0. -1.
</event>
<event>
 8    1  0.2994958E-010  0.9118800E+02  0.7816164E-02  0.1184000E+00
        -11   -1    0    0    0    0  0.00000000000E+00  0.00000000000E+00  0.45593999997E+02  0.45594000000E+02  0.51100000000E-03 0. -1.
         11   -1    0    0    0    0 -0.00000000000E+00 -0.00000000000E+00 -0.45593999997E+02  0.45594000000E+02  0.51100000000E-03 0.  1.
         23    2    1    2    0    0 -0.44408920985E-15  0.00000000000E+00  0.00000000000E+00  0.91188000000E+02  0.91188000000E+02 0.  0.
    9900012    2    3    3    0    0  0.29968817319E+01 -0.18736884991E+02 -0.39032947119E+02  0.47787272817E+02  0.20000008080E+02 0.  0.
         12    1    3    3    0    0 -0.29968817319E+01  0.18736884991E+02  0.39032947119E+02  0.43400727183E+02  0.00000000000E+00 0. -1.
         11    1    4    4    0    0  0.35904167579E+01  0.12436557725E+01 -0.12698962538E+01  0.40062961614E+01  0.51100000000E-03 0. -1.
        -11    1    4    4    0    0 -0.34029265313E+01 -0.48845108386E+01 -0.57535475839E+01  0.82789893810E+01  0.51100000000E-03 0.  1.
        -12    1    4    4    0    0  0.28093915053E+01 -0.15096029925E+02 -0.32009503281E+02  0.35501987274E+02  0.00000000000E+00 0.  1.
</event>
<event>
 8    1  0.2994958E-010  0.9118800E+02  0.7816164E-02  0.1184000E+00
        -11   -1    0    0    0    0  0.00000000000E+00  0.00000000000E+00  0.45593999997E+02  0.45594000000E+02  0.51100000000E-03 0. -1.
         11   -1    0    0    0    0 -0.00000000000E+00 -0.00000000000E+00 -0.45593999997E+02  0.45594000000E+02  0.51100000000E-03 0.  1.
         23    2    1    2    0    0  0.17763568394E-14  0.00000000000E+00  0.00000000000E+00  0.91188000000E+02  0.91188000000E+02 0.  0.
    9900012    2    3    3    0    0 -0.11551614737E+02  0.10863201911E+02  0.40400177517E+02  0.47787270718E+02  0.19999998511E+02 0.  0.
        -12    1    3    3    0    0  0.11551614737E+02 -0.10863201911E+02 -0.40400177517E+02  0.43400729282E+02  0.00000000000E+00 0.  1.
         11    1    4    4    0    0 -0.65106264710E+01 -0.27522725923E+01  0.14906128274E+02  0.16497148900E+02  0.51100000000E-03 0.  1.
        -11    1    4    4    0    0 -0.42766137034E+01  0.44082313899E+00  0.10323062142E+02  0.11182547208E+02  0.51100000000E-03 0. -1.
         12    1    4    4    0    0 -0.76437456290E+00  0.13174651365E+02  0.15170987101E+02  0.20107574609E+02  0.00000000000E+00 0. -1.
</event>
<event>
 8    1  0.2994958E-010  0.9118800E+02  0.7816164E-02  0.1184000E+00
        -11   -1    0    0    0    0  0.00000000000E+00  0.00000000000E+00  0.45593999997E+02  0.45594000000E+02  0.51100000000E-03 0. -1.
         11   -1    0    0    0    0 -0.00000000000E+00 -0.00000000000E+00 -0.45593999997E+02  0.45594000000E+02  0.51100000000E-03 0.  1.
         23    2    1    2    0    0  0.00000000000E+00  0.00000000000E+00  0.00000000000E+00  0.91188000000E+02  0.91188000000E+02 0.  0.
    9900012    2    3    3    0    0  0.32726276469E+02  0.45326891519E+01 -0.28143720783E+02  0.47787268877E+02  0.19999990118E+02 0.  0.
         12    1    3    3    0    0 -0.32726276469E+02 -0.45326891519E+01  0.28143720783E+02  0.43400731123E+02  0.00000000000E+00 0. -1.
         11    1    4    4    0    0  0.22836066950E+01  0.33447643268E+00  0.18924054507E+01  0.29846160008E+01  0.51100000000E-03 0. -1.
        -11    1    4    4    0    0  0.12245134652E+02 -0.21608397559E+01 -0.54907825241E+01  0.13592690833E+02  0.51100000000E-03 0.  1.
        -12    1    4    4    0    0  0.18197535122E+02  0.63590524751E+01 -0.24545343710E+02  0.31209962043E+02  0.00000000000E+00 0.  1.
</event>
<event>
 8    1  0.2994958E-010  0.9118800E+02  0.7816164E-02  0.1184000E+00
        -11   -1    0    0    0    0  0.00000000000E+00  0.00000000000E+00  0.45593999997E+02  0.45594000000E+02  0.51100000000E-03 0. -1.
         11   -1    0    0    0    0 -0.00000000000E+00 -0.00000000000E+00 -0.45593999997E+02  0.45594000000E+02  0.51100000000E-03 0.  1.
         23    2    1    2    0    0  0.00000000000E+00  0.00000000000E+00  0.88817841970E-15  0.91188000000E+02  0.91188000000E+02 0.  0.
    9900012    2    3    3    0    0 -0.42632028299E+02 -0.62890811664E+01  0.51557483508E+01  0.47787261298E+02  0.19999955563E+02 0.  0.
        -12    1    3    3    0    0  0.42632028299E+02  0.62890811664E+01 -0.51557483508E+01  0.43400738702E+02  0.00000000000E+00 0.  1.
         11    1    4    4    0    0 -0.15092304682E+02  0.42930814631E+01  0.64117990255E+01  0.16950497812E+02  0.51100000000E-03 0. -1.
        -11    1    4    4    0    0  0.27288225616E-01 -0.18423651023E+01 -0.49320175066E+00  0.19074333659E+01  0.51100000000E-03 0.  1.
        -12    1    4    4    0    0 -0.27567011842E+02 -0.87397975273E+01 -0.76284892405E+00  0.28929330120E+02  0.00000000000E+00 0.  1.
</event>
<event>
 8    1  0.2994958E-010  0.9118800E+02  0.7816164E-02  0.1184000E+00
        -11   -1    0    0    0    0  0.00000000000E+00  0.00000000000E+00  0.45593999997E+02  0.45594000000E+02  0.51100000000E-03 0. -1.
         11   -1    0    0    0    0 -0.00000000000E+00 -0.00000000000E+00 -0.45593999997E+02  0.45594000000E+02  0.51100000000E-03 0.  1.
         23    2    1    2    0    0  0.17763568394E-14  0.00000000000E+00  0.00000000000E+00  0.91188000000E+02  0.91188000000E+02 0.  0.
    9900012    2    3    3    0    0 -0.11883662838E+02 -0.43508636638E+01  0.41514718389E+02  0.47787270744E+02  0.19999998629E+02 0.  0.
        -12    1    3    3    0    0  0.11883662838E+02  0.43508636638E+01 -0.41514718389E+02  0.43400729256E+02  0.00000000000E+00 0.  1.
         11    1    4    4    0    0 -0.26826925794E+01 -0.22151526023E+01  0.30275338697E+01  0.46119087285E+01  0.51100000000E-03 0. -1.
        -11    1    4    4    0    0  0.42642044009E+01 -0.39542518820E+01  0.91069526028E+01  0.10805375194E+02  0.51100000000E-03 0.  1.
        -12    1    4    4    0    0 -0.13465174660E+02  0.18185408205E+01  0.29380231916E+02  0.32369986821E+02  0.00000000000E+00 0.  1.
</event>
<event>
 8    1  0.2994958E-010  0.9118800E+02  0.7816164E-02  0.1184000E+00
        -11   -1    0    0    0    0  0.00000000000E+00  0.00000000000E+00  0.45593999997E+02  0.45594000000E+02  0.51100000000E-03 0. -1.
         11   -1    0    0    0    0 -0.00000000000E+00 -0.00000000000E+00 -0.45593999997E+02  0.45594000000E+02  0.51100000000E-03 0.  1.
         23    2    1    2    0    0  0.00000000000E+00  0.00000000000E+00  0.71054273576E-14  0.91188000000E+02  0.91188000000E+02 0.  0.
    9900012    2    3    3    0    0  0.78420484304E+01  0.24369477279E+02 -0.35046465853E+02  0.47787263656E+02  0.19999966313E+02 0.  0.
         12    1    3    3    0    0 -0.78420484304E+01 -0.24369477279E+02  0.35046465853E+02  0.43400736344E+02  0.00000000000E+00 0. -1.
         11    1    4    4    0    0  0.92935008701E+00  0.61936872660E+01 -0.18348476761E+01  0.65262638461E+01  0.51100000000E-03 0. -1.
        -11    1    4    4    0    0  0.94767647910E+00  0.18433627625E+02 -0.26247854020E+02  0.32088106193E+02  0.51100000000E-03 0.  1.
         12    1    4    4    0    0  0.59650218643E+01 -0.25783761229E+00 -0.69637641572E+01  0.91728936172E+01  0.00000000000E+00 0. -1.
</event>
<event>
 8    1  0.2994958E-010  0.9118800E+02  0.7816164E-02  0.1184000E+00
        -11   -1    0    0    0    0  0.00000000000E+00  0.00000000000E+00  0.45593999997E+02  0.45594000000E+02  0.51100000000E-03 0. -1.
         11   -1    0    0    0    0 -0.00000000000E+00 -0.00000000000E+00 -0.45593999997E+02  0.45594000000E+02  0.51100000000E-03 0.  1.
         23    2    1    2    0    0  0.35527136788E-14 -0.35527136788E-14 -0.88817841970E-15  0.91188000000E+02  0.91188000000E+02 0.  0.
    9900012    2    3    3    0    0  0.30937041740E+02 -0.29727985101E+02 -0.65398766215E+01  0.47787266873E+02  0.19999980980E+02 0.  0.
         12    1    3    3    0    0 -0.30937041740E+02  0.29727985101E+02  0.65398766215E+01  0.43400733127E+02  0.00000000000E+00 0. -1.
         11    1    4    4    0    0  0.22958111499E+01 -0.49157839042E+01 -0.87076668896E+00  0.54948990088E+01  0.51100000000E-03 0. -1.
        -11    1    4    4    0    0  0.10083582348E+02 -0.83931075576E+00  0.33570008412E+01  0.10660794080E+02  0.51100000000E-03 0.  1.
        -12    1    4    4    0    0  0.18557648242E+02 -0.23972890441E+02 -0.90261107737E+01  0.31631573784E+02  0.00000000000E+00 0.  1.
</event>
<event>
 8    1  0.3321131E-010  0.9118800E+02  0.7816164E-02  0.1184000E+00
        -11   -1    0    0    0    0  0.00000000000E+00  0.00000000000E+00  0.45593999997E+02  0.45594000000E+02  0.51100000000E-03 0. -1.
         11   -1    0    0    0    0 -0.00000000000E+00 -0.00000000000E+00 -0.45593999997E+02  0.45594000000E+02  0.51100000000E-03 0.  1.
         23    2    1    2    0    0  0.35527136788E-14  0.00000000000E+00  0.00000000000E+00  0.91188000000E+02  0.91188000000E+02 0.  0.
    9900012    2    3    3    0    0 -0.19390433981E+02  0.17604137683E+02  0.34608261838E+02  0.47787235249E+02  0.19999836794E+02 0.  0.
        -12    1    3    3    0    0  0.19390433981E+02 -0.17604137683E+02 -0.34608261838E+02  0.43400764751E+02  0.00000000000E+00 0.  1.
         11    1    4    4    0    0 -0.44182460598E+01  0.27855953543E+01  0.14570644609E+02  0.15478505235E+02  0.51100000000E-03 0. -1.
        -11    1    4    4    0    0  0.20792037557E+01 -0.71358853845E+00  0.25302171691E+01  0.33517601411E+01  0.51100000000E-03 0.  1.
         12    1    4    4    0    0 -0.17051391677E+02  0.15532130867E+02  0.17507400060E+02  0.28956969873E+02  0.00000000000E+00 0. -1.
</event>
<event>
 8    1  0.2994958E-010  0.9118800E+02  0.7816164E-02  0.1184000E+00
        -11   -1    0    0    0    0  0.00000000000E+00  0.00000000000E+00  0.45593999997E+02  0.45594000000E+02  0.51100000000E-03 0. -1.
         11   -1    0    0    0    0 -0.00000000000E+00 -0.00000000000E+00 -0.45593999997E+02  0.45594000000E+02  0.51100000000E-03 0.  1.
         23    2    1    2    0    0  0.00000000000E+00 -0.88817841970E-15  0.00000000000E+00  0.91188000000E+02  0.91188000000E+02 0.  0.
    9900012    2    3    3    0    0 -0.16197628091E+02 -0.61265152913E+01 -0.39796061794E+02  0.47787264065E+02  0.19999968179E+02 0.  0.
         12    1    3    3    0    0  0.16197628091E+02  0.61265152913E+01  0.39796061794E+02  0.43400735935E+02  0.00000000000E+00 0. -1.
         11    1    4    4    0    0 -0.95884473496E+01 -0.20529683017E+01 -0.35347128192E+01  0.10423396586E+02  0.51100000000E-03 0. -1.
        -11    1    4    4    0    0 -0.11221814568E+01 -0.32740971637E+01 -0.13424218613E+02  0.13863212077E+02  0.51100000000E-03 0.  1.
        -12    1    4    4    0    0 -0.54869992843E+01 -0.79944982590E+00 -0.22837130361E+02  0.23500655402E+02  0.00000000000E+00 0.  1.
</event>
<event>
 8    1  0.2994958E-010  0.9118800E+02  0.7816164E-02  0.1184000E+00
        -11   -1    0    0    0    0  0.00000000000E+00  0.00000000000E+00  0.45593999997E+02  0.45594000000E+02  0.51100000000E-03 0. -1.
         11   -1    0    0    0    0 -0.00000000000E+00 -0.00000000000E+00 -0.45593999997E+02  0.45594000000E+02  0.51100000000E-03 0.  1.
         23    2    1    2    0    0  0.88817841970E-15  0.00000000000E+00  0.00000000000E+00  0.91188000000E+02  0.91188000000E+02 0.  0.
    9900012    2    3    3    0    0 -0.75540291149E+01  0.31251457821E+02  0.29153149906E+02  0.47787272803E+02  0.20000008019E+02 0.  0.
        -12    1    3    3    0    0  0.75540291149E+01 -0.31251457821E+02 -0.29153149906E+02  0.43400727197E+02  0.00000000000E+00 0.  1.
         11    1    4    4    0    0  0.34257935284E+01  0.82796611173E+01  0.51057930929E+01  0.10313000188E+02  0.51100000000E-03 0. -1.
        -11    1    4    4    0    0 -0.29539205181E+01  0.15579580808E+02  0.20670499389E+02  0.26052226965E+02  0.51100000000E-03 0.  1.
        -12    1    4    4    0    0 -0.80259021252E+01  0.73922158957E+01  0.33768574237E+01  0.11422045650E+02  0.00000000000E+00 0.  1.
</event>
<event>
 8    1  0.2994958E-010  0.9118800E+02  0.7816164E-02  0.1184000E+00
        -11   -1    0    0    0    0  0.00000000000E+00  0.00000000000E+00  0.45593999997E+02  0.45594000000E+02  0.51100000000E-03 0. -1.
         11   -1    0    0    0    0 -0.00000000000E+00 -0.00000000000E+00 -0.45593999997E+02  0.45594000000E+02  0.51100000000E-03 0.  1.
         23    2    1    2    0    0 -0.35527136788E-14  0.88817841970E-15  0.00000000000E+00  0.91188000000E+02  0.91188000000E+02 0.  0.
    9900012    2    3    3    0    0 -0.28820679933E+02 -0.51115800172E+01  0.32044706408E+02  0.47787273614E+02  0.20000011717E+02 0.  0.
        -12    1    3    3    0    0  0.28820679933E+02  0.51115800172E+01 -0.32044706408E+02  0.43400726386E+02  0.00000000000E+00 0.  1.
         11    1    4    4    0    0 -0.15271545468E+02  0.23929272027E+01  0.16643918733E+02  0.22714890108E+02  0.51100000000E-03 0. -1.
        -11    1    4    4    0    0 -0.90628364184E+01  0.12855451466E+00  0.24582543402E+01  0.93911950715E+01  0.51100000000E-03 0.  1.
        -12    1    4    4    0    0 -0.44862980466E+01 -0.76330617345E+01  0.12942533335E+02  0.15681188435E+02  0.00000000000E+00 0.  1.
</event>
<event>
 8    1  0.2994958E-010  0.9118800E+02  0.7816164E-02  0.1184000E+00
        -11   -1    0    0    0    0  0.00000000000E+00  0.00000000000E+00  0.45593999997E+02  0.45594000000E+02  0.51100000000E-03 0. -1.
         11   -1    0    0    0    0 -0.00000000000E+00 -0.00000000000E+00 -0.45593999997E+02  0.45594000000E+02  0.51100000000E-03 0.  1.
         23    2    1    2    0    0  0.35527136788E-14 -0.71054273576E-14  0.17763568394E-14  0.91188000000E+02  0.91188000000E+02 0.  0.
    9900012    2    3    3    0    0  0.26591366079E+02 -0.31767531149E+02  0.12936261280E+02  0.47787266813E+02  0.19999980708E+02 0.  0.
        -12    1    3    3    0    0 -0.26591366079E+02  0.31767531149E+02 -0.12936261280E+02  0.43400733187E+02  0.00000000000E+00 0.  1.
         11    1    4    4    0    0 -0.88172242979E-01 -0.80172049252E+01  0.26010846374E+01  0.84290563356E+01  0.51100000000E-03 0. -1.
        -11    1    4    4    0    0  0.87794480587E+01 -0.16314090112E+02  0.62221478500E+01  0.19543371472E+02  0.51100000000E-03 0.  1.
        -12    1    4    4    0    0  0.17900090263E+02 -0.74362361125E+01  0.41130287925E+01  0.19814839005E+02  0.00000000000E+00 0.  1.
</event>
<event>
 8    1  0.2994958E-010  0.9118800E+02  0.7816164E-02  0.1184000E+00
        -11   -1    0    0    0    0  0.00000000000E+00  0.00000000000E+00  0.45593999997E+02  0.45594000000E+02  0.51100000000E-03 0. -1.
         11   -1    0    0    0    0 -0.00000000000E+00 -0.00000000000E+00 -0.45593999997E+02  0.45594000000E+02  0.51100000000E-03 0.  1.
         23    2    1    2    0    0 -0.17763568394E-14 -0.44408920985E-15  0.00000000000E+00  0.91188000000E+02  0.91188000000E+02 0.  0.
    9900012    2    3    3    0    0 -0.11541681784E+02 -0.14640066517E+01 -0.41812334187E+02  0.47787250882E+02  0.19999908071E+02 0.  0.
         12    1    3    3    0    0  0.11541681784E+02  0.14640066517E+01  0.41812334187E+02  0.43400749118E+02  0.00000000000E+00 0. -1.
         11    1    4    4    0    0  0.89376359702E+00  0.31830296906E+01 -0.18691033948E+02  0.18981181251E+02  0.51100000000E-03 0. -1.
        -11    1    4    4    0    0 -0.95308198247E+01  0.70561837281E+00 -0.19512302364E+02  0.21727042312E+02  0.51100000000E-03 0.  1.
        -12    1    4    4    0    0 -0.29046255562E+01 -0.53526547151E+01 -0.36089978743E+01  0.70790273186E+01  0.00000000000E+00 0.  1.
</event>
<event>
 8    1  0.2994958E-010  0.9118800E+02  0.7816164E-02  0.1184000E+00
        -11   -1    0    0    0    0  0.00000000000E+00  0.00000000000E+00  0.45593999997E+02  0.45594000000E+02  0.51100000000E-03 0. -1.
         11   -1    0    0    0    0 -0.00000000000E+00 -0.00000000000E+00 -0.45593999997E+02  0.45594000000E+02  0.51100000000E-03 0.  1.
         23    2    1    2    0    0  0.17763568394E-14  0.00000000000E+00  0.00000000000E+00  0.91188000000E+02  0.91188000000E+02 0.  0.
    9900012    2    3    3    0    0  0.80207740051E+01 -0.19010353854E+02 -0.38182449683E+02  0.47787241561E+02  0.19999865573E+02 0.  0.
         12    1    3    3    0    0 -0.80207740051E+01  0.19010353854E+02  0.38182449683E+02  0.43400758439E+02  0.00000000000E+00 0. -1.
         11    1    4    4    0    0  0.25434713700E+01  0.40793587695E+00 -0.51345205153E+01  0.57444720795E+01  0.51100000000E-03 0. -1.
        -11    1    4    4    0    0  0.31267196035E+01 -0.32586376766E+01 -0.21681049333E+02  0.22146399152E+02  0.51100000000E-03 0.  1.
         12    1    4    4    0    0  0.23505830317E+01 -0.16159652054E+02 -0.11366879835E+02  0.19896370329E+02  0.00000000000E+00 0. -1.
</event>
<event>
 8    1  0.2994958E-010  0.9118800E+02  0.7816164E-02  0.1184000E+00
        -11   -1    0    0    0    0  0.00000000000E+00  0.00000000000E+00  0.45593999997E+02  0.45594000000E+02  0.51100000000E-03 0. -1.
         11   -1    0    0    0    0 -0.00000000000E+00 -0.00000000000E+00 -0.45593999997E+02  0.45594000000E+02  0.51100000000E-03 0.  1.
         23    2    1    2    0    0  0.00000000000E+00  0.00000000000E+00  0.00000000000E+00  0.91188000000E+02  0.91188000000E+02 0.  0.
    9900012    2    3    3    0    0 -0.13733683317E+02 -0.20347158200E+02 -0.35791097421E+02  0.47787267761E+02  0.19999985030E+02 0.  0.
         12    1    3    3    0    0  0.13733683317E+02  0.20347158200E+02  0.35791097421E+02  0.43400732239E+02  0.00000000000E+00 0. -1.
         11    1    4    4    0    0 -0.18031297885E+02 -0.15487453203E+02 -0.31425467766E+02  0.39402397576E+02  0.51100000000E-03 0. -1.
        -11    1    4    4    0    0  0.35277024554E+00  0.41483923155E+00 -0.54495589101E+00  0.77039964852E+00  0.51100000000E-03 0.  1.
         12    1    4    4    0    0  0.39448443224E+01 -0.52745442280E+01 -0.38206737639E+01  0.76144705365E+01  0.00000000000E+00 0. -1.
</event>
<event>
 8    1  0.2994958E-010  0.9118800E+02  0.7816164E-02  0.1184000E+00
        -11   -1    0    0    0    0  0.00000000000E+00  0.00000000000E+00  0.45593999997E+02  0.45594000000E+02  0.51100000000E-03 0. -1.
         11   -1    0    0    0    0 -0.00000000000E+00 -0.00000000000E+00 -0.45593999997E+02  0.45594000000E+02  0.51100000000E-03 0.  1.
         23    2    1    2    0    0  0.00000000000E+00  0.00000000000E+00  0.00000000000E+00  0.91188000000E+02  0.91188000000E+02 0.  0.
    9900012    2    3    3    0    0 -0.12716653275E+02 -0.34452097719E+02 -0.23129267297E+02  0.47787270588E+02  0.19999997919E+02 0.  0.
         12    1    3    3    0    0  0.12716653275E+02  0.34452097719E+02  0.23129267297E+02  0.43400729412E+02  0.00000000000E+00 0. -1.
         11    1    4    4    0    0 -0.23441659284E+00 -0.92275390482E+01 -0.14317186589E+02  0.17034795570E+02  0.51100000000E-03 0. -1.
        -11    1    4    4    0    0  0.11988718608E+01 -0.85263090359E+00 -0.90229148600E-01  0.14739113802E+01  0.51100000000E-03 0.  1.
        -12    1    4    4    0    0 -0.13681108543E+02 -0.24371927768E+02 -0.87218515601E+01  0.29278563638E+02  0.00000000000E+00 0.  1.
</event>
<event>
 8    1  0.2994958E-010  0.9118800E+02  0.7816164E-02  0.1184000E+00
        -11   -1    0    0    0    0  0.00000000000E+00  0.00000000000E+00  0.45593999997E+02  0.45594000000E+02  0.51100000000E-03 0. -1.
         11   -1    0    0    0    0 -0.00000000000E+00 -0.00000000000E+00 -0.45593999997E+02  0.45594000000E+02  0.51100000000E-03 0.  1.
         23    2    1    2    0    0  0.00000000000E+00  0.00000000000E+00  0.00000000000E+00  0.91188000000E+02  0.91188000000E+02 0.  0.
    9900012    2    3    3    0    0 -0.53836490305E+01 -0.32854800188E+01 -0.42940018856E+02  0.47787271029E+02  0.19999999929E+02 0.  0.
         12    1    3    3    0    0  0.53836490305E+01  0.32854800188E+01  0.42940018856E+02  0.43400728971E+02  0.00000000000E+00 0. -1.
         11    1    4    4    0    0 -0.19560727610E+01 -0.34539819697E+01 -0.15178905031E+01  0.42497298660E+01  0.51100000000E-03 0. -1.
        -11    1    4    4    0    0 -0.36143362335E+00 -0.61384836141E+01 -0.23528815857E+02  0.24319062302E+02  0.51100000000E-03 0.  1.
        -12    1    4    4    0    0 -0.30661426461E+01  0.63069855650E+01 -0.17893312496E+02  0.19218478861E+02  0.00000000000E+00 0.  1.
</event>
<event>
 8    1  0.2994958E-010  0.9118800E+02  0.7816164E-02  0.1184000E+00
        -11   -1    0    0    0    0  0.00000000000E+00  0.00000000000E+00  0.45593999997E+02  0.45594000000E+02  0.51100000000E-03 0. -1.
         11   -1    0    0    0    0 -0.00000000000E+00 -0.00000000000E+00 -0.45593999997E+02  0.45594000000E+02  0.51100000000E-03 0.  1.
         23    2    1    2    0    0  0.17763568394E-14  0.17763568394E-14  0.00000000000E+00  0.91188000000E+02  0.91188000000E+02 0.  0.
    9900012    2    3    3    0    0  0.14271050132E+02  0.10153119743E+02 -0.39709878336E+02  0.47787272474E+02  0.20000006517E+02 0.  0.
         12    1    3    3    0    0 -0.14271050132E+02 -0.10153119743E+02  0.39709878336E+02  0.43400727526E+02  0.00000000000E+00 0. -1.
         11    1    4    4    0    0 -0.11557631901E+01  0.67949356444E+00 -0.79844862135E+00  0.15604552277E+01  0.51100000000E-03 0. -1.
        -11    1    4    4    0    0  0.98320011196E+00  0.97159017244E+01 -0.21422617941E+02  0.23543448950E+02  0.51100000000E-03 0.  1.
         12    1    4    4    0    0  0.14443613210E+02 -0.24227554629E+00 -0.17488811773E+02  0.22683368296E+02  0.00000000000E+00 0. -1.
</event>
<event>
 8    1  0.2994958E-010  0.9118800E+02  0.7816164E-02  0.1184000E+00
        -11   -1    0    0    0    0  0.00000000000E+00  0.00000000000E+00  0.45593999997E+02  0.45594000000E+02  0.51100000000E-03 0.  1.
         11   -1    0    0    0    0 -0.00000000000E+00 -0.00000000000E+00 -0.45593999997E+02  0.45594000000E+02  0.51100000000E-03 0. -1.
         23    2    1    2    0    0  0.00000000000E+00 -0.11102230246E-15  0.00000000000E+00  0.91188000000E+02  0.91188000000E+02 0.  0.
    9900012    2    3    3    0    0 -0.41916619170E+02 -0.87149860160E+00 -0.11218767899E+02  0.47787271600E+02  0.20000002532E+02 0.  0.
         12    1    3    3    0    0  0.41916619170E+02  0.87149860160E+00  0.11218767899E+02  0.43400728400E+02  0.00000000000E+00 0. -1.
         11    1    4    4    0    0 -0.60162522123E+01 -0.13596382931E+01  0.67518585745E+00  0.62048193505E+01  0.51100000000E-03 0. -1.
        -11    1    4    4    0    0 -0.18444429024E+02  0.87176562450E+01 -0.43350869817E+01  0.20856353273E+02  0.51100000000E-03 0.  1.
        -12    1    4    4    0    0 -0.17455937934E+02 -0.82295165535E+01 -0.75588667753E+01  0.20726098976E+02  0.00000000000E+00 0.  1.
</event>
<event>
 8    1  0.2994958E-010  0.9118800E+02  0.7816164E-02  0.1184000E+00
        -11   -1    0    0    0    0  0.00000000000E+00  0.00000000000E+00  0.45593999997E+02  0.45594000000E+02  0.51100000000E-03 0. -1.
         11   -1    0    0    0    0 -0.00000000000E+00 -0.00000000000E+00 -0.45593999997E+02  0.45594000000E+02  0.51100000000E-03 0.  1.
         23    2    1    2    0    0  0.00000000000E+00  0.00000000000E+00  0.00000000000E+00  0.91188000000E+02  0.91188000000E+02 0.  0.
    9900012    2    3    3    0    0  0.38015516232E+02  0.55206407590E+01 -0.20198165753E+02  0.47787275945E+02  0.20000022343E+02 0.  0.
         12    1    3    3    0    0 -0.38015516232E+02 -0.55206407590E+01  0.20198165753E+02  0.43400724055E+02  0.00000000000E+00 0. -1.
         11    1    4    4    0    0  0.54758347427E+01  0.13720819615E+01  0.28945461884E+00  0.56525356501E+01  0.51100000000E-03 0. -1.
        -11    1    4    4    0    0  0.28817250112E+02 -0.36230141343E+00 -0.21805987001E+02  0.36139538399E+02  0.51100000000E-03 0.  1.
        -12    1    4    4    0    0  0.37224313772E+01  0.45108602109E+01  0.13183666299E+01  0.59952018958E+01  0.00000000000E+00 0.  1.
</event>
<event>
 8    1  0.2994958E-010  0.9118800E+02  0.7816164E-02  0.1184000E+00
        -11   -1    0    0    0    0  0.00000000000E+00  0.00000000000E+00  0.45593999997E+02  0.45594000000E+02  0.51100000000E-03 0.  1.
         11   -1    0    0    0    0 -0.00000000000E+00 -0.00000000000E+00 -0.45593999997E+02  0.45594000000E+02  0.51100000000E-03 0. -1.
         23    2    1    2    0    0  0.44408920985E-15  0.00000000000E+00  0.44408920985E-15  0.91188000000E+02  0.91188000000E+02 0.  0.
    9900012    2    3    3    0    0 -0.35806385679E+01  0.43180587881E+02 -0.24978323199E+01  0.47787270644E+02  0.19999998175E+02 0.  0.
         12    1    3    3    0    0  0.35806385679E+01 -0.43180587881E+02  0.24978323199E+01  0.43400729356E+02  0.00000000000E+00 0. -1.
         11    1    4    4    0    0  0.65990046994E+01  0.14993813297E+02 -0.65534315438E+00  0.16394839893E+02  0.51100000000E-03 0. -1.
        -11    1    4    4    0    0 -0.25920575293E+01  0.14270473744E+02 -0.47816259352E+01  0.15271841079E+02  0.51100000000E-03 0.  1.
        -12    1    4    4    0    0 -0.75875857380E+01  0.13916300840E+02  0.29391367697E+01  0.16120589672E+02  0.00000000000E+00 0.  1.
</event>
<event>
 8    1  0.2994958E-010  0.9118800E+02  0.7816164E-02  0.1184000E+00
        -11   -1    0    0    0    0  0.00000000000E+00  0.00000000000E+00  0.45593999997E+02  0.45594000000E+02  0.51100000000E-03 0. -1.
         11   -1    0    0    0    0 -0.00000000000E+00 -0.00000000000E+00 -0.45593999997E+02  0.45594000000E+02  0.51100000000E-03 0.  1.
         23    2    1    2    0    0  0.00000000000E+00  0.00000000000E+00  0.00000000000E+00  0.91188000000E+02  0.91188000000E+02 0.  0.
    9900012    2    3    3    0    0  0.32678891673E+02  0.97973607295E+01 -0.26827688790E+02  0.47787272771E+02  0.20000007870E+02 0.  0.
         12    1    3    3    0    0 -0.32678891673E+02 -0.97973607295E+01  0.26827688790E+02  0.43400727229E+02  0.00000000000E+00 0. -1.
         11    1    4    4    0    0  0.15430293775E+01 -0.14571016220E+01 -0.51255994857E+01  0.55475990433E+01  0.51100000000E-03 0. -1.
        -11    1    4    4    0    0  0.22905631665E+01  0.55472551409E+01 -0.74401404041E+01  0.95589962189E+01  0.51100000000E-03 0.  1.
        -12    1    4    4    0    0  0.28845299129E+02  0.57072072107E+01 -0.14261948901E+02  0.32680677508E+02  0.00000000000E+00 0.  1.
</event>
<event>
 8    1  0.2994958E-010  0.9118800E+02  0.7816164E-02  0.1184000E+00
        -11   -1    0    0    0    0  0.00000000000E+00  0.00000000000E+00  0.45593999997E+02  0.45594000000E+02  0.51100000000E-03 0.  1.
         11   -1    0    0    0    0 -0.00000000000E+00 -0.00000000000E+00 -0.45593999997E+02  0.45594000000E+02  0.51100000000E-03 0. -1.
         23    2    1    2    0    0  0.00000000000E+00  0.00000000000E+00  0.00000000000E+00  0.91188000000E+02  0.91188000000E+02 0.  0.
    9900012    2    3    3    0    0  0.29732226853E+02  0.26133282487E+02 -0.17795221267E+02  0.47787266514E+02  0.19999979345E+02 0.  0.
         12    1    3    3    0    0 -0.29732226853E+02 -0.26133282487E+02  0.17795221267E+02  0.43400733486E+02  0.00000000000E+00 0. -1.
         11    1    4    4    0    0  0.24800037181E+01  0.23615599415E+00 -0.40579676309E+01  0.47616477872E+01  0.51100000000E-03 0. -1.
        -11    1    4    4    0    0  0.48192345371E+01  0.58913957196E+01  0.34983695104E+01  0.83768821492E+01  0.51100000000E-03 0.  1.
         12    1    4    4    0    0  0.22432988598E+02  0.20005730773E+02 -0.17235623146E+02  0.34648736578E+02  0.00000000000E+00 0. -1.
</event>
<event>
 8    1  0.2994958E-010  0.9118800E+02  0.7816164E-02  0.1184000E+00
        -11   -1    0    0    0    0  0.00000000000E+00  0.00000000000E+00  0.45593999997E+02  0.45594000000E+02  0.51100000000E-03 0. -1.
         11   -1    0    0    0    0 -0.00000000000E+00 -0.00000000000E+00 -0.45593999997E+02  0.45594000000E+02  0.51100000000E-03 0.  1.
         23    2    1    2    0    0  0.00000000000E+00  0.00000000000E+00  0.88817841970E-15  0.91188000000E+02  0.91188000000E+02 0.  0.
    9900012    2    3    3    0    0  0.26750449510E+02  0.33761541039E+02  0.53098507412E+01  0.47787277458E+02  0.20000029241E+02 0.  0.
        -12    1    3    3    0    0 -0.26750449510E+02 -0.33761541039E+02 -0.53098507412E+01  0.43400722542E+02  0.00000000000E+00 0.  1.
         11    1    4    4    0    0  0.71734002117E+01  0.98859884370E+01  0.82078837603E+01  0.14715970714E+02  0.51100000000E-03 0. -1.
        -11    1    4    4    0    0  0.88283875481E+00  0.88228630125E+01  0.21203708775E+00  0.88694574801E+01  0.51100000000E-03 0.  1.
         12    1    4    4    0    0  0.18694210543E+02  0.15052689589E+02 -0.31100701069E+01  0.24201849264E+02  0.00000000000E+00 0. -1.
</event>
<event>
 8    1  0.2994958E-010  0.9118800E+02  0.7816164E-02  0.1184000E+00
        -11   -1    0    0    0    0  0.00000000000E+00  0.00000000000E+00  0.45593999997E+02  0.45594000000E+02  0.51100000000E-03 0. -1.
         11   -1    0    0    0    0 -0.00000000000E+00 -0.00000000000E+00 -0.45593999997E+02  0.45594000000E+02  0.51100000000E-03 0.  1.
         23    2    1    2    0    0  0.00000000000E+00 -0.17763568394E-14  0.71054273576E-14  0.91188000000E+02  0.91188000000E+02 0.  0.
    9900012    2    3    3    0    0 -0.56261420805E+01  0.15236429739E+02 -0.40247001499E+02  0.47787269642E+02  0.19999993608E+02 0.  0.
         12    1    3    3    0    0  0.56261420805E+01 -0.15236429739E+02  0.40247001499E+02  0.43400730358E+02  0.00000000000E+00 0. -1.
         11    1    4    4    0    0 -0.57273614576E+01 -0.70144500455E-01 -0.17426196128E+02  0.18343388489E+02  0.51100000000E-03 0. -1.
        -11    1    4    4    0    0 -0.39412433200E+00  0.36084438418E+01 -0.14831493174E+02  0.15269230202E+02  0.51100000000E-03 0.  1.
        -12    1    4    4    0    0  0.49534370915E+00  0.11698130398E+02 -0.79893121972E+01  0.14174650951E+02  0.00000000000E+00 0.  1.
</event>
<event>
 8    1  0.2994958E-010  0.9118800E+02  0.7816164E-02  0.1184000E+00
        -11   -1    0    0    0    0  0.00000000000E+00  0.00000000000E+00  0.45593999997E+02  0.45594000000E+02  0.51100000000E-03 0.  1.
         11   -1    0    0    0    0 -0.00000000000E+00 -0.00000000000E+00 -0.45593999997E+02  0.45594000000E+02  0.51100000000E-03 0. -1.
         23    2    1    2    0    0 -0.71054273576E-14  0.17763568394E-14  0.00000000000E+00  0.91188000000E+02  0.91188000000E+02 0.  0.
    9900012    2    3    3    0    0 -0.40491255711E+02  0.81355892163E+01 -0.13337698035E+02  0.47787265101E+02  0.19999972900E+02 0.  0.
        -12    1    3    3    0    0  0.40491255711E+02 -0.81355892163E+01  0.13337698035E+02  0.43400734899E+02  0.00000000000E+00 0.  1.
         11    1    4    4    0    0 -0.55836108916E+01  0.13947682870E+01 -0.33031647312E+01  0.66357355783E+01  0.51100000000E-03 0. -1.
        -11    1    4    4    0    0  0.19248290599E+01  0.19846537623E+01 -0.51053567796E+00  0.28114879345E+01  0.51100000000E-03 0.  1.
        -12    1    4    4    0    0 -0.36832473879E+02  0.47561671669E+01 -0.95239976260E+01  0.38340041588E+02  0.00000000000E+00 0.  1.
</event>
<event>
 8    1  0.2994958E-010  0.9118800E+02  0.7816164E-02  0.1184000E+00
        -11   -1    0    0    0    0  0.00000000000E+00  0.00000000000E+00  0.45593999997E+02  0.45594000000E+02  0.51100000000E-03 0. -1.
         11   -1    0    0    0    0 -0.00000000000E+00 -0.00000000000E+00 -0.45593999997E+02  0.45594000000E+02  0.51100000000E-03 0.  1.
         23    2    1    2    0    0 -0.44408920985E-15 -0.88817841970E-15  0.00000000000E+00  0.91188000000E+02  0.91188000000E+02 0.  0.
    9900012    2    3    3    0    0  0.25039177707E+01 -0.62144784589E+01  0.42880462996E+02  0.47787268975E+02  0.19999990566E+02 0.  0.
        -12    1    3    3    0    0 -0.25039177707E+01  0.62144784589E+01 -0.42880462996E+02  0.43400731025E+02  0.00000000000E+00 0.  1.
         11    1    4    4    0    0  0.67849233901E+01  0.47489158657E+00  0.15752540479E+02  0.17158182865E+02  0.51100000000E-03 0. -1.
        -11    1    4    4    0    0 -0.14770582413E+01  0.17299728112E+01  0.20799211916E+00  0.22842434105E+01  0.51100000000E-03 0.  1.
         12    1    4    4    0    0 -0.28039473782E+01 -0.84193428567E+01  0.26919930398E+02  0.28344842700E+02  0.00000000000E+00 0. -1.
</event>
<event>
 8    1  0.2994958E-010  0.9118800E+02  0.7816164E-02  0.1184000E+00
        -11   -1    0    0    0    0  0.00000000000E+00  0.00000000000E+00  0.45593999997E+02  0.45594000000E+02  0.51100000000E-03 0. -1.
         11   -1    0    0    0    0 -0.00000000000E+00 -0.00000000000E+00 -0.45593999997E+02  0.45594000000E+02  0.51100000000E-03 0.  1.
         23    2    1    2    0    0  0.00000000000E+00  0.00000000000E+00  0.00000000000E+00  0.91188000000E+02  0.91188000000E+02 0.  0.
    9900012    2    3    3    0    0 -0.35403985758E+02  0.90331612472E+01 -0.23421854587E+02  0.47787268647E+02  0.19999989069E+02 0.  0.
         12    1    3    3    0    0  0.35403985758E+02 -0.90331612472E+01  0.23421854587E+02  0.43400731353E+02  0.00000000000E+00 0. -1.
         11    1    4    4    0    0 -0.12156337947E+02 -0.70141281079E+00 -0.23761541064E+01  0.12406233949E+02  0.51100000000E-03 0.  1.
        -11    1    4    4    0    0 -0.23403445142E+02  0.60384797550E+01 -0.15494112644E+02  0.28709789431E+02  0.51100000000E-03 0. -1.
         12    1    4    4    0    0  0.15579733063E+00  0.36960943029E+01 -0.55515878367E+01  0.66712452670E+01  0.00000000000E+00 0. -1.
</event>
<event>
 8    1  0.2994958E-010  0.9118800E+02  0.7816164E-02  0.1184000E+00
        -11   -1    0    0    0    0  0.00000000000E+00  0.00000000000E+00  0.45593999997E+02  0.45594000000E+02  0.51100000000E-03 0. -1.
         11   -1    0    0    0    0 -0.00000000000E+00 -0.00000000000E+00 -0.45593999997E+02  0.45594000000E+02  0.51100000000E-03 0.  1.
         23    2    1    2    0    0  0.17763568394E-14  0.88817841970E-15  0.00000000000E+00  0.91188000000E+02  0.91188000000E+02 0.  0.
    9900012    2    3    3    0    0 -0.11373436932E+02  0.50052740501E+01 -0.41583838214E+02  0.47787269171E+02  0.19999991457E+02 0.  0.
         12    1    3    3    0    0  0.11373436932E+02 -0.50052740501E+01  0.41583838214E+02  0.43400730829E+02  0.00000000000E+00 0. -1.
         11    1    4    4    0    0 -0.62185434316E+01  0.58597671169E+01 -0.97873208863E+01  0.12992259367E+02  0.51100000000E-03 0. -1.
        -11    1    4    4    0    0 -0.16115538363E+01  0.38470788910E+01 -0.26652880953E+02  0.26977271639E+02  0.51100000000E-03 0.  1.
        -12    1    4    4    0    0 -0.35433396637E+01 -0.47015719578E+01 -0.51436363744E+01  0.78177381638E+01  0.00000000000E+00 0.  1.
</event>
<event>
 8    1  0.2994958E-010  0.9118800E+02  0.7816164E-02  0.1184000E+00
        -11   -1    0    0    0    0  0.00000000000E+00  0.00000000000E+00  0.45593999997E+02  0.45594000000E+02  0.51100000000E-03 0.  1.
         11   -1    0    0    0    0 -0.00000000000E+00 -0.00000000000E+00 -0.45593999997E+02  0.45594000000E+02  0.51100000000E-03 0. -1.
         23    2    1    2    0    0  0.35527136788E-14  0.00000000000E+00  0.00000000000E+00  0.91188000000E+02  0.91188000000E+02 0.  0.
    9900012    2    3    3    0    0  0.15956013150E+02 -0.33770296723E+02  0.22104206049E+02  0.47787271648E+02  0.20000002751E+02 0.  0.
        -12    1    3    3    0    0 -0.15956013150E+02  0.33770296723E+02 -0.22104206049E+02  0.43400728352E+02  0.00000000000E+00 0.  1.
         11    1    4    4    0    0  0.42807118553E+01 -0.97444689920E+01  0.33298132916E+01  0.11151987569E+02  0.51100000000E-03 0. -1.
        -11    1    4    4    0    0  0.12219454694E+02 -0.14703501119E+02  0.19449735119E+02  0.27272700905E+02  0.51100000000E-03 0.  1.
         12    1    4    4    0    0 -0.54415339898E+00 -0.93223266120E+01 -0.67534236162E+00  0.93625831739E+01  0.00000000000E+00 0. -1.
</event>
<event>
 8    1  0.2994958E-010  0.9118800E+02  0.7816164E-02  0.1184000E+00
        -11   -1    0    0    0    0  0.00000000000E+00  0.00000000000E+00  0.45593999997E+02  0.45594000000E+02  0.51100000000E-03 0.  1.
         11   -1    0    0    0    0 -0.00000000000E+00 -0.00000000000E+00 -0.45593999997E+02  0.45594000000E+02  0.51100000000E-03 0. -1.
         23    2    1    2    0    0  0.00000000000E+00 -0.71054273576E-14 -0.88817841970E-15  0.91188000000E+02  0.91188000000E+02 0.  0.
    9900012    2    3    3    0    0  0.68721647154E+01 -0.42675119569E+02 -0.39026912715E+01  0.47787268701E+02  0.19999989315E+02 0.  0.
        -12    1    3    3    0    0 -0.68721647154E+01  0.42675119569E+02  0.39026912715E+01  0.43400731299E+02  0.00000000000E+00 0.  1.
         11    1    4    4    0    0 -0.50658196076E+00 -0.45553520394E+01  0.46953571695E+01  0.65615727304E+01  0.51100000000E-03 0. -1.
        -11    1    4    4    0    0 -0.10210309743E+01 -0.32653285754E+00 -0.15334423617E+01  0.18709820137E+01  0.51100000000E-03 0.  1.
         12    1    4    4    0    0  0.83997776505E+01 -0.37793234672E+02 -0.70646060793E+01  0.39354713957E+02  0.00000000000E+00 0. -1.
</event>
<event>
 8    1  0.2994958E-010  0.9118800E+02  0.7816164E-02  0.1184000E+00
        -11   -1    0    0    0    0  0.00000000000E+00  0.00000000000E+00  0.45593999997E+02  0.45594000000E+02  0.51100000000E-03 0. -1.
         11   -1    0    0    0    0 -0.00000000000E+00 -0.00000000000E+00 -0.45593999997E+02  0.45594000000E+02  0.51100000000E-03 0.  1.
         23    2    1    2    0    0 -0.44408920985E-15 -0.88817841970E-15  0.00000000000E+00  0.91188000000E+02  0.91188000000E+02 0.  0.
    9900012    2    3    3    0    0  0.20180935032E+01  0.44116519441E+01  0.43128739974E+02  0.47787267448E+02  0.19999983604E+02 0.  0.
        -12    1    3    3    0    0 -0.20180935032E+01 -0.44116519441E+01 -0.43128739974E+02  0.43400732552E+02  0.00000000000E+00 0.  1.
         11    1    4    4    0    0 -0.41719024025E+01 -0.32319221776E+01  0.25650116760E+02  0.26187374452E+02  0.51100000000E-03 0.  1.
        -11    1    4    4    0    0  0.57364007798E+00 -0.79881995153E+00  0.68124705114E+01  0.68830902206E+01  0.51100000000E-03 0. -1.
        -12    1    4    4    0    0  0.56163558277E+01  0.84423940732E+01  0.10666152703E+02  0.14716802776E+02  0.00000000000E+00 0.  1.
</event>
<event>
 8    1  0.2994958E-010  0.9118800E+02  0.7816164E-02  0.1184000E+00
        -11   -1    0    0    0    0  0.00000000000E+00  0.00000000000E+00  0.45593999997E+02  0.45594000000E+02  0.51100000000E-03 0. -1.
         11   -1    0    0    0    0 -0.00000000000E+00 -0.00000000000E+00 -0.45593999997E+02  0.45594000000E+02  0.51100000000E-03 0.  1.
         23    2    1    2    0    0 -0.35527136788E-14  0.00000000000E+00  0.00000000000E+00  0.91188000000E+02  0.91188000000E+02 0.  0.
    9900012    2    3    3    0    0 -0.15441873015E+02 -0.20703318109E+01  0.40507844580E+02  0.47787272028E+02  0.20000004482E+02 0.  0.
        -12    1    3    3    0    0  0.15441873015E+02  0.20703318109E+01 -0.40507844580E+02  0.43400727972E+02  0.00000000000E+00 0.  1.
         11    1    4    4    0    0 -0.89629687317E+01 -0.27825274199E+01  0.17779235652E+02  0.20104190805E+02  0.51100000000E-03 0. -1.
        -11    1    4    4    0    0 -0.58925840413E+01 -0.54501627089E+00  0.11111388604E+01  0.60211476686E+01  0.51100000000E-03 0.  1.
         12    1    4    4    0    0 -0.58632024249E+00  0.12572118800E+01  0.21617470068E+02  0.21661933554E+02  0.00000000000E+00 0. -1.
</event>
<event>
 8    1  0.2994958E-010  0.9118800E+02  0.7816164E-02  0.1184000E+00
        -11   -1    0    0    0    0  0.00000000000E+00  0.00000000000E+00  0.45593999997E+02  0.45594000000E+02  0.51100000000E-03 0. -1.
         11   -1    0    0    0    0 -0.00000000000E+00 -0.00000000000E+00 -0.45593999997E+02  0.45594000000E+02  0.51100000000E-03 0.  1.
         23    2    1    2    0    0  0.00000000000E+00  0.17763568394E-14  0.17763568394E-14  0.91188000000E+02  0.91188000000E+02 0.  0.
    9900012    2    3    3    0    0 -0.41513885332E+02 -0.80631199392E+01 -0.97573942379E+01  0.47787270504E+02  0.19999997535E+02 0.  0.
         12    1    3    3    0    0  0.41513885332E+02  0.80631199392E+01  0.97573942379E+01  0.43400729496E+02  0.00000000000E+00 0. -1.
         11    1    4    4    0    0 -0.13780882782E+01 -0.34270157940E+00 -0.36524207282E+01  0.39187688261E+01  0.51100000000E-03 0. -1.
        -11    1    4    4    0    0 -0.28176546214E+02 -0.16416270275E+01 -0.99269988678E+01  0.29919191209E+02  0.51100000000E-03 0.  1.
         12    1    4    4    0    0 -0.11959250840E+02 -0.60787913323E+01  0.38220253582E+01  0.13949310469E+02  0.00000000000E+00 0. -1.
</event>
<event>
 8    1  0.2994958E-010  0.9118800E+02  0.7816164E-02  0.1184000E+00
        -11   -1    0    0    0    0  0.00000000000E+00  0.00000000000E+00  0.45593999997E+02  0.45594000000E+02  0.51100000000E-03 0. -1.
         11   -1    0    0    0    0 -0.00000000000E+00 -0.00000000000E+00 -0.45593999997E+02  0.45594000000E+02  0.51100000000E-03 0.  1.
         23    2    1    2    0    0  0.00000000000E+00  0.00000000000E+00  0.00000000000E+00  0.91188000000E+02  0.91188000000E+02 0.  0.
    9900012    2    3    3    0    0  0.11809922552E+02  0.58454818472E+01 -0.41351891435E+02  0.47787275882E+02  0.20000022056E+02 0.  0.
         12    1    3    3    0    0 -0.11809922552E+02 -0.58454818472E+01  0.41351891435E+02  0.43400724118E+02  0.00000000000E+00 0. -1.
         11    1    4    4    0    0 -0.23041563432E+00 -0.69735259037E+00 -0.27133649384E+00  0.78295322584E+00  0.51100000000E-03 0. -1.
        -11    1    4    4    0    0  0.69173258126E+01 -0.50556139249E+01 -0.25589626635E+02  0.26985878161E+02  0.51100000000E-03 0.  1.
         12    1    4    4    0    0  0.51230123737E+01  0.11598448362E+02 -0.15490928307E+02  0.20018444495E+02  0.00000000000E+00 0. -1.
</event>
<event>
 8    1  0.2994958E-010  0.9118800E+02  0.7816164E-02  0.1184000E+00
        -11   -1    0    0    0    0  0.00000000000E+00  0.00000000000E+00  0.45593999997E+02  0.45594000000E+02  0.51100000000E-03 0. -1.
         11   -1    0    0    0    0 -0.00000000000E+00 -0.00000000000E+00 -0.45593999997E+02  0.45594000000E+02  0.51100000000E-03 0.  1.
         23    2    1    2    0    0  0.17763568394E-14  0.00000000000E+00 -0.35527136788E-14  0.91188000000E+02  0.91188000000E+02 0.  0.
    9900012    2    3    3    0    0  0.15611566138E+02  0.32873737593E+02 -0.23647852260E+02  0.47787256491E+02  0.19999933646E+02 0.  0.
         12    1    3    3    0    0 -0.15611566138E+02 -0.32873737593E+02  0.23647852260E+02  0.43400743509E+02  0.00000000000E+00 0. -1.
         11    1    4    4    0    0  0.23876605545E+01 -0.30642622183E+00  0.14129170254E+01  0.27912640031E+01  0.51100000000E-03 0. -1.
        -11    1    4    4    0    0  0.77299744076E+01  0.64100152299E+01 -0.65858402378E+01  0.12008917166E+02  0.51100000000E-03 0.  1.
        -12    1    4    4    0    0  0.54939311754E+01  0.26770148585E+02 -0.18474929047E+02  0.32987075323E+02  0.00000000000E+00 0.  1.
</event>
<event>
 8    1  0.2994958E-010  0.9118800E+02  0.7816164E-02  0.1184000E+00
        -11   -1    0    0    0    0  0.00000000000E+00  0.00000000000E+00  0.45593999997E+02  0.45594000000E+02  0.51100000000E-03 0. -1.
         11   -1    0    0    0    0 -0.00000000000E+00 -0.00000000000E+00 -0.45593999997E+02  0.45594000000E+02  0.51100000000E-03 0.  1.
         23    2    1    2    0    0  0.35527136788E-14  0.00000000000E+00  0.00000000000E+00  0.91188000000E+02  0.91188000000E+02 0.  0.
    9900012    2    3    3    0    0  0.17018018786E+02  0.13631251012E+02  0.37525981050E+02  0.47787271650E+02  0.20000002762E+02 0.  0.
        -12    1    3    3    0    0 -0.17018018786E+02 -0.13631251012E+02 -0.37525981050E+02  0.43400728350E+02  0.00000000000E+00 0.  1.
         11    1    4    4    0    0  0.37422740319E+01  0.73056815457E+01  0.62893416406E+01  0.10340861488E+02  0.51100000000E-03 0. -1.
        -11    1    4    4    0    0  0.14535730485E+02  0.34505409347E+00  0.22097531362E+02  0.26451983208E+02  0.51100000000E-03 0.  1.
        -12    1    4    4    0    0 -0.12599857314E+01  0.59805153724E+01  0.91391080475E+01  0.10994426955E+02  0.00000000000E+00 0.  1.
</event>
<event>
 8    1  0.2994958E-010  0.9118800E+02  0.7816164E-02  0.1184000E+00
        -11   -1    0    0    0    0  0.00000000000E+00  0.00000000000E+00  0.45593999997E+02  0.45594000000E+02  0.51100000000E-03 0. -1.
         11   -1    0    0    0    0 -0.00000000000E+00 -0.00000000000E+00 -0.45593999997E+02  0.45594000000E+02  0.51100000000E-03 0.  1.
         23    2    1    2    0    0  0.83266726847E-16  0.00000000000E+00  0.00000000000E+00  0.91188000000E+02  0.91188000000E+02 0.  0.
    9900012    2    3    3    0    0 -0.15757500901E+00 -0.24233066736E+02 -0.36004958285E+02  0.47787269886E+02  0.19999994720E+02 0.  0.
         12    1    3    3    0    0  0.15757500901E+00  0.24233066736E+02  0.36004958285E+02  0.43400730114E+02  0.00000000000E+00 0. -1.
         11    1    4    4    0    0 -0.48584611730E+01 -0.87413517898E+01 -0.62460331758E+01  0.11791047739E+02  0.51100000000E-03 0. -1.
        -11    1    4    4    0    0  0.12184143887E+01 -0.11185561229E+02 -0.87046528828E+01  0.14225761691E+02  0.51100000000E-03 0.  1.
        -12    1    4    4    0    0  0.34824717753E+01 -0.43061537171E+01 -0.21054272226E+02  0.21770460456E+02  0.00000000000E+00 0.  1.
</event>
<event>
 8    1  0.2994958E-010  0.9118800E+02  0.7816164E-02  0.1184000E+00
        -11   -1    0    0    0    0  0.00000000000E+00  0.00000000000E+00  0.45593999997E+02  0.45594000000E+02  0.51100000000E-03 0.  1.
         11   -1    0    0    0    0 -0.00000000000E+00 -0.00000000000E+00 -0.45593999997E+02  0.45594000000E+02  0.51100000000E-03 0. -1.
         23    2    1    2    0    0 -0.35527136788E-14 -0.71054273576E-14  0.35527136788E-14  0.91188000000E+02  0.91188000000E+02 0.  0.
    9900012    2    3    3    0    0 -0.29343198155E+02 -0.30171314995E+02  0.10596782107E+02  0.47787270542E+02  0.19999997710E+02 0.  0.
        -12    1    3    3    0    0  0.29343198155E+02  0.30171314995E+02 -0.10596782107E+02  0.43400729458E+02  0.00000000000E+00 0.  1.
         11    1    4    4    0    0 -0.10529732677E+02 -0.13136295160E+02  0.47111113263E+01  0.17482336542E+02  0.51100000000E-03 0. -1.
        -11    1    4    4    0    0 -0.20683695679E+02 -0.15356894990E+02  0.80486674366E+01  0.26989452355E+02  0.51100000000E-03 0.  1.
         12    1    4    4    0    0  0.18702302015E+01 -0.16781248446E+01 -0.21629966560E+01  0.33154816445E+01  0.00000000000E+00 0. -1.
</event>
<event>
 8    1  0.2994958E-010  0.9118800E+02  0.7816164E-02  0.1184000E+00
        -11   -1    0    0    0    0  0.00000000000E+00  0.00000000000E+00  0.45593999997E+02  0.45594000000E+02  0.51100000000E-03 0. -1.
         11   -1    0    0    0    0 -0.00000000000E+00 -0.00000000000E+00 -0.45593999997E+02  0.45594000000E+02  0.51100000000E-03 0.  1.
         23    2    1    2    0    0  0.00000000000E+00  0.00000000000E+00  0.00000000000E+00  0.91188000000E+02  0.91188000000E+02 0.  0.
    9900012    2    3    3    0    0  0.19317772608E+02  0.11549430711E+02  0.37108726415E+02  0.47787271153E+02  0.20000000495E+02 0.  0.
        -12    1    3    3    0    0 -0.19317772608E+02 -0.11549430711E+02 -0.37108726415E+02  0.43400728847E+02  0.00000000000E+00 0.  1.
         11    1    4    4    0    0  0.64765528716E+01 -0.27738809747E+01  0.12194887849E+02  0.14083871722E+02  0.51100000000E-03 0. -1.
        -11    1    4    4    0    0  0.31875381960E+01  0.54550840578E+01  0.17583843729E+02  0.18684482930E+02  0.51100000000E-03 0.  1.
        -12    1    4    4    0    0  0.96536815403E+01  0.88682276283E+01  0.73299948372E+01  0.15018916501E+02  0.00000000000E+00 0.  1.
</event>
<event>
 8    1  0.2994958E-010  0.9118800E+02  0.7816164E-02  0.1184000E+00
        -11   -1    0    0    0    0  0.00000000000E+00  0.00000000000E+00  0.45593999997E+02  0.45594000000E+02  0.51100000000E-03 0. -1.
         11   -1    0    0    0    0 -0.00000000000E+00 -0.00000000000E+00 -0.45593999997E+02  0.45594000000E+02  0.51100000000E-03 0.  1.
         23    2    1    2    0    0  0.00000000000E+00 -0.17763568394E-14  0.00000000000E+00  0.91188000000E+02  0.91188000000E+02 0.  0.
    9900012    2    3    3    0    0 -0.34610175919E+02  0.11076130325E+02 -0.23729265459E+02  0.47787274438E+02  0.20000015471E+02 0.  0.
         12    1    3    3    0    0  0.34610175919E+02 -0.11076130325E+02  0.23729265459E+02  0.43400725562E+02  0.00000000000E+00 0. -1.
         11    1    4    4    0    0 -0.78984895348E+01  0.47048962649E+01 -0.10995878015E+02  0.14332882452E+02  0.51100000000E-03 0. -1.
        -11    1    4    4    0    0 -0.23427794429E+02  0.43827435913E+01 -0.15753371450E+02  0.28569891591E+02  0.51100000000E-03 0.  1.
        -12    1    4    4    0    0 -0.32838919549E+01  0.19884904686E+01  0.30199840058E+01  0.48845003951E+01  0.00000000000E+00 0.  1.
</event>
<event>
 8    1  0.2994958E-010  0.9118800E+02  0.7816164E-02  0.1184000E+00
        -11   -1    0    0    0    0  0.00000000000E+00  0.00000000000E+00  0.45593999997E+02  0.45594000000E+02  0.51100000000E-03 0. -1.
         11   -1    0    0    0    0 -0.00000000000E+00 -0.00000000000E+00 -0.45593999997E+02  0.45594000000E+02  0.51100000000E-03 0.  1.
         23    2    1    2    0    0  0.00000000000E+00  0.17763568394E-14  0.00000000000E+00  0.91188000000E+02  0.91188000000E+02 0.  0.
    9900012    2    3    3    0    0 -0.37317110404E+02  0.13972491074E+02  0.17199592875E+02  0.47787271540E+02  0.20000002262E+02 0.  0.
        -12    1    3    3    0    0  0.37317110404E+02 -0.13972491074E+02 -0.17199592875E+02  0.43400728460E+02  0.00000000000E+00 0.  1.
         11    1    4    4    0    0 -0.25349065372E+02  0.73258942366E+01  0.60001258893E+01  0.27060032383E+02  0.51100000000E-03 0. -1.
        -11    1    4    4    0    0 -0.78314774035E+01 -0.12824249796E+01  0.26812329280E+01  0.83764946382E+01  0.51100000000E-03 0.  1.
         12    1    4    4    0    0 -0.41365676288E+01  0.79290218175E+01  0.85182340573E+01  0.12350744519E+02  0.00000000000E+00 0. -1.
</event>
<event>
 8    1  0.2994958E-010  0.9118800E+02  0.7816164E-02  0.1184000E+00
        -11   -1    0    0    0    0  0.00000000000E+00  0.00000000000E+00  0.45593999997E+02  0.45594000000E+02  0.51100000000E-03 0. -1.
         11   -1    0    0    0    0 -0.00000000000E+00 -0.00000000000E+00 -0.45593999997E+02  0.45594000000E+02  0.51100000000E-03 0.  1.
         23    2    1    2    0    0  0.00000000000E+00  0.00000000000E+00 -0.71054273576E-14  0.91188000000E+02  0.91188000000E+02 0.  0.
    9900012    2    3    3    0    0 -0.12667681062E+02  0.22028635308E+02 -0.35183694672E+02  0.47787270885E+02  0.19999999271E+02 0.  0.
         12    1    3    3    0    0  0.12667681062E+02 -0.22028635308E+02  0.35183694672E+02  0.43400729115E+02  0.00000000000E+00 0. -1.
         11    1    4    4    0    0  0.33992198586E+01  0.35274928018E+01 -0.55761116339E+01  0.74223259379E+01  0.51100000000E-03 0. -1.
        -11    1    4    4    0    0 -0.27875142996E+01  0.97309539144E+01 -0.18057907907E+02  0.20701442904E+02  0.51100000000E-03 0.  1.
         12    1    4    4    0    0 -0.13279386621E+02  0.87701885913E+01 -0.11549675130E+02  0.19663502043E+02  0.00000000000E+00 0. -1.
</event>
<event>
 8    1  0.2994958E-010  0.9118800E+02  0.7816164E-02  0.1184000E+00
        -11   -1    0    0    0    0  0.00000000000E+00  0.00000000000E+00  0.45593999997E+02  0.45594000000E+02  0.51100000000E-03 0. -1.
         11   -1    0    0    0    0 -0.00000000000E+00 -0.00000000000E+00 -0.45593999997E+02  0.45594000000E+02  0.51100000000E-03 0.  1.
         23    2    1    2    0    0  0.00000000000E+00 -0.55511151231E-16  0.00000000000E+00  0.91188000000E+02  0.91188000000E+02 0.  0.
    9900012    2    3    3    0    0 -0.14790368228E+02  0.30776016791E+00 -0.40801641281E+02  0.47787266828E+02  0.19999980774E+02 0.  0.
         12    1    3    3    0    0  0.14790368228E+02 -0.30776016791E+00  0.40801641281E+02  0.43400733172E+02  0.00000000000E+00 0. -1.
         11    1    4    4    0    0 -0.64420838336E+01 -0.11605603620E+01 -0.10190639326E+02  0.12111832009E+02  0.51100000000E-03 0. -1.
        -11    1    4    4    0    0 -0.28875439151E+01  0.67472765710E+00 -0.29974411174E+02  0.30120731942E+02  0.51100000000E-03 0.  1.
         12    1    4    4    0    0 -0.54607404789E+01  0.79359287283E+00 -0.63659078194E+00  0.55547028768E+01  0.00000000000E+00 0. -1.
</event>
<event>
 8    1  0.2994958E-010  0.9118800E+02  0.7816164E-02  0.1184000E+00
        -11   -1    0    0    0    0  0.00000000000E+00  0.00000000000E+00  0.45593999997E+02  0.45594000000E+02  0.51100000000E-03 0. -1.
         11   -1    0    0    0    0 -0.00000000000E+00 -0.00000000000E+00 -0.45593999997E+02  0.45594000000E+02  0.51100000000E-03 0.  1.
         23    2    1    2    0    0  0.00000000000E+00  0.00000000000E+00  0.35527136788E-14  0.91188000000E+02  0.91188000000E+02 0.  0.
    9900012    2    3    3    0    0 -0.35231295434E+02  0.10516039278E+02 -0.23060605198E+02  0.47787276825E+02  0.20000026355E+02 0.  0.
         12    1    3    3    0    0  0.35231295434E+02 -0.10516039278E+02  0.23060605198E+02  0.43400723175E+02  0.00000000000E+00 0. -1.
         11    1    4    4    0    0  0.93289270049E+00  0.53990109095E+00  0.14736489741E+01  0.18257665619E+01  0.51100000000E-03 0. -1.
        -11    1    4    4    0    0 -0.11047711596E+02 -0.35591954143E+00 -0.34500433433E+01  0.11579352727E+02  0.51100000000E-03 0.  1.
        -12    1    4    4    0    0 -0.25116476538E+02  0.10332057729E+02 -0.21084210828E+02  0.34382157536E+02  0.00000000000E+00 0.  1.
</event>
<event>
 8    1  0.3217768E-010  0.9118800E+02  0.7816164E-02  0.1184000E+00
        -11   -1    0    0    0    0  0.00000000000E+00  0.00000000000E+00  0.45593999997E+02  0.45594000000E+02  0.51100000000E-03 0. -1.
         11   -1    0    0    0    0 -0.00000000000E+00 -0.00000000000E+00 -0.45593999997E+02  0.45594000000E+02  0.51100000000E-03 0.  1.
         23    2    1    2    0    0  0.00000000000E+00 -0.35527136788E-14  0.00000000000E+00  0.91188000000E+02  0.91188000000E+02 0.  0.
    9900012    2    3    3    0    0 -0.25443579205E+02  0.18828398876E+02  0.29694093695E+02  0.47787268124E+02  0.19999986686E+02 0.  0.
        -12    1    3    3    0    0  0.25443579205E+02 -0.18828398876E+02 -0.29694093695E+02  0.43400731876E+02  0.00000000000E+00 0.  1.
         11    1    4    4    0    0 -0.38919270476E+01  0.28149368426E+01 -0.47134322829E+00  0.48262957091E+01  0.51100000000E-03 0. -1.
        -11    1    4    4    0    0 -0.17596627846E+01 -0.27609689741E+01  0.26231322735E+01  0.41952575579E+01  0.51100000000E-03 0.  1.
         12    1    4    4    0    0 -0.19791989373E+02  0.18774431008E+02  0.27542304650E+02  0.38765714857E+02  0.00000000000E+00 0. -1.
</event>
<event>
 8    1  0.2994958E-010  0.9118800E+02  0.7816164E-02  0.1184000E+00
        -11   -1    0    0    0    0  0.00000000000E+00  0.00000000000E+00  0.45593999997E+02  0.45594000000E+02  0.51100000000E-03 0. -1.
         11   -1    0    0    0    0 -0.00000000000E+00 -0.00000000000E+00 -0.45593999997E+02  0.45594000000E+02  0.51100000000E-03 0.  1.
         23    2    1    2    0    0  0.35527136788E-14  0.00000000000E+00  0.35527136788E-14  0.91188000000E+02  0.91188000000E+02 0.  0.
    9900012    2    3    3    0    0 -0.28124352373E+02  0.15686445765E+02 -0.29096039648E+02  0.47787270739E+02  0.19999998609E+02 0.  0.
         12    1    3    3    0    0  0.28124352373E+02 -0.15686445765E+02  0.29096039648E+02  0.43400729261E+02  0.00000000000E+00 0. -1.
         11    1    4    4    0    0 -0.13020348505E+01 -0.17463058050E+01 -0.67513939596E+01  0.70940960929E+01  0.51100000000E-03 0.  1.
        -11    1    4    4    0    0 -0.14027559154E+02  0.25705928165E+01 -0.11226798222E+02  0.18149968645E+02  0.51100000000E-03 0. -1.
         12    1    4    4    0    0 -0.12794758369E+02  0.14862158753E+02 -0.11117847466E+02  0.22543206001E+02  0.00000000000E+00 0. -1.
</event>
<event>
 8    1  0.2994958E-010  0.9118800E+02  0.7816164E-02  0.1184000E+00
        -11   -1    0    0    0    0  0.00000000000E+00  0.00000000000E+00  0.45593999997E+02  0.45594000000E+02  0.51100000000E-03 0. -1.
         11   -1    0    0    0    0 -0.00000000000E+00 -0.00000000000E+00 -0.45593999997E+02  0.45594000000E+02  0.51100000000E-03 0.  1.
         23    2    1    2    0    0 -0.35527136788E-14  0.00000000000E+00 -0.35527136788E-14  0.91188000000E+02  0.91188000000E+02 0.  0.
    9900012    2    3    3    0    0  0.28057337773E+02 -0.14569421617E+02  0.29734508278E+02  0.47787271531E+02  0.20000002217E+02 0.  0.
        -12    1    3    3    0    0 -0.28057337773E+02  0.14569421617E+02 -0.29734508278E+02  0.43400728469E+02  0.00000000000E+00 0.  1.
         11    1    4    4    0    0  0.94641177084E+01 -0.14058123997E+02  0.21637468565E+02  0.27484184916E+02  0.51100000000E-03 0. -1.
        -11    1    4    4    0    0  0.43220634383E+01  0.22690265199E+00  0.18278696932E+01  0.46981725229E+01  0.51100000000E-03 0.  1.
         12    1    4    4    0    0  0.14271156626E+02 -0.73820027211E+00  0.62691700194E+01  0.15604914092E+02  0.00000000000E+00 0. -1.
</event>
<event>
 8    1  0.2994958E-010  0.9118800E+02  0.7816164E-02  0.1184000E+00
        -11   -1    0    0    0    0  0.00000000000E+00  0.00000000000E+00  0.45593999997E+02  0.45594000000E+02  0.51100000000E-03 0. -1.
         11   -1    0    0    0    0 -0.00000000000E+00 -0.00000000000E+00 -0.45593999997E+02  0.45594000000E+02  0.51100000000E-03 0.  1.
         23    2    1    2    0    0  0.71054273576E-14  0.00000000000E+00  0.00000000000E+00  0.91188000000E+02  0.91188000000E+02 0.  0.
    9900012    2    3    3    0    0  0.36341682583E+02 -0.13263585635E+02 -0.19671875991E+02  0.47787270722E+02  0.19999998530E+02 0.  0.
         12    1    3    3    0    0 -0.36341682583E+02  0.13263585635E+02  0.19671875991E+02  0.43400729278E+02  0.00000000000E+00 0. -1.
         11    1    4    4    0    0  0.13251865956E+02 -0.45590192324E+01 -0.79320107067E+00  0.14036587045E+02  0.51100000000E-03 0. -1.
        -11    1    4    4    0    0  0.17140459364E+02 -0.79714620160E+01 -0.64873769089E+01  0.19985635174E+02  0.51100000000E-03 0.  1.
         12    1    4    4    0    0  0.59493572628E+01 -0.73310438689E+00 -0.12391298012E+02  0.13765048503E+02  0.00000000000E+00 0. -1.
</event>
<event>
 8    1  0.2994958E-010  0.9118800E+02  0.7816164E-02  0.1184000E+00
        -11   -1    0    0    0    0  0.00000000000E+00  0.00000000000E+00  0.45593999997E+02  0.45594000000E+02  0.51100000000E-03 0. -1.
         11   -1    0    0    0    0 -0.00000000000E+00 -0.00000000000E+00 -0.45593999997E+02  0.45594000000E+02  0.51100000000E-03 0.  1.
         23    2    1    2    0    0 -0.44408920985E-15  0.35527136788E-14  0.00000000000E+00  0.91188000000E+02  0.91188000000E+02 0.  0.
    9900012    2    3    3    0    0 -0.33448659864E+01  0.26234060857E+02  0.34412374272E+02  0.47787244471E+02  0.19999878839E+02 0.  0.
        -12    1    3    3    0    0  0.33448659864E+01 -0.26234060857E+02 -0.34412374272E+02  0.43400755529E+02  0.00000000000E+00 0.  1.
         11    1    4    4    0    0  0.25750162377E+01  0.51082825706E+01  0.18595446934E+01  0.60152444816E+01  0.51100000000E-03 0.  1.
        -11    1    4    4    0    0  0.11427282114E+01  0.16508893419E+02  0.27010591342E+02  0.31676828039E+02  0.51100000000E-03 0. -1.
         12    1    4    4    0    0 -0.70626104355E+01  0.46168848670E+01  0.55422382366E+01  0.10095171950E+02  0.00000000000E+00 0. -1.
</event>
<event>
 8    1  0.2994958E-010  0.9118800E+02  0.7816164E-02  0.1184000E+00
        -11   -1    0    0    0    0  0.00000000000E+00  0.00000000000E+00  0.45593999997E+02  0.45594000000E+02  0.51100000000E-03 0. -1.
         11   -1    0    0    0    0 -0.00000000000E+00 -0.00000000000E+00 -0.45593999997E+02  0.45594000000E+02  0.51100000000E-03 0.  1.
         23    2    1    2    0    0  0.00000000000E+00 -0.44408920985E-15 -0.71054273576E-14  0.91188000000E+02  0.91188000000E+02 0.  0.
    9900012    2    3    3    0    0 -0.50976545193E+01  0.32544882151E+01  0.42977267309E+02  0.47787270968E+02  0.19999999653E+02 0.  0.
        -12    1    3    3    0    0  0.50976545193E+01 -0.32544882151E+01 -0.42977267309E+02  0.43400729032E+02  0.00000000000E+00 0.  1.
         11    1    4    4    0    0 -0.35865994630E+01 -0.12658974564E+01  0.17241466400E+02  0.17656000566E+02  0.51100000000E-03 0. -1.
        -11    1    4    4    0    0  0.40977896041E+01  0.18560169842E+01  0.22841667193E+02  0.23280430389E+02  0.51100000000E-03 0.  1.
        -12    1    4    4    0    0 -0.56088446605E+01  0.26643686873E+01  0.28941337154E+01  0.68508400135E+01  0.00000000000E+00 0.  1.
</event>
<event>
 8    1  0.3196059E-010  0.9118800E+02  0.7816164E-02  0.1184000E+00
        -11   -1    0    0    0    0  0.00000000000E+00  0.00000000000E+00  0.45593999997E+02  0.45594000000E+02  0.51100000000E-03 0. -1.
         11   -1    0    0    0    0 -0.00000000000E+00 -0.00000000000E+00 -0.45593999997E+02  0.45594000000E+02  0.51100000000E-03 0.  1.
         23    2    1    2    0    0  0.00000000000E+00  0.35527136788E-14  0.00000000000E+00  0.91188000000E+02  0.91188000000E+02 0.  0.
    9900012    2    3    3    0    0 -0.18297324653E+02 -0.22406021237E+02  0.32354307586E+02  0.47787273088E+02  0.20000009316E+02 0.  0.
        -12    1    3    3    0    0  0.18297324653E+02  0.22406021237E+02 -0.32354307586E+02  0.43400726912E+02  0.00000000000E+00 0.  1.
         11    1    4    4    0    0  0.27734415352E+01 -0.25822662704E+01  0.22047940694E+01  0.43841982380E+01  0.51100000000E-03 0. -1.
        -11    1    4    4    0    0 -0.49945333668E+01  0.73121842665E+00  0.37954897908E+01  0.63155195315E+01  0.51100000000E-03 0.  1.
         12    1    4    4    0    0 -0.16076232822E+02 -0.20554973393E+02  0.26354023726E+02  0.37087555318E+02  0.00000000000E+00 0. -1.
</event>
<event>
 8    1  0.2994958E-010  0.9118800E+02  0.7816164E-02  0.1184000E+00
        -11   -1    0    0    0    0  0.00000000000E+00  0.00000000000E+00  0.45593999997E+02  0.45594000000E+02  0.51100000000E-03 0. -1.
         11   -1    0    0    0    0 -0.00000000000E+00 -0.00000000000E+00 -0.45593999997E+02  0.45594000000E+02  0.51100000000E-03 0.  1.
         23    2    1    2    0    0  0.00000000000E+00 -0.71054273576E-14  0.35527136788E-14  0.91188000000E+02  0.91188000000E+02 0.  0.
    9900012    2    3    3    0    0 -0.43734701527E+01 -0.33963405758E+02  0.26664254391E+02  0.47787278415E+02  0.20000033606E+02 0.  0.
        -12    1    3    3    0    0  0.43734701527E+01  0.33963405758E+02 -0.26664254391E+02  0.43400721585E+02  0.00000000000E+00 0.  1.
         11    1    4    4    0    0 -0.38715163861E+01 -0.49702487193E+01  0.52879686987E+01  0.82252431380E+01  0.51100000000E-03 0. -1.
        -11    1    4    4    0    0  0.45549586571E+01 -0.54262475354E+01  0.11514088333E+02  0.13519099123E+02  0.51100000000E-03 0.  1.
        -12    1    4    4    0    0 -0.50569124236E+01 -0.23566909503E+02  0.98621973589E+01  0.26042936154E+02  0.00000000000E+00 0.  1.
</event>
<event>
 8    1  0.3065539E-010  0.9118800E+02  0.7816164E-02  0.1184000E+00
        -11   -1    0    0    0    0  0.00000000000E+00  0.00000000000E+00  0.45593999997E+02  0.45594000000E+02  0.51100000000E-03 0. -1.
         11   -1    0    0    0    0 -0.00000000000E+00 -0.00000000000E+00 -0.45593999997E+02  0.45594000000E+02  0.51100000000E-03 0.  1.
         23    2    1    2    0    0  0.00000000000E+00 -0.17763568394E-14  0.00000000000E+00  0.91188000000E+02  0.91188000000E+02 0.  0.
    9900012    2    3    3    0    0 -0.60030627376E+01 -0.12031421203E+02  0.41265376970E+02  0.47787271955E+02  0.20000004150E+02 0.  0.
        -12    1    3    3    0    0  0.60030627376E+01  0.12031421203E+02 -0.41265376970E+02  0.43400728045E+02  0.00000000000E+00 0.  1.
         11    1    4    4    0    0 -0.16447881116E+01 -0.47623486163E+01  0.21893192524E+01  0.54934880837E+01  0.51100000000E-03 0. -1.
        -11    1    4    4    0    0 -0.79853970442E+00 -0.11413102386E+01 -0.92352971273E+00  0.16712755942E+01  0.51100000000E-03 0.  1.
         12    1    4    4    0    0 -0.35597349216E+01 -0.61277623479E+01  0.39999587430E+02  0.40622508277E+02  0.00000000000E+00 0. -1.
</event>
<event>
 8    1  0.2994958E-010  0.9118800E+02  0.7816164E-02  0.1184000E+00
        -11   -1    0    0    0    0  0.00000000000E+00  0.00000000000E+00  0.45593999997E+02  0.45594000000E+02  0.51100000000E-03 0. -1.
         11   -1    0    0    0    0 -0.00000000000E+00 -0.00000000000E+00 -0.45593999997E+02  0.45594000000E+02  0.51100000000E-03 0.  1.
         23    2    1    2    0    0  0.71054273576E-14  0.00000000000E+00  0.00000000000E+00  0.91188000000E+02  0.91188000000E+02 0.  0.
    9900012    2    3    3    0    0  0.34938946545E+02  0.13778123960E+02 -0.21749852699E+02  0.47787276758E+02  0.20000026050E+02 0.  0.
         12    1    3    3    0    0 -0.34938946545E+02 -0.13778123960E+02  0.21749852699E+02  0.43400723242E+02  0.00000000000E+00 0. -1.
         11    1    4    4    0    0  0.66789510746E+01 -0.26780742085E+01 -0.48881838846E+01  0.86991270179E+01  0.51100000000E-03 0. -1.
        -11    1    4    4    0    0  0.18289422646E+02  0.34846121741E+01 -0.64912335230E+01  0.19717545883E+02  0.51100000000E-03 0.  1.
        -12    1    4    4    0    0  0.99705728239E+01  0.12971585995E+02 -0.10370435291E+02  0.19370603857E+02  0.00000000000E+00 0.  1.
</event>
<event>
 8    1  0.2994958E-010  0.9118800E+02  0.7816164E-02  0.1184000E+00
        -11   -1    0    0    0    0  0.00000000000E+00  0.00000000000E+00  0.45593999997E+02  0.45594000000E+02  0.51100000000E-03 0. -1.
         11   -1    0    0    0    0 -0.00000000000E+00 -0.00000000000E+00 -0.45593999997E+02  0.45594000000E+02  0.51100000000E-03 0.  1.
         23    2    1    2    0    0  0.35527136788E-14 -0.35527136788E-14  0.00000000000E+00  0.91188000000E+02  0.91188000000E+02 0.  0.
    9900012    2    3    3    0    0  0.25360418823E+02 -0.28775856545E+02  0.20308181170E+02  0.47787274370E+02  0.20000015163E+02 0.  0.
        -12    1    3    3    0    0 -0.25360418823E+02  0.28775856545E+02 -0.20308181170E+02  0.43400725630E+02  0.00000000000E+00 0.  1.
         11    1    4    4    0    0  0.21993018942E+02 -0.22031413121E+02  0.78589036120E+01  0.32106672399E+02  0.51100000000E-03 0. -1.
        -11    1    4    4    0    0 -0.69641278024E+00 -0.73606011922E+00 -0.26082449659E+00  0.10463292688E+01  0.51100000000E-03 0.  1.
        -12    1    4    4    0    0  0.40638126606E+01 -0.60083833053E+01  0.12710102055E+02  0.14634272702E+02  0.00000000000E+00 0.  1.
</event>
<event>
 8    1  0.2994958E-010  0.9118800E+02  0.7816164E-02  0.1184000E+00
        -11   -1    0    0    0    0  0.00000000000E+00  0.00000000000E+00  0.45593999997E+02  0.45594000000E+02  0.51100000000E-03 0. -1.
         11   -1    0    0    0    0 -0.00000000000E+00 -0.00000000000E+00 -0.45593999997E+02  0.45594000000E+02  0.51100000000E-03 0.  1.
         23    2    1    2    0    0  0.00000000000E+00  0.17763568394E-14  0.71054273576E-14  0.91188000000E+02  0.91188000000E+02 0.  0.
    9900012    2    3    3    0    0  0.34364362264E+02 -0.12681667843E+02 -0.23278510453E+02  0.47787272564E+02  0.20000006927E+02 0.  0.
         12    1    3    3    0    0 -0.34364362264E+02  0.12681667843E+02  0.23278510453E+02  0.43400727436E+02  0.00000000000E+00 0. -1.
         11    1    4    4    0    0  0.11188010478E+02  0.83154097607E+00 -0.87539854085E+01  0.14230084316E+02  0.51100000000E-03 0.  1.
        -11    1    4    4    0    0  0.13177985474E+01 -0.29709264985E+01 -0.76846958739E+01  0.83437130947E+01  0.51100000000E-03 0. -1.
         12    1    4    4    0    0  0.21858553239E+02 -0.10542282320E+02 -0.68398291704E+01  0.25213475153E+02  0.00000000000E+00 0. -1.
</event>
<event>
 8    1  0.2994958E-010  0.9118800E+02  0.7816164E-02  0.1184000E+00
        -11   -1    0    0    0    0  0.00000000000E+00  0.00000000000E+00  0.45593999997E+02  0.45594000000E+02  0.51100000000E-03 0. -1.
         11   -1    0    0    0    0 -0.00000000000E+00 -0.00000000000E+00 -0.45593999997E+02  0.45594000000E+02  0.51100000000E-03 0.  1.
         23    2    1    2    0    0 -0.71054273576E-14  0.17763568394E-14 -0.35527136788E-14  0.91188000000E+02  0.91188000000E+02 0.  0.
    9900012    2    3    3    0    0  0.31509843800E+02 -0.13443902879E+02  0.26646090814E+02  0.47787274930E+02  0.20000017717E+02 0.  0.
        -12    1    3    3    0    0 -0.31509843800E+02  0.13443902879E+02 -0.26646090814E+02  0.43400725070E+02  0.00000000000E+00 0.  1.
         11    1    4    4    0    0  0.17878500916E+02 -0.77331287289E+01  0.22058846430E+02  0.29428468887E+02  0.51100000000E-03 0. -1.
        -11    1    4    4    0    0  0.70428370386E+01 -0.80647162228E+01  0.19575838847E+01  0.10884545752E+02  0.51100000000E-03 0.  1.
        -12    1    4    4    0    0  0.65885058454E+01  0.23539420728E+01  0.26296604992E+01  0.74742602910E+01  0.00000000000E+00 0.  1.
</event>
<event>
 8    1  0.2994958E-010  0.9118800E+02  0.7816164E-02  0.1184000E+00
        -11   -1    0    0    0    0  0.00000000000E+00  0.00000000000E+00  0.45593999997E+02  0.45594000000E+02  0.51100000000E-03 0. -1.
         11   -1    0    0    0    0 -0.00000000000E+00 -0.00000000000E+00 -0.45593999997E+02  0.45594000000E+02  0.51100000000E-03 0.  1.
         23    2    1    2    0    0 -0.41633363423E-15  0.00000000000E+00  0.00000000000E+00  0.91188000000E+02  0.91188000000E+02 0.  0.
    9900012    2    3    3    0    0  0.12815583604E+00  0.10960388133E+02  0.41993766233E+02  0.47787274956E+02  0.20000017834E+02 0.  0.
        -12    1    3    3    0    0 -0.12815583604E+00 -0.10960388133E+02 -0.41993766233E+02  0.43400725044E+02  0.00000000000E+00 0.  1.
         11    1    4    4    0    0 -0.50841081591E+00  0.19488221656E+01  0.44543874756E+01  0.48885537160E+01  0.51100000000E-03 0. -1.
        -11    1    4    4    0    0 -0.58432911927E+01  0.71539083977E+01  0.34104285081E+02  0.35333054191E+02  0.51100000000E-03 0.  1.
        -12    1    4    4    0    0  0.64798578446E+01  0.18576575693E+01  0.34350936766E+01  0.75656670491E+01  0.00000000000E+00 0.  1.
</event>
<event>
 8    1  0.2994958E-010  0.9118800E+02  0.7816164E-02  0.1184000E+00
        -11   -1    0    0    0    0  0.00000000000E+00  0.00000000000E+00  0.45593999997E+02  0.45594000000E+02  0.51100000000E-03 0. -1.
         11   -1    0    0    0    0 -0.00000000000E+00 -0.00000000000E+00 -0.45593999997E+02  0.45594000000E+02  0.51100000000E-03 0.  1.
         23    2    1    2    0    0  0.00000000000E+00 -0.35527136788E-14 -0.71054273576E-14  0.91188000000E+02  0.91188000000E+02 0.  0.
    9900012    2    3    3    0    0 -0.13716487496E+02  0.20303712554E+02  0.35822342725E+02  0.47787274073E+02  0.20000013806E+02 0.  0.
        -12    1    3    3    0    0  0.13716487496E+02 -0.20303712554E+02 -0.35822342725E+02  0.43400725927E+02  0.00000000000E+00 0.  1.
         11    1    4    4    0    0  0.18046100552E+01 -0.56614021027E+00 -0.37976725992E+00  0.19290815488E+01  0.51100000000E-03 0. -1.
        -11    1    4    4    0    0 -0.42281182351E+01  0.29653017047E+00  0.88841004107E+01  0.98433812443E+01  0.51100000000E-03 0.  1.
         12    1    4    4    0    0 -0.11292979316E+02  0.20573322594E+02  0.27318009575E+02  0.36014811279E+02  0.00000000000E+00 0. -1.
</event>
<event>
 8    1  0.2994958E-010  0.9118800E+02  0.7816164E-02  0.1184000E+00
        -11   -1    0    0    0    0  0.00000000000E+00  0.00000000000E+00  0.45593999997E+02  0.45594000000E+02  0.51100000000E-03 0. -1.
         11   -1    0    0    0    0 -0.00000000000E+00 -0.00000000000E+00 -0.45593999997E+02  0.45594000000E+02  0.51100000000E-03 0.  1.
         23    2    1    2    0    0  0.00000000000E+00  0.00000000000E+00 -0.71054273576E-14  0.91188000000E+02  0.91188000000E+02 0.  0.
    9900012    2    3    3    0    0  0.14817072473E+02  0.17519410855E+02 -0.36839490773E+02  0.47787268742E+02  0.19999989501E+02 0.  0.
         12    1    3    3    0    0 -0.14817072473E+02 -0.17519410855E+02  0.36839490773E+02  0.43400731258E+02  0.00000000000E+00 0. -1.
         11    1    4    4    0    0  0.14665399793E+01  0.26025640996E+01 -0.17518841755E+02  0.17771716184E+02  0.51100000000E-03 0. -1.
        -11    1    4    4    0    0  0.10090442448E+02  0.16349372730E+02 -0.17622153063E+02  0.26070276107E+02  0.51100000000E-03 0.  1.
         12    1    4    4    0    0  0.32600900451E+01 -0.14325259745E+01 -0.16984959549E+01  0.39452764515E+01  0.00000000000E+00 0. -1.
</event>
<event>
 8    1  0.2994958E-010  0.9118800E+02  0.7816164E-02  0.1184000E+00
        -11   -1    0    0    0    0  0.00000000000E+00  0.00000000000E+00  0.45593999997E+02  0.45594000000E+02  0.51100000000E-03 0. -1.
         11   -1    0    0    0    0 -0.00000000000E+00 -0.00000000000E+00 -0.45593999997E+02  0.45594000000E+02  0.51100000000E-03 0.  1.
         23    2    1    2    0    0  0.00000000000E+00  0.35527136788E-14 -0.35527136788E-14  0.91188000000E+02  0.91188000000E+02 0.  0.
    9900012    2    3    3    0    0 -0.15712484023E+02 -0.31312055620E+02 -0.25618273268E+02  0.47787275276E+02  0.20000019292E+02 0.  0.
         12    1    3    3    0    0  0.15712484023E+02  0.31312055620E+02  0.25618273268E+02  0.43400724724E+02  0.00000000000E+00 0. -1.
         11    1    4    4    0    0 -0.97676363531E+01 -0.12724429316E+02 -0.15019440809E+01  0.16111289757E+02  0.51100000000E-03 0. -1.
        -11    1    4    4    0    0 -0.69687213011E+00 -0.10986582851E+02 -0.10433915040E+02  0.15167637153E+02  0.51100000000E-03 0.  1.
         12    1    4    4    0    0 -0.52479755401E+01 -0.76010434537E+01 -0.13682414147E+02  0.16508348365E+02  0.00000000000E+00 0. -1.
</event>
<event>
 8    1  0.2994958E-010  0.9118800E+02  0.7816164E-02  0.1184000E+00
        -11   -1    0    0    0    0  0.00000000000E+00  0.00000000000E+00  0.45593999997E+02  0.45594000000E+02  0.51100000000E-03 0.  1.
         11   -1    0    0    0    0 -0.00000000000E+00 -0.00000000000E+00 -0.45593999997E+02  0.45594000000E+02  0.51100000000E-03 0. -1.
         23    2    1    2    0    0  0.00000000000E+00  0.00000000000E+00  0.00000000000E+00  0.91188000000E+02  0.91188000000E+02 0.  0.
    9900012    2    3    3    0    0  0.41726840531E+02  0.59924946968E+01  0.10323944346E+02  0.47787273736E+02  0.20000012273E+02 0.  0.
        -12    1    3    3    0    0 -0.41726840531E+02 -0.59924946968E+01 -0.10323944346E+02  0.43400726264E+02  0.00000000000E+00 0.  1.
         11    1    4    4    0    0  0.63349315258E+01  0.17196694960E+01  0.36845251608E+01  0.75275724197E+01  0.51100000000E-03 0. -1.
        -11    1    4    4    0    0  0.23793751476E+02  0.86610480773E+01 -0.15997159214E+01  0.25371548127E+02  0.51100000000E-03 0.  1.
         12    1    4    4    0    0  0.11598157529E+02 -0.43882228765E+01  0.82391351063E+01  0.14888153189E+02  0.00000000000E+00 0. -1.
</event>
<event>
 8    1  0.2994958E-010  0.9118800E+02  0.7816164E-02  0.1184000E+00
        -11   -1    0    0    0    0  0.00000000000E+00  0.00000000000E+00  0.45593999997E+02  0.45594000000E+02  0.51100000000E-03 0. -1.
         11   -1    0    0    0    0 -0.00000000000E+00 -0.00000000000E+00 -0.45593999997E+02  0.45594000000E+02  0.51100000000E-03 0.  1.
         23    2    1    2    0    0  0.00000000000E+00  0.35527136788E-14 -0.35527136788E-14  0.91188000000E+02  0.91188000000E+02 0.  0.
    9900012    2    3    3    0    0  0.84930827900E+01 -0.31018263328E+02  0.29143812684E+02  0.47787228891E+02  0.19999807803E+02 0.  0.
        -12    1    3    3    0    0 -0.84930827900E+01  0.31018263328E+02 -0.29143812684E+02  0.43400771109E+02  0.00000000000E+00 0.  1.
         11    1    4    4    0    0  0.10126798495E+02 -0.15127401602E+02  0.20618039998E+02  0.27504434199E+02  0.51100000000E-03 0. -1.
        -11    1    4    4    0    0  0.22067757714E+01 -0.71236244211E+01  0.76303435297E+01  0.10669490468E+02  0.51100000000E-03 0.  1.
        -12    1    4    4    0    0 -0.38404914765E+01 -0.87672373042E+01  0.89542915628E+00  0.96133042240E+01  0.00000000000E+00 0.  1.
</event>
<event>
 8    1  0.2994958E-010  0.9118800E+02  0.7816164E-02  0.1184000E+00
        -11   -1    0    0    0    0  0.00000000000E+00  0.00000000000E+00  0.45593999997E+02  0.45594000000E+02  0.51100000000E-03 0.  1.
         11   -1    0    0    0    0 -0.00000000000E+00 -0.00000000000E+00 -0.45593999997E+02  0.45594000000E+02  0.51100000000E-03 0. -1.
         23    2    1    2    0    0  0.00000000000E+00  0.16653345369E-15  0.00000000000E+00  0.91188000000E+02  0.91188000000E+02 0.  0.
    9900012    2    3    3    0    0 -0.42863064604E+02  0.25285218067E+00 -0.68056700756E+01  0.47787269745E+02  0.19999994075E+02 0.  0.
         12    1    3    3    0    0  0.42863064604E+02 -0.25285218067E+00  0.68056700756E+01  0.43400730255E+02  0.00000000000E+00 0. -1.
         11    1    4    4    0    0  0.65564402623E+00 -0.39552970123E+00  0.71045753254E+00  0.10445396117E+01  0.51100000000E-03 0. -1.
        -11    1    4    4    0    0 -0.19227103690E+02 -0.70298911114E+01 -0.12661727221E+01  0.20511072106E+02  0.51100000000E-03 0.  1.
         12    1    4    4    0    0 -0.24291604941E+02  0.76782729933E+01 -0.62499548860E+01  0.26231658027E+02  0.00000000000E+00 0. -1.
</event>
<event>
 8    1  0.2994958E-010  0.9118800E+02  0.7816164E-02  0.1184000E+00
        -11   -1    0    0    0    0  0.00000000000E+00  0.00000000000E+00  0.45593999997E+02  0.45594000000E+02  0.51100000000E-03 0. -1.
         11   -1    0    0    0    0 -0.00000000000E+00 -0.00000000000E+00 -0.45593999997E+02  0.45594000000E+02  0.51100000000E-03 0.  1.
         23    2    1    2    0    0  0.00000000000E+00  0.00000000000E+00 -0.35527136788E-14  0.91188000000E+02  0.91188000000E+02 0.  0.
    9900012    2    3    3    0    0 -0.32799118652E+02 -0.10773483248E+02 -0.26301615649E+02  0.47787249875E+02  0.19999903478E+02 0.  0.
         12    1    3    3    0    0  0.32799118652E+02  0.10773483248E+02  0.26301615649E+02  0.43400750125E+02  0.00000000000E+00 0. -1.
         11    1    4    4    0    0 -0.16473455031E+01 -0.49129115851E+01 -0.77369529874E+01  0.93118681928E+01  0.51100000000E-03 0. -1.
        -11    1    4    4    0    0 -0.11909135363E+01 -0.33538241053E+01 -0.27938617400E+01  0.45246077027E+01  0.51100000000E-03 0.  1.
        -12    1    4    4    0    0 -0.29960859613E+02 -0.25067475580E+01 -0.15770800922E+02  0.33950773979E+02  0.00000000000E+00 0.  1.
</event>
<event>
 8    1  0.2994958E-010  0.9118800E+02  0.7816164E-02  0.1184000E+00
        -11   -1    0    0    0    0  0.00000000000E+00  0.00000000000E+00  0.45593999997E+02  0.45594000000E+02  0.51100000000E-03 0. -1.
         11   -1    0    0    0    0 -0.00000000000E+00 -0.00000000000E+00 -0.45593999997E+02  0.45594000000E+02  0.51100000000E-03 0.  1.
         23    2    1    2    0    0 -0.35527136788E-14  0.00000000000E+00  0.35527136788E-14  0.91188000000E+02  0.91188000000E+02 0.  0.
    9900012    2    3    3    0    0 -0.19061667904E+02  0.22571480981E+02  0.31793148015E+02  0.47787271922E+02  0.20000004002E+02 0.  0.
        -12    1    3    3    0    0  0.19061667904E+02 -0.22571480981E+02 -0.31793148015E+02  0.43400728078E+02  0.00000000000E+00 0.  1.
         11    1    4    4    0    0 -0.94957413817E+01  0.11943090618E+02  0.11667265148E+02  0.19207592097E+02  0.51100000000E-03 0. -1.
        -11    1    4    4    0    0 -0.12994983298E+02  0.92222358867E+01  0.13068643572E+02  0.20608461144E+02  0.51100000000E-03 0.  1.
         12    1    4    4    0    0  0.34290567755E+01  0.14061544768E+01  0.70572392955E+01  0.79712186807E+01  0.00000000000E+00 0. -1.
</event>
<event>
 8    1  0.2994958E-010  0.9118800E+02  0.7816164E-02  0.1184000E+00
        -11   -1    0    0    0    0  0.00000000000E+00  0.00000000000E+00  0.45593999997E+02  0.45594000000E+02  0.51100000000E-03 0. -1.
         11   -1    0    0    0    0 -0.00000000000E+00 -0.00000000000E+00 -0.45593999997E+02  0.45594000000E+02  0.51100000000E-03 0.  1.
         23    2    1    2    0    0  0.00000000000E+00 -0.66613381478E-15  0.00000000000E+00  0.91188000000E+02  0.91188000000E+02 0.  0.
    9900012    2    3    3    0    0  0.98747838452E+01 -0.11151657312E+01  0.42247703738E+02  0.47787269341E+02  0.19999992235E+02 0.  0.
        -12    1    3    3    0    0 -0.98747838452E+01  0.11151657312E+01 -0.42247703738E+02  0.43400730659E+02  0.00000000000E+00 0.  1.
         11    1    4    4    0    0  0.25616867501E+01 -0.90788024603E+01  0.24972542256E+02  0.26694845197E+02  0.51100000000E-03 0. -1.
        -11    1    4    4    0    0  0.88236990148E+00  0.26388221376E+01  0.86572966998E+01  0.90934451847E+01  0.51100000000E-03 0.  1.
         12    1    4    4    0    0  0.64307271936E+01  0.53248145915E+01  0.86178647823E+01  0.11998978960E+02  0.00000000000E+00 0. -1.
</event>
<event>
 8    1  0.2994958E-010  0.9118800E+02  0.7816164E-02  0.1184000E+00
        -11   -1    0    0    0    0  0.00000000000E+00  0.00000000000E+00  0.45593999997E+02  0.45594000000E+02  0.51100000000E-03 0. -1.
         11   -1    0    0    0    0 -0.00000000000E+00 -0.00000000000E+00 -0.45593999997E+02  0.45594000000E+02  0.51100000000E-03 0.  1.
         23    2    1    2    0    0  0.00000000000E+00  0.35527136788E-14  0.00000000000E+00  0.91188000000E+02  0.91188000000E+02 0.  0.
    9900012    2    3    3    0    0 -0.14917859319E+02  0.23564084970E+02 -0.33253786958E+02  0.47787274497E+02  0.20000015743E+02 0.  0.
         12    1    3    3    0    0  0.14917859319E+02 -0.23564084970E+02  0.33253786958E+02  0.43400725503E+02  0.00000000000E+00 0. -1.
         11    1    4    4    0    0 -0.40442240134E+01 -0.10008855302E+01 -0.63675648998E+01  0.76094285416E+01  0.51100000000E-03 0.  1.
        -11    1    4    4    0    0  0.10166037804E+01  0.28384559477E+01 -0.93681388163E+01  0.98413586743E+01  0.51100000000E-03 0. -1.
        -12    1    4    4    0    0 -0.11890239086E+02  0.21726514552E+02 -0.17518083242E+02  0.30336487281E+02  0.00000000000E+00 0.  1.
</event>
<event>
 8    1  0.2994958E-010  0.9118800E+02  0.7816164E-02  0.1184000E+00
        -11   -1    0    0    0    0  0.00000000000E+00  0.00000000000E+00  0.45593999997E+02  0.45594000000E+02  0.51100000000E-03 0. -1.
         11   -1    0    0    0    0 -0.00000000000E+00 -0.00000000000E+00 -0.45593999997E+02  0.45594000000E+02  0.51100000000E-03 0.  1.
         23    2    1    2    0    0 -0.17763568394E-14  0.35527136788E-14  0.00000000000E+00  0.91188000000E+02  0.91188000000E+02 0.  0.
    9900012    2    3    3    0    0 -0.12781581269E+02  0.31904517976E+02 -0.26502001778E+02  0.47787272066E+02  0.20000004657E+02 0.  0.
         12    1    3    3    0    0  0.12781581269E+02 -0.31904517976E+02  0.26502001778E+02  0.43400727934E+02  0.00000000000E+00 0. -1.
         11    1    4    4    0    0 -0.10464302677E+02  0.13885740554E+02 -0.17697934173E+02  0.24809923327E+02  0.51100000000E-03 0. -1.
        -11    1    4    4    0    0 -0.32937045265E+01  0.12332652696E+00 -0.11770968571E+01  0.34998937430E+01  0.51100000000E-03 0.  1.
        -12    1    4    4    0    0  0.97642593402E+00  0.17895450895E+02 -0.76269707479E+01  0.19477454996E+02  0.00000000000E+00 0.  1.
</event>
<event>
 8    1  0.2994958E-010  0.9118800E+02  0.7816164E-02  0.1184000E+00
        -11   -1    0    0    0    0  0.00000000000E+00  0.00000000000E+00  0.45593999997E+02  0.45594000000E+02  0.51100000000E-03 0. -1.
         11   -1    0    0    0    0 -0.00000000000E+00 -0.00000000000E+00 -0.45593999997E+02  0.45594000000E+02  0.51100000000E-03 0.  1.
         23    2    1    2    0    0  0.00000000000E+00 -0.17763568394E-14  0.00000000000E+00  0.91188000000E+02  0.91188000000E+02 0.  0.
    9900012    2    3    3    0    0  0.23041478756E+02 -0.15209152887E+02 -0.33487243073E+02  0.47787268170E+02  0.19999986893E+02 0.  0.
         12    1    3    3    0    0 -0.23041478756E+02  0.15209152887E+02  0.33487243073E+02  0.43400731830E+02  0.00000000000E+00 0. -1.
         11    1    4    4    0    0  0.12644790062E+02 -0.85618559806E+01 -0.85878703951E+01  0.17519920426E+02  0.51100000000E-03 0.  1.
        -11    1    4    4    0    0 -0.20462004235E+00 -0.12796426060E+01  0.10880398395E+01  0.16920950075E+01  0.51100000000E-03 0. -1.
        -12    1    4    4    0    0  0.10601308736E+02 -0.53676543004E+01 -0.25987412517E+02  0.28575252736E+02  0.00000000000E+00 0.  1.
</event>
<event>
 8    1  0.2994958E-010  0.9118800E+02  0.7816164E-02  0.1184000E+00
        -11   -1    0    0    0    0  0.00000000000E+00  0.00000000000E+00  0.45593999997E+02  0.45594000000E+02  0.51100000000E-03 0. -1.
         11   -1    0    0    0    0 -0.00000000000E+00 -0.00000000000E+00 -0.45593999997E+02  0.45594000000E+02  0.51100000000E-03 0.  1.
         23    2    1    2    0    0  0.00000000000E+00  0.00000000000E+00  0.00000000000E+00  0.91188000000E+02  0.91188000000E+02 0.  0.
    9900012    2    3    3    0    0  0.84083592270E+01 -0.11956823861E+02  0.40865107436E+02  0.47787272500E+02  0.20000006639E+02 0.  0.
        -12    1    3    3    0    0 -0.84083592270E+01  0.11956823861E+02 -0.40865107436E+02  0.43400727500E+02  0.00000000000E+00 0.  1.
         11    1    4    4    0    0  0.33183913610E+01 -0.17042894647E+01  0.18955131053E+02  0.19318729702E+02  0.51100000000E-03 0.  1.
        -11    1    4    4    0    0 -0.45873889633E+01 -0.84469924946E+00  0.61600215681E+01  0.77268053103E+01  0.51100000000E-03 0. -1.
         12    1    4    4    0    0  0.96773568293E+01 -0.94078351467E+01  0.15749954815E+02  0.20741737488E+02  0.00000000000E+00 0. -1.
</event>
<event>
 8    1  0.2994958E-010  0.9118800E+02  0.7816164E-02  0.1184000E+00
        -11   -1    0    0    0    0  0.00000000000E+00  0.00000000000E+00  0.45593999997E+02  0.45594000000E+02  0.51100000000E-03 0. -1.
         11   -1    0    0    0    0 -0.00000000000E+00 -0.00000000000E+00 -0.45593999997E+02  0.45594000000E+02  0.51100000000E-03 0.  1.
         23    2    1    2    0    0  0.88817841970E-15  0.00000000000E+00  0.00000000000E+00  0.91188000000E+02  0.91188000000E+02 0.  0.
    9900012    2    3    3    0    0  0.76887697314E+01  0.68912752818E+01 -0.42154672276E+02  0.47787271323E+02  0.20000001272E+02 0.  0.
         12    1    3    3    0    0 -0.76887697314E+01 -0.68912752818E+01  0.42154672276E+02  0.43400728677E+02  0.00000000000E+00 0. -1.
         11    1    4    4    0    0 -0.23133733401E+01  0.90220673656E+01 -0.92936071821E+01  0.13157527521E+02  0.51100000000E-03 0. -1.
        -11    1    4    4    0    0 -0.15157296177E+00 -0.40726813676E+00 -0.46695123799E+00  0.63787570713E+00  0.51100000000E-03 0.  1.
         12    1    4    4    0    0  0.10153716033E+02 -0.17235239470E+01 -0.32394113856E+02  0.33991868095E+02  0.00000000000E+00 0. -1.
</event>
<event>
 8    1  0.2994958E-010  0.9118800E+02  0.7816164E-02  0.1184000E+00
        -11   -1    0    0    0    0  0.00000000000E+00  0.00000000000E+00  0.45593999997E+02  0.45594000000E+02  0.51100000000E-03 0. -1.
         11   -1    0    0    0    0 -0.00000000000E+00 -0.00000000000E+00 -0.45593999997E+02  0.45594000000E+02  0.51100000000E-03 0.  1.
         23    2    1    2    0    0  0.00000000000E+00  0.00000000000E+00  0.00000000000E+00  0.91188000000E+02  0.91188000000E+02 0.  0.
    9900012    2    3    3    0    0  0.38756468226E+02  0.12085633393E+02  0.15345898901E+02  0.47787274465E+02  0.20000015596E+02 0.  0.
        -12    1    3    3    0    0 -0.38756468226E+02 -0.12085633393E+02 -0.15345898901E+02  0.43400725535E+02  0.00000000000E+00 0.  1.
         11    1    4    4    0    0  0.11552571585E+02  0.62351449853E+01  0.65618031478E+01  0.14676382525E+02  0.51100000000E-03 0. -1.
        -11    1    4    4    0    0  0.73713017764E+01  0.57329945903E+01 -0.32792583235E+01  0.98973154069E+01  0.51100000000E-03 0.  1.
         12    1    4    4    0    0  0.19832594865E+02  0.11749381688E+00  0.12063354077E+02  0.23213576533E+02  0.00000000000E+00 0. -1.
</event>
<event>
 8    1  0.2994958E-010  0.9118800E+02  0.7816164E-02  0.1184000E+00
        -11   -1    0    0    0    0  0.00000000000E+00  0.00000000000E+00  0.45593999997E+02  0.45594000000E+02  0.51100000000E-03 0. -1.
         11   -1    0    0    0    0 -0.00000000000E+00 -0.00000000000E+00 -0.45593999997E+02  0.45594000000E+02  0.51100000000E-03 0.  1.
         23    2    1    2    0    0  0.00000000000E+00 -0.71054273576E-14  0.71054273576E-14  0.91188000000E+02  0.91188000000E+02 0.  0.
    9900012    2    3    3    0    0  0.79375987702E+01 -0.27347045428E+02 -0.32752965733E+02  0.47787272677E+02  0.20000007445E+02 0.  0.
         12    1    3    3    0    0 -0.79375987702E+01  0.27347045428E+02  0.32752965733E+02  0.43400727323E+02  0.00000000000E+00 0. -1.
         11    1    4    4    0    0  0.70004454500E+00 -0.22774891817E+02 -0.16757735515E+02  0.28284403114E+02  0.51100000000E-03 0. -1.
        -11    1    4    4    0    0  0.65371725283E+01 -0.61205469763E+01 -0.10761807374E+02  0.14000436356E+02  0.51100000000E-03 0.  1.
         12    1    4    4    0    0  0.70038169687E+00  0.15483933661E+01 -0.52334228438E+01  0.55024332072E+01  0.00000000000E+00 0. -1.
</event>
<event>
 8    1  0.2994958E-010  0.9118800E+02  0.7816164E-02  0.1184000E+00
        -11   -1    0    0    0    0  0.00000000000E+00  0.00000000000E+00  0.45593999997E+02  0.45594000000E+02  0.51100000000E-03 0. -1.
         11   -1    0    0    0    0 -0.00000000000E+00 -0.00000000000E+00 -0.45593999997E+02  0.45594000000E+02  0.51100000000E-03 0.  1.
         23    2    1    2    0    0  0.00000000000E+00 -0.35527136788E-14  0.17763568394E-14  0.91188000000E+02  0.91188000000E+02 0.  0.
    9900012    2    3    3    0    0 -0.33220700441E+02  0.24615108683E+02  0.13194873517E+02  0.47787271891E+02  0.20000003859E+02 0.  0.
        -12    1    3    3    0    0  0.33220700441E+02 -0.24615108683E+02 -0.13194873517E+02  0.43400728109E+02  0.00000000000E+00 0.  1.
         11    1    4    4    0    0 -0.23072424045E+02  0.20458345829E+02  0.11049919314E+02  0.32756394528E+02  0.51100000000E-03 0. -1.
        -11    1    4    4    0    0 -0.93874180547E+01  0.20987620850E+01  0.54560335408E+01  0.11058784847E+02  0.51100000000E-03 0.  1.
        -12    1    4    4    0    0 -0.76085834146E+00  0.20580007689E+01 -0.33110793374E+01  0.39720925164E+01  0.00000000000E+00 0.  1.
</event>
<event>
 8    1  0.2994958E-010  0.9118800E+02  0.7816164E-02  0.1184000E+00
        -11   -1    0    0    0    0  0.00000000000E+00  0.00000000000E+00  0.45593999997E+02  0.45594000000E+02  0.51100000000E-03 0. -1.
         11   -1    0    0    0    0 -0.00000000000E+00 -0.00000000000E+00 -0.45593999997E+02  0.45594000000E+02  0.51100000000E-03 0.  1.
         23    2    1    2    0    0  0.00000000000E+00  0.00000000000E+00  0.00000000000E+00  0.91188000000E+02  0.91188000000E+02 0.  0.
    9900012    2    3    3    0    0 -0.13558556974E+02  0.32040172918E+02 -0.25946407751E+02  0.47787271631E+02  0.20000002675E+02 0.  0.
         12    1    3    3    0    0  0.13558556974E+02 -0.32040172918E+02  0.25946407751E+02  0.43400728369E+02  0.00000000000E+00 0. -1.
         11    1    4    4    0    0  0.15417174540E+01  0.11965682792E+01 -0.44388191292E+01  0.48488951193E+01  0.51100000000E-03 0.  1.
        -11    1    4    4    0    0 -0.44033714938E+01  0.72430865331E+01  0.11039229367E+01  0.85481360044E+01  0.51100000000E-03 0. -1.
        -12    1    4    4    0    0 -0.10696902934E+02  0.23600518105E+02 -0.22611511558E+02  0.34390240507E+02  0.00000000000E+00 0.  1.
</event>
<event>
 8    1  0.2994958E-010  0.9118800E+02  0.7816164E-02  0.1184000E+00
        -11   -1    0    0    0    0  0.00000000000E+00  0.00000000000E+00  0.45593999997E+02  0.45594000000E+02  0.51100000000E-03 0. -1.
         11   -1    0    0    0    0 -0.00000000000E+00 -0.00000000000E+00 -0.45593999997E+02  0.45594000000E+02  0.51100000000E-03 0.  1.
         23    2    1    2    0    0  0.00000000000E+00  0.00000000000E+00  0.00000000000E+00  0.91188000000E+02  0.91188000000E+02 0.  0.
    9900012    2    3    3    0    0  0.20456443396E+02 -0.99016031691E+01  0.36974520471E+02  0.47787274363E+02  0.20000015133E+02 0.  0.
        -12    1    3    3    0    0 -0.20456443396E+02  0.99016031691E+01 -0.36974520471E+02  0.43400725637E+02  0.00000000000E+00 0.  1.
         11    1    4    4    0    0  0.12428483801E+02 -0.69963126080E+01  0.25006679942E+02  0.28788012118E+02  0.51100000000E-03 0. -1.
        -11    1    4    4    0    0  0.57759310497E+01  0.33883545872E+01  0.99929674857E+01  0.12029203038E+02  0.51100000000E-03 0.  1.
        -12    1    4    4    0    0  0.22520285461E+01 -0.62936451483E+01  0.19748730426E+01  0.69700592077E+01  0.00000000000E+00 0.  1.
</event>
<event>
 8    1  0.2994958E-010  0.9118800E+02  0.7816164E-02  0.1184000E+00
        -11   -1    0    0    0    0  0.00000000000E+00  0.00000000000E+00  0.45593999997E+02  0.45594000000E+02  0.51100000000E-03 0. -1.
         11   -1    0    0    0    0 -0.00000000000E+00 -0.00000000000E+00 -0.45593999997E+02  0.45594000000E+02  0.51100000000E-03 0.  1.
         23    2    1    2    0    0  0.71054273576E-14  0.00000000000E+00 -0.35527136788E-14  0.91188000000E+02  0.91188000000E+02 0.  0.
    9900012    2    3    3    0    0 -0.27962197953E+02  0.11355364739E+02  0.31189653979E+02  0.47787270305E+02  0.19999996629E+02 0.  0.
        -12    1    3    3    0    0  0.27962197953E+02 -0.11355364739E+02 -0.31189653979E+02  0.43400729695E+02  0.00000000000E+00 0.  1.
         11    1    4    4    0    0 -0.71989130143E+01  0.15078261096E+01  0.98844352274E+00  0.74212471339E+01  0.51100000000E-03 0. -1.
        -11    1    4    4    0    0 -0.10639958583E+02 -0.22590805265E+01  0.10441258400E+02  0.15077534305E+02  0.51100000000E-03 0.  1.
        -12    1    4    4    0    0 -0.10123326355E+02  0.12106619156E+02  0.19759952056E+02  0.25288488866E+02  0.00000000000E+00 0.  1.
</event>
<event>
 8    1  0.2994958E-010  0.9118800E+02  0.7816164E-02  0.1184000E+00
        -11   -1    0    0    0    0  0.00000000000E+00  0.00000000000E+00  0.45593999997E+02  0.45594000000E+02  0.51100000000E-03 0. -1.
         11   -1    0    0    0    0 -0.00000000000E+00 -0.00000000000E+00 -0.45593999997E+02  0.45594000000E+02  0.51100000000E-03 0.  1.
         23    2    1    2    0    0  0.00000000000E+00  0.17763568394E-14 -0.71054273576E-14  0.91188000000E+02  0.91188000000E+02 0.  0.
    9900012    2    3    3    0    0  0.19903544006E+02  0.82615319276E+01 -0.37672521999E+02  0.47787275495E+02  0.20000020291E+02 0.  0.
         12    1    3    3    0    0 -0.19903544006E+02 -0.82615319276E+01  0.37672521999E+02  0.43400724505E+02  0.00000000000E+00 0. -1.
         11    1    4    4    0    0 -0.32031421026E+01  0.71219354438E+00 -0.38087629354E+01  0.50273267581E+01  0.51100000000E-03 0. -1.
        -11    1    4    4    0    0  0.38710194716E+01  0.52758060451E+01 -0.64020732988E+01  0.91545324271E+01  0.51100000000E-03 0.  1.
        -12    1    4    4    0    0  0.19235666637E+02  0.22735323382E+01 -0.27461685765E+02  0.33605416310E+02  0.00000000000E+00 0.  1.
</event>
<event>
 8    1  0.2994958E-010  0.9118800E+02  0.7816164E-02  0.1184000E+00
        -11   -1    0    0    0    0  0.00000000000E+00  0.00000000000E+00  0.45593999997E+02  0.45594000000E+02  0.51100000000E-03 0. -1.
         11   -1    0    0    0    0 -0.00000000000E+00 -0.00000000000E+00 -0.45593999997E+02  0.45594000000E+02  0.51100000000E-03 0.  1.
         23    2    1    2    0    0 -0.71054273576E-14  0.00000000000E+00  0.35527136788E-14  0.91188000000E+02  0.91188000000E+02 0.  0.
    9900012    2    3    3    0    0  0.37562907191E+02 -0.67264307534E+01 -0.20673801590E+02  0.47787274897E+02  0.20000017565E+02 0.  0.
         12    1    3    3    0    0 -0.37562907191E+02  0.67264307534E+01  0.20673801590E+02  0.43400725103E+02  0.00000000000E+00 0. -1.
         11    1    4    4    0    0  0.75812912405E+01 -0.58429484244E+00 -0.37953694476E+01  0.84983649511E+01  0.51100000000E-03 0. -1.
        -11    1    4    4    0    0  0.10769104234E+02 -0.11246799531E+02 -0.81944917141E+01  0.17595846112E+02  0.51100000000E-03 0.  1.
         12    1    4    4    0    0  0.19212511716E+02  0.51046636205E+01 -0.86839404282E+01  0.21693063833E+02  0.00000000000E+00 0. -1.
</event>
<event>
 8    1  0.2994958E-010  0.9118800E+02  0.7816164E-02  0.1184000E+00
        -11   -1    0    0    0    0  0.00000000000E+00  0.00000000000E+00  0.45593999997E+02  0.45594000000E+02  0.51100000000E-03 0. -1.
         11   -1    0    0    0    0 -0.00000000000E+00 -0.00000000000E+00 -0.45593999997E+02  0.45594000000E+02  0.51100000000E-03 0.  1.
         23    2    1    2    0    0 -0.88817841970E-15  0.00000000000E+00 -0.71054273576E-14  0.91188000000E+02  0.91188000000E+02 0.  0.
    9900012    2    3    3    0    0  0.58689301932E+01  0.19125364382E+02  0.38514921808E+02  0.47787272976E+02  0.20000008805E+02 0.  0.
        -12    1    3    3    0    0 -0.58689301932E+01 -0.19125364382E+02 -0.38514921808E+02  0.43400727024E+02  0.00000000000E+00 0.  1.
         11    1    4    4    0    0  0.76684090542E+01  0.16499588163E+02  0.27643002322E+02  0.33093450781E+02  0.51100000000E-03 0. -1.
        -11    1    4    4    0    0 -0.69694556939E-01  0.53498876936E+01  0.28826630212E+01  0.60774914250E+01  0.51100000000E-03 0.  1.
        -12    1    4    4    0    0 -0.17297843040E+01 -0.27241114746E+01  0.79892564655E+01  0.86163307699E+01  0.00000000000E+00 0.  1.
</event>
<event>
 8    1  0.2994958E-010  0.9118800E+02  0.7816164E-02  0.1184000E+00
        -11   -1    0    0    0    0  0.00000000000E+00  0.00000000000E+00  0.45593999997E+02  0.45594000000E+02  0.51100000000E-03 0.  1.
         11   -1    0    0    0    0 -0.00000000000E+00 -0.00000000000E+00 -0.45593999997E+02  0.45594000000E+02  0.51100000000E-03 0. -1.
         23    2    1    2    0    0 -0.35527136788E-14  0.00000000000E+00 -0.35527136788E-14  0.91188000000E+02  0.91188000000E+02 0.  0.
    9900012    2    3    3    0    0 -0.28988410308E+02  0.11805335172E+02 -0.30065432986E+02  0.47787261166E+02  0.19999954961E+02 0.  0.
         12    1    3    3    0    0  0.28988410308E+02 -0.11805335172E+02  0.30065432986E+02  0.43400738834E+02  0.00000000000E+00 0. -1.
         11    1    4    4    0    0 -0.45213009984E+01 -0.39738034949E+01 -0.78235254330E+01  0.98712120530E+01  0.51100000000E-03 0. -1.
        -11    1    4    4    0    0 -0.12083246917E+02  0.64651798006E+01 -0.46470576931E+01  0.14470609917E+02  0.51100000000E-03 0.  1.
        -12    1    4    4    0    0 -0.12383862393E+02  0.93139588665E+01 -0.17594849859E+02  0.23445439196E+02  0.00000000000E+00 0.  1.
</event>
<event>
 8    1  0.2994958E-010  0.9118800E+02  0.7816164E-02  0.1184000E+00
        -11   -1    0    0    0    0  0.00000000000E+00  0.00000000000E+00  0.45593999997E+02  0.45594000000E+02  0.51100000000E-03 0. -1.
         11   -1    0    0    0    0 -0.00000000000E+00 -0.00000000000E+00 -0.45593999997E+02  0.45594000000E+02  0.51100000000E-03 0.  1.
         23    2    1    2    0    0  0.00000000000E+00  0.00000000000E+00 -0.35527136788E-14  0.91188000000E+02  0.91188000000E+02 0.  0.
    9900012    2    3    3    0    0 -0.25609604696E+02  0.24093665663E+02 -0.25441431194E+02  0.47787274212E+02  0.20000014441E+02 0.  0.
         12    1    3    3    0    0  0.25609604696E+02 -0.24093665663E+02  0.25441431194E+02  0.43400725788E+02  0.00000000000E+00 0. -1.
         11    1    4    4    0    0 -0.12824244073E+02  0.10378487589E+02 -0.17130627191E+02  0.23783032373E+02  0.51100000000E-03 0. -1.
        -11    1    4    4    0    0 -0.17275726139E+01  0.62303347069E+01 -0.84636150547E+01  0.10650556687E+02  0.51100000000E-03 0.  1.
        -12    1    4    4    0    0 -0.11057788009E+02  0.74848433675E+01  0.15281105139E+00  0.13353685151E+02  0.00000000000E+00 0.  1.
</event>
<event>
 8    1  0.2994958E-010  0.9118800E+02  0.7816164E-02  0.1184000E+00
        -11   -1    0    0    0    0  0.00000000000E+00  0.00000000000E+00  0.45593999997E+02  0.45594000000E+02  0.51100000000E-03 0. -1.
         11   -1    0    0    0    0 -0.00000000000E+00 -0.00000000000E+00 -0.45593999997E+02  0.45594000000E+02  0.51100000000E-03 0.  1.
         23    2    1    2    0    0  0.44408920985E-15  0.00000000000E+00  0.00000000000E+00  0.91188000000E+02  0.91188000000E+02 0.  0.
    9900012    2    3    3    0    0 -0.36261000033E+01  0.15560204256E+02 -0.40352857548E+02  0.47787289522E+02  0.20000084247E+02 0.  0.
         12    1    3    3    0    0  0.36261000033E+01 -0.15560204256E+02  0.40352857548E+02  0.43400710478E+02  0.00000000000E+00 0. -1.
         11    1    4    4    0    0  0.55243948894E+01  0.53407965700E+01 -0.17044001893E+02  0.18696016894E+02  0.51100000000E-03 0. -1.
        -11    1    4    4    0    0  0.16445301511E+01  0.52196367872E+01 -0.64739259585E+01  0.84770752730E+01  0.51100000000E-03 0.  1.
        -12    1    4    4    0    0 -0.10795025044E+02  0.49997708984E+01 -0.16834929696E+02  0.20614197355E+02  0.00000000000E+00 0.  1.
</event>
<event>
 8    1  0.2994958E-010  0.9118800E+02  0.7816164E-02  0.1184000E+00
        -11   -1    0    0    0    0  0.00000000000E+00  0.00000000000E+00  0.45593999997E+02  0.45594000000E+02  0.51100000000E-03 0. -1.
         11   -1    0    0    0    0 -0.00000000000E+00 -0.00000000000E+00 -0.45593999997E+02  0.45594000000E+02  0.51100000000E-03 0.  1.
         23    2    1    2    0    0  0.00000000000E+00  0.00000000000E+00 -0.71054273576E-14  0.91188000000E+02  0.91188000000E+02 0.  0.
    9900012    2    3    3    0    0 -0.14452956182E+02 -0.98842076560E+01 -0.39711925933E+02  0.47787279215E+02  0.20000037251E+02 0.  0.
         12    1    3    3    0    0  0.14452956182E+02  0.98842076560E+01  0.39711925933E+02  0.43400720785E+02  0.00000000000E+00 0. -1.
         11    1    4    4    0    0  0.21598732233E+01  0.18936685733E+01 -0.10711050915E+02  0.11089528618E+02  0.51100000000E-03 0. -1.
        -11    1    4    4    0    0 -0.18176435155E+01 -0.57002432951E+01 -0.11667758895E+02  0.13112330055E+02  0.51100000000E-03 0.  1.
        -12    1    4    4    0    0 -0.14795185890E+02 -0.60776329342E+01 -0.17333116123E+02  0.23585420542E+02  0.00000000000E+00 0.  1.
</event>
<event>
 8    1  0.2994958E-010  0.9118800E+02  0.7816164E-02  0.1184000E+00
        -11   -1    0    0    0    0  0.00000000000E+00  0.00000000000E+00  0.45593999997E+02  0.45594000000E+02  0.51100000000E-03 0. -1.
         11   -1    0    0    0    0 -0.00000000000E+00 -0.00000000000E+00 -0.45593999997E+02  0.45594000000E+02  0.51100000000E-03 0.  1.
         23    2    1    2    0    0 -0.44408920985E-15 -0.71054273576E-14  0.14210854715E-13  0.91188000000E+02  0.91188000000E+02 0.  0.
    9900012    2    3    3    0    0 -0.19135796346E+01 -0.19213932292E+02  0.38868851025E+02  0.47787256214E+02  0.19999932383E+02 0.  0.
        -12    1    3    3    0    0  0.19135796346E+01  0.19213932292E+02 -0.38868851025E+02  0.43400743786E+02  0.00000000000E+00 0.  1.
         11    1    4    4    0    0 -0.54893680600E+00 -0.12493785608E+02  0.34597679590E+02  0.36788523261E+02  0.51100000000E-03 0. -1.
        -11    1    4    4    0    0 -0.92143124198E+00 -0.70109962254E+01  0.59479210933E+01  0.92401769030E+01  0.51100000000E-03 0.  1.
        -12    1    4    4    0    0 -0.44321158664E+00  0.29084954167E+00 -0.16767496580E+01  0.17585560503E+01  0.00000000000E+00 0.  1.
</event>
<event>
 8    1  0.2994958E-010  0.9118800E+02  0.7816164E-02  0.1184000E+00
        -11   -1    0    0    0    0  0.00000000000E+00  0.00000000000E+00  0.45593999997E+02  0.45594000000E+02  0.51100000000E-03 0. -1.
         11   -1    0    0    0    0 -0.00000000000E+00 -0.00000000000E+00 -0.45593999997E+02  0.45594000000E+02  0.51100000000E-03 0.  1.
         23    2    1    2    0    0  0.00000000000E+00 -0.71054273576E-14  0.00000000000E+00  0.91188000000E+02  0.91188000000E+02 0.  0.
    9900012    2    3    3    0    0 -0.16580051350E+02  0.33075533834E+02  0.22687754669E+02  0.47787271284E+02  0.20000001093E+02 0.  0.
        -12    1    3    3    0    0  0.16580051350E+02 -0.33075533834E+02 -0.22687754669E+02  0.43400728716E+02  0.00000000000E+00 0.  1.
         11    1    4    4    0    0 -0.91989364845E+01  0.26292906104E+02  0.21459377811E+02  0.35163080641E+02  0.51100000000E-03 0. -1.
        -11    1    4    4    0    0  0.38188918005E+00  0.42649670297E+01 -0.40549609041E+00  0.43011870978E+01  0.51100000000E-03 0.  1.
         12    1    4    4    0    0 -0.77630040454E+01  0.25176606996E+01  0.16338729491E+01  0.83230035457E+01  0.00000000000E+00 0. -1.
</event>
<event>
 8    1  0.2994958E-010  0.9118800E+02  0.7816164E-02  0.1184000E+00
        -11   -1    0    0    0    0  0.00000000000E+00  0.00000000000E+00  0.45593999997E+02  0.45594000000E+02  0.51100000000E-03 0. -1.
         11   -1    0    0    0    0 -0.00000000000E+00 -0.00000000000E+00 -0.45593999997E+02  0.45594000000E+02  0.51100000000E-03 0.  1.
         23    2    1    2    0    0  0.00000000000E+00  0.22204460493E-15  0.00000000000E+00  0.91188000000E+02  0.91188000000E+02 0.  0.
    9900012    2    3    3    0    0 -0.28760114630E+02  0.18007251787E+01 -0.32453603558E+02  0.47787272027E+02  0.20000004481E+02 0.  0.
         12    1    3    3    0    0  0.28760114630E+02 -0.18007251787E+01  0.32453603558E+02  0.43400727973E+02  0.00000000000E+00 0. -1.
         11    1    4    4    0    0 -0.14521491736E+02  0.55074884046E+01 -0.87067097527E+01  0.17804857364E+02  0.51100000000E-03 0. -1.
        -11    1    4    4    0    0 -0.11902927926E+02 -0.21150312371E+01 -0.92758770974E+01  0.15237944301E+02  0.51100000000E-03 0.  1.
        -12    1    4    4    0    0 -0.23356949681E+01 -0.15917319889E+01 -0.14471016708E+02  0.14744470362E+02  0.00000000000E+00 0.  1.
</event>
<event>
 8    1  0.2994958E-010  0.9118800E+02  0.7816164E-02  0.1184000E+00
        -11   -1    0    0    0    0  0.00000000000E+00  0.00000000000E+00  0.45593999997E+02  0.45594000000E+02  0.51100000000E-03 0.  1.
         11   -1    0    0    0    0 -0.00000000000E+00 -0.00000000000E+00 -0.45593999997E+02  0.45594000000E+02  0.51100000000E-03 0. -1.
         23    2    1    2    0    0 -0.88817841970E-15  0.71054273576E-14 -0.44408920985E-15  0.91188000000E+02  0.91188000000E+02 0.  0.
    9900012    2    3    3    0    0 -0.76306946733E+01 -0.42636665042E+02 -0.27406840869E+01  0.47787262030E+02  0.19999958899E+02 0.  0.
         12    1    3    3    0    0  0.76306946733E+01  0.42636665042E+02  0.27406840869E+01  0.43400737970E+02  0.00000000000E+00 0. -1.
         11    1    4    4    0    0  0.16341653613E+01 -0.57576549439E+01 -0.56392729561E+00  0.60115805856E+01  0.51100000000E-03 0. -1.
        -11    1    4    4    0    0 -0.12511004939E+02 -0.25457768989E+02 -0.65675470954E+01  0.29116248412E+02  0.51100000000E-03 0.  1.
        -12    1    4    4    0    0  0.32461449043E+01 -0.11421241109E+02  0.43907903041E+01  0.12659433033E+02  0.00000000000E+00 0.  1.
</event>
<event>
 8    1  0.2994958E-010  0.9118800E+02  0.7816164E-02  0.1184000E+00
        -11   -1    0    0    0    0  0.00000000000E+00  0.00000000000E+00  0.45593999997E+02  0.45594000000E+02  0.51100000000E-03 0.  1.
         11   -1    0    0    0    0 -0.00000000000E+00 -0.00000000000E+00 -0.45593999997E+02  0.45594000000E+02  0.51100000000E-03 0. -1.
         23    2    1    2    0    0  0.00000000000E+00 -0.22204460493E-15  0.00000000000E+00  0.91188000000E+02  0.91188000000E+02 0.  0.
    9900012    2    3    3    0    0  0.42933474194E+02  0.68690185425E+00 -0.63142042398E+01  0.47787260194E+02  0.19999950530E+02 0.  0.
         12    1    3    3    0    0 -0.42933474194E+02 -0.68690185425E+00  0.63142042398E+01  0.43400739806E+02  0.00000000000E+00 0. -1.
         11    1    4    4    0    0  0.24548255758E+02  0.24505815545E+01 -0.33044445190E+01  0.24890591888E+02  0.51100000000E-03 0. -1.
        -11    1    4    4    0    0  0.92870824618E+01  0.39110200697E+01 -0.60468838450E+01  0.11752054422E+02  0.51100000000E-03 0.  1.
         12    1    4    4    0    0  0.90981359743E+01 -0.56746997699E+01  0.30371241242E+01  0.11144613884E+02  0.00000000000E+00 0. -1.
</event>
<event>
 8    1  0.2994958E-010  0.9118800E+02  0.7816164E-02  0.1184000E+00
        -11   -1    0    0    0    0  0.00000000000E+00  0.00000000000E+00  0.45593999997E+02  0.45594000000E+02  0.51100000000E-03 0. -1.
         11   -1    0    0    0    0 -0.00000000000E+00 -0.00000000000E+00 -0.45593999997E+02  0.45594000000E+02  0.51100000000E-03 0.  1.
         23    2    1    2    0    0  0.00000000000E+00 -0.35527136788E-14  0.00000000000E+00  0.91188000000E+02  0.91188000000E+02 0.  0.
    9900012    2    3    3    0    0  0.90865900882E+01  0.25576699266E+02 -0.33865751630E+02  0.47787276524E+02  0.20000024985E+02 0.  0.
         12    1    3    3    0    0 -0.90865900882E+01 -0.25576699266E+02  0.33865751630E+02  0.43400723476E+02  0.00000000000E+00 0. -1.
         11    1    4    4    0    0  0.26594986920E+00  0.47915680319E+01 -0.31981490453E+00  0.48095878588E+01  0.51100000000E-03 0. -1.
        -11    1    4    4    0    0  0.21291161097E+01  0.38443116955E+01  0.44202908981E+00  0.44167021405E+01  0.51100000000E-03 0.  1.
        -12    1    4    4    0    0  0.66915241093E+01  0.16940819538E+02 -0.33987965815E+02  0.38560986525E+02  0.00000000000E+00 0.  1.
</event>
<event>
 8    1  0.2994958E-010  0.9118800E+02  0.7816164E-02  0.1184000E+00
        -11   -1    0    0    0    0  0.00000000000E+00  0.00000000000E+00  0.45593999997E+02  0.45594000000E+02  0.51100000000E-03 0. -1.
         11   -1    0    0    0    0 -0.00000000000E+00 -0.00000000000E+00 -0.45593999997E+02  0.45594000000E+02  0.51100000000E-03 0.  1.
         23    2    1    2    0    0  0.00000000000E+00  0.00000000000E+00  0.00000000000E+00  0.91188000000E+02  0.91188000000E+02 0.  0.
    9900012    2    3    3    0    0 -0.20092358430E+02 -0.85873311313E+01  0.37499043497E+02  0.47787269748E+02  0.19999994087E+02 0.  0.
        -12    1    3    3    0    0  0.20092358430E+02  0.85873311313E+01 -0.37499043497E+02  0.43400730252E+02  0.00000000000E+00 0.  1.
         11    1    4    4    0    0 -0.31778568213E+01 -0.25814404650E+01  0.92597667622E+01  0.10124519228E+02  0.51100000000E-03 0. -1.
        -11    1    4    4    0    0 -0.80003777702E+01 -0.11521231055E+02  0.19467669904E+02  0.23994478140E+02  0.51100000000E-03 0.  1.
        -12    1    4    4    0    0 -0.89141238389E+01  0.55153403891E+01  0.87716068312E+01  0.13668272379E+02  0.00000000000E+00 0.  1.
</event>
<event>
 8    1  0.2994958E-010  0.9118800E+02  0.7816164E-02  0.1184000E+00
        -11   -1    0    0    0    0  0.00000000000E+00  0.00000000000E+00  0.45593999997E+02  0.45594000000E+02  0.51100000000E-03 0. -1.
         11   -1    0    0    0    0 -0.00000000000E+00 -0.00000000000E+00 -0.45593999997E+02  0.45594000000E+02  0.51100000000E-03 0.  1.
         23    2    1    2    0    0 -0.35527136788E-14  0.00000000000E+00  0.00000000000E+00  0.91188000000E+02  0.91188000000E+02 0.  0.
    9900012    2    3    3    0    0 -0.17299011482E+02  0.25628058157E+02 -0.30456046476E+02  0.47787263484E+02  0.19999965531E+02 0.  0.
         12    1    3    3    0    0  0.17299011482E+02 -0.25628058157E+02  0.30456046476E+02  0.43400736516E+02  0.00000000000E+00 0. -1.
         11    1    4    4    0    0 -0.20605183768E+01 -0.20745063853E+01 -0.11552433699E+01  0.31438670819E+01  0.51100000000E-03 0. -1.
        -11    1    4    4    0    0 -0.10575376673E+02  0.88346796394E+01 -0.15874712088E+02  0.21021337737E+02  0.51100000000E-03 0.  1.
         12    1    4    4    0    0 -0.46631164323E+01  0.18867884903E+02 -0.13426091017E+02  0.23622058666E+02  0.00000000000E+00 0. -1.
</event>
<event>
 8    1  0.2994958E-010  0.9118800E+02  0.7816164E-02  0.1184000E+00
        -11   -1    0    0    0    0  0.00000000000E+00  0.00000000000E+00  0.45593999997E+02  0.45594000000E+02  0.51100000000E-03 0. -1.
         11   -1    0    0    0    0 -0.00000000000E+00 -0.00000000000E+00 -0.45593999997E+02  0.45594000000E+02  0.51100000000E-03 0.  1.
         23    2    1    2    0    0  0.00000000000E+00  0.00000000000E+00 -0.71054273576E-14  0.91188000000E+02  0.91188000000E+02 0.  0.
    9900012    2    3    3    0    0  0.13872115828E+02  0.19261986721E+02  0.36334054140E+02  0.47787271662E+02  0.20000002816E+02 0.  0.
        -12    1    3    3    0    0 -0.13872115828E+02 -0.19261986721E+02 -0.36334054140E+02  0.43400728338E+02  0.00000000000E+00 0.  1.
         11    1    4    4    0    0  0.68204551884E-01  0.13976971062E+02  0.91684979877E+01  0.16715912405E+02  0.51100000000E-03 0. -1.
        -11    1    4    4    0    0  0.33286761418E+01  0.14756953540E+00  0.47632775944E+01  0.58129747399E+01  0.51100000000E-03 0.  1.
         12    1    4    4    0    0  0.10475235134E+02  0.51374461239E+01  0.22402278558E+02  0.25258384517E+02  0.00000000000E+00 0. -1.
</event>
<event>
 8    1  0.2994958E-010  0.9118800E+02  0.7816164E-02  0.1184000E+00
        -11   -1    0    0    0    0  0.00000000000E+00  0.00000000000E+00  0.45593999997E+02  0.45594000000E+02  0.51100000000E-03 0.  1.
         11   -1    0    0    0    0 -0.00000000000E+00 -0.00000000000E+00 -0.45593999997E+02  0.45594000000E+02  0.51100000000E-03 0. -1.
         23    2    1    2    0    0  0.17763568394E-14 -0.35527136788E-14  0.00000000000E+00  0.91188000000E+02  0.91188000000E+02 0.  0.
    9900012    2    3    3    0    0 -0.14668766246E+02 -0.30716862452E+02  0.26924429925E+02  0.47787271103E+02  0.20000000266E+02 0.  0.
         12    1    3    3    0    0  0.14668766246E+02  0.30716862452E+02 -0.26924429925E+02  0.43400728897E+02  0.00000000000E+00 0. -1.
         11    1    4    4    0    0 -0.12078618058E+01 -0.78017955337E+01  0.17396093206E+02  0.19103690815E+02  0.51100000000E-03 0. -1.
        -11    1    4    4    0    0 -0.23689598283E+01 -0.77793032573E+01  0.43249575699E+01  0.92105802249E+01  0.51100000000E-03 0.  1.
        -12    1    4    4    0    0 -0.11091944611E+02 -0.15135763661E+02  0.52033791493E+01  0.19473000062E+02  0.00000000000E+00 0.  1.
</event>
<event>
 8    1  0.2994958E-010  0.9118800E+02  0.7816164E-02  0.1184000E+00
        -11   -1    0    0    0    0  0.00000000000E+00  0.00000000000E+00  0.45593999997E+02  0.45594000000E+02  0.51100000000E-03 0. -1.
         11   -1    0    0    0    0 -0.00000000000E+00 -0.00000000000E+00 -0.45593999997E+02  0.45594000000E+02  0.51100000000E-03 0.  1.
         23    2    1    2    0    0  0.00000000000E+00 -0.71054273576E-14  0.00000000000E+00  0.91188000000E+02  0.91188000000E+02 0.  0.
    9900012    2    3    3    0    0 -0.27106991380E+02 -0.21830796102E+02  0.25927803414E+02  0.47787266942E+02  0.19999981294E+02 0.  0.
        -12    1    3    3    0    0  0.27106991380E+02  0.21830796102E+02 -0.25927803414E+02  0.43400733058E+02  0.00000000000E+00 0.  1.
         11    1    4    4    0    0 -0.79387659682E+01 -0.11373372961E+02  0.50727526604E+01  0.14768562469E+02  0.51100000000E-03 0. -1.
        -11    1    4    4    0    0 -0.16772368869E+02 -0.61219924378E+01  0.86355585388E+01  0.19833406677E+02  0.51100000000E-03 0.  1.
        -12    1    4    4    0    0 -0.23958565431E+01 -0.43354307038E+01  0.12219492215E+02  0.13185297795E+02  0.00000000000E+00 0.  1.
</event>
<event>
 8    1  0.2994958E-010  0.9118800E+02  0.7816164E-02  0.1184000E+00
        -11   -1    0    0    0    0  0.00000000000E+00  0.00000000000E+00  0.45593999997E+02  0.45594000000E+02  0.51100000000E-03 0. -1.
         11   -1    0    0    0    0 -0.00000000000E+00 -0.00000000000E+00 -0.45593999997E+02  0.45594000000E+02  0.51100000000E-03 0.  1.
         23    2    1    2    0    0  0.00000000000E+00 -0.11102230246E-15  0.71054273576E-14  0.91188000000E+02  0.91188000000E+02 0.  0.
    9900012    2    3    3    0    0  0.26537491144E+02  0.37226071638E+00  0.34340152187E+02  0.47787273433E+02  0.20000010893E+02 0.  0.
        -12    1    3    3    0    0 -0.26537491144E+02 -0.37226071638E+00 -0.34340152187E+02  0.43400726567E+02  0.00000000000E+00 0.  1.
         11    1    4    4    0    0  0.45748410887E+01  0.18617638939E+01  0.16717293256E+01  0.52144045665E+01  0.51100000000E-03 0. -1.
        -11    1    4    4    0    0  0.10086721492E+01 -0.27263046499E+01  0.14570496230E+02  0.14857641710E+02  0.51100000000E-03 0.  1.
         12    1    4    4    0    0  0.20953977906E+02  0.12368014724E+01  0.18097926632E+02  0.27715227157E+02  0.00000000000E+00 0. -1.
</event>
<event>
 8    1  0.2994958E-010  0.9118800E+02  0.7816164E-02  0.1184000E+00
        -11   -1    0    0    0    0  0.00000000000E+00  0.00000000000E+00  0.45593999997E+02  0.45594000000E+02  0.51100000000E-03 0. -1.
         11   -1    0    0    0    0 -0.00000000000E+00 -0.00000000000E+00 -0.45593999997E+02  0.45594000000E+02  0.51100000000E-03 0.  1.
         23    2    1    2    0    0 -0.88817841970E-15  0.00000000000E+00  0.00000000000E+00  0.91188000000E+02  0.91188000000E+02 0.  0.
    9900012    2    3    3    0    0 -0.49516672457E+01 -0.20752555927E+02  0.37794652191E+02  0.47787270510E+02  0.19999997565E+02 0.  0.
        -12    1    3    3    0    0  0.49516672457E+01  0.20752555927E+02 -0.37794652191E+02  0.43400729490E+02  0.00000000000E+00 0.  1.
         11    1    4    4    0    0 -0.42969167462E+01 -0.26976210392E+01  0.19524584174E+02  0.20173002757E+02  0.51100000000E-03 0. -1.
        -11    1    4    4    0    0  0.50235099464E+00 -0.67952282178E+01  0.13901343104E+02  0.15481434798E+02  0.51100000000E-03 0.  1.
        -12    1    4    4    0    0 -0.11571014941E+01 -0.11259706670E+02  0.43687249129E+01  0.12132832955E+02  0.00000000000E+00 0.  1.
</event>
<event>
 8    1  0.2994958E-010  0.9118800E+02  0.7816164E-02  0.1184000E+00
        -11   -1    0    0    0    0  0.00000000000E+00  0.00000000000E+00  0.45593999997E+02  0.45594000000E+02  0.51100000000E-03 0. -1.
         11   -1    0    0    0    0 -0.00000000000E+00 -0.00000000000E+00 -0.45593999997E+02  0.45594000000E+02  0.51100000000E-03 0.  1.
         23    2    1    2    0    0 -0.88817841970E-15  0.71054273576E-14  0.00000000000E+00  0.91188000000E+02  0.91188000000E+02 0.  0.
    9900012    2    3    3    0    0  0.58461562540E+01 -0.42800156664E+02 -0.41943031688E+01  0.47787272674E+02  0.20000007429E+02 0.  0.
         12    1    3    3    0    0 -0.58461562540E+01  0.42800156664E+02  0.41943031688E+01  0.43400727326E+02  0.00000000000E+00 0. -1.
         11    1    4    4    0    0  0.81289941596E+01 -0.10625884756E+02 -0.31121606857E+01  0.13735920693E+02  0.51100000000E-03 0. -1.
        -11    1    4    4    0    0 -0.39104942071E+01 -0.18157515676E+02 -0.53147964767E+01  0.19319275408E+02  0.51100000000E-03 0.  1.
         12    1    4    4    0    0  0.16276563014E+01 -0.14016756232E+02  0.42326539937E+01  0.14732076572E+02  0.00000000000E+00 0. -1.
</event>
<event>
 8    1  0.2994958E-010  0.9118800E+02  0.7816164E-02  0.1184000E+00
        -11   -1    0    0    0    0  0.00000000000E+00  0.00000000000E+00  0.45593999997E+02  0.45594000000E+02  0.51100000000E-03 0. -1.
         11   -1    0    0    0    0 -0.00000000000E+00 -0.00000000000E+00 -0.45593999997E+02  0.45594000000E+02  0.51100000000E-03 0.  1.
         23    2    1    2    0    0 -0.88817841970E-15  0.88817841970E-15  0.00000000000E+00  0.91188000000E+02  0.91188000000E+02 0.  0.
    9900012    2    3    3    0    0 -0.48514404462E+01  0.77521655683E+01 -0.42426298524E+02  0.47787270147E+02  0.19999995906E+02 0.  0.
         12    1    3    3    0    0  0.48514404462E+01 -0.77521655683E+01  0.42426298524E+02  0.43400729853E+02  0.00000000000E+00 0. -1.
         11    1    4    4    0    0 -0.26820939880E+01  0.59078971625E+01 -0.27981032561E+01  0.70658516214E+01  0.51100000000E-03 0. -1.
        -11    1    4    4    0    0  0.98661134469E+00  0.43105067647E+01 -0.11705059285E+02  0.12512485111E+02  0.51100000000E-03 0.  1.
        -12    1    4    4    0    0 -0.31559578028E+01 -0.24662383589E+01 -0.27923135982E+02  0.28208933414E+02  0.00000000000E+00 0.  1.
</event>
<event>
 8    1  0.2994958E-010  0.9118800E+02  0.7816164E-02  0.1184000E+00
        -11   -1    0    0    0    0  0.00000000000E+00  0.00000000000E+00  0.45593999997E+02  0.45594000000E+02  0.51100000000E-03 0.  1.
         11   -1    0    0    0    0 -0.00000000000E+00 -0.00000000000E+00 -0.45593999997E+02  0.45594000000E+02  0.51100000000E-03 0. -1.
         23    2    1    2    0    0  0.00000000000E+00  0.22204460493E-15  0.88817841970E-15  0.91188000000E+02  0.91188000000E+02 0.  0.
    9900012    2    3    3    0    0 -0.43218440922E+02  0.13450761645E+01 -0.37390823680E+01  0.47787267257E+02  0.19999982733E+02 0.  0.
         12    1    3    3    0    0  0.43218440922E+02 -0.13450761645E+01  0.37390823680E+01  0.43400732743E+02  0.00000000000E+00 0. -1.
         11    1    4    4    0    0 -0.14199101260E+02  0.65031716902E+01 -0.46995411925E+01  0.16309242972E+02  0.51100000000E-03 0.  1.
        -11    1    4    4    0    0 -0.28441957909E+01 -0.32774838529E+01 -0.25001725532E+01  0.50082145681E+01  0.51100000000E-03 0. -1.
        -12    1    4    4    0    0 -0.26175143871E+02 -0.18806116728E+01  0.34606313777E+01  0.26469809717E+02  0.00000000000E+00 0.  1.
</event>
<event>
 8    1  0.2994958E-010  0.9118800E+02  0.7816164E-02  0.1184000E+00
        -11   -1    0    0    0    0  0.00000000000E+00  0.00000000000E+00  0.45593999997E+02  0.45594000000E+02  0.51100000000E-03 0. -1.
         11   -1    0    0    0    0 -0.00000000000E+00 -0.00000000000E+00 -0.45593999997E+02  0.45594000000E+02  0.51100000000E-03 0.  1.
         23    2    1    2    0    0  0.00000000000E+00  0.00000000000E+00 -0.35527136788E-14  0.91188000000E+02  0.91188000000E+02 0.  0.
    9900012    2    3    3    0    0 -0.13447759469E+01  0.29454772934E+02  0.31846989850E+02  0.47787276119E+02  0.20000023135E+02 0.  0.
        -12    1    3    3    0    0  0.13447759469E+01 -0.29454772934E+02 -0.31846989850E+02  0.43400723881E+02  0.00000000000E+00 0.  1.
         11    1    4    4    0    0 -0.57985271992E+01  0.12738114530E+02  0.16013375794E+02  0.21267597044E+02  0.51100000000E-03 0. -1.
        -11    1    4    4    0    0 -0.41388052476E+00  0.79681452926E+01  0.14322156257E+02  0.16394718559E+02  0.51100000000E-03 0.  1.
        -12    1    4    4    0    0  0.48676317771E+01  0.87485131108E+01  0.15114577992E+01  0.10124960516E+02  0.00000000000E+00 0.  1.
</event>
<event>
 8    1  0.2994958E-010  0.9118800E+02  0.7816164E-02  0.1184000E+00
        -11   -1    0    0    0    0  0.00000000000E+00  0.00000000000E+00  0.45593999997E+02  0.45594000000E+02  0.51100000000E-03 0. -1.
         11   -1    0    0    0    0 -0.00000000000E+00 -0.00000000000E+00 -0.45593999997E+02  0.45594000000E+02  0.51100000000E-03 0.  1.
         23    2    1    2    0    0  0.00000000000E+00 -0.22204460493E-15  0.00000000000E+00  0.91188000000E+02  0.91188000000E+02 0.  0.
    9900012    2    3    3    0    0  0.41193671782E+02 -0.15959481221E+01 -0.13570472562E+02  0.47787269927E+02  0.19999994906E+02 0.  0.
         12    1    3    3    0    0 -0.41193671782E+02  0.15959481221E+01  0.13570472562E+02  0.43400730073E+02  0.00000000000E+00 0. -1.
         11    1    4    4    0    0  0.74508521699E+00  0.36128554484E+01 -0.18729296699E-01  0.36889331139E+01  0.51100000000E-03 0. -1.
        -11    1    4    4    0    0  0.14010797754E+02 -0.12012180934E+01  0.12735200226E+00  0.14062773460E+02  0.51100000000E-03 0.  1.
        -12    1    4    4    0    0  0.26437788811E+02 -0.40075854772E+01 -0.13679095267E+02  0.30035563353E+02  0.00000000000E+00 0.  1.
</event>
<event>
 8    1  0.2994958E-010  0.9118800E+02  0.7816164E-02  0.1184000E+00
        -11   -1    0    0    0    0  0.00000000000E+00  0.00000000000E+00  0.45593999997E+02  0.45594000000E+02  0.51100000000E-03 0. -1.
         11   -1    0    0    0    0 -0.00000000000E+00 -0.00000000000E+00 -0.45593999997E+02  0.45594000000E+02  0.51100000000E-03 0.  1.
         23    2    1    2    0    0  0.00000000000E+00 -0.22204460493E-15  0.00000000000E+00  0.91188000000E+02  0.91188000000E+02 0.  0.
    9900012    2    3    3    0    0 -0.24319280731E+02  0.82449717178E+00 -0.35937670636E+02  0.47787269803E+02  0.19999994341E+02 0.  0.
         12    1    3    3    0    0  0.24319280731E+02 -0.82449717178E+00  0.35937670636E+02  0.43400730197E+02  0.00000000000E+00 0. -1.
         11    1    4    4    0    0 -0.11260636621E+01 -0.38553088718E+01 -0.14926376826E+02  0.15457300905E+02  0.51100000000E-03 0. -1.
        -11    1    4    4    0    0 -0.89159049168E+01  0.74868606179E+00 -0.12093491051E+02  0.15043484216E+02  0.51100000000E-03 0.  1.
        -12    1    4    4    0    0 -0.14277312152E+02  0.39311199818E+01 -0.89178027595E+01  0.17286484682E+02  0.00000000000E+00 0.  1.
</event>
<event>
 8    1  0.2994958E-010  0.9118800E+02  0.7816164E-02  0.1184000E+00
        -11   -1    0    0    0    0  0.00000000000E+00  0.00000000000E+00  0.45593999997E+02  0.45594000000E+02  0.51100000000E-03 0. -1.
         11   -1    0    0    0    0 -0.00000000000E+00 -0.00000000000E+00 -0.45593999997E+02  0.45594000000E+02  0.51100000000E-03 0.  1.
         23    2    1    2    0    0  0.00000000000E+00  0.00000000000E+00  0.00000000000E+00  0.91188000000E+02  0.91188000000E+02 0.  0.
    9900012    2    3    3    0    0 -0.11007146704E+02  0.80944978195E+01 -0.41193988435E+02  0.47787275850E+02  0.20000021912E+02 0.  0.
         12    1    3    3    0    0  0.11007146704E+02 -0.80944978195E+01  0.41193988435E+02  0.43400724150E+02  0.00000000000E+00 0. -1.
         11    1    4    4    0    0 -0.45510491868E+01 -0.40783542783E+01 -0.10758891324E+02  0.12373308576E+02  0.51100000000E-03 0. -1.
        -11    1    4    4    0    0 -0.39599472145E+00  0.29893362795E+01 -0.20078511357E+02  0.20303683453E+02  0.51100000000E-03 0.  1.
         12    1    4    4    0    0 -0.60601027960E+01  0.91835158183E+01 -0.10356585754E+02  0.15110283822E+02  0.00000000000E+00 0. -1.
</event>
<event>
 8    1  0.2994958E-010  0.9118800E+02  0.7816164E-02  0.1184000E+00
        -11   -1    0    0    0    0  0.00000000000E+00  0.00000000000E+00  0.45593999997E+02  0.45594000000E+02  0.51100000000E-03 0.  1.
         11   -1    0    0    0    0 -0.00000000000E+00 -0.00000000000E+00 -0.45593999997E+02  0.45594000000E+02  0.51100000000E-03 0. -1.
         23    2    1    2    0    0  0.71054273576E-14 -0.35527136788E-14  0.00000000000E+00  0.91188000000E+02  0.91188000000E+02 0.  0.
    9900012    2    3    3    0    0 -0.32975299015E+02 -0.27419591435E+02  0.66647472605E+01  0.47787271946E+02  0.20000004110E+02 0.  0.
        -12    1    3    3    0    0  0.32975299015E+02  0.27419591435E+02 -0.66647472605E+01  0.43400728054E+02  0.00000000000E+00 0.  1.
         11    1    4    4    0    0 -0.25457044298E+02 -0.21973356666E+02  0.14899424551E+01  0.33661690931E+02  0.51100000000E-03 0. -1.
        -11    1    4    4    0    0 -0.52283318416E+01 -0.40637431780E+01 -0.16251782621E+01  0.68184064932E+01  0.51100000000E-03 0.  1.
        -12    1    4    4    0    0 -0.22899228753E+01 -0.13824915914E+01  0.67999830675E+01  0.73071745219E+01  0.00000000000E+00 0.  1.
</event>
<event>
 8    1  0.2994958E-010  0.9118800E+02  0.7816164E-02  0.1184000E+00
        -11   -1    0    0    0    0  0.00000000000E+00  0.00000000000E+00  0.45593999997E+02  0.45594000000E+02  0.51100000000E-03 0. -1.
         11   -1    0    0    0    0 -0.00000000000E+00 -0.00000000000E+00 -0.45593999997E+02  0.45594000000E+02  0.51100000000E-03 0.  1.
         23    2    1    2    0    0 -0.44408920985E-15  0.00000000000E+00  0.71054273576E-14  0.91188000000E+02  0.91188000000E+02 0.  0.
    9900012    2    3    3    0    0 -0.26669856723E+01  0.61062672033E+01  0.42886180693E+02  0.47787264912E+02  0.19999972041E+02 0.  0.
        -12    1    3    3    0    0  0.26669856723E+01 -0.61062672033E+01 -0.42886180693E+02  0.43400735088E+02  0.00000000000E+00 0.  1.
         11    1    4    4    0    0 -0.48783770237E+01 -0.17763831134E+01  0.12073676257E+02  0.13142593274E+02  0.51100000000E-03 0. -1.
        -11    1    4    4    0    0 -0.36052240068E+01  0.38281638503E+01  0.32432594297E+01  0.61782854089E+01  0.51100000000E-03 0.  1.
         12    1    4    4    0    0  0.58166153581E+01  0.40544864664E+01  0.27569245006E+02  0.28466386229E+02  0.00000000000E+00 0. -1.
</event>
<event>
 8    1  0.2994958E-010  0.9118800E+02  0.7816164E-02  0.1184000E+00
        -11   -1    0    0    0    0  0.00000000000E+00  0.00000000000E+00  0.45593999997E+02  0.45594000000E+02  0.51100000000E-03 0. -1.
         11   -1    0    0    0    0 -0.00000000000E+00 -0.00000000000E+00 -0.45593999997E+02  0.45594000000E+02  0.51100000000E-03 0.  1.
         23    2    1    2    0    0 -0.35527136788E-14 -0.88817841970E-15  0.00000000000E+00  0.91188000000E+02  0.91188000000E+02 0.  0.
    9900012    2    3    3    0    0 -0.24332017973E+02  0.51229336570E+01 -0.35571523968E+02  0.47787252711E+02  0.19999916409E+02 0.  0.
         12    1    3    3    0    0  0.24332017973E+02 -0.51229336570E+01  0.35571523968E+02  0.43400747289E+02  0.00000000000E+00 0. -1.
         11    1    4    4    0    0 -0.26575232681E+01  0.23742219091E+01 -0.88962433043E+01  0.95834495243E+01  0.51100000000E-03 0.  1.
        -11    1    4    4    0    0 -0.94713214024E+01 -0.69258768626E+01 -0.12522278285E+02  0.17160453174E+02  0.51100000000E-03 0. -1.
        -12    1    4    4    0    0 -0.12203173303E+02  0.96745886105E+01 -0.14153002379E+02  0.21043350013E+02  0.00000000000E+00 0.  1.
</event>
<event>
 8    1  0.2994958E-010  0.9118800E+02  0.7816164E-02  0.1184000E+00
        -11   -1    0    0    0    0  0.00000000000E+00  0.00000000000E+00  0.45593999997E+02  0.45594000000E+02  0.51100000000E-03 0. -1.
         11   -1    0    0    0    0 -0.00000000000E+00 -0.00000000000E+00 -0.45593999997E+02  0.45594000000E+02  0.51100000000E-03 0.  1.
         23    2    1    2    0    0  0.00000000000E+00 -0.22204460493E-15  0.00000000000E+00  0.91188000000E+02  0.91188000000E+02 0.  0.
    9900012    2    3    3    0    0 -0.66466564900E+01  0.10270370910E+01  0.42876455319E+02  0.47787271107E+02  0.20000000286E+02 0.  0.
        -12    1    3    3    0    0  0.66466564900E+01 -0.10270370910E+01 -0.42876455319E+02  0.43400728893E+02  0.00000000000E+00 0.  1.
         11    1    4    4    0    0 -0.30186637509E+01  0.17024142860E+00  0.22767209054E+02  0.22967087786E+02  0.51100000000E-03 0. -1.
        -11    1    4    4    0    0 -0.46659193248E+00  0.47816361096E+01  0.19081116921E+02  0.19676655588E+02  0.51100000000E-03 0.  1.
         12    1    4    4    0    0 -0.31614008066E+01 -0.39248404472E+01  0.10281293443E+01  0.51435277335E+01  0.00000000000E+00 0. -1.
</event>
<event>
 8    1  0.2994958E-010  0.9118800E+02  0.7816164E-02  0.1184000E+00
        -11   -1    0    0    0    0  0.00000000000E+00  0.00000000000E+00  0.45593999997E+02  0.45594000000E+02  0.51100000000E-03 0. -1.
         11   -1    0    0    0    0 -0.00000000000E+00 -0.00000000000E+00 -0.45593999997E+02  0.45594000000E+02  0.51100000000E-03 0.  1.
         23    2    1    2    0    0  0.00000000000E+00  0.00000000000E+00  0.35527136788E-14  0.91188000000E+02  0.91188000000E+02 0.  0.
    9900012    2    3    3    0    0 -0.27808055299E+02 -0.17964483997E+02 -0.28064441209E+02  0.47787268611E+02  0.19999988904E+02 0.  0.
         12    1    3    3    0    0  0.27808055299E+02  0.17964483997E+02  0.28064441209E+02  0.43400731389E+02  0.00000000000E+00 0. -1.
         11    1    4    4    0    0 -0.45595590444E+01 -0.67831496127E+01  0.85951237561E+00  0.82182394180E+01  0.51100000000E-03 0. -1.
        -11    1    4    4    0    0 -0.12135060779E+02 -0.60599626589E+01 -0.93125947383E+01  0.16453184147E+02  0.51100000000E-03 0.  1.
        -12    1    4    4    0    0 -0.11113435475E+02 -0.51213717250E+01 -0.19611358846E+02  0.23115845046E+02  0.00000000000E+00 0.  1.
</event>
<event>
 8    1  0.2994958E-010  0.9118800E+02  0.7816164E-02  0.1184000E+00
        -11   -1    0    0    0    0  0.00000000000E+00  0.00000000000E+00  0.45593999997E+02  0.45594000000E+02  0.51100000000E-03 0.  1.
         11   -1    0    0    0    0 -0.00000000000E+00 -0.00000000000E+00 -0.45593999997E+02  0.45594000000E+02  0.51100000000E-03 0. -1.
         23    2    1    2    0    0  0.71054273576E-14  0.17763568394E-14  0.00000000000E+00  0.91188000000E+02  0.91188000000E+02 0.  0.
    9900012    2    3    3    0    0 -0.41374430209E+02 -0.11896210295E+02  0.55012181371E+01  0.47787231626E+02  0.19999820274E+02 0.  0.
        -12    1    3    3    0    0  0.41374430209E+02  0.11896210295E+02 -0.55012181371E+01  0.43400768374E+02  0.00000000000E+00 0.  1.
         11    1    4    4    0    0 -0.14024526085E+01 -0.94461823628E+00  0.11816818055E+01  0.20628982238E+01  0.51100000000E-03 0. -1.
        -11    1    4    4    0    0 -0.28744421978E+01 -0.23697693873E+01  0.66000888963E+01  0.75788784525E+01  0.51100000000E-03 0.  1.
         12    1    4    4    0    0 -0.37097535402E+02 -0.85818226716E+01 -0.22805525646E+01  0.38145454949E+02  0.00000000000E+00 0. -1.
</event>
<event>
 8    1  0.2994958E-010  0.9118800E+02  0.7816164E-02  0.1184000E+00
        -11   -1    0    0    0    0  0.00000000000E+00  0.00000000000E+00  0.45593999997E+02  0.45594000000E+02  0.51100000000E-03 0. -1.
         11   -1    0    0    0    0 -0.00000000000E+00 -0.00000000000E+00 -0.45593999997E+02  0.45594000000E+02  0.51100000000E-03 0.  1.
         23    2    1    2    0    0 -0.17763568394E-14  0.71054273576E-14  0.00000000000E+00  0.91188000000E+02  0.91188000000E+02 0.  0.
    9900012    2    3    3    0    0 -0.15864190448E+02 -0.33789999177E+02  0.22140158144E+02  0.47787272062E+02  0.20000004638E+02 0.  0.
        -12    1    3    3    0    0  0.15864190448E+02  0.33789999177E+02 -0.22140158144E+02  0.43400727938E+02  0.00000000000E+00 0.  1.
         11    1    4    4    0    0 -0.29397327729E+01 -0.25446983577E+01  0.12590620182E+01  0.40869005291E+01  0.51100000000E-03 0. -1.
        -11    1    4    4    0    0 -0.16977868743E+02 -0.19408626944E+02  0.15452216864E+02  0.30061833497E+02  0.51100000000E-03 0.  1.
         12    1    4    4    0    0  0.40534110688E+01 -0.11836673875E+02  0.54288792622E+01  0.13638538036E+02  0.00000000000E+00 0. -1.
</event>
<event>
 8    1  0.2994958E-010  0.9118800E+02  0.7816164E-02  0.1184000E+00
        -11   -1    0    0    0    0  0.00000000000E+00  0.00000000000E+00  0.45593999997E+02  0.45594000000E+02  0.51100000000E-03 0.  1.
         11   -1    0    0    0    0 -0.00000000000E+00 -0.00000000000E+00 -0.45593999997E+02  0.45594000000E+02  0.51100000000E-03 0. -1.
         23    2    1    2    0    0 -0.35527136788E-14  0.00000000000E+00  0.00000000000E+00  0.91188000000E+02  0.91188000000E+02 0.  0.
    9900012    2    3    3    0    0  0.22220072698E+02  0.36476566192E+02  0.77042416334E+01  0.47787229834E+02  0.19999812104E+02 0.  0.
        -12    1    3    3    0    0 -0.22220072698E+02 -0.36476566192E+02 -0.77042416334E+01  0.43400770166E+02  0.00000000000E+00 0.  1.
         11    1    4    4    0    0  0.14497049848E+01  0.45811653299E-01 -0.95708875575E+00  0.17377463561E+01  0.51100000000E-03 0. -1.
        -11    1    4    4    0    0  0.11600875690E+02  0.52756144367E+01  0.20769590093E+01  0.12912249357E+02  0.51100000000E-03 0.  1.
         12    1    4    4    0    0  0.91694920227E+01  0.31155140102E+02  0.65843713799E+01  0.33137234121E+02  0.00000000000E+00 0. -1.
</event>
<event>
 8    1  0.2994958E-010  0.9118800E+02  0.7816164E-02  0.1184000E+00
        -11   -1    0    0    0    0  0.00000000000E+00  0.00000000000E+00  0.45593999997E+02  0.45594000000E+02  0.51100000000E-03 0. -1.
         11   -1    0    0    0    0 -0.00000000000E+00 -0.00000000000E+00 -0.45593999997E+02  0.45594000000E+02  0.51100000000E-03 0.  1.
         23    2    1    2    0    0  0.00000000000E+00  0.00000000000E+00  0.00000000000E+00  0.91188000000E+02  0.91188000000E+02 0.  0.
    9900012    2    3    3    0    0  0.11608591416E+02 -0.87429049734E+01  0.40895300247E+02  0.47787270003E+02  0.19999995250E+02 0.  0.
        -12    1    3    3    0    0 -0.11608591416E+02  0.87429049734E+01 -0.40895300247E+02  0.43400729997E+02  0.00000000000E+00 0.  1.
         11    1    4    4    0    0 -0.46764062646E+00 -0.19018166849E+00  0.28938647813E+01  0.29375688002E+01  0.51100000000E-03 0. -1.
        -11    1    4    4    0    0  0.47028979506E+00 -0.11455542198E+02  0.14563041785E+02  0.18534638001E+02  0.51100000000E-03 0.  1.
        -12    1    4    4    0    0  0.11605942247E+02  0.29028188930E+01  0.23438393681E+02  0.26315063202E+02  0.00000000000E+00 0.  1.
</event>
<event>
 8    1  0.2994958E-010  0.9118800E+02  0.7816164E-02  0.1184000E+00
        -11   -1    0    0    0    0  0.00000000000E+00  0.00000000000E+00  0.45593999997E+02  0.45594000000E+02  0.51100000000E-03 0. -1.
         11   -1    0    0    0    0 -0.00000000000E+00 -0.00000000000E+00 -0.45593999997E+02  0.45594000000E+02  0.51100000000E-03 0.  1.
         23    2    1    2    0    0  0.00000000000E+00  0.00000000000E+00  0.00000000000E+00  0.91188000000E+02  0.91188000000E+02 0.  0.
    9900012    2    3    3    0    0  0.93577689540E+01 -0.50234349465E+01 -0.42081114907E+02  0.47787274542E+02  0.20000015946E+02 0.  0.
         12    1    3    3    0    0 -0.93577689540E+01  0.50234349465E+01  0.42081114907E+02  0.43400725458E+02  0.00000000000E+00 0. -1.
         11    1    4    4    0    0  0.22254743313E+01  0.24417950242E+01 -0.20532189020E+01  0.38898338088E+01  0.51100000000E-03 0. -1.
        -11    1    4    4    0    0  0.60517312142E+01  0.19769308860E+01 -0.67059691089E+01  0.92467144634E+01  0.51100000000E-03 0.  1.
        -12    1    4    4    0    0  0.10805634086E+01 -0.94421608567E+01 -0.33321926896E+02  0.34650726270E+02  0.00000000000E+00 0.  1.
</event>
<event>
 8    1  0.2994958E-010  0.9118800E+02  0.7816164E-02  0.1184000E+00
        -11   -1    0    0    0    0  0.00000000000E+00  0.00000000000E+00  0.45593999997E+02  0.45594000000E+02  0.51100000000E-03 0.  1.
         11   -1    0    0    0    0 -0.00000000000E+00 -0.00000000000E+00 -0.45593999997E+02  0.45594000000E+02  0.51100000000E-03 0. -1.
         23    2    1    2    0    0 -0.88817841970E-15  0.00000000000E+00  0.00000000000E+00  0.91188000000E+02  0.91188000000E+02 0.  0.
    9900012    2    3    3    0    0 -0.42841699974E+01  0.34882274761E+02  0.25465597973E+02  0.47787264002E+02  0.19999967890E+02 0.  0.
        -12    1    3    3    0    0  0.42841699974E+01 -0.34882274761E+02 -0.25465597973E+02  0.43400735998E+02  0.00000000000E+00 0.  1.
         11    1    4    4    0    0 -0.59920543339E+01  0.72308168845E+01  0.76495652182E+01  0.12112195352E+02  0.51100000000E-03 0. -1.
        -11    1    4    4    0    0 -0.53192223027E+01  0.56489204484E+01  0.36025982012E+01  0.85547146181E+01  0.51100000000E-03 0.  1.
         12    1    4    4    0    0  0.70271066392E+01  0.22002537428E+02  0.14213434554E+02  0.27120354032E+02  0.00000000000E+00 0. -1.
</event>
<event>
 8    1  0.2994958E-010  0.9118800E+02  0.7816164E-02  0.1184000E+00
        -11   -1    0    0    0    0  0.00000000000E+00  0.00000000000E+00  0.45593999997E+02  0.45594000000E+02  0.51100000000E-03 0.  1.
         11   -1    0    0    0    0 -0.00000000000E+00 -0.00000000000E+00 -0.45593999997E+02  0.45594000000E+02  0.51100000000E-03 0. -1.
         23    2    1    2    0    0 -0.35527136788E-14  0.00000000000E+00 -0.71054273576E-14  0.91188000000E+02  0.91188000000E+02 0.  0.
    9900012    2    3    3    0    0 -0.20277014926E+02 -0.18375952836E+02 -0.33686650313E+02  0.47787269750E+02  0.19999994099E+02 0.  0.
         12    1    3    3    0    0  0.20277014926E+02  0.18375952836E+02  0.33686650313E+02  0.43400730250E+02  0.00000000000E+00 0. -1.
         11    1    4    4    0    0  0.57614741508E+00 -0.71596146930E+01 -0.11872752607E+02  0.13876393016E+02  0.51100000000E-03 0. -1.
        -11    1    4    4    0    0 -0.12115172261E+02 -0.11204277471E+02 -0.17870638383E+02  0.24324328337E+02  0.51100000000E-03 0.  1.
        -12    1    4    4    0    0 -0.87379900800E+01 -0.12060671879E-01 -0.39432593225E+01  0.95865483977E+01  0.00000000000E+00 0.  1.
</event>
<event>
 8    1  0.2994958E-010  0.9118800E+02  0.7816164E-02  0.1184000E+00
        -11   -1    0    0    0    0  0.00000000000E+00  0.00000000000E+00  0.45593999997E+02  0.45594000000E+02  0.51100000000E-03 0. -1.
         11   -1    0    0    0    0 -0.00000000000E+00 -0.00000000000E+00 -0.45593999997E+02  0.45594000000E+02  0.51100000000E-03 0.  1.
         23    2    1    2    0    0  0.17763568394E-14  0.00000000000E+00  0.00000000000E+00  0.91188000000E+02  0.91188000000E+02 0.  0.
    9900012    2    3    3    0    0  0.88517061273E+01 -0.28652680498E+02  0.31373467672E+02  0.47787271033E+02  0.19999999949E+02 0.  0.
        -12    1    3    3    0    0 -0.88517061273E+01  0.28652680498E+02 -0.31373467672E+02  0.43400728967E+02  0.00000000000E+00 0.  1.
         11    1    4    4    0    0 -0.81189294398E-01 -0.83720075164E+01  0.81206631872E+01  0.11663716064E+02  0.51100000000E-03 0. -1.
        -11    1    4    4    0    0  0.59782981601E+01 -0.11361956704E+02  0.21417341431E+01  0.13016187400E+02  0.51100000000E-03 0.  1.
         12    1    4    4    0    0  0.29545972615E+01 -0.89187162783E+01  0.21111070341E+02  0.23107367569E+02  0.00000000000E+00 0. -1.
</event>
<event>
 8    1  0.2994958E-010  0.9118800E+02  0.7816164E-02  0.1184000E+00
        -11   -1    0    0    0    0  0.00000000000E+00  0.00000000000E+00  0.45593999997E+02  0.45594000000E+02  0.51100000000E-03 0. -1.
         11   -1    0    0    0    0 -0.00000000000E+00 -0.00000000000E+00 -0.45593999997E+02  0.45594000000E+02  0.51100000000E-03 0.  1.
         23    2    1    2    0    0  0.00000000000E+00  0.00000000000E+00  0.00000000000E+00  0.91188000000E+02  0.91188000000E+02 0.  0.
    9900012    2    3    3    0    0 -0.23649607037E+02  0.12843248872E+02  0.34049528044E+02  0.47787270575E+02  0.19999997860E+02 0.  0.
        -12    1    3    3    0    0  0.23649607037E+02 -0.12843248872E+02 -0.34049528044E+02  0.43400729425E+02  0.00000000000E+00 0.  1.
         11    1    4    4    0    0 -0.94084230114E+01  0.52556793403E+01  0.62333836005E+01  0.12449725309E+02  0.51100000000E-03 0. -1.
        -11    1    4    4    0    0 -0.66358611989E+01  0.10454777848E+02  0.10603882448E+02  0.16302740780E+02  0.51100000000E-03 0.  1.
        -12    1    4    4    0    0 -0.76053228264E+01 -0.28672083167E+01  0.17212261996E+02  0.19034804486E+02  0.00000000000E+00 0.  1.
</event>
<event>
 8    1  0.3049431E-010  0.9118800E+02  0.7816164E-02  0.1184000E+00
        -11   -1    0    0    0    0  0.00000000000E+00  0.00000000000E+00  0.45593999997E+02  0.45594000000E+02  0.51100000000E-03 0. -1.
         11   -1    0    0    0    0 -0.00000000000E+00 -0.00000000000E+00 -0.45593999997E+02  0.45594000000E+02  0.51100000000E-03 0.  1.
         23    2    1    2    0    0  0.00000000000E+00  0.00000000000E+00  0.00000000000E+00  0.91188000000E+02  0.91188000000E+02 0.  0.
    9900012    2    3    3    0    0 -0.27344512804E+02  0.10884869559E+02  0.31897031487E+02  0.47787269782E+02  0.19999994244E+02 0.  0.
        -12    1    3    3    0    0  0.27344512804E+02 -0.10884869559E+02 -0.31897031487E+02  0.43400730218E+02  0.00000000000E+00 0.  1.
         11    1    4    4    0    0 -0.35342352503E+01  0.57287030393E+01  0.45974797339E+01  0.81514218074E+01  0.51100000000E-03 0. -1.
        -11    1    4    4    0    0 -0.35444489768E+00  0.39008159088E+01  0.91448789644E+01  0.99484072833E+01  0.51100000000E-03 0.  1.
         12    1    4    4    0    0 -0.23455832656E+02  0.12553506106E+01  0.18154672788E+02  0.29687440691E+02  0.00000000000E+00 0. -1.
</event>
<event>
 8    1  0.2994958E-010  0.9118800E+02  0.7816164E-02  0.1184000E+00
        -11   -1    0    0    0    0  0.00000000000E+00  0.00000000000E+00  0.45593999997E+02  0.45594000000E+02  0.51100000000E-03 0.  1.
         11   -1    0    0    0    0 -0.00000000000E+00 -0.00000000000E+00 -0.45593999997E+02  0.45594000000E+02  0.51100000000E-03 0. -1.
         23    2    1    2    0    0  0.71054273576E-14  0.00000000000E+00 -0.35527136788E-14  0.91188000000E+02  0.91188000000E+02 0.  0.
    9900012    2    3    3    0    0 -0.41222193430E+02  0.76026326591E+00  0.13556405555E+02  0.47787270018E+02  0.19999995318E+02 0.  0.
        -12    1    3    3    0    0  0.41222193430E+02 -0.76026326591E+00 -0.13556405555E+02  0.43400729982E+02  0.00000000000E+00 0.  1.
         11    1    4    4    0    0 -0.16547918381E+02 -0.21687893881E+01  0.72339115897E+01  0.18189742365E+02  0.51100000000E-03 0. -1.
        -11    1    4    4    0    0 -0.97923541743E+01  0.67011659488E+00  0.10094510926E+02  0.14079716177E+02  0.51100000000E-03 0.  1.
        -12    1    4    4    0    0 -0.14881920874E+02  0.22589360591E+01 -0.37720169606E+01  0.15517811475E+02  0.00000000000E+00 0.  1.
</event>
<event>
 8    1  0.2994958E-010  0.9118800E+02  0.7816164E-02  0.1184000E+00
        -11   -1    0    0    0    0  0.00000000000E+00  0.00000000000E+00  0.45593999997E+02  0.45594000000E+02  0.51100000000E-03 0. -1.
         11   -1    0    0    0    0 -0.00000000000E+00 -0.00000000000E+00 -0.45593999997E+02  0.45594000000E+02  0.51100000000E-03 0.  1.
         23    2    1    2    0    0  0.00000000000E+00  0.35527136788E-14  0.00000000000E+00  0.91188000000E+02  0.91188000000E+02 0.  0.
    9900012    2    3    3    0    0  0.24398717598E+02 -0.29069382139E+02 -0.21054651327E+02  0.47787254144E+02  0.19999922946E+02 0.  0.
         12    1    3    3    0    0 -0.24398717598E+02  0.29069382139E+02  0.21054651327E+02  0.43400745856E+02  0.00000000000E+00 0. -1.
         11    1    4    4    0    0 -0.69057893701E+00 -0.10837489417E+02 -0.42581798865E+01  0.11664483372E+02  0.51100000000E-03 0. -1.
        -11    1    4    4    0    0  0.20122505770E+01  0.18233587171E+00  0.24287987937E+00  0.20350404546E+01  0.51100000000E-03 0.  1.
        -12    1    4    4    0    0  0.23077045958E+02 -0.18414228593E+02 -0.17039351320E+02  0.34087730318E+02  0.00000000000E+00 0.  1.
</event>
<event>
 8    1  0.2994958E-010  0.9118800E+02  0.7816164E-02  0.1184000E+00
        -11   -1    0    0    0    0  0.00000000000E+00  0.00000000000E+00  0.45593999997E+02  0.45594000000E+02  0.51100000000E-03 0. -1.
         11   -1    0    0    0    0 -0.00000000000E+00 -0.00000000000E+00 -0.45593999997E+02  0.45594000000E+02  0.51100000000E-03 0.  1.
         23    2    1    2    0    0  0.00000000000E+00  0.00000000000E+00 -0.35527136788E-14  0.91188000000E+02  0.91188000000E+02 0.  0.
    9900012    2    3    3    0    0 -0.30933452736E+02  0.20662956950E+02  0.22355929694E+02  0.47787264055E+02  0.19999968131E+02 0.  0.
        -12    1    3    3    0    0  0.30933452736E+02 -0.20662956950E+02 -0.22355929694E+02  0.43400735945E+02  0.00000000000E+00 0.  1.
         11    1    4    4    0    0 -0.13529840587E+02  0.11113044884E+02  0.78909185359E+01  0.19204763693E+02  0.51100000000E-03 0. -1.
        -11    1    4    4    0    0 -0.26224557087E+01  0.12934085024E+01  0.10893457497E+02  0.11279077799E+02  0.51100000000E-03 0.  1.
        -12    1    4    4    0    0 -0.14781156441E+02  0.82565035630E+01  0.35715536611E+01  0.17303422562E+02  0.00000000000E+00 0.  1.
</event>
<event>
 8    1  0.4361972E-010  0.9118800E+02  0.7816164E-02  0.1184000E+00
        -11   -1    0    0    0    0  0.00000000000E+00  0.00000000000E+00  0.45593999997E+02  0.45594000000E+02  0.51100000000E-03 0. -1.
         11   -1    0    0    0    0 -0.00000000000E+00 -0.00000000000E+00 -0.45593999997E+02  0.45594000000E+02  0.51100000000E-03 0.  1.
         23    2    1    2    0    0  0.00000000000E+00 -0.44408920985E-15  0.00000000000E+00  0.91188000000E+02  0.91188000000E+02 0.  0.
    9900012    2    3    3    0    0 -0.19694725629E+02 -0.12474656476E+01  0.38654682197E+02  0.47787275998E+02  0.20000022587E+02 0.  0.
        -12    1    3    3    0    0  0.19694725629E+02  0.12474656476E+01 -0.38654682197E+02  0.43400724002E+02  0.00000000000E+00 0.  1.
         11    1    4    4    0    0 -0.29257856841E+01 -0.55721611624E+01  0.10357677524E+02  0.12119846774E+02  0.51100000000E-03 0. -1.
        -11    1    4    4    0    0 -0.49089557178E+01  0.18732359832E+01  0.41710017019E+00  0.52707525175E+01  0.51100000000E-03 0.  1.
         12    1    4    4    0    0 -0.11859984227E+02  0.24514595316E+01  0.27879904503E+02  0.30396676706E+02  0.00000000000E+00 0. -1.
</event>
<event>
 8    1  0.2994958E-010  0.9118800E+02  0.7816164E-02  0.1184000E+00
        -11   -1    0    0    0    0  0.00000000000E+00  0.00000000000E+00  0.45593999997E+02  0.45594000000E+02  0.51100000000E-03 0. -1.
         11   -1    0    0    0    0 -0.00000000000E+00 -0.00000000000E+00 -0.45593999997E+02  0.45594000000E+02  0.51100000000E-03 0.  1.
         23    2    1    2    0    0 -0.11102230246E-14  0.71054273576E-14  0.00000000000E+00  0.91188000000E+02  0.91188000000E+02 0.  0.
    9900012    2    3    3    0    0  0.10585945101E+01  0.35508766479E+02  0.24932510638E+02  0.47787271828E+02  0.20000003570E+02 0.  0.
        -12    1    3    3    0    0 -0.10585945101E+01 -0.35508766479E+02 -0.24932510638E+02  0.43400728172E+02  0.00000000000E+00 0.  1.
         11    1    4    4    0    0 -0.29535177303E+00  0.79571498119E+01  0.47555105493E+01  0.92746076275E+01  0.51100000000E-03 0. -1.
        -11    1    4    4    0    0  0.91171686434E+01  0.19760528024E+02  0.14327834227E+02  0.26055480532E+02  0.51100000000E-03 0.  1.
        -12    1    4    4    0    0 -0.77632223603E+01  0.77910886434E+01  0.58491658611E+01  0.12457183668E+02  0.00000000000E+00 0.  1.
</event>
<event>
 8    1  0.2994958E-010  0.9118800E+02  0.7816164E-02  0.1184000E+00
        -11   -1    0    0    0    0  0.00000000000E+00  0.00000000000E+00  0.45593999997E+02  0.45594000000E+02  0.51100000000E-03 0. -1.
         11   -1    0    0    0    0 -0.00000000000E+00 -0.00000000000E+00 -0.45593999997E+02  0.45594000000E+02  0.51100000000E-03 0.  1.
         23    2    1    2    0    0 -0.71054273576E-14 -0.35527136788E-14  0.00000000000E+00  0.91188000000E+02  0.91188000000E+02 0.  0.
    9900012    2    3    3    0    0  0.36437471018E+02  0.17250877089E+02  0.16072924074E+02  0.47787297899E+02  0.20000122442E+02 0.  0.
        -12    1    3    3    0    0 -0.36437471018E+02 -0.17250877089E+02 -0.16072924074E+02  0.43400702101E+02  0.00000000000E+00 0.  1.
         11    1    4    4    0    0  0.24433054621E+02  0.10151591939E+02  0.70168440373E+01  0.27372706799E+02  0.51100000000E-03 0. -1.
        -11    1    4    4    0    0  0.11141603115E+02  0.80248262137E+01  0.11337005091E+02  0.17806202302E+02  0.51100000000E-03 0.  1.
        -12    1    4    4    0    0  0.86281328202E+00 -0.92554106337E+00 -0.22809250541E+01  0.26083887981E+01  0.00000000000E+00 0.  1.
</event>
<event>
 8    1  0.2994958E-010  0.9118800E+02  0.7816164E-02  0.1184000E+00
        -11   -1    0    0    0    0  0.00000000000E+00  0.00000000000E+00  0.45593999997E+02  0.45594000000E+02  0.51100000000E-03 0. -1.
         11   -1    0    0    0    0 -0.00000000000E+00 -0.00000000000E+00 -0.45593999997E+02  0.45594000000E+02  0.51100000000E-03 0.  1.
         23    2    1    2    0    0  0.00000000000E+00 -0.44408920985E-15  0.71054273576E-14  0.91188000000E+02  0.91188000000E+02 0.  0.
    9900012    2    3    3    0    0  0.10943865394E+02 -0.22739235004E+01 -0.41936657302E+02  0.47787284067E+02  0.20000059375E+02 0.  0.
         12    1    3    3    0    0 -0.10943865394E+02  0.22739235004E+01  0.41936657302E+02  0.43400715933E+02  0.00000000000E+00 0. -1.
         11    1    4    4    0    0 -0.44553441896E+00  0.29349082002E+01 -0.70431090446E+00  0.30509410308E+01  0.51100000000E-03 0. -1.
        -11    1    4    4    0    0  0.58384961688E+01  0.11735072980E+01 -0.58167298836E+01  0.83246323458E+01  0.51100000000E-03 0.  1.
         12    1    4    4    0    0  0.55509036436E+01 -0.63823389986E+01 -0.35415616514E+02  0.36411710690E+02  0.00000000000E+00 0. -1.
</event>
<event>
 8    1  0.3259829E-010  0.9118800E+02  0.7816164E-02  0.1184000E+00
        -11   -1    0    0    0    0  0.00000000000E+00  0.00000000000E+00  0.45593999997E+02  0.45594000000E+02  0.51100000000E-03 0. -1.
         11   -1    0    0    0    0 -0.00000000000E+00 -0.00000000000E+00 -0.45593999997E+02  0.45594000000E+02  0.51100000000E-03 0.  1.
         23    2    1    2    0    0  0.00000000000E+00  0.00000000000E+00  0.00000000000E+00  0.91188000000E+02  0.91188000000E+02 0.  0.
    9900012    2    3    3    0    0 -0.11137440139E+02 -0.17088726827E+02  0.38308704109E+02  0.47787263049E+02  0.19999963545E+02 0.  0.
        -12    1    3    3    0    0  0.11137440139E+02  0.17088726827E+02 -0.38308704109E+02  0.43400736951E+02  0.00000000000E+00 0.  1.
         11    1    4    4    0    0 -0.43749378361E+01 -0.14439009278E+02  0.23638411440E+02  0.28042816650E+02  0.51100000000E-03 0. -1.
        -11    1    4    4    0    0  0.28450905485E+01 -0.20376500300E+01  0.49643999896E+01  0.60738641236E+01  0.51100000000E-03 0.  1.
         12    1    4    4    0    0 -0.96075928512E+01 -0.61206751894E+00  0.97058926792E+01  0.13670582275E+02  0.00000000000E+00 0. -1.
</event>
<event>
 8    1  0.2994958E-010  0.9118800E+02  0.7816164E-02  0.1184000E+00
        -11   -1    0    0    0    0  0.00000000000E+00  0.00000000000E+00  0.45593999997E+02  0.45594000000E+02  0.51100000000E-03 0. -1.
         11   -1    0    0    0    0 -0.00000000000E+00 -0.00000000000E+00 -0.45593999997E+02  0.45594000000E+02  0.51100000000E-03 0.  1.
         23    2    1    2    0    0 -0.71054273576E-14  0.00000000000E+00  0.00000000000E+00  0.91188000000E+02  0.91188000000E+02 0.  0.
    9900012    2    3    3    0    0 -0.38114137802E+02  0.17265694818E+02 -0.11525263486E+02  0.47787269403E+02  0.19999992514E+02 0.  0.
         12    1    3    3    0    0  0.38114137802E+02 -0.17265694818E+02  0.11525263486E+02  0.43400730597E+02  0.00000000000E+00 0. -1.
         11    1    4    4    0    0 -0.15267788565E+02  0.12160541711E+01 -0.16763898202E+01  0.15407609759E+02  0.51100000000E-03 0. -1.
        -11    1    4    4    0    0 -0.12476069173E+02  0.26234546914E+01 -0.85804947145E+01  0.15367488615E+02  0.51100000000E-03 0.  1.
        -12    1    4    4    0    0 -0.10370280065E+02  0.13426185956E+02 -0.12683789512E+01  0.17012171028E+02  0.00000000000E+00 0.  1.
</event>
<event>
 8    1  0.2994958E-010  0.9118800E+02  0.7816164E-02  0.1184000E+00
        -11   -1    0    0    0    0  0.00000000000E+00  0.00000000000E+00  0.45593999997E+02  0.45594000000E+02  0.51100000000E-03 0. -1.
         11   -1    0    0    0    0 -0.00000000000E+00 -0.00000000000E+00 -0.45593999997E+02  0.45594000000E+02  0.51100000000E-03 0.  1.
         23    2    1    2    0    0  0.00000000000E+00  0.17763568394E-14  0.00000000000E+00  0.91188000000E+02  0.91188000000E+02 0.  0.
    9900012    2    3    3    0    0  0.16881111722E+02 -0.14741929315E+02 -0.37166205641E+02  0.47787271266E+02  0.20000001010E+02 0.  0.
         12    1    3    3    0    0 -0.16881111722E+02  0.14741929315E+02  0.37166205641E+02  0.43400728734E+02  0.00000000000E+00 0. -1.
         11    1    4    4    0    0  0.44748743878E+00  0.17483988624E+01 -0.81486066025E+01  0.83460729337E+01  0.51100000000E-03 0. -1.
        -11    1    4    4    0    0  0.10304626884E+02 -0.17761213497E+01 -0.86022972734E+01  0.13540290281E+02  0.51100000000E-03 0.  1.
         12    1    4    4    0    0  0.61289973996E+01 -0.14714206828E+02 -0.20415301765E+02  0.25900908051E+02  0.00000000000E+00 0. -1.
</event>
<event>
 8    1  0.2994958E-010  0.9118800E+02  0.7816164E-02  0.1184000E+00
        -11   -1    0    0    0    0  0.00000000000E+00  0.00000000000E+00  0.45593999997E+02  0.45594000000E+02  0.51100000000E-03 0.  1.
         11   -1    0    0    0    0 -0.00000000000E+00 -0.00000000000E+00 -0.45593999997E+02  0.45594000000E+02  0.51100000000E-03 0. -1.
         23    2    1    2    0    0  0.00000000000E+00  0.00000000000E+00  0.00000000000E+00  0.91188000000E+02  0.91188000000E+02 0.  0.
    9900012    2    3    3    0    0  0.24701934223E+02  0.20475360346E+02 -0.29226656518E+02  0.47787269743E+02  0.19999994065E+02 0.  0.
         12    1    3    3    0    0 -0.24701934223E+02 -0.20475360346E+02  0.29226656518E+02  0.43400730257E+02  0.00000000000E+00 0. -1.
         11    1    4    4    0    0  0.85724289511E+01  0.66257975773E+01 -0.20002573653E+02  0.22748421586E+02  0.51100000000E-03 0. -1.
        -11    1    4    4    0    0  0.22217936312E+01  0.69445629772E+01 -0.53264275216E+01  0.90296263648E+01  0.51100000000E-03 0.  1.
        -12    1    4    4    0    0  0.13907711640E+02  0.69049997917E+01 -0.38976553432E+01  0.16009221792E+02  0.00000000000E+00 0.  1.
</event>
<event>
 8    1  0.2994958E-010  0.9118800E+02  0.7816164E-02  0.1184000E+00
        -11   -1    0    0    0    0  0.00000000000E+00  0.00000000000E+00  0.45593999997E+02  0.45594000000E+02  0.51100000000E-03 0. -1.
         11   -1    0    0    0    0 -0.00000000000E+00 -0.00000000000E+00 -0.45593999997E+02  0.45594000000E+02  0.51100000000E-03 0.  1.
         23    2    1    2    0    0  0.00000000000E+00  0.00000000000E+00 -0.17763568394E-14  0.91188000000E+02  0.91188000000E+02 0.  0.
    9900012    2    3    3    0    0 -0.20754565222E+02  0.34618680280E+02 -0.15950473530E+02  0.47787278719E+02  0.20000034993E+02 0.  0.
         12    1    3    3    0    0  0.20754565222E+02 -0.34618680280E+02  0.15950473530E+02  0.43400721281E+02  0.00000000000E+00 0. -1.
         11    1    4    4    0    0 -0.14471104565E+02  0.88790049686E+01 -0.27291672981E+01  0.17195870172E+02  0.51100000000E-03 0. -1.
        -11    1    4    4    0    0 -0.66967617166E+01  0.13623329031E+02 -0.51634605804E+01  0.16034432849E+02  0.51100000000E-03 0.  1.
         12    1    4    4    0    0  0.41330105958E+00  0.12116346280E+02 -0.80578456510E+01  0.14556975698E+02  0.00000000000E+00 0. -1.
</event>
<event>
 8    1  0.2994958E-010  0.9118800E+02  0.7816164E-02  0.1184000E+00
        -11   -1    0    0    0    0  0.00000000000E+00  0.00000000000E+00  0.45593999997E+02  0.45594000000E+02  0.51100000000E-03 0. -1.
         11   -1    0    0    0    0 -0.00000000000E+00 -0.00000000000E+00 -0.45593999997E+02  0.45594000000E+02  0.51100000000E-03 0.  1.
         23    2    1    2    0    0  0.00000000000E+00  0.00000000000E+00 -0.17763568394E-14  0.91188000000E+02  0.91188000000E+02 0.  0.
    9900012    2    3    3    0    0 -0.15495781424E+02  0.38721312910E+02 -0.12007028868E+02  0.47787215933E+02  0.19999748723E+02 0.  0.
         12    1    3    3    0    0  0.15495781424E+02 -0.38721312910E+02  0.12007028868E+02  0.43400784067E+02  0.00000000000E+00 0. -1.
         11    1    4    4    0    0 -0.15143002961E+02  0.12765998587E+02 -0.28097809722E+01  0.20004402715E+02  0.51100000000E-03 0. -1.
        -11    1    4    4    0    0  0.97338578126E+00  0.49066850083E+01 -0.72590069874E+00  0.50546977888E+01  0.51100000000E-03 0.  1.
         12    1    4    4    0    0 -0.13261642436E+01  0.21048629315E+02 -0.84713471969E+01  0.22728115429E+02  0.00000000000E+00 0. -1.
</event>
<event>
 8    1  0.2994958E-010  0.9118800E+02  0.7816164E-02  0.1184000E+00
        -11   -1    0    0    0    0  0.00000000000E+00  0.00000000000E+00  0.45593999997E+02  0.45594000000E+02  0.51100000000E-03 0. -1.
         11   -1    0    0    0    0 -0.00000000000E+00 -0.00000000000E+00 -0.45593999997E+02  0.45594000000E+02  0.51100000000E-03 0.  1.
         23    2    1    2    0    0 -0.53290705182E-14  0.00000000000E+00  0.00000000000E+00  0.91188000000E+02  0.91188000000E+02 0.  0.
    9900012    2    3    3    0    0 -0.15848797807E+02  0.40315797443E+02 -0.26600041444E+01  0.47787268008E+02  0.19999986155E+02 0.  0.
        -12    1    3    3    0    0  0.15848797807E+02 -0.40315797443E+02  0.26600041444E+01  0.43400731992E+02  0.00000000000E+00 0.  1.
         11    1    4    4    0    0 -0.12660772661E+02  0.18172718846E+02 -0.10170049047E+01  0.22171539727E+02  0.51100000000E-03 0. -1.
        -11    1    4    4    0    0 -0.74096798171E+01  0.86239899048E+01 -0.13493248894E+01  0.11449770076E+02  0.51100000000E-03 0.  1.
         12    1    4    4    0    0  0.42216546712E+01  0.13519088693E+02 -0.29367435029E+00  0.14165958205E+02  0.00000000000E+00 0. -1.
</event>
<event>
 8    1  0.2994958E-010  0.9118800E+02  0.7816164E-02  0.1184000E+00
        -11   -1    0    0    0    0  0.00000000000E+00  0.00000000000E+00  0.45593999997E+02  0.45594000000E+02  0.51100000000E-03 0. -1.
         11   -1    0    0    0    0 -0.00000000000E+00 -0.00000000000E+00 -0.45593999997E+02  0.45594000000E+02  0.51100000000E-03 0.  1.
         23    2    1    2    0    0  0.00000000000E+00 -0.71054273576E-14  0.00000000000E+00  0.91188000000E+02  0.91188000000E+02 0.  0.
    9900012    2    3    3    0    0 -0.12227612933E+01  0.41720004440E+02 -0.11898298927E+02  0.47787269212E+02  0.19999991643E+02 0.  0.
         12    1    3    3    0    0  0.12227612933E+01 -0.41720004440E+02  0.11898298927E+02  0.43400730788E+02  0.00000000000E+00 0. -1.
         11    1    4    4    0    0  0.53608908567E+01  0.47222398955E+01  0.20986358594E+00  0.71472192770E+01  0.51100000000E-03 0. -1.
        -11    1    4    4    0    0 -0.16613036373E+00 -0.56875145331E+00 -0.56706680149E+00  0.82014787196E+00  0.51100000000E-03 0.  1.
        -12    1    4    4    0    0 -0.64175217862E+01  0.37566515997E+02 -0.11541095711E+02  0.39819902063E+02  0.00000000000E+00 0.  1.
</event>
<event>
 8    1  0.2994958E-010  0.9118800E+02  0.7816164E-02  0.1184000E+00
        -11   -1    0    0    0    0  0.00000000000E+00  0.00000000000E+00  0.45593999997E+02  0.45594000000E+02  0.51100000000E-03 0. -1.
         11   -1    0    0    0    0 -0.00000000000E+00 -0.00000000000E+00 -0.45593999997E+02  0.45594000000E+02  0.51100000000E-03 0.  1.
         23    2    1    2    0    0  0.00000000000E+00  0.00000000000E+00  0.00000000000E+00  0.91188000000E+02  0.91188000000E+02 0.  0.
    9900012    2    3    3    0    0  0.13376121143E+02  0.23131290876E+02  0.34200087531E+02  0.47787271647E+02  0.20000002746E+02 0.  0.
        -12    1    3    3    0    0 -0.13376121143E+02 -0.23131290876E+02 -0.34200087531E+02  0.43400728353E+02  0.00000000000E+00 0.  1.
         11    1    4    4    0    0  0.47753939384E+01  0.62952157149E+01  0.10335702406E+02  0.13010029695E+02  0.51100000000E-03 0. -1.
        -11    1    4    4    0    0  0.40307255160E+01 -0.26953614834E+01  0.24399858755E+01  0.54281905867E+01  0.51100000000E-03 0.  1.
        -12    1    4    4    0    0  0.45700016890E+01  0.19531436645E+02  0.21424399249E+02  0.29349051365E+02  0.00000000000E+00 0.  1.
</event>
<event>
 8    1  0.2994958E-010  0.9118800E+02  0.7816164E-02  0.1184000E+00
        -11   -1    0    0    0    0  0.00000000000E+00  0.00000000000E+00  0.45593999997E+02  0.45594000000E+02  0.51100000000E-03 0. -1.
         11   -1    0    0    0    0 -0.00000000000E+00 -0.00000000000E+00 -0.45593999997E+02  0.45594000000E+02  0.51100000000E-03 0.  1.
         23    2    1    2    0    0  0.00000000000E+00  0.00000000000E+00  0.35527136788E-14  0.91188000000E+02  0.91188000000E+02 0.  0.
    9900012    2    3    3    0    0 -0.20990344592E+02  0.21853238326E+02 -0.31071920737E+02  0.47787275930E+02  0.20000022277E+02 0.  0.
         12    1    3    3    0    0  0.20990344592E+02 -0.21853238326E+02  0.31071920737E+02  0.43400724070E+02  0.00000000000E+00 0. -1.
         11    1    4    4    0    0 -0.10344215620E+02  0.18504837550E+02 -0.14105934698E+02  0.25463880370E+02  0.51100000000E-03 0. -1.
        -11    1    4    4    0    0  0.17077333810E+01  0.68943713917E+00 -0.26619776294E+01  0.32369433159E+01  0.51100000000E-03 0.  1.
        -12    1    4    4    0    0 -0.12353862354E+02  0.26589636371E+01 -0.14304008410E+02  0.19086452244E+02  0.00000000000E+00 0.  1.
</event>
<event>
 8    1  0.2994958E-010  0.9118800E+02  0.7816164E-02  0.1184000E+00
        -11   -1    0    0    0    0  0.00000000000E+00  0.00000000000E+00  0.45593999997E+02  0.45594000000E+02  0.51100000000E-03 0. -1.
         11   -1    0    0    0    0 -0.00000000000E+00 -0.00000000000E+00 -0.45593999997E+02  0.45594000000E+02  0.51100000000E-03 0.  1.
         23    2    1    2    0    0  0.00000000000E+00  0.00000000000E+00  0.00000000000E+00  0.91188000000E+02  0.91188000000E+02 0.  0.
    9900012    2    3    3    0    0  0.10610964970E+02  0.67184213484E+01 -0.41543871330E+02  0.47787274106E+02  0.20000013960E+02 0.  0.
         12    1    3    3    0    0 -0.10610964970E+02 -0.67184213484E+01  0.41543871330E+02  0.43400725894E+02  0.00000000000E+00 0. -1.
         11    1    4    4    0    0  0.16505162723E+01 -0.31795072677E+00  0.45306100013E+00  0.17408507003E+01  0.51100000000E-03 0.  1.
        -11    1    4    4    0    0 -0.89633917231E+00  0.23304267476E+01  0.15564895545E+00  0.25017073362E+01  0.51100000000E-03 0. -1.
        -12    1    4    4    0    0  0.98567878703E+01  0.47059453276E+01 -0.42152581286E+02  0.43544716070E+02  0.00000000000E+00 0.  1.
</event>
<event>
 8    1  0.2994958E-010  0.9118800E+02  0.7816164E-02  0.1184000E+00
        -11   -1    0    0    0    0  0.00000000000E+00  0.00000000000E+00  0.45593999997E+02  0.45594000000E+02  0.51100000000E-03 0.  1.
         11   -1    0    0    0    0 -0.00000000000E+00 -0.00000000000E+00 -0.45593999997E+02  0.45594000000E+02  0.51100000000E-03 0. -1.
         23    2    1    2    0    0  0.00000000000E+00  0.00000000000E+00  0.00000000000E+00  0.91188000000E+02  0.91188000000E+02 0.  0.
    9900012    2    3    3    0    0 -0.37831270511E+02 -0.97318843342E+01  0.18913201411E+02  0.47787265112E+02  0.19999972953E+02 0.  0.
         12    1    3    3    0    0  0.37831270511E+02  0.97318843342E+01 -0.18913201411E+02  0.43400734888E+02  0.00000000000E+00 0. -1.
         11    1    4    4    0    0 -0.65525811454E+01 -0.62895054044E+01  0.52945706844E+01  0.10513166835E+02  0.51100000000E-03 0. -1.
        -11    1    4    4    0    0 -0.28205524195E+02 -0.50186158678E+01  0.16246166028E+02  0.32934419856E+02  0.51100000000E-03 0.  1.
        -12    1    4    4    0    0 -0.30731651703E+01  0.15762369381E+01 -0.26275353012E+01  0.43396784222E+01  0.00000000000E+00 0.  1.
</event>
<event>
 8    1  0.2994958E-010  0.9118800E+02  0.7816164E-02  0.1184000E+00
        -11   -1    0    0    0    0  0.00000000000E+00  0.00000000000E+00  0.45593999997E+02  0.45594000000E+02  0.51100000000E-03 0. -1.
         11   -1    0    0    0    0 -0.00000000000E+00 -0.00000000000E+00 -0.45593999997E+02  0.45594000000E+02  0.51100000000E-03 0.  1.
         23    2    1    2    0    0  0.00000000000E+00  0.88817841970E-15  0.00000000000E+00  0.91188000000E+02  0.91188000000E+02 0.  0.
    9900012    2    3    3    0    0  0.56163369981E+01  0.75148564067E+01  0.42374603553E+02  0.47787270348E+02  0.19999996823E+02 0.  0.
        -12    1    3    3    0    0 -0.56163369981E+01 -0.75148564067E+01 -0.42374603553E+02  0.43400729652E+02  0.00000000000E+00 0.  1.
         11    1    4    4    0    0 -0.67562460700E+00  0.55604561738E+01  0.87277464136E+01  0.10370568894E+02  0.51100000000E-03 0.  1.
        -11    1    4    4    0    0  0.80415741069E+01  0.56842925269E+01  0.12711442628E+02  0.16079765844E+02  0.51100000000E-03 0. -1.
         12    1    4    4    0    0 -0.17496125019E+01 -0.37298922940E+01  0.20935414511E+02  0.21336935609E+02  0.00000000000E+00 0. -1.
</event>
<event>
 8    1  0.2994958E-010  0.9118800E+02  0.7816164E-02  0.1184000E+00
        -11   -1    0    0    0    0  0.00000000000E+00  0.00000000000E+00  0.45593999997E+02  0.45594000000E+02  0.51100000000E-03 0. -1.
         11   -1    0    0    0    0 -0.00000000000E+00 -0.00000000000E+00 -0.45593999997E+02  0.45594000000E+02  0.51100000000E-03 0.  1.
         23    2    1    2    0    0 -0.35527136788E-14  0.00000000000E+00  0.71054273576E-14  0.91188000000E+02  0.91188000000E+02 0.  0.
    9900012    2    3    3    0    0 -0.24446700392E+02 -0.87573120266E+01  0.34774876120E+02  0.47787266329E+02  0.19999978503E+02 0.  0.
        -12    1    3    3    0    0  0.24446700392E+02  0.87573120266E+01 -0.34774876120E+02  0.43400733671E+02  0.00000000000E+00 0.  1.
         11    1    4    4    0    0 -0.10561460187E+02 -0.82846251395E+01  0.10653145621E+02  0.17136772359E+02  0.51100000000E-03 0. -1.
        -11    1    4    4    0    0 -0.69610059594E+01 -0.62240187521E+01  0.16006426023E+02  0.18531046589E+02  0.51100000000E-03 0.  1.
         12    1    4    4    0    0 -0.69242342456E+01  0.57513318651E+01  0.81153044761E+01  0.12119447382E+02  0.00000000000E+00 0. -1.
</event>
<event>
 8    1  0.2994958E-010  0.9118800E+02  0.7816164E-02  0.1184000E+00
        -11   -1    0    0    0    0  0.00000000000E+00  0.00000000000E+00  0.45593999997E+02  0.45594000000E+02  0.51100000000E-03 0. -1.
         11   -1    0    0    0    0 -0.00000000000E+00 -0.00000000000E+00 -0.45593999997E+02  0.45594000000E+02  0.51100000000E-03 0.  1.
         23    2    1    2    0    0 -0.17763568394E-14  0.17763568394E-14  0.00000000000E+00  0.91188000000E+02  0.91188000000E+02 0.  0.
    9900012    2    3    3    0    0  0.15471552175E+02  0.12868995066E+02  0.38453112785E+02  0.47787287522E+02  0.20000075129E+02 0.  0.
        -12    1    3    3    0    0 -0.15471552175E+02 -0.12868995066E+02 -0.38453112785E+02  0.43400712478E+02  0.00000000000E+00 0.  1.
         11    1    4    4    0    0  0.36453439086E+00  0.38580892125E+01  0.11461288122E+02  0.12098713294E+02  0.51100000000E-03 0. -1.
        -11    1    4    4    0    0  0.15227710660E+02  0.51713669222E+01  0.11611164740E+02  0.19835457007E+02  0.51100000000E-03 0.  1.
        -12    1    4    4    0    0 -0.12069287577E+00  0.38395389308E+01  0.15380659923E+02  0.15853117222E+02  0.00000000000E+00 0.  1.
</event>
<event>
 8    1  0.2994958E-010  0.9118800E+02  0.7816164E-02  0.1184000E+00
        -11   -1    0    0    0    0  0.00000000000E+00  0.00000000000E+00  0.45593999997E+02  0.45594000000E+02  0.51100000000E-03 0.  1.
         11   -1    0    0    0    0 -0.00000000000E+00 -0.00000000000E+00 -0.45593999997E+02  0.45594000000E+02  0.51100000000E-03 0. -1.
         23    2    1    2    0    0  0.88817841970E-15 -0.71054273576E-14  0.17763568394E-14  0.91188000000E+02  0.91188000000E+02 0.  0.
    9900012    2    3    3    0    0  0.65777528678E+00 -0.41338223147E+02  0.13203866484E+02  0.47787268999E+02  0.19999990672E+02 0.  0.
         12    1    3    3    0    0 -0.65777528678E+00  0.41338223147E+02 -0.13203866484E+02  0.43400731001E+02  0.00000000000E+00 0. -1.
         11    1    4    4    0    0  0.47681236586E+01 -0.90651306974E+01  0.95804688094E+00  0.10287344257E+02  0.51100000000E-03 0. -1.
        -11    1    4    4    0    0  0.19646928418E+01 -0.27856218847E+02  0.99681339960E+01  0.29651182810E+02  0.51100000000E-03 0.  1.
         12    1    4    4    0    0 -0.60750412136E+01 -0.44168736030E+01  0.22776856075E+01  0.78487419310E+01  0.00000000000E+00 0. -1.
</event>
<event>
 8    1  0.2994958E-010  0.9118800E+02  0.7816164E-02  0.1184000E+00
        -11   -1    0    0    0    0  0.00000000000E+00  0.00000000000E+00  0.45593999997E+02  0.45594000000E+02  0.51100000000E-03 0.  1.
         11   -1    0    0    0    0 -0.00000000000E+00 -0.00000000000E+00 -0.45593999997E+02  0.45594000000E+02  0.51100000000E-03 0. -1.
         23    2    1    2    0    0  0.71054273576E-14  0.00000000000E+00  0.17763568394E-14  0.91188000000E+02  0.91188000000E+02 0.  0.
    9900012    2    3    3    0    0  0.36846982579E+02  0.16885855847E+02  0.15517442904E+02  0.47787270892E+02  0.19999999304E+02 0.  0.
        -12    1    3    3    0    0 -0.36846982579E+02 -0.16885855847E+02 -0.15517442904E+02  0.43400729108E+02  0.00000000000E+00 0.  1.
         11    1    4    4    0    0  0.14819319013E+02  0.11476068787E+02  0.34416442303E+01  0.19056686125E+02  0.51100000000E-03 0. -1.
        -11    1    4    4    0    0  0.48715343879E+01  0.55517447554E+01  0.83983282203E+01  0.11184168913E+02  0.51100000000E-03 0.  1.
         12    1    4    4    0    0  0.17156129178E+02 -0.14195769507E+00  0.36774704534E+01  0.17546415854E+02  0.00000000000E+00 0. -1.
</event>
<event>
 8    1  0.2994958E-010  0.9118800E+02  0.7816164E-02  0.1184000E+00
        -11   -1    0    0    0    0  0.00000000000E+00  0.00000000000E+00  0.45593999997E+02  0.45594000000E+02  0.51100000000E-03 0. -1.
         11   -1    0    0    0    0 -0.00000000000E+00 -0.00000000000E+00 -0.45593999997E+02  0.45594000000E+02  0.51100000000E-03 0.  1.
         23    2    1    2    0    0 -0.33306690739E-15  0.17763568394E-14 -0.71054273576E-14  0.91188000000E+02  0.91188000000E+02 0.  0.
    9900012    2    3    3    0    0 -0.60813335977E+00  0.13378052944E+02  0.41282933146E+02  0.47787277703E+02  0.20000030358E+02 0.  0.
        -12    1    3    3    0    0  0.60813335977E+00 -0.13378052944E+02 -0.41282933146E+02  0.43400722297E+02  0.00000000000E+00 0.  1.
         11    1    4    4    0    0  0.39238127066E+01  0.74314461910E+01  0.19865413477E+02  0.21569825023E+02  0.51100000000E-03 0. -1.
        -11    1    4    4    0    0 -0.32790146971E+01  0.68515084937E+01  0.22868856354E+02  0.24097296471E+02  0.51100000000E-03 0.  1.
        -12    1    4    4    0    0 -0.12529313692E+01 -0.90490174096E+00 -0.14513366847E+01  0.21201562086E+01  0.00000000000E+00 0.  1.
</event>
<event>
 8    1  0.2994958E-010  0.9118800E+02  0.7816164E-02  0.1184000E+00
        -11   -1    0    0    0    0  0.00000000000E+00  0.00000000000E+00  0.45593999997E+02  0.45594000000E+02  0.51100000000E-03 0. -1.
         11   -1    0    0    0    0 -0.00000000000E+00 -0.00000000000E+00 -0.45593999997E+02  0.45594000000E+02  0.51100000000E-03 0.  1.
         23    2    1    2    0    0  0.00000000000E+00  0.27755575616E-15  0.00000000000E+00  0.91188000000E+02  0.91188000000E+02 0.  0.
    9900012    2    3    3    0    0 -0.34035757936E+02 -0.22233947088E+00 -0.26928434500E+02  0.47787276069E+02  0.20000022908E+02 0.  0.
         12    1    3    3    0    0  0.34035757936E+02  0.22233947088E+00  0.26928434500E+02  0.43400723931E+02  0.00000000000E+00 0. -1.
         11    1    4    4    0    0 -0.12018832954E+02  0.22267707891E+00 -0.25905323977E+00  0.12023686602E+02  0.51100000000E-03 0. -1.
        -11    1    4    4    0    0 -0.50728103640E+01 -0.40050012876E+01 -0.62362067903E+01  0.89812981075E+01  0.51100000000E-03 0.  1.
        -12    1    4    4    0    0 -0.16944114618E+02  0.35599847379E+01 -0.20433174470E+02  0.26782291359E+02  0.00000000000E+00 0.  1.
</event>
<event>
 8    1  0.2994958E-010  0.9118800E+02  0.7816164E-02  0.1184000E+00
        -11   -1    0    0    0    0  0.00000000000E+00  0.00000000000E+00  0.45593999997E+02  0.45594000000E+02  0.51100000000E-03 0. -1.
         11   -1    0    0    0    0 -0.00000000000E+00 -0.00000000000E+00 -0.45593999997E+02  0.45594000000E+02  0.51100000000E-03 0.  1.
         23    2    1    2    0    0 -0.88817841970E-15  0.00000000000E+00  0.00000000000E+00  0.91188000000E+02  0.91188000000E+02 0.  0.
    9900012    2    3    3    0    0 -0.34057421397E+01  0.17693924776E+02  0.39483532836E+02  0.47787269376E+02  0.19999992393E+02 0.  0.
        -12    1    3    3    0    0  0.34057421397E+01 -0.17693924776E+02 -0.39483532836E+02  0.43400730624E+02  0.00000000000E+00 0.  1.
         11    1    4    4    0    0 -0.94024276323E+01  0.21329490357E+01  0.14118161632E+02  0.17096128366E+02  0.51100000000E-03 0. -1.
        -11    1    4    4    0    0 -0.22612774354E+00  0.95478846434E+00  0.30979942268E+00  0.10289464084E+01  0.51100000000E-03 0.  1.
         12    1    4    4    0    0  0.62228132362E+01  0.14606187276E+02  0.25055571781E+02  0.29662194601E+02  0.00000000000E+00 0. -1.
</event>
<event>
 8    1  0.2994958E-010  0.9118800E+02  0.7816164E-02  0.1184000E+00
        -11   -1    0    0    0    0  0.00000000000E+00  0.00000000000E+00  0.45593999997E+02  0.45594000000E+02  0.51100000000E-03 0. -1.
         11   -1    0    0    0    0 -0.00000000000E+00 -0.00000000000E+00 -0.45593999997E+02  0.45594000000E+02  0.51100000000E-03 0.  1.
         23    2    1    2    0    0  0.00000000000E+00  0.00000000000E+00  0.71054273576E-14  0.91188000000E+02  0.91188000000E+02 0.  0.
    9900012    2    3    3    0    0 -0.12055394000E+02 -0.19305729264E+02 -0.36953752471E+02  0.47787268110E+02  0.19999986619E+02 0.  0.
         12    1    3    3    0    0  0.12055394000E+02  0.19305729264E+02  0.36953752471E+02  0.43400731890E+02  0.00000000000E+00 0. -1.
         11    1    4    4    0    0 -0.84646715647E+01 -0.71500990080E+01 -0.14026879843E+02  0.17875344442E+02  0.51100000000E-03 0. -1.
        -11    1    4    4    0    0 -0.84681095882E+01 -0.11509511953E+02 -0.16845836523E+02  0.22089815613E+02  0.51100000000E-03 0.  1.
         12    1    4    4    0    0  0.48773871534E+01 -0.64611830266E+00 -0.60810361052E+01  0.78221080546E+01  0.00000000000E+00 0. -1.
</event>
<event>
 8    1  0.2994958E-010  0.9118800E+02  0.7816164E-02  0.1184000E+00
        -11   -1    0    0    0    0  0.00000000000E+00  0.00000000000E+00  0.45593999997E+02  0.45594000000E+02  0.51100000000E-03 0. -1.
         11   -1    0    0    0    0 -0.00000000000E+00 -0.00000000000E+00 -0.45593999997E+02  0.45594000000E+02  0.51100000000E-03 0.  1.
         23    2    1    2    0    0 -0.35527136788E-14  0.00000000000E+00  0.00000000000E+00  0.91188000000E+02  0.91188000000E+02 0.  0.
    9900012    2    3    3    0    0 -0.25705394790E+02  0.24768056213E+02  0.24686020259E+02  0.47787268139E+02  0.19999986752E+02 0.  0.
        -12    1    3    3    0    0  0.25705394790E+02 -0.24768056213E+02 -0.24686020259E+02  0.43400731861E+02  0.00000000000E+00 0.  1.
         11    1    4    4    0    0 -0.11612492064E+02  0.51844848191E+01  0.53493184992E+01  0.13796523600E+02  0.51100000000E-03 0. -1.
        -11    1    4    4    0    0 -0.14407491599E+02  0.85275946766E+01  0.13356598949E+02  0.21417152492E+02  0.51100000000E-03 0.  1.
        -12    1    4    4    0    0  0.31458887264E+00  0.11055976717E+02  0.59801028106E+01  0.12573592047E+02  0.00000000000E+00 0.  1.
</event>
<event>
 8    1  0.2994958E-010  0.9118800E+02  0.7816164E-02  0.1184000E+00
        -11   -1    0    0    0    0  0.00000000000E+00  0.00000000000E+00  0.45593999997E+02  0.45594000000E+02  0.51100000000E-03 0. -1.
         11   -1    0    0    0    0 -0.00000000000E+00 -0.00000000000E+00 -0.45593999997E+02  0.45594000000E+02  0.51100000000E-03 0.  1.
         23    2    1    2    0    0  0.35527136788E-14  0.00000000000E+00  0.00000000000E+00  0.91188000000E+02  0.91188000000E+02 0.  0.
    9900012    2    3    3    0    0  0.16087838620E+02  0.20095896298E+02 -0.34942214303E+02  0.47787286413E+02  0.20000070072E+02 0.  0.
         12    1    3    3    0    0 -0.16087838620E+02 -0.20095896298E+02  0.34942214303E+02  0.43400713587E+02  0.00000000000E+00 0. -1.
         11    1    4    4    0    0  0.75314226439E+01  0.19694105075E+02 -0.24765330864E+02  0.32525401070E+02  0.51100000000E-03 0. -1.
        -11    1    4    4    0    0  0.18354654903E+01  0.31312638700E+01 -0.56366482276E+01  0.67041442775E+01  0.51100000000E-03 0.  1.
        -12    1    4    4    0    0  0.67209504855E+01 -0.27294726474E+01 -0.45402352117E+01  0.85577410652E+01  0.00000000000E+00 0.  1.
</event>
<event>
 8    1  0.2994958E-010  0.9118800E+02  0.7816164E-02  0.1184000E+00
        -11   -1    0    0    0    0  0.00000000000E+00  0.00000000000E+00  0.45593999997E+02  0.45594000000E+02  0.51100000000E-03 0. -1.
         11   -1    0    0    0    0 -0.00000000000E+00 -0.00000000000E+00 -0.45593999997E+02  0.45594000000E+02  0.51100000000E-03 0.  1.
         23    2    1    2    0    0  0.88817841970E-15  0.00000000000E+00  0.00000000000E+00  0.91188000000E+02  0.91188000000E+02 0.  0.
    9900012    2    3    3    0    0  0.59924979726E+01 -0.20059131940E+02  0.38017687054E+02  0.47787270339E+02  0.19999996784E+02 0.  0.
        -12    1    3    3    0    0 -0.59924979726E+01  0.20059131940E+02 -0.38017687054E+02  0.43400729661E+02  0.00000000000E+00 0.  1.
         11    1    4    4    0    0  0.52487953384E+01 -0.15284018458E+02  0.14408897246E+02  0.21651036762E+02  0.51100000000E-03 0. -1.
        -11    1    4    4    0    0  0.27223206412E+01  0.24437701097E+01  0.64358446514E+01  0.74029142006E+01  0.51100000000E-03 0.  1.
        -12    1    4    4    0    0 -0.19786180070E+01 -0.72188835914E+01  0.17172945157E+02  0.18733319377E+02  0.00000000000E+00 0.  1.
</event>
<event>
 8    1  0.2994958E-010  0.9118800E+02  0.7816164E-02  0.1184000E+00
        -11   -1    0    0    0    0  0.00000000000E+00  0.00000000000E+00  0.45593999997E+02  0.45594000000E+02  0.51100000000E-03 0. -1.
         11   -1    0    0    0    0 -0.00000000000E+00 -0.00000000000E+00 -0.45593999997E+02  0.45594000000E+02  0.51100000000E-03 0.  1.
         23    2    1    2    0    0  0.00000000000E+00 -0.44408920985E-15  0.00000000000E+00  0.91188000000E+02  0.91188000000E+02 0.  0.
    9900012    2    3    3    0    0 -0.38867683877E+02  0.23852016066E+01  0.19163443234E+02  0.47787267365E+02  0.19999983225E+02 0.  0.
        -12    1    3    3    0    0  0.38867683877E+02 -0.23852016066E+01 -0.19163443234E+02  0.43400732635E+02  0.00000000000E+00 0.  1.
         11    1    4    4    0    0 -0.89842511678E+01 -0.58611585119E+01  0.71335800704E+01  0.12882465332E+02  0.51100000000E-03 0. -1.
        -11    1    4    4    0    0 -0.97621905647E+01  0.28723568661E+01  0.95070186302E+01  0.13926026069E+02  0.51100000000E-03 0.  1.
        -12    1    4    4    0    0 -0.20121242145E+02  0.53740032524E+01  0.25228445330E+01  0.20978775964E+02  0.00000000000E+00 0.  1.
</event>
<event>
 8    1  0.2994958E-010  0.9118800E+02  0.7816164E-02  0.1184000E+00
        -11   -1    0    0    0    0  0.00000000000E+00  0.00000000000E+00  0.45593999997E+02  0.45594000000E+02  0.51100000000E-03 0. -1.
         11   -1    0    0    0    0 -0.00000000000E+00 -0.00000000000E+00 -0.45593999997E+02  0.45594000000E+02  0.51100000000E-03 0.  1.
         23    2    1    2    0    0  0.35527136788E-14  0.35527136788E-14  0.35527136788E-14  0.91188000000E+02  0.91188000000E+02 0.  0.
    9900012    2    3    3    0    0  0.27620225237E+02  0.23440534039E+02  0.23901624983E+02  0.47787272413E+02  0.20000006241E+02 0.  0.
        -12    1    3    3    0    0 -0.27620225237E+02 -0.23440534039E+02 -0.23901624983E+02  0.43400727587E+02  0.00000000000E+00 0.  1.
         11    1    4    4    0    0  0.18319309643E+02  0.12947281745E+02  0.12484698225E+02  0.25672882589E+02  0.51100000000E-03 0. -1.
        -11    1    4    4    0    0  0.79166880529E+01  0.48444687757E+00  0.17321808621E+01  0.81184413100E+01  0.51100000000E-03 0.  1.
         12    1    4    4    0    0  0.13842275415E+01  0.10008805416E+02  0.96847458962E+01  0.13995948515E+02  0.00000000000E+00 0. -1.
</event>
<event>
 8    1  0.2994958E-010  0.9118800E+02  0.7816164E-02  0.1184000E+00
        -11   -1    0    0    0    0  0.00000000000E+00  0.00000000000E+00  0.45593999997E+02  0.45594000000E+02  0.51100000000E-03 0. -1.
         11   -1    0    0    0    0 -0.00000000000E+00 -0.00000000000E+00 -0.45593999997E+02  0.45594000000E+02  0.51100000000E-03 0.  1.
         23    2    1    2    0    0  0.00000000000E+00  0.35527136788E-14  0.00000000000E+00  0.91188000000E+02  0.91188000000E+02 0.  0.
    9900012    2    3    3    0    0  0.22668669368E+02  0.31125455964E+02  0.20024014678E+02  0.47787265631E+02  0.19999975320E+02 0.  0.
        -12    1    3    3    0    0 -0.22668669368E+02 -0.31125455964E+02 -0.20024014678E+02  0.43400734369E+02  0.00000000000E+00 0.  1.
         11    1    4    4    0    0  0.39020872342E+01  0.10537872211E+02 -0.19270139953E+01  0.11401158656E+02  0.51100000000E-03 0.  1.
        -11    1    4    4    0    0  0.37060661465E+01  0.94463360237E+01  0.60501524819E+01  0.11814082100E+02  0.51100000000E-03 0. -1.
        -12    1    4    4    0    0  0.15060515987E+02  0.11141247730E+02  0.15900876192E+02  0.24572024875E+02  0.00000000000E+00 0.  1.
</event>
<event>
 8    1  0.2994958E-010  0.9118800E+02  0.7816164E-02  0.1184000E+00
        -11   -1    0    0    0    0  0.00000000000E+00  0.00000000000E+00  0.45593999997E+02  0.45594000000E+02  0.51100000000E-03 0. -1.
         11   -1    0    0    0    0 -0.00000000000E+00 -0.00000000000E+00 -0.45593999997E+02  0.45594000000E+02  0.51100000000E-03 0.  1.
         23    2    1    2    0    0  0.88817841970E-15  0.00000000000E+00  0.00000000000E+00  0.91188000000E+02  0.91188000000E+02 0.  0.
    9900012    2    3    3    0    0  0.70763181414E+01 -0.25654884797E+02 -0.34283770883E+02  0.47787258781E+02  0.19999944086E+02 0.  0.
         12    1    3    3    0    0 -0.70763181414E+01  0.25654884797E+02  0.34283770883E+02  0.43400741219E+02  0.00000000000E+00 0. -1.
         11    1    4    4    0    0  0.10207678619E+02 -0.42456479743E+01 -0.10712585802E+02  0.15394210741E+02  0.51100000000E-03 0. -1.
        -11    1    4    4    0    0  0.27801347349E+00 -0.47354216096E+01 -0.26840507616E+01  0.54502878882E+01  0.51100000000E-03 0.  1.
         12    1    4    4    0    0 -0.34093739515E+01 -0.16673815213E+02 -0.20887134319E+02  0.26942760151E+02  0.00000000000E+00 0. -1.
</event>
<event>
 8    1  0.2994958E-010  0.9118800E+02  0.7816164E-02  0.1184000E+00
        -11   -1    0    0    0    0  0.00000000000E+00  0.00000000000E+00  0.45593999997E+02  0.45594000000E+02  0.51100000000E-03 0. -1.
         11   -1    0    0    0    0 -0.00000000000E+00 -0.00000000000E+00 -0.45593999997E+02  0.45594000000E+02  0.51100000000E-03 0.  1.
         23    2    1    2    0    0  0.35527136788E-14  0.00000000000E+00 -0.35527136788E-14  0.91188000000E+02  0.91188000000E+02 0.  0.
    9900012    2    3    3    0    0 -0.28105127189E+02  0.12717921883E+02 -0.30528340560E+02  0.47787270874E+02  0.19999999223E+02 0.  0.
         12    1    3    3    0    0  0.28105127189E+02 -0.12717921883E+02  0.30528340560E+02  0.43400729126E+02  0.00000000000E+00 0. -1.
         11    1    4    4    0    0 -0.14106277979E+02  0.34284995717E+01 -0.77143387290E+01  0.16439364647E+02  0.51100000000E-03 0. -1.
        -11    1    4    4    0    0 -0.13359889259E+02  0.17472493248E+01 -0.17561838436E+02  0.22134987931E+02  0.51100000000E-03 0.  1.
         12    1    4    4    0    0 -0.63895995102E+00  0.75421729868E+01 -0.52521633952E+01  0.92129182951E+01  0.00000000000E+00 0. -1.
</event>
<event>
 8    1  0.2994958E-010  0.9118800E+02  0.7816164E-02  0.1184000E+00
        -11   -1    0    0    0    0  0.00000000000E+00  0.00000000000E+00  0.45593999997E+02  0.45594000000E+02  0.51100000000E-03 0. -1.
         11   -1    0    0    0    0 -0.00000000000E+00 -0.00000000000E+00 -0.45593999997E+02  0.45594000000E+02  0.51100000000E-03 0.  1.
         23    2    1    2    0    0 -0.44408920985E-15  0.83266726847E-16 -0.71054273576E-14  0.91188000000E+02  0.91188000000E+02 0.  0.
    9900012    2    3    3    0    0 -0.23210053260E+01  0.17799314393E+00 -0.43338262010E+02  0.47787266120E+02  0.19999977549E+02 0.  0.
         12    1    3    3    0    0  0.23210053260E+01 -0.17799314393E+00  0.43338262010E+02  0.43400733880E+02  0.00000000000E+00 0. -1.
         11    1    4    4    0    0  0.40543189785E+01  0.92878073317E+00 -0.12962453780E+01  0.43566487546E+01  0.51100000000E-03 0. -1.
        -11    1    4    4    0    0  0.97595851066E+00 -0.93991085444E+00 -0.87721162735E+00  0.16141338015E+01  0.51100000000E-03 0.  1.
        -12    1    4    4    0    0 -0.73512828152E+01  0.18912326520E+00 -0.41164805004E+02  0.41816483564E+02  0.00000000000E+00 0.  1.
</event>
<event>
 8    1  0.2994958E-010  0.9118800E+02  0.7816164E-02  0.1184000E+00
        -11   -1    0    0    0    0  0.00000000000E+00  0.00000000000E+00  0.45593999997E+02  0.45594000000E+02  0.51100000000E-03 0. -1.
         11   -1    0    0    0    0 -0.00000000000E+00 -0.00000000000E+00 -0.45593999997E+02  0.45594000000E+02  0.51100000000E-03 0.  1.
         23    2    1    2    0    0  0.00000000000E+00  0.00000000000E+00  0.00000000000E+00  0.91188000000E+02  0.91188000000E+02 0.  0.
    9900012    2    3    3    0    0  0.40475770627E+01  0.20676244593E+02  0.37943817880E+02  0.47787270906E+02  0.19999999369E+02 0.  0.
        -12    1    3    3    0    0 -0.40475770627E+01 -0.20676244593E+02 -0.37943817880E+02  0.43400729094E+02  0.00000000000E+00 0.  1.
         11    1    4    4    0    0  0.42431762377E+01  0.69421204962E+01  0.11363725450E+02  0.13976116697E+02  0.51100000000E-03 0. -1.
        -11    1    4    4    0    0 -0.28308926135E+01  0.16667043529E+02  0.20611942013E+02  0.26658140347E+02  0.51100000000E-03 0.  1.
         12    1    4    4    0    0  0.26352934385E+01 -0.29329194314E+01  0.59681504173E+01  0.71530138614E+01  0.00000000000E+00 0. -1.
</event>
<event>
 8    1  0.2994958E-010  0.9118800E+02  0.7816164E-02  0.1184000E+00
        -11   -1    0    0    0    0  0.00000000000E+00  0.00000000000E+00  0.45593999997E+02  0.45594000000E+02  0.51100000000E-03 0. -1.
         11   -1    0    0    0    0 -0.00000000000E+00 -0.00000000000E+00 -0.45593999997E+02  0.45594000000E+02  0.51100000000E-03 0.  1.
         23    2    1    2    0    0  0.17763568394E-14  0.00000000000E+00  0.17763568394E-14  0.91188000000E+02  0.91188000000E+02 0.  0.
    9900012    2    3    3    0    0 -0.76212935497E+01  0.41070333458E+02 -0.11779946026E+02  0.47787268046E+02  0.19999986331E+02 0.  0.
         12    1    3    3    0    0  0.76212935497E+01 -0.41070333458E+02  0.11779946026E+02  0.43400731954E+02  0.00000000000E+00 0. -1.
         11    1    4    4    0    0 -0.28763981329E+01 -0.73540818743E+00  0.12420009786E+01  0.32182383556E+01  0.51100000000E-03 0. -1.
        -11    1    4    4    0    0  0.13549542511E+01  0.12941774434E+02 -0.25215232387E+01  0.13254565486E+02  0.51100000000E-03 0.  1.
         12    1    4    4    0    0 -0.60998496679E+01  0.28863967212E+02 -0.10500423766E+02  0.31314464205E+02  0.00000000000E+00 0. -1.
</event>
<event>
 8    1  0.2994958E-010  0.9118800E+02  0.7816164E-02  0.1184000E+00
        -11   -1    0    0    0    0  0.00000000000E+00  0.00000000000E+00  0.45593999997E+02  0.45594000000E+02  0.51100000000E-03 0. -1.
         11   -1    0    0    0    0 -0.00000000000E+00 -0.00000000000E+00 -0.45593999997E+02  0.45594000000E+02  0.51100000000E-03 0.  1.
         23    2    1    2    0    0 -0.17763568394E-14 -0.35527136788E-14  0.00000000000E+00  0.91188000000E+02  0.91188000000E+02 0.  0.
    9900012    2    3    3    0    0 -0.90236884417E+01 -0.27791872650E+02 -0.32090624839E+02  0.47787270270E+02  0.19999996471E+02 0.  0.
         12    1    3    3    0    0  0.90236884417E+01  0.27791872650E+02  0.32090624839E+02  0.43400729730E+02  0.00000000000E+00 0. -1.
         11    1    4    4    0    0 -0.94766385662E+01 -0.14087997651E+02 -0.16207176970E+02  0.23472344193E+02  0.51100000000E-03 0. -1.
        -11    1    4    4    0    0 -0.18572582053E+01 -0.99147127680E+01 -0.27549150381E+01  0.10456600520E+02  0.51100000000E-03 0.  1.
        -12    1    4    4    0    0  0.23102083297E+01 -0.37891622313E+01 -0.13128532831E+02  0.13858325557E+02  0.00000000000E+00 0.  1.
</event>
<event>
 8    1  0.2994958E-010  0.9118800E+02  0.7816164E-02  0.1184000E+00
        -11   -1    0    0    0    0  0.00000000000E+00  0.00000000000E+00  0.45593999997E+02  0.45594000000E+02  0.51100000000E-03 0. -1.
         11   -1    0    0    0    0 -0.00000000000E+00 -0.00000000000E+00 -0.45593999997E+02  0.45594000000E+02  0.51100000000E-03 0.  1.
         23    2    1    2    0    0 -0.88817841970E-15  0.00000000000E+00  0.00000000000E+00  0.91188000000E+02  0.91188000000E+02 0.  0.
    9900012    2    3    3    0    0 -0.39500435408E+01 -0.42069387302E+01 -0.43015369613E+02  0.47787271891E+02  0.20000003862E+02 0.  0.
         12    1    3    3    0    0  0.39500435408E+01  0.42069387302E+01  0.43015369613E+02  0.43400728109E+02  0.00000000000E+00 0. -1.
         11    1    4    4    0    0 -0.26396442969E+00  0.27652552979E+01 -0.11209695223E+02  0.11548748042E+02  0.51100000000E-03 0. -1.
        -11    1    4    4    0    0 -0.70924734909E+01  0.22851956920E+01 -0.15084253159E+02  0.16824386859E+02  0.51100000000E-03 0.  1.
         12    1    4    4    0    0  0.34063943798E+01 -0.92573897200E+01 -0.16721421231E+02  0.19414136991E+02  0.00000000000E+00 0. -1.
</event>
<event>
 8    1  0.2994958E-010  0.9118800E+02  0.7816164E-02  0.1184000E+00
        -11   -1    0    0    0    0  0.00000000000E+00  0.00000000000E+00  0.45593999997E+02  0.45594000000E+02  0.51100000000E-03 0.  1.
         11   -1    0    0    0    0 -0.00000000000E+00 -0.00000000000E+00 -0.45593999997E+02  0.45594000000E+02  0.51100000000E-03 0. -1.
         23    2    1    2    0    0  0.88817841970E-15  0.00000000000E+00  0.00000000000E+00  0.91188000000E+02  0.91188000000E+02 0.  0.
    9900012    2    3    3    0    0 -0.37085767143E+01  0.38874576976E+02  0.18937709719E+02  0.47787272752E+02  0.20000007783E+02 0.  0.
        -12    1    3    3    0    0  0.37085767143E+01 -0.38874576976E+02 -0.18937709719E+02  0.43400727248E+02  0.00000000000E+00 0.  1.
         11    1    4    4    0    0 -0.36937613250E+01  0.14575248949E+02  0.78170334784E+01  0.16946615217E+02  0.51100000000E-03 0. -1.
        -11    1    4    4    0    0 -0.43879709249E+01  0.20829237568E+02  0.13009517968E+02  0.24947123773E+02  0.51100000000E-03 0.  1.
        -12    1    4    4    0    0  0.43731555355E+01  0.34700904585E+01 -0.18888417274E+01  0.58935337616E+01  0.00000000000E+00 0.  1.
</event>
<event>
 8    1  0.2994958E-010  0.9118800E+02  0.7816164E-02  0.1184000E+00
        -11   -1    0    0    0    0  0.00000000000E+00  0.00000000000E+00  0.45593999997E+02  0.45594000000E+02  0.51100000000E-03 0. -1.
         11   -1    0    0    0    0 -0.00000000000E+00 -0.00000000000E+00 -0.45593999997E+02  0.45594000000E+02  0.51100000000E-03 0.  1.
         23    2    1    2    0    0  0.00000000000E+00  0.00000000000E+00  0.35527136788E-14  0.91188000000E+02  0.91188000000E+02 0.  0.
    9900012    2    3    3    0    0 -0.37721792908E+02  0.56100658633E+01 -0.20717541440E+02  0.47787273940E+02  0.20000013202E+02 0.  0.
         12    1    3    3    0    0  0.37721792908E+02 -0.56100658633E+01  0.20717541440E+02  0.43400726060E+02  0.00000000000E+00 0. -1.
         11    1    4    4    0    0  0.36971464974E+00  0.34203157612E+00 -0.60827930447E-01  0.50732121929E+00  0.51100000000E-03 0. -1.
        -11    1    4    4    0    0 -0.80807373381E+01 -0.64217070224E+01 -0.50123113152E+01  0.11474314881E+02  0.51100000000E-03 0.  1.
        -12    1    4    4    0    0 -0.30010770220E+02  0.11689741310E+02 -0.15644402195E+02  0.35805637840E+02  0.00000000000E+00 0.  1.
</event>
<event>
 8    1  0.2994958E-010  0.9118800E+02  0.7816164E-02  0.1184000E+00
        -11   -1    0    0    0    0  0.00000000000E+00  0.00000000000E+00  0.45593999997E+02  0.45594000000E+02  0.51100000000E-03 0. -1.
         11   -1    0    0    0    0 -0.00000000000E+00 -0.00000000000E+00 -0.45593999997E+02  0.45594000000E+02  0.51100000000E-03 0.  1.
         23    2    1    2    0    0  0.00000000000E+00  0.00000000000E+00 -0.35527136788E-14  0.91188000000E+02  0.91188000000E+02 0.  0.
    9900012    2    3    3    0    0 -0.32896346064E+02  0.19934586183E+02 -0.20101375280E+02  0.47787278822E+02  0.20000035460E+02 0.  0.
         12    1    3    3    0    0  0.32896346064E+02 -0.19934586183E+02  0.20101375280E+02  0.43400721178E+02  0.00000000000E+00 0. -1.
         11    1    4    4    0    0 -0.13200026711E+02  0.10547716744E+02 -0.94241628011E+01  0.19347089664E+02  0.51100000000E-03 0. -1.
        -11    1    4    4    0    0 -0.66956435936E+01  0.29473265802E+01 -0.11805339715E+02  0.13888283665E+02  0.51100000000E-03 0.  1.
         12    1    4    4    0    0 -0.13000675759E+02  0.64395428581E+01  0.11281272362E+01  0.14551905493E+02  0.00000000000E+00 0. -1.
</event>
<event>
 8    1  0.2994958E-010  0.9118800E+02  0.7816164E-02  0.1184000E+00
        -11   -1    0    0    0    0  0.00000000000E+00  0.00000000000E+00  0.45593999997E+02  0.45594000000E+02  0.51100000000E-03 0. -1.
         11   -1    0    0    0    0 -0.00000000000E+00 -0.00000000000E+00 -0.45593999997E+02  0.45594000000E+02  0.51100000000E-03 0.  1.
         23    2    1    2    0    0 -0.35527136788E-14  0.00000000000E+00  0.00000000000E+00  0.91188000000E+02  0.91188000000E+02 0.  0.
    9900012    2    3    3    0    0 -0.20510237356E+02 -0.12194735212E+02 -0.36252473075E+02  0.47787271811E+02  0.20000003494E+02 0.  0.
         12    1    3    3    0    0  0.20510237356E+02  0.12194735212E+02  0.36252473075E+02  0.43400728189E+02  0.00000000000E+00 0. -1.
         11    1    4    4    0    0 -0.47873618241E+00 -0.43339866143E+01 -0.79569921856E+01  0.90733870858E+01  0.51100000000E-03 0. -1.
        -11    1    4    4    0    0  0.36529089422E+00 -0.15514330767E+01  0.14125304757E+01  0.21297005974E+01  0.51100000000E-03 0.  1.
        -12    1    4    4    0    0 -0.20396792068E+02 -0.63093155211E+01 -0.29708011365E+02  0.36584184128E+02  0.00000000000E+00 0.  1.
</event>
<event>
 8    1  0.2994958E-010  0.9118800E+02  0.7816164E-02  0.1184000E+00
        -11   -1    0    0    0    0  0.00000000000E+00  0.00000000000E+00  0.45593999997E+02  0.45594000000E+02  0.51100000000E-03 0. -1.
         11   -1    0    0    0    0 -0.00000000000E+00 -0.00000000000E+00 -0.45593999997E+02  0.45594000000E+02  0.51100000000E-03 0.  1.
         23    2    1    2    0    0 -0.17763568394E-14 -0.71054273576E-14 -0.35527136788E-14  0.91188000000E+02  0.91188000000E+02 0.  0.
    9900012    2    3    3    0    0  0.13059280478E+02  0.35216161349E+02  0.21746270799E+02  0.47787272812E+02  0.20000008061E+02 0.  0.
        -12    1    3    3    0    0 -0.13059280478E+02 -0.35216161349E+02 -0.21746270799E+02  0.43400727188E+02  0.00000000000E+00 0.  1.
         11    1    4    4    0    0  0.11578765443E+02  0.22146727589E+02  0.14576549633E+02  0.28931317833E+02  0.51100000000E-03 0. -1.
        -11    1    4    4    0    0  0.36951965052E+01 -0.36139092570E+00  0.24518976628E+01  0.44493688343E+01  0.51100000000E-03 0.  1.
        -12    1    4    4    0    0 -0.22146814704E+01  0.13430824685E+02  0.47178235035E+01  0.14406586145E+02  0.00000000000E+00 0.  1.
</event>
<event>
 8    1  0.2994958E-010  0.9118800E+02  0.7816164E-02  0.1184000E+00
        -11   -1    0    0    0    0  0.00000000000E+00  0.00000000000E+00  0.45593999997E+02  0.45594000000E+02  0.51100000000E-03 0. -1.
         11   -1    0    0    0    0 -0.00000000000E+00 -0.00000000000E+00 -0.45593999997E+02  0.45594000000E+02  0.51100000000E-03 0.  1.
         23    2    1    2    0    0  0.17763568394E-14  0.00000000000E+00 -0.71054273576E-14  0.91188000000E+02  0.91188000000E+02 0.  0.
    9900012    2    3    3    0    0 -0.13538768604E+02  0.24412258120E+01  0.41162673538E+02  0.47787268076E+02  0.19999986466E+02 0.  0.
        -12    1    3    3    0    0  0.13538768604E+02 -0.24412258120E+01 -0.41162673538E+02  0.43400731924E+02  0.00000000000E+00 0.  1.
         11    1    4    4    0    0 -0.25120280074E+01  0.16596634429E+01  0.19825128619E+02  0.20052443553E+02  0.51100000000E-03 0. -1.
        -11    1    4    4    0    0 -0.82227674808E+01  0.70141658035E+01  0.14299846504E+02  0.17924788346E+02  0.51100000000E-03 0.  1.
         12    1    4    4    0    0 -0.28039731153E+01 -0.62326034344E+01  0.70376984154E+01  0.98100361767E+01  0.00000000000E+00 0. -1.
</event>
<event>
 8    1  0.2994958E-010  0.9118800E+02  0.7816164E-02  0.1184000E+00
        -11   -1    0    0    0    0  0.00000000000E+00  0.00000000000E+00  0.45593999997E+02  0.45594000000E+02  0.51100000000E-03 0. -1.
         11   -1    0    0    0    0 -0.00000000000E+00 -0.00000000000E+00 -0.45593999997E+02  0.45594000000E+02  0.51100000000E-03 0.  1.
         23    2    1    2    0    0  0.44408920985E-15  0.00000000000E+00  0.71054273576E-14  0.91188000000E+02  0.91188000000E+02 0.  0.
    9900012    2    3    3    0    0  0.34611018088E+01  0.11165265130E+02  0.41796904328E+02  0.47787267488E+02  0.19999983787E+02 0.  0.
        -12    1    3    3    0    0 -0.34611018088E+01 -0.11165265130E+02 -0.41796904328E+02  0.43400732512E+02  0.00000000000E+00 0.  1.
         11    1    4    4    0    0  0.47581987651E+01  0.80628602167E+01  0.27917289248E+02  0.29445291807E+02  0.51100000000E-03 0. -1.
        -11    1    4    4    0    0 -0.29901614783E+01  0.69916206756E+01  0.10227424183E+02  0.12744568687E+02  0.51100000000E-03 0.  1.
        -12    1    4    4    0    0  0.16930645219E+01 -0.38892157619E+01  0.36521908965E+01  0.55974069946E+01  0.00000000000E+00 0.  1.
</event>
<event>
 8    1  0.2994958E-010  0.9118800E+02  0.7816164E-02  0.1184000E+00
        -11   -1    0    0    0    0  0.00000000000E+00  0.00000000000E+00  0.45593999997E+02  0.45594000000E+02  0.51100000000E-03 0. -1.
         11   -1    0    0    0    0 -0.00000000000E+00 -0.00000000000E+00 -0.45593999997E+02  0.45594000000E+02  0.51100000000E-03 0.  1.
         23    2    1    2    0    0  0.17763568394E-14  0.00000000000E+00  0.71054273576E-14  0.91188000000E+02  0.91188000000E+02 0.  0.
    9900012    2    3    3    0    0  0.15329882965E+02 -0.82851701743E+01  0.39748882609E+02  0.47787273909E+02  0.20000013061E+02 0.  0.
        -12    1    3    3    0    0 -0.15329882965E+02  0.82851701743E+01 -0.39748882609E+02  0.43400726091E+02  0.00000000000E+00 0.  1.
         11    1    4    4    0    0  0.25800359774E+01 -0.84594264214E+00  0.34599487835E+01  0.43981189666E+01  0.51100000000E-03 0. -1.
        -11    1    4    4    0    0  0.11523730025E+02 -0.12597291249E+02  0.20196851799E+02  0.26446189202E+02  0.51100000000E-03 0.  1.
        -12    1    4    4    0    0  0.12261169623E+01  0.51580637164E+01  0.16092082027E+02  0.16942965740E+02  0.00000000000E+00 0.  1.
</event>
<event>
 8    1  0.2994958E-010  0.9118800E+02  0.7816164E-02  0.1184000E+00
        -11   -1    0    0    0    0  0.00000000000E+00  0.00000000000E+00  0.45593999997E+02  0.45594000000E+02  0.51100000000E-03 0. -1.
         11   -1    0    0    0    0 -0.00000000000E+00 -0.00000000000E+00 -0.45593999997E+02  0.45594000000E+02  0.51100000000E-03 0.  1.
         23    2    1    2    0    0  0.00000000000E+00  0.00000000000E+00  0.00000000000E+00  0.91188000000E+02  0.91188000000E+02 0.  0.
    9900012    2    3    3    0    0  0.81455356767E+01  0.34082826187E+02 -0.25605365087E+02  0.47787268283E+02  0.19999987409E+02 0.  0.
         12    1    3    3    0    0 -0.81455356767E+01 -0.34082826187E+02  0.25605365087E+02  0.43400731717E+02  0.00000000000E+00 0. -1.
         11    1    4    4    0    0  0.19907587011E+01  0.83708240300E+01 -0.17761070002E+01  0.87856912924E+01  0.51100000000E-03 0. -1.
        -11    1    4    4    0    0  0.74183477272E+01  0.17497366262E+02 -0.70386231695E+01  0.20266522284E+02  0.51100000000E-03 0.  1.
        -12    1    4    4    0    0 -0.12635707516E+01  0.82146358952E+01 -0.16790634917E+02  0.18735054707E+02  0.00000000000E+00 0.  1.
</event>
<event>
 8    1  0.2994958E-010  0.9118800E+02  0.7816164E-02  0.1184000E+00
        -11   -1    0    0    0    0  0.00000000000E+00  0.00000000000E+00  0.45593999997E+02  0.45594000000E+02  0.51100000000E-03 0. -1.
         11   -1    0    0    0    0 -0.00000000000E+00 -0.00000000000E+00 -0.45593999997E+02  0.45594000000E+02  0.51100000000E-03 0.  1.
         23    2    1    2    0    0 -0.17763568394E-14  0.35527136788E-14 -0.35527136788E-14  0.91188000000E+02  0.91188000000E+02 0.  0.
    9900012    2    3    3    0    0 -0.12336609101E+02  0.30010581274E+02 -0.28823536964E+02  0.47787271946E+02  0.20000004109E+02 0.  0.
         12    1    3    3    0    0  0.12336609101E+02 -0.30010581274E+02  0.28823536964E+02  0.43400728054E+02  0.00000000000E+00 0. -1.
         11    1    4    4    0    0 -0.25486842668E+01  0.20527845877E+01 -0.60436436200E+01  0.68727974306E+01  0.51100000000E-03 0.  1.
        -11    1    4    4    0    0 -0.10864141572E+01  0.20139263192E+02 -0.20938778159E+02  0.29072369162E+02  0.51100000000E-03 0. -1.
         12    1    4    4    0    0 -0.87015106769E+01  0.78185334946E+01 -0.18411151848E+01  0.11842105353E+02  0.00000000000E+00 0. -1.
</event>
<event>
 8    1  0.2994958E-010  0.9118800E+02  0.7816164E-02  0.1184000E+00
        -11   -1    0    0    0    0  0.00000000000E+00  0.00000000000E+00  0.45593999997E+02  0.45594000000E+02  0.51100000000E-03 0. -1.
         11   -1    0    0    0    0 -0.00000000000E+00 -0.00000000000E+00 -0.45593999997E+02  0.45594000000E+02  0.51100000000E-03 0.  1.
         23    2    1    2    0    0  0.00000000000E+00  0.00000000000E+00  0.00000000000E+00  0.91188000000E+02  0.91188000000E+02 0.  0.
    9900012    2    3    3    0    0  0.33643168175E+02  0.18668387884E+02  0.20081126446E+02  0.47787272928E+02  0.20000008589E+02 0.  0.
        -12    1    3    3    0    0 -0.33643168175E+02 -0.18668387884E+02 -0.20081126446E+02  0.43400727072E+02  0.00000000000E+00 0.  1.
         11    1    4    4    0    0  0.48450103931E+01  0.36890622323E+01 -0.21901518036E+01  0.64714813642E+01  0.51100000000E-03 0. -1.
        -11    1    4    4    0    0  0.66736824084E-01  0.19787302079E+01  0.49608675080E+01  0.53413513021E+01  0.51100000000E-03 0.  1.
        -12    1    4    4    0    0  0.28731420957E+02  0.13000595443E+02  0.17310410742E+02  0.35974440262E+02  0.00000000000E+00 0.  1.
</event>
<event>
 8    1  0.2994958E-010  0.9118800E+02  0.7816164E-02  0.1184000E+00
        -11   -1    0    0    0    0  0.00000000000E+00  0.00000000000E+00  0.45593999997E+02  0.45594000000E+02  0.51100000000E-03 0. -1.
         11   -1    0    0    0    0 -0.00000000000E+00 -0.00000000000E+00 -0.45593999997E+02  0.45594000000E+02  0.51100000000E-03 0.  1.
         23    2    1    2    0    0 -0.35527136788E-14  0.00000000000E+00  0.00000000000E+00  0.91188000000E+02  0.91188000000E+02 0.  0.
    9900012    2    3    3    0    0  0.20093515157E+02 -0.37704213760E+02 -0.76332148869E+01  0.47787273553E+02  0.20000011438E+02 0.  0.
         12    1    3    3    0    0 -0.20093515157E+02  0.37704213760E+02  0.76332148869E+01  0.43400726447E+02  0.00000000000E+00 0. -1.
         11    1    4    4    0    0  0.64541062199E+01 -0.12046098374E+02 -0.56640380880E+01  0.14793420864E+02  0.51100000000E-03 0. -1.
        -11    1    4    4    0    0  0.10755562120E+02 -0.26073746628E+02 -0.51597518975E+01  0.28673078308E+02  0.51100000000E-03 0.  1.
         12    1    4    4    0    0  0.28838468170E+01  0.41563124238E+00  0.31905750986E+01  0.43207743812E+01  0.00000000000E+00 0. -1.
</event>
<event>
 8    1  0.2994958E-010  0.9118800E+02  0.7816164E-02  0.1184000E+00
        -11   -1    0    0    0    0  0.00000000000E+00  0.00000000000E+00  0.45593999997E+02  0.45594000000E+02  0.51100000000E-03 0. -1.
         11   -1    0    0    0    0 -0.00000000000E+00 -0.00000000000E+00 -0.45593999997E+02  0.45594000000E+02  0.51100000000E-03 0.  1.
         23    2    1    2    0    0  0.00000000000E+00  0.35527136788E-14  0.00000000000E+00  0.91188000000E+02  0.91188000000E+02 0.  0.
    9900012    2    3    3    0    0  0.23467528147E+02  0.11725057264E+02 -0.34574864601E+02  0.47787272963E+02  0.20000008747E+02 0.  0.
         12    1    3    3    0    0 -0.23467528147E+02 -0.11725057264E+02  0.34574864601E+02  0.43400727037E+02  0.00000000000E+00 0. -1.
         11    1    4    4    0    0  0.20969239046E+02  0.12309776977E+02 -0.30985496313E+02  0.39387061040E+02  0.51100000000E-03 0. -1.
        -11    1    4    4    0    0 -0.68557540382E+00  0.20535626868E+01 -0.36739941598E+01  0.42644304063E+01  0.51100000000E-03 0.  1.
         12    1    4    4    0    0  0.31838645058E+01 -0.26382823995E+01  0.84625872429E-01  0.41357815161E+01  0.00000000000E+00 0. -1.
</event>
<event>
 8    1  0.2994958E-010  0.9118800E+02  0.7816164E-02  0.1184000E+00
        -11   -1    0    0    0    0  0.00000000000E+00  0.00000000000E+00  0.45593999997E+02  0.45594000000E+02  0.51100000000E-03 0.  1.
         11   -1    0    0    0    0 -0.00000000000E+00 -0.00000000000E+00 -0.45593999997E+02  0.45594000000E+02  0.51100000000E-03 0. -1.
         23    2    1    2    0    0  0.17763568394E-14  0.00000000000E+00  0.00000000000E+00  0.91188000000E+02  0.91188000000E+02 0.  0.
    9900012    2    3    3    0    0  0.12757656350E+02  0.41408078815E+02 -0.24972773278E+01  0.47787272117E+02  0.20000004892E+02 0.  0.
         12    1    3    3    0    0 -0.12757656350E+02 -0.41408078815E+02  0.24972773278E+01  0.43400727883E+02  0.00000000000E+00 0. -1.
         11    1    4    4    0    0  0.80143017274E+01  0.13462408315E+02  0.78777710946E+00  0.15687130485E+02  0.51100000000E-03 0. -1.
        -11    1    4    4    0    0  0.80980352022E+01  0.27197663674E+02 -0.37775454803E+01  0.28627974668E+02  0.51100000000E-03 0.  1.
        -12    1    4    4    0    0 -0.33546805795E+01  0.74800682568E+00  0.49249104304E+00  0.34721669645E+01  0.00000000000E+00 0.  1.
</event>
<event>
 8    1  0.2994958E-010  0.9118800E+02  0.7816164E-02  0.1184000E+00
        -11   -1    0    0    0    0  0.00000000000E+00  0.00000000000E+00  0.45593999997E+02  0.45594000000E+02  0.51100000000E-03 0. -1.
         11   -1    0    0    0    0 -0.00000000000E+00 -0.00000000000E+00 -0.45593999997E+02  0.45594000000E+02  0.51100000000E-03 0.  1.
         23    2    1    2    0    0  0.00000000000E+00  0.17763568394E-14 -0.71054273576E-14  0.91188000000E+02  0.91188000000E+02 0.  0.
    9900012    2    3    3    0    0 -0.25984682654E+02  0.90989251000E+01  0.33550406992E+02  0.47787262910E+02  0.19999962912E+02 0.  0.
        -12    1    3    3    0    0  0.25984682654E+02 -0.90989251000E+01 -0.33550406992E+02  0.43400737090E+02  0.00000000000E+00 0.  1.
         11    1    4    4    0    0 -0.45299446466E+01 -0.11898149594E+01  0.25994964091E+01  0.53566258019E+01  0.51100000000E-03 0. -1.
        -11    1    4    4    0    0 -0.14649841179E+02  0.13277404959E+02  0.14948157001E+02  0.24786180161E+02  0.51100000000E-03 0.  1.
         12    1    4    4    0    0 -0.68048968286E+01 -0.29886648996E+01  0.16002753582E+02  0.17644456947E+02  0.00000000000E+00 0. -1.
</event>
<event>
 8    1  0.2994958E-010  0.9118800E+02  0.7816164E-02  0.1184000E+00
        -11   -1    0    0    0    0  0.00000000000E+00  0.00000000000E+00  0.45593999997E+02  0.45594000000E+02  0.51100000000E-03 0. -1.
         11   -1    0    0    0    0 -0.00000000000E+00 -0.00000000000E+00 -0.45593999997E+02  0.45594000000E+02  0.51100000000E-03 0.  1.
         23    2    1    2    0    0  0.00000000000E+00  0.00000000000E+00 -0.71054273576E-14  0.91188000000E+02  0.91188000000E+02 0.  0.
    9900012    2    3    3    0    0 -0.22747122325E+02  0.17540367981E+02 -0.32535009601E+02  0.47787274974E+02  0.20000017919E+02 0.  0.
         12    1    3    3    0    0  0.22747122325E+02 -0.17540367981E+02  0.32535009601E+02  0.43400725026E+02  0.00000000000E+00 0. -1.
         11    1    4    4    0    0 -0.14324189590E+02  0.53378591327E+01 -0.26835873029E+02  0.30884287737E+02  0.51100000000E-03 0. -1.
        -11    1    4    4    0    0  0.73788219146E+00  0.20938609720E+01 -0.12820911973E+01  0.25636852377E+01  0.51100000000E-03 0.  1.
         12    1    4    4    0    0 -0.91608149266E+01  0.10108647876E+02 -0.44170453753E+01  0.14339302000E+02  0.00000000000E+00 0. -1.
</event>
<event>
 8    1  0.2994958E-010  0.9118800E+02  0.7816164E-02  0.1184000E+00
        -11   -1    0    0    0    0  0.00000000000E+00  0.00000000000E+00  0.45593999997E+02  0.45594000000E+02  0.51100000000E-03 0. -1.
         11   -1    0    0    0    0 -0.00000000000E+00 -0.00000000000E+00 -0.45593999997E+02  0.45594000000E+02  0.51100000000E-03 0.  1.
         23    2    1    2    0    0  0.14210854715E-13  0.00000000000E+00  0.00000000000E+00  0.91188000000E+02  0.91188000000E+02 0.  0.
    9900012    2    3    3    0    0  0.38992296406E+02  0.91512885961E+01 -0.16717596319E+02  0.47787270874E+02  0.19999999223E+02 0.  0.
         12    1    3    3    0    0 -0.38992296406E+02 -0.91512885961E+01  0.16717596319E+02  0.43400729126E+02  0.00000000000E+00 0. -1.
         11    1    4    4    0    0  0.25633023748E+02  0.34326212872E+01 -0.10994029144E+02  0.28101663162E+02  0.51100000000E-03 0. -1.
        -11    1    4    4    0    0  0.10965073612E+02 -0.16488916079E+01 -0.33777659479E+01  0.11591418633E+02  0.51100000000E-03 0.  1.
         12    1    4    4    0    0  0.23941990458E+01  0.73675589168E+01 -0.23458012268E+01  0.80941890798E+01  0.00000000000E+00 0. -1.
</event>
<event>
 8    1  0.2994958E-010  0.9118800E+02  0.7816164E-02  0.1184000E+00
        -11   -1    0    0    0    0  0.00000000000E+00  0.00000000000E+00  0.45593999997E+02  0.45594000000E+02  0.51100000000E-03 0. -1.
         11   -1    0    0    0    0 -0.00000000000E+00 -0.00000000000E+00 -0.45593999997E+02  0.45594000000E+02  0.51100000000E-03 0.  1.
         23    2    1    2    0    0  0.00000000000E+00  0.55511151231E-16  0.71054273576E-14  0.91188000000E+02  0.91188000000E+02 0.  0.
    9900012    2    3    3    0    0  0.10056052687E+02 -0.34111106677E+00 -0.42218273534E+02  0.47787272211E+02  0.20000005319E+02 0.  0.
         12    1    3    3    0    0 -0.10056052687E+02  0.34111106677E+00  0.42218273534E+02  0.43400727789E+02  0.00000000000E+00 0. -1.
         11    1    4    4    0    0  0.13492029668E+01  0.34541458444E-01  0.11738430210E+01  0.17887004940E+01  0.51100000000E-03 0. -1.
        -11    1    4    4    0    0  0.70996796410E+01  0.18124400255E+01 -0.94981722015E+01  0.11996068743E+02  0.51100000000E-03 0.  1.
        -12    1    4    4    0    0  0.16071700788E+01 -0.21880925508E+01 -0.33893944354E+02  0.34002502974E+02  0.00000000000E+00 0.  1.
</event>
<event>
 8    1  0.2994958E-010  0.9118800E+02  0.7816164E-02  0.1184000E+00
        -11   -1    0    0    0    0  0.00000000000E+00  0.00000000000E+00  0.45593999997E+02  0.45594000000E+02  0.51100000000E-03 0.  1.
         11   -1    0    0    0    0 -0.00000000000E+00 -0.00000000000E+00 -0.45593999997E+02  0.45594000000E+02  0.51100000000E-03 0. -1.
         23    2    1    2    0    0  0.00000000000E+00 -0.71054273576E-14  0.00000000000E+00  0.91188000000E+02  0.91188000000E+02 0.  0.
    9900012    2    3    3    0    0 -0.12357739788E+02 -0.33544200035E+02 -0.24610895199E+02  0.47787271306E+02  0.20000001194E+02 0.  0.
         12    1    3    3    0    0  0.12357739788E+02  0.33544200035E+02  0.24610895199E+02  0.43400728694E+02  0.00000000000E+00 0. -1.
         11    1    4    4    0    0 -0.91560694328E+00  0.83872417930E+00 -0.26998521618E+01  0.29716992244E+01  0.51100000000E-03 0. -1.
        -11    1    4    4    0    0 -0.12818175167E+00 -0.85275527952E+01 -0.12367906775E+02  0.15023338693E+02  0.51100000000E-03 0.  1.
        -12    1    4    4    0    0 -0.11313951093E+02 -0.25855371420E+02 -0.95431362619E+01  0.29792233389E+02  0.00000000000E+00 0.  1.
</event>
<event>
 8    1  0.2994958E-010  0.9118800E+02  0.7816164E-02  0.1184000E+00
        -11   -1    0    0    0    0  0.00000000000E+00  0.00000000000E+00  0.45593999997E+02  0.45594000000E+02  0.51100000000E-03 0. -1.
         11   -1    0    0    0    0 -0.00000000000E+00 -0.00000000000E+00 -0.45593999997E+02  0.45594000000E+02  0.51100000000E-03 0.  1.
         23    2    1    2    0    0  0.17763568394E-14 -0.71054273576E-14  0.00000000000E+00  0.91188000000E+02  0.91188000000E+02 0.  0.
    9900012    2    3    3    0    0 -0.91441985153E+01  0.32820676813E+02 -0.26885127279E+02  0.47787271185E+02  0.20000000639E+02 0.  0.
         12    1    3    3    0    0  0.91441985153E+01 -0.32820676813E+02  0.26885127279E+02  0.43400728815E+02  0.00000000000E+00 0. -1.
         11    1    4    4    0    0 -0.40805431998E+01  0.36701804882E+01 -0.68589288830E+01  0.87844159342E+01  0.51100000000E-03 0. -1.
        -11    1    4    4    0    0 -0.86382639541E+01  0.22456963935E+02 -0.20194713011E+02  0.31412756440E+02  0.51100000000E-03 0.  1.
        -12    1    4    4    0    0  0.35746086386E+01  0.66935323897E+01  0.16851461585E+00  0.75900988101E+01  0.00000000000E+00 0.  1.
</event>
<event>
 8    1  0.2994958E-010  0.9118800E+02  0.7816164E-02  0.1184000E+00
        -11   -1    0    0    0    0  0.00000000000E+00  0.00000000000E+00  0.45593999997E+02  0.45594000000E+02  0.51100000000E-03 0. -1.
         11   -1    0    0    0    0 -0.00000000000E+00 -0.00000000000E+00 -0.45593999997E+02  0.45594000000E+02  0.51100000000E-03 0.  1.
         23    2    1    2    0    0 -0.35527136788E-14  0.00000000000E+00 -0.35527136788E-14  0.91188000000E+02  0.91188000000E+02 0.  0.
    9900012    2    3    3    0    0  0.11466301359E+02  0.32539486164E+02 -0.26331130480E+02  0.47787278128E+02  0.20000032298E+02 0.  0.
         12    1    3    3    0    0 -0.11466301359E+02 -0.32539486164E+02  0.26331130480E+02  0.43400721872E+02  0.00000000000E+00 0. -1.
         11    1    4    4    0    0  0.56475205360E+01  0.61299138539E+01 -0.12652532092E+00  0.83358467464E+01  0.51100000000E-03 0. -1.
        -11    1    4    4    0    0  0.75530273300E+01  0.17330034284E+02 -0.11638473839E+02  0.22199828461E+02  0.51100000000E-03 0.  1.
         12    1    4    4    0    0 -0.17342465074E+01  0.90795380257E+01 -0.14566131320E+02  0.17251602921E+02  0.00000000000E+00 0. -1.
</event>
<event>
 8    1  0.2994958E-010  0.9118800E+02  0.7816164E-02  0.1184000E+00
        -11   -1    0    0    0    0  0.00000000000E+00  0.00000000000E+00  0.45593999997E+02  0.45594000000E+02  0.51100000000E-03 0. -1.
         11   -1    0    0    0    0 -0.00000000000E+00 -0.00000000000E+00 -0.45593999997E+02  0.45594000000E+02  0.51100000000E-03 0.  1.
         23    2    1    2    0    0  0.00000000000E+00  0.99920072216E-15 -0.71054273576E-14  0.91188000000E+02  0.91188000000E+02 0.  0.
    9900012    2    3    3    0    0  0.19463220308E+02  0.66484221154E+00  0.38786135083E+02  0.47787271497E+02  0.20000002063E+02 0.  0.
        -12    1    3    3    0    0 -0.19463220308E+02 -0.66484221154E+00 -0.38786135083E+02  0.43400728503E+02  0.00000000000E+00 0.  1.
         11    1    4    4    0    0  0.92013999547E+01  0.17939435287E+00  0.18247734381E+02  0.20437165991E+02  0.51100000000E-03 0. -1.
        -11    1    4    4    0    0  0.91797601488E+01  0.49054709520E+01  0.20276725303E+02  0.22792043149E+02  0.51100000000E-03 0.  1.
        -12    1    4    4    0    0  0.10820602046E+01 -0.44200230934E+01  0.26167539929E+00  0.45580623566E+01  0.00000000000E+00 0.  1.
</event>
<event>
 8    1  0.2994958E-010  0.9118800E+02  0.7816164E-02  0.1184000E+00
        -11   -1    0    0    0    0  0.00000000000E+00  0.00000000000E+00  0.45593999997E+02  0.45594000000E+02  0.51100000000E-03 0. -1.
         11   -1    0    0    0    0 -0.00000000000E+00 -0.00000000000E+00 -0.45593999997E+02  0.45594000000E+02  0.51100000000E-03 0.  1.
         23    2    1    2    0    0  0.17763568394E-14  0.00000000000E+00  0.00000000000E+00  0.91188000000E+02  0.91188000000E+02 0.  0.
    9900012    2    3    3    0    0 -0.14408193479E+02 -0.34530001363E+02 -0.21993318835E+02  0.47787272969E+02  0.20000008774E+02 0.  0.
         12    1    3    3    0    0  0.14408193479E+02  0.34530001363E+02  0.21993318835E+02  0.43400727031E+02  0.00000000000E+00 0. -1.
         11    1    4    4    0    0 -0.12312966112E+02 -0.26848495926E+02 -0.23210506045E+02  0.37565655313E+02  0.51100000000E-03 0.  1.
        -11    1    4    4    0    0 -0.56204561498E+00  0.91338231322E+00 -0.70307273789E+00  0.12823704844E+01  0.51100000000E-03 0. -1.
        -12    1    4    4    0    0 -0.15331817522E+01 -0.85948877501E+01  0.19202599479E+01  0.89392471713E+01  0.00000000000E+00 0.  1.
</event>
<event>
 8    1  0.2994958E-010  0.9118800E+02  0.7816164E-02  0.1184000E+00
        -11   -1    0    0    0    0  0.00000000000E+00  0.00000000000E+00  0.45593999997E+02  0.45594000000E+02  0.51100000000E-03 0. -1.
         11   -1    0    0    0    0 -0.00000000000E+00 -0.00000000000E+00 -0.45593999997E+02  0.45594000000E+02  0.51100000000E-03 0.  1.
         23    2    1    2    0    0  0.00000000000E+00  0.00000000000E+00  0.00000000000E+00  0.91188000000E+02  0.91188000000E+02 0.  0.
    9900012    2    3    3    0    0  0.20968773260E+02 -0.73748611265E+01  0.37276605905E+02  0.47787269863E+02  0.19999994612E+02 0.  0.
        -12    1    3    3    0    0 -0.20968773260E+02  0.73748611265E+01 -0.37276605905E+02  0.43400730137E+02  0.00000000000E+00 0.  1.
         11    1    4    4    0    0  0.67550413893E+01 -0.68051950552E+01  0.22234622244E+02  0.24214039120E+02  0.51100000000E-03 0. -1.
        -11    1    4    4    0    0  0.32292187458E+01 -0.14239361894E+01  0.11455010477E+02  0.11986355295E+02  0.51100000000E-03 0.  1.
        -12    1    4    4    0    0  0.10984513125E+02  0.85427011807E+00  0.35869731847E+01  0.11586875448E+02  0.00000000000E+00 0.  1.
</event>
<event>
 8    1  0.2994958E-010  0.9118800E+02  0.7816164E-02  0.1184000E+00
        -11   -1    0    0    0    0  0.00000000000E+00  0.00000000000E+00  0.45593999997E+02  0.45594000000E+02  0.51100000000E-03 0. -1.
         11   -1    0    0    0    0 -0.00000000000E+00 -0.00000000000E+00 -0.45593999997E+02  0.45594000000E+02  0.51100000000E-03 0.  1.
         23    2    1    2    0    0  0.00000000000E+00  0.00000000000E+00  0.00000000000E+00  0.91188000000E+02  0.91188000000E+02 0.  0.
    9900012    2    3    3    0    0  0.13684935651E+02 -0.19036813181E+02 -0.36523219134E+02  0.47787271253E+02  0.20000000952E+02 0.  0.
         12    1    3    3    0    0 -0.13684935651E+02  0.19036813181E+02  0.36523219134E+02  0.43400728747E+02  0.00000000000E+00 0. -1.
         11    1    4    4    0    0  0.20542405344E+01  0.20705874707E+01 -0.31523843746E+01  0.42947367967E+01  0.51100000000E-03 0. -1.
        -11    1    4    4    0    0 -0.22963876748E+00  0.14498670291E+01  0.43453038636E-01  0.14685832606E+01  0.51100000000E-03 0.  1.
        -12    1    4    4    0    0  0.11860333884E+02 -0.22557267681E+02 -0.33414287798E+02  0.42023951196E+02  0.00000000000E+00 0.  1.
</event>
<event>
 8    1  0.2994958E-010  0.9118800E+02  0.7816164E-02  0.1184000E+00
        -11   -1    0    0    0    0  0.00000000000E+00  0.00000000000E+00  0.45593999997E+02  0.45594000000E+02  0.51100000000E-03 0. -1.
         11   -1    0    0    0    0 -0.00000000000E+00 -0.00000000000E+00 -0.45593999997E+02  0.45594000000E+02  0.51100000000E-03 0.  1.
         23    2    1    2    0    0  0.00000000000E+00 -0.88817841970E-15  0.35527136788E-14  0.91188000000E+02  0.91188000000E+02 0.  0.
    9900012    2    3    3    0    0 -0.39250032702E+02  0.54076848005E+01 -0.17714834176E+02  0.47787268763E+02  0.19999989600E+02 0.  0.
         12    1    3    3    0    0  0.39250032702E+02 -0.54076848005E+01  0.17714834176E+02  0.43400731237E+02  0.00000000000E+00 0. -1.
         11    1    4    4    0    0 -0.14533493556E+02 -0.15429892036E+01 -0.14589579983E+02  0.20650886058E+02  0.51100000000E-03 0. -1.
        -11    1    4    4    0    0 -0.87224500925E+01  0.19405214874E+01 -0.50529746536E+01  0.10265442629E+02  0.51100000000E-03 0.  1.
        -12    1    4    4    0    0 -0.15994089054E+02  0.50101525168E+01  0.19277204611E+01  0.16870940077E+02  0.00000000000E+00 0.  1.
</event>
<event>
 8    1  0.2994958E-010  0.9118800E+02  0.7816164E-02  0.1184000E+00
        -11   -1    0    0    0    0  0.00000000000E+00  0.00000000000E+00  0.45593999997E+02  0.45594000000E+02  0.51100000000E-03 0. -1.
         11   -1    0    0    0    0 -0.00000000000E+00 -0.00000000000E+00 -0.45593999997E+02  0.45594000000E+02  0.51100000000E-03 0.  1.
         23    2    1    2    0    0 -0.33306690739E-15  0.00000000000E+00 -0.35527136788E-14  0.91188000000E+02  0.91188000000E+02 0.  0.
    9900012    2    3    3    0    0  0.87458485217E+00 -0.32491986084E+02 -0.28759856156E+02  0.47787269771E+02  0.19999994192E+02 0.  0.
         12    1    3    3    0    0 -0.87458485217E+00  0.32491986084E+02  0.28759856156E+02  0.43400730229E+02  0.00000000000E+00 0. -1.
         11    1    4    4    0    0 -0.81063347228E+00  0.46182848136E+00 -0.27418908721E+00  0.97241559492E+00  0.51100000000E-03 0. -1.
        -11    1    4    4    0    0 -0.99875228889E+00 -0.31751585039E+01 -0.12449000392E+02  0.12886300815E+02  0.51100000000E-03 0.  1.
        -12    1    4    4    0    0  0.26839706133E+01 -0.29778656061E+02 -0.16036666677E+02  0.33928553361E+02  0.00000000000E+00 0.  1.
</event>
<event>
 8    1  0.2994958E-010  0.9118800E+02  0.7816164E-02  0.1184000E+00
        -11   -1    0    0    0    0  0.00000000000E+00  0.00000000000E+00  0.45593999997E+02  0.45594000000E+02  0.51100000000E-03 0. -1.
         11   -1    0    0    0    0 -0.00000000000E+00 -0.00000000000E+00 -0.45593999997E+02  0.45594000000E+02  0.51100000000E-03 0.  1.
         23    2    1    2    0    0  0.27755575616E-15  0.35527136788E-14  0.00000000000E+00  0.91188000000E+02  0.91188000000E+02 0.  0.
    9900012    2    3    3    0    0 -0.31664395489E+00  0.28344672741E+02 -0.32864906410E+02  0.47787276394E+02  0.20000024392E+02 0.  0.
         12    1    3    3    0    0  0.31664395489E+00 -0.28344672741E+02  0.32864906410E+02  0.43400723606E+02  0.00000000000E+00 0. -1.
         11    1    4    4    0    0 -0.41214759217E+01  0.11982663209E+02 -0.20200186834E+02  0.23845719317E+02  0.51100000000E-03 0. -1.
        -11    1    4    4    0    0  0.46053596028E+01  0.13181840013E+02 -0.14544059267E+02  0.20161842758E+02  0.51100000000E-03 0.  1.
         12    1    4    4    0    0 -0.80052763601E+00  0.31801695185E+01  0.18793396904E+01  0.37797143191E+01  0.00000000000E+00 0. -1.
</event>
<event>
 8    1  0.2994958E-010  0.9118800E+02  0.7816164E-02  0.1184000E+00
        -11   -1    0    0    0    0  0.00000000000E+00  0.00000000000E+00  0.45593999997E+02  0.45594000000E+02  0.51100000000E-03 0. -1.
         11   -1    0    0    0    0 -0.00000000000E+00 -0.00000000000E+00 -0.45593999997E+02  0.45594000000E+02  0.51100000000E-03 0.  1.
         23    2    1    2    0    0  0.00000000000E+00  0.00000000000E+00 -0.35527136788E-14  0.91188000000E+02  0.91188000000E+02 0.  0.
    9900012    2    3    3    0    0  0.26172830259E+02 -0.23348969397E+02  0.25562313305E+02  0.47787271007E+02  0.19999999829E+02 0.  0.
        -12    1    3    3    0    0 -0.26172830259E+02  0.23348969397E+02 -0.25562313305E+02  0.43400728993E+02  0.00000000000E+00 0.  1.
         11    1    4    4    0    0  0.43308474001E+01 -0.12028944916E+02  0.13302043121E+02  0.18449826732E+02  0.51100000000E-03 0. -1.
        -11    1    4    4    0    0  0.46297740553E+01  0.65106395217E+00  0.56937429079E+01  0.73673197729E+01  0.51100000000E-03 0.  1.
         12    1    4    4    0    0  0.17212208803E+02 -0.11971088433E+02  0.65665272759E+01  0.21970124502E+02  0.00000000000E+00 0. -1.
</event>
<event>
 8    1  0.2994958E-010  0.9118800E+02  0.7816164E-02  0.1184000E+00
        -11   -1    0    0    0    0  0.00000000000E+00  0.00000000000E+00  0.45593999997E+02  0.45594000000E+02  0.51100000000E-03 0.  1.
         11   -1    0    0    0    0 -0.00000000000E+00 -0.00000000000E+00 -0.45593999997E+02  0.45594000000E+02  0.51100000000E-03 0. -1.
         23    2    1    2    0    0 -0.88817841970E-15  0.00000000000E+00  0.17763568394E-14  0.91188000000E+02  0.91188000000E+02 0.  0.
    9900012    2    3    3    0    0  0.57562313073E+01 -0.42089616886E+02 -0.88855587314E+01  0.47787271868E+02  0.20000003753E+02 0.  0.
         12    1    3    3    0    0 -0.57562313073E+01  0.42089616886E+02  0.88855587314E+01  0.43400728132E+02  0.00000000000E+00 0. -1.
         11    1    4    4    0    0  0.42043560712E+01 -0.13212641106E+02 -0.78404130806E+01  0.15928671398E+02  0.51100000000E-03 0. -1.
        -11    1    4    4    0    0  0.35642663610E+01 -0.26271880036E+02 -0.47151441968E+01  0.26928577021E+02  0.51100000000E-03 0.  1.
        -12    1    4    4    0    0 -0.20123911249E+01 -0.26050957431E+01  0.36699985460E+01  0.49300234481E+01  0.00000000000E+00 0.  1.
</event>
<event>
 8    1  0.2994958E-010  0.9118800E+02  0.7816164E-02  0.1184000E+00
        -11   -1    0    0    0    0  0.00000000000E+00  0.00000000000E+00  0.45593999997E+02  0.45594000000E+02  0.51100000000E-03 0. -1.
         11   -1    0    0    0    0 -0.00000000000E+00 -0.00000000000E+00 -0.45593999997E+02  0.45594000000E+02  0.51100000000E-03 0.  1.
         23    2    1    2    0    0  0.00000000000E+00  0.00000000000E+00 -0.35527136788E-14  0.91188000000E+02  0.91188000000E+02 0.  0.
    9900012    2    3    3    0    0 -0.84837201083E+01 -0.37498358344E+02 -0.20137598250E+02  0.47787271335E+02  0.20000001324E+02 0.  0.
         12    1    3    3    0    0  0.84837201083E+01  0.37498358344E+02  0.20137598250E+02  0.43400728665E+02  0.00000000000E+00 0. -1.
         11    1    4    4    0    0 -0.62274989518E+00 -0.24266849975E+02 -0.16022877697E+02  0.29086086624E+02  0.51100000000E-03 0.  1.
        -11    1    4    4    0    0  0.20801552195E+01 -0.30598494243E+01  0.53316872304E+00  0.37381804912E+01  0.51100000000E-03 0. -1.
         12    1    4    4    0    0 -0.99411254326E+01 -0.10171658945E+02 -0.46478892759E+01  0.14963004220E+02  0.00000000000E+00 0. -1.
</event>
<event>
 8    1  0.2994958E-010  0.9118800E+02  0.7816164E-02  0.1184000E+00
        -11   -1    0    0    0    0  0.00000000000E+00  0.00000000000E+00  0.45593999997E+02  0.45594000000E+02  0.51100000000E-03 0. -1.
         11   -1    0    0    0    0 -0.00000000000E+00 -0.00000000000E+00 -0.45593999997E+02  0.45594000000E+02  0.51100000000E-03 0.  1.
         23    2    1    2    0    0  0.00000000000E+00  0.00000000000E+00  0.00000000000E+00  0.91188000000E+02  0.91188000000E+02 0.  0.
    9900012    2    3    3    0    0  0.83182116255E+01 -0.10976084893E+02  0.41157700740E+02  0.47787269425E+02  0.19999992616E+02 0.  0.
        -12    1    3    3    0    0 -0.83182116255E+01  0.10976084893E+02 -0.41157700740E+02  0.43400730575E+02  0.00000000000E+00 0.  1.
         11    1    4    4    0    0  0.10006704541E+02 -0.41524919889E+01  0.17180344491E+02  0.20311119186E+02  0.51100000000E-03 0. -1.
        -11    1    4    4    0    0  0.89475885269E-01  0.27085876098E+01  0.10682196013E+02  0.11020606367E+02  0.51100000000E-03 0.  1.
        -12    1    4    4    0    0 -0.17779688011E+01 -0.95321805141E+01  0.13295160236E+02  0.16455543872E+02  0.00000000000E+00 0.  1.
</event>
<event>
 8    1  0.2994958E-010  0.9118800E+02  0.7816164E-02  0.1184000E+00
        -11   -1    0    0    0    0  0.00000000000E+00  0.00000000000E+00  0.45593999997E+02  0.45594000000E+02  0.51100000000E-03 0. -1.
         11   -1    0    0    0    0 -0.00000000000E+00 -0.00000000000E+00 -0.45593999997E+02  0.45594000000E+02  0.51100000000E-03 0.  1.
         23    2    1    2    0    0  0.00000000000E+00  0.00000000000E+00  0.00000000000E+00  0.91188000000E+02  0.91188000000E+02 0.  0.
    9900012    2    3    3    0    0  0.30497703111E+02 -0.24825440767E+02  0.18363296801E+02  0.47787273350E+02  0.20000010514E+02 0.  0.
        -12    1    3    3    0    0 -0.30497703111E+02  0.24825440767E+02 -0.18363296801E+02  0.43400726650E+02  0.00000000000E+00 0.  1.
         11    1    4    4    0    0 -0.45733259798E+00  0.35225156911E-01  0.13621813255E+00  0.47848673713E+00  0.51100000000E-03 0. -1.
        -11    1    4    4    0    0  0.14568654556E+02 -0.18862956215E+01  0.10479840263E+02  0.18045244774E+02  0.51100000000E-03 0.  1.
         12    1    4    4    0    0  0.16386381153E+02 -0.22974370303E+02  0.77472384050E+01  0.29263541840E+02  0.00000000000E+00 0. -1.
</event>
<event>
 8    1  0.2994958E-010  0.9118800E+02  0.7816164E-02  0.1184000E+00
        -11   -1    0    0    0    0  0.00000000000E+00  0.00000000000E+00  0.45593999997E+02  0.45594000000E+02  0.51100000000E-03 0.  1.
         11   -1    0    0    0    0 -0.00000000000E+00 -0.00000000000E+00 -0.45593999997E+02  0.45594000000E+02  0.51100000000E-03 0. -1.
         23    2    1    2    0    0  0.00000000000E+00  0.00000000000E+00  0.00000000000E+00  0.91188000000E+02  0.91188000000E+02 0.  0.
    9900012    2    3    3    0    0 -0.34720456647E+02 -0.23916581624E+02 -0.10300968196E+02  0.47787274982E+02  0.20000017953E+02 0.  0.
        -12    1    3    3    0    0  0.34720456647E+02  0.23916581624E+02  0.10300968196E+02  0.43400725018E+02  0.00000000000E+00 0.  1.
         11    1    4    4    0    0 -0.25932769334E+02 -0.16053140872E+02 -0.12076204191E+02  0.32803148708E+02  0.51100000000E-03 0. -1.
        -11    1    4    4    0    0  0.58960098739E+00 -0.46140481014E+01 -0.82654488914E+00  0.47244307510E+01  0.51100000000E-03 0.  1.
        -12    1    4    4    0    0 -0.93772882997E+01 -0.32493926501E+01  0.26017808850E+01  0.10259695523E+02  0.00000000000E+00 0.  1.
</event>
<event>
 8    1  0.2994958E-010  0.9118800E+02  0.7816164E-02  0.1184000E+00
        -11   -1    0    0    0    0  0.00000000000E+00  0.00000000000E+00  0.45593999997E+02  0.45594000000E+02  0.51100000000E-03 0.  1.
         11   -1    0    0    0    0 -0.00000000000E+00 -0.00000000000E+00 -0.45593999997E+02  0.45594000000E+02  0.51100000000E-03 0. -1.
         23    2    1    2    0    0  0.88817841970E-15  0.00000000000E+00  0.00000000000E+00  0.91188000000E+02  0.91188000000E+02 0.  0.
    9900012    2    3    3    0    0  0.22102698404E+00 -0.41492364710E+02 -0.12726276975E+02  0.47787270654E+02  0.19999998218E+02 0.  0.
         12    1    3    3    0    0 -0.22102698404E+00  0.41492364710E+02  0.12726276975E+02  0.43400729346E+02  0.00000000000E+00 0. -1.
         11    1    4    4    0    0  0.19269136801E+01 -0.33570922321E+01 -0.22082188903E+00  0.38770900368E+01  0.51100000000E-03 0. -1.
        -11    1    4    4    0    0 -0.80298910532E+01 -0.10490811720E+02 -0.81454308946E+00  0.13236304680E+02  0.51100000000E-03 0.  1.
         12    1    4    4    0    0  0.63240043571E+01 -0.27644460757E+02 -0.11690911997E+02  0.30673875937E+02  0.00000000000E+00 0. -1.
</event>
<event>
 8    1  0.2994958E-010  0.9118800E+02  0.7816164E-02  0.1184000E+00
        -11   -1    0    0    0    0  0.00000000000E+00  0.00000000000E+00  0.45593999997E+02  0.45594000000E+02  0.51100000000E-03 0. -1.
         11   -1    0    0    0    0 -0.00000000000E+00 -0.00000000000E+00 -0.45593999997E+02  0.45594000000E+02  0.51100000000E-03 0.  1.
         23    2    1    2    0    0  0.00000000000E+00  0.00000000000E+00  0.00000000000E+00  0.91188000000E+02  0.91188000000E+02 0.  0.
    9900012    2    3    3    0    0  0.16621188135E+02 -0.30662756330E+02  0.25829329453E+02  0.47787276726E+02  0.20000025903E+02 0.  0.
        -12    1    3    3    0    0 -0.16621188135E+02  0.30662756330E+02 -0.25829329453E+02  0.43400723274E+02  0.00000000000E+00 0.  1.
         11    1    4    4    0    0  0.75546974061E+01 -0.55474911480E+01  0.97905993018E+01  0.13553742874E+02  0.51100000000E-03 0. -1.
        -11    1    4    4    0    0  0.12922795478E+02 -0.20207903203E+02  0.12270945283E+02  0.26943164128E+02  0.51100000000E-03 0.  1.
        -12    1    4    4    0    0 -0.38563047488E+01 -0.49073619790E+01  0.37677848678E+01  0.72903697244E+01  0.00000000000E+00 0.  1.
</event>
<event>
 8    1  0.2994958E-010  0.9118800E+02  0.7816164E-02  0.1184000E+00
        -11   -1    0    0    0    0  0.00000000000E+00  0.00000000000E+00  0.45593999997E+02  0.45594000000E+02  0.51100000000E-03 0.  1.
         11   -1    0    0    0    0 -0.00000000000E+00 -0.00000000000E+00 -0.45593999997E+02  0.45594000000E+02  0.51100000000E-03 0. -1.
         23    2    1    2    0    0  0.00000000000E+00  0.00000000000E+00  0.00000000000E+00  0.91188000000E+02  0.91188000000E+02 0.  0.
    9900012    2    3    3    0    0 -0.32607734158E+02 -0.21166500658E+02 -0.19296065055E+02  0.47787271854E+02  0.20000003689E+02 0.  0.
         12    1    3    3    0    0  0.32607734158E+02  0.21166500658E+02  0.19296065055E+02  0.43400728146E+02  0.00000000000E+00 0. -1.
         11    1    4    4    0    0 -0.12583945430E+01  0.10512457654E+01 -0.72606215094E+01  0.74434736144E+01  0.51100000000E-03 0. -1.
        -11    1    4    4    0    0 -0.12451245589E+02 -0.76323035535E+01 -0.37921930115E+01  0.15088614991E+02  0.51100000000E-03 0.  1.
         12    1    4    4    0    0 -0.18898094026E+02 -0.14585442870E+02 -0.82432505341E+01  0.25255183248E+02  0.00000000000E+00 0. -1.
</event>
<event>
 8    1  0.2994958E-010  0.9118800E+02  0.7816164E-02  0.1184000E+00
        -11   -1    0    0    0    0  0.00000000000E+00  0.00000000000E+00  0.45593999997E+02  0.45594000000E+02  0.51100000000E-03 0. -1.
         11   -1    0    0    0    0 -0.00000000000E+00 -0.00000000000E+00 -0.45593999997E+02  0.45594000000E+02  0.51100000000E-03 0.  1.
         23    2    1    2    0    0 -0.17763568394E-14  0.71054273576E-14 -0.35527136788E-14  0.91188000000E+02  0.91188000000E+02 0.  0.
    9900012    2    3    3    0    0 -0.83762672752E+01  0.36514266695E+02 -0.21912769767E+02  0.47787274146E+02  0.20000014143E+02 0.  0.
         12    1    3    3    0    0  0.83762672752E+01 -0.36514266695E+02  0.21912769767E+02  0.43400725854E+02  0.00000000000E+00 0. -1.
         11    1    4    4    0    0  0.23309024274E+00  0.10551947955E+02 -0.86759046574E+01  0.13662695876E+02  0.51100000000E-03 0. -1.
        -11    1    4    4    0    0 -0.91791486554E+01  0.19127471799E+02 -0.16159569305E+02  0.26669244981E+02  0.51100000000E-03 0.  1.
         12    1    4    4    0    0  0.56979113741E+00  0.68348469412E+01  0.29227041955E+01  0.74553332900E+01  0.00000000000E+00 0. -1.
</event>
<event>
 8    1  0.2994958E-010  0.9118800E+02  0.7816164E-02  0.1184000E+00
        -11   -1    0    0    0    0  0.00000000000E+00  0.00000000000E+00  0.45593999997E+02  0.45594000000E+02  0.51100000000E-03 0. -1.
         11   -1    0    0    0    0 -0.00000000000E+00 -0.00000000000E+00 -0.45593999997E+02  0.45594000000E+02  0.51100000000E-03 0.  1.
         23    2    1    2    0    0  0.00000000000E+00  0.00000000000E+00  0.00000000000E+00  0.91188000000E+02  0.91188000000E+02 0.  0.
    9900012    2    3    3    0    0 -0.18114142408E+02  0.23852936212E+02  0.31409211060E+02  0.47787271199E+02  0.20000000703E+02 0.  0.
        -12    1    3    3    0    0  0.18114142408E+02 -0.23852936212E+02 -0.31409211060E+02  0.43400728801E+02  0.00000000000E+00 0.  1.
         11    1    4    4    0    0 -0.42732523145E+01  0.12968271462E+02  0.11549831700E+02  0.17883941473E+02  0.51100000000E-03 0. -1.
        -11    1    4    4    0    0  0.20916967470E+01  0.26427868488E+00 -0.26520678889E+00  0.21249408007E+01  0.51100000000E-03 0.  1.
        -12    1    4    4    0    0 -0.15932586841E+02  0.10620386065E+02  0.20124586149E+02  0.27778388925E+02  0.00000000000E+00 0.  1.
</event>
<event>
 8    1  0.2994958E-010  0.9118800E+02  0.7816164E-02  0.1184000E+00
        -11   -1    0    0    0    0  0.00000000000E+00  0.00000000000E+00  0.45593999997E+02  0.45594000000E+02  0.51100000000E-03 0. -1.
         11   -1    0    0    0    0 -0.00000000000E+00 -0.00000000000E+00 -0.45593999997E+02  0.45594000000E+02  0.51100000000E-03 0.  1.
         23    2    1    2    0    0  0.00000000000E+00  0.00000000000E+00  0.35527136788E-14  0.91188000000E+02  0.91188000000E+02 0.  0.
    9900012    2    3    3    0    0  0.20968772120E+02 -0.23006044343E+02 -0.30243272290E+02  0.47787274207E+02  0.20000014419E+02 0.  0.
         12    1    3    3    0    0 -0.20968772120E+02  0.23006044343E+02  0.30243272290E+02  0.43400725793E+02  0.00000000000E+00 0. -1.
         11    1    4    4    0    0  0.12209814355E+01 -0.99480300532E+01 -0.79619213475E+01  0.12800245678E+02  0.51100000000E-03 0. -1.
        -11    1    4    4    0    0  0.32661696718E+01  0.23292338762E+00  0.10900109528E+01  0.34511218130E+01  0.51100000000E-03 0.  1.
        -12    1    4    4    0    0  0.16481621013E+02 -0.13290937678E+02 -0.23371361895E+02  0.31535906716E+02  0.00000000000E+00 0.  1.
</event>
<event>
 8    1  0.2994958E-010  0.9118800E+02  0.7816164E-02  0.1184000E+00
        -11   -1    0    0    0    0  0.00000000000E+00  0.00000000000E+00  0.45593999997E+02  0.45594000000E+02  0.51100000000E-03 0. -1.
         11   -1    0    0    0    0 -0.00000000000E+00 -0.00000000000E+00 -0.45593999997E+02  0.45594000000E+02  0.51100000000E-03 0.  1.
         23    2    1    2    0    0  0.00000000000E+00  0.00000000000E+00  0.00000000000E+00  0.91188000000E+02  0.91188000000E+02 0.  0.
    9900012    2    3    3    0    0  0.25015258358E+02  0.20992975415E+02 -0.28585928542E+02  0.47787268692E+02  0.19999989274E+02 0.  0.
         12    1    3    3    0    0 -0.25015258358E+02 -0.20992975415E+02  0.28585928542E+02  0.43400731308E+02  0.00000000000E+00 0. -1.
         11    1    4    4    0    0 -0.35652394421E+00  0.77888624925E+01 -0.73824499797E+01  0.10737506983E+02  0.51100000000E-03 0. -1.
        -11    1    4    4    0    0  0.42336694332E+00  0.28003006897E+01 -0.23939110283E+00  0.28422230530E+01  0.51100000000E-03 0.  1.
        -12    1    4    4    0    0  0.24948415359E+02  0.10403812233E+02 -0.20964087459E+02  0.34207538656E+02  0.00000000000E+00 0.  1.
</event>
<event>
 8    1  0.2994958E-010  0.9118800E+02  0.7816164E-02  0.1184000E+00
        -11   -1    0    0    0    0  0.00000000000E+00  0.00000000000E+00  0.45593999997E+02  0.45594000000E+02  0.51100000000E-03 0. -1.
         11   -1    0    0    0    0 -0.00000000000E+00 -0.00000000000E+00 -0.45593999997E+02  0.45594000000E+02  0.51100000000E-03 0.  1.
         23    2    1    2    0    0  0.00000000000E+00  0.00000000000E+00 -0.71054273576E-14  0.91188000000E+02  0.91188000000E+02 0.  0.
    9900012    2    3    3    0    0  0.14082852734E+02 -0.20824111323E+01  0.40999511316E+02  0.47787272985E+02  0.20000008849E+02 0.  0.
        -12    1    3    3    0    0 -0.14082852734E+02  0.20824111323E+01 -0.40999511316E+02  0.43400727015E+02  0.00000000000E+00 0.  1.
         11    1    4    4    0    0  0.28135505932E+01  0.52939943749E+01  0.11912809693E+02  0.13336321773E+02  0.51100000000E-03 0. -1.
        -11    1    4    4    0    0 -0.21751279370E+01 -0.39022943566E+01  0.87676446844E+01  0.98402579418E+01  0.51100000000E-03 0.  1.
        -12    1    4    4    0    0  0.13444430077E+02 -0.34741111506E+01  0.20319056938E+02  0.24610693271E+02  0.00000000000E+00 0.  1.
</event>
<event>
 8    1  0.2994958E-010  0.9118800E+02  0.7816164E-02  0.1184000E+00
        -11   -1    0    0    0    0  0.00000000000E+00  0.00000000000E+00  0.45593999997E+02  0.45594000000E+02  0.51100000000E-03 0. -1.
         11   -1    0    0    0    0 -0.00000000000E+00 -0.00000000000E+00 -0.45593999997E+02  0.45594000000E+02  0.51100000000E-03 0.  1.
         23    2    1    2    0    0  0.00000000000E+00  0.71054273576E-14  0.00000000000E+00  0.91188000000E+02  0.91188000000E+02 0.  0.
    9900012    2    3    3    0    0 -0.18826682348E+02  0.34159107132E+02 -0.19035093402E+02  0.47787270178E+02  0.19999996049E+02 0.  0.
         12    1    3    3    0    0  0.18826682348E+02 -0.34159107132E+02  0.19035093402E+02  0.43400729822E+02  0.00000000000E+00 0. -1.
         11    1    4    4    0    0  0.26381582956E+01  0.56469428237E+01 -0.20204143993E+01  0.65520925705E+01  0.51100000000E-03 0. -1.
        -11    1    4    4    0    0 -0.67966136849E+01  0.13061672587E+02 -0.12817114688E+02  0.19521262191E+02  0.51100000000E-03 0.  1.
        -12    1    4    4    0    0 -0.14668226959E+02  0.15450491721E+02 -0.41975643149E+01  0.21713915416E+02  0.00000000000E+00 0.  1.
</event>
<event>
 8    1  0.2994958E-010  0.9118800E+02  0.7816164E-02  0.1184000E+00
        -11   -1    0    0    0    0  0.00000000000E+00  0.00000000000E+00  0.45593999997E+02  0.45594000000E+02  0.51100000000E-03 0. -1.
         11   -1    0    0    0    0 -0.00000000000E+00 -0.00000000000E+00 -0.45593999997E+02  0.45594000000E+02  0.51100000000E-03 0.  1.
         23    2    1    2    0    0 -0.13322676296E-14  0.00000000000E+00  0.71054273576E-14  0.91188000000E+02  0.91188000000E+02 0.  0.
    9900012    2    3    3    0    0 -0.33777255524E+01  0.19022477102E+02 -0.38863348452E+02  0.47787268233E+02  0.19999987180E+02 0.  0.
         12    1    3    3    0    0  0.33777255524E+01 -0.19022477102E+02  0.38863348452E+02  0.43400731767E+02  0.00000000000E+00 0. -1.
         11    1    4    4    0    0 -0.19868877345E+01  0.53047787097E+01 -0.87729520436E+01  0.10442848646E+02  0.51100000000E-03 0. -1.
        -11    1    4    4    0    0  0.52544495227E+01  0.14325373019E+02 -0.23061337315E+02  0.27652320535E+02  0.51100000000E-03 0.  1.
         12    1    4    4    0    0 -0.66452873406E+01 -0.60767462668E+00 -0.70290590933E+01  0.96920990517E+01  0.00000000000E+00 0. -1.
</event>
<event>
 8    1  0.2994958E-010  0.9118800E+02  0.7816164E-02  0.1184000E+00
        -11   -1    0    0    0    0  0.00000000000E+00  0.00000000000E+00  0.45593999997E+02  0.45594000000E+02  0.51100000000E-03 0. -1.
         11   -1    0    0    0    0 -0.00000000000E+00 -0.00000000000E+00 -0.45593999997E+02  0.45594000000E+02  0.51100000000E-03 0.  1.
         23    2    1    2    0    0  0.00000000000E+00  0.35527136788E-14  0.00000000000E+00  0.91188000000E+02  0.91188000000E+02 0.  0.
    9900012    2    3    3    0    0 -0.16039158649E+02 -0.20773256081E+02 -0.34566454602E+02  0.47787279244E+02  0.20000037387E+02 0.  0.
         12    1    3    3    0    0  0.16039158649E+02  0.20773256081E+02  0.34566454602E+02  0.43400720756E+02  0.00000000000E+00 0. -1.
         11    1    4    4    0    0 -0.20945385568E+01 -0.38261735548E+01 -0.61119851080E+01  0.75088652977E+01  0.51100000000E-03 0. -1.
        -11    1    4    4    0    0 -0.12958162881E+02 -0.54712877401E+01 -0.24216963726E+02  0.28005540651E+02  0.51100000000E-03 0.  1.
         12    1    4    4    0    0 -0.98645721133E+00 -0.11475794786E+02 -0.42375057677E+01  0.12272873296E+02  0.00000000000E+00 0. -1.
</event>
<event>
 8    1  0.2994958E-010  0.9118800E+02  0.7816164E-02  0.1184000E+00
        -11   -1    0    0    0    0  0.00000000000E+00  0.00000000000E+00  0.45593999997E+02  0.45594000000E+02  0.51100000000E-03 0. -1.
         11   -1    0    0    0    0 -0.00000000000E+00 -0.00000000000E+00 -0.45593999997E+02  0.45594000000E+02  0.51100000000E-03 0.  1.
         23    2    1    2    0    0 -0.17763568394E-14 -0.88817841970E-15  0.00000000000E+00  0.91188000000E+02  0.91188000000E+02 0.  0.
    9900012    2    3    3    0    0 -0.12526643790E+02 -0.54556436837E+01 -0.41193959670E+02  0.47787272287E+02  0.20000005667E+02 0.  0.
         12    1    3    3    0    0  0.12526643790E+02  0.54556436837E+01  0.41193959670E+02  0.43400727713E+02  0.00000000000E+00 0. -1.
         11    1    4    4    0    0  0.25265713304E+01  0.23236924575E+01 -0.62425284739E+01  0.71240628390E+01  0.51100000000E-03 0. -1.
        -11    1    4    4    0    0 -0.31487669356E+01 -0.71117869101E+01 -0.78286133629E+01  0.11035371934E+02  0.51100000000E-03 0.  1.
         12    1    4    4    0    0 -0.11904448185E+02 -0.66754923102E+00 -0.27122817834E+02  0.29627837515E+02  0.00000000000E+00 0. -1.
</event>
<event>
 8    1  0.2994958E-010  0.9118800E+02  0.7816164E-02  0.1184000E+00
        -11   -1    0    0    0    0  0.00000000000E+00  0.00000000000E+00  0.45593999997E+02  0.45594000000E+02  0.51100000000E-03 0.  1.
         11   -1    0    0    0    0 -0.00000000000E+00 -0.00000000000E+00 -0.45593999997E+02  0.45594000000E+02  0.51100000000E-03 0. -1.
         23    2    1    2    0    0  0.00000000000E+00  0.44408920985E-15  0.00000000000E+00  0.91188000000E+02  0.91188000000E+02 0.  0.
    9900012    2    3    3    0    0  0.42918687151E+02 -0.10111185239E+01 -0.63708288704E+01  0.47787268117E+02  0.19999986655E+02 0.  0.
         12    1    3    3    0    0 -0.42918687151E+02  0.10111185239E+01  0.63708288704E+01  0.43400731883E+02  0.00000000000E+00 0. -1.
         11    1    4    4    0    0  0.14306021525E+02 -0.72153207442E+01  0.13179482505E+01  0.16076694100E+02  0.51100000000E-03 0. -1.
        -11    1    4    4    0    0  0.14391620261E+02 -0.15000239074E+01 -0.22301918912E+01  0.14640442671E+02  0.51100000000E-03 0.  1.
        -12    1    4    4    0    0  0.14221045365E+02  0.77042261277E+01 -0.54585852298E+01  0.17070131347E+02  0.00000000000E+00 0.  1.
</event>
<event>
 8    1  0.2994958E-010  0.9118800E+02  0.7816164E-02  0.1184000E+00
        -11   -1    0    0    0    0  0.00000000000E+00  0.00000000000E+00  0.45593999997E+02  0.45594000000E+02  0.51100000000E-03 0.  1.
         11   -1    0    0    0    0 -0.00000000000E+00 -0.00000000000E+00 -0.45593999997E+02  0.45594000000E+02  0.51100000000E-03 0. -1.
         23    2    1    2    0    0  0.00000000000E+00  0.00000000000E+00 -0.44408920985E-15  0.91188000000E+02  0.91188000000E+02 0.  0.
    9900012    2    3    3    0    0  0.43278547492E+02  0.29647703600E+01  0.13417893037E+01  0.47787274950E+02  0.20000017809E+02 0.  0.
         12    1    3    3    0    0 -0.43278547492E+02 -0.29647703600E+01 -0.13417893037E+01  0.43400725050E+02  0.00000000000E+00 0. -1.
         11    1    4    4    0    0  0.12566126643E+01  0.26458217121E+01  0.10483691419E+01  0.31110329537E+01  0.51100000000E-03 0.  1.
        -11    1    4    4    0    0  0.62823873412E+01  0.49582420107E+01  0.29723501536E+01  0.85374129711E+01  0.51100000000E-03 0. -1.
         12    1    4    4    0    0  0.35739547486E+02 -0.46392933628E+01 -0.26789299918E+01  0.36138829026E+02  0.00000000000E+00 0. -1.
</event>
<event>
 8    1  0.2994958E-010  0.9118800E+02  0.7816164E-02  0.1184000E+00
        -11   -1    0    0    0    0  0.00000000000E+00  0.00000000000E+00  0.45593999997E+02  0.45594000000E+02  0.51100000000E-03 0. -1.
         11   -1    0    0    0    0 -0.00000000000E+00 -0.00000000000E+00 -0.45593999997E+02  0.45594000000E+02  0.51100000000E-03 0.  1.
         23    2    1    2    0    0  0.17763568394E-14 -0.88817841970E-15  0.00000000000E+00  0.91188000000E+02  0.91188000000E+02 0.  0.
    9900012    2    3    3    0    0  0.83308834955E+01  0.76666747104E+01 -0.41897993929E+02  0.47787269404E+02  0.19999992523E+02 0.  0.
         12    1    3    3    0    0 -0.83308834955E+01 -0.76666747104E+01  0.41897993929E+02  0.43400730596E+02  0.00000000000E+00 0. -1.
         11    1    4    4    0    0 -0.30552355851E+01 -0.26698093247E+01 -0.62731303970E+01  0.74709110254E+01  0.51100000000E-03 0. -1.
        -11    1    4    4    0    0 -0.17326826435E+01  0.11957166194E+01 -0.91394734061E+01  0.93788006578E+01  0.51100000000E-03 0.  1.
        -12    1    4    4    0    0  0.13118801724E+02  0.91407674156E+01 -0.26485390126E+02  0.30937557721E+02  0.00000000000E+00 0.  1.
</event>
<event>
 8    1  0.2994958E-010  0.9118800E+02  0.7816164E-02  0.1184000E+00
        -11   -1    0    0    0    0  0.00000000000E+00  0.00000000000E+00  0.45593999997E+02  0.45594000000E+02  0.51100000000E-03 0. -1.
         11   -1    0    0    0    0 -0.00000000000E+00 -0.00000000000E+00 -0.45593999997E+02  0.45594000000E+02  0.51100000000E-03 0.  1.
         23    2    1    2    0    0  0.00000000000E+00  0.00000000000E+00  0.00000000000E+00  0.91188000000E+02  0.91188000000E+02 0.  0.
    9900012    2    3    3    0    0 -0.15010954935E+02 -0.22480756116E+02 -0.33954541903E+02  0.47787261764E+02  0.19999957687E+02 0.  0.
         12    1    3    3    0    0  0.15010954935E+02  0.22480756116E+02  0.33954541903E+02  0.43400738236E+02  0.00000000000E+00 0. -1.
         11    1    4    4    0    0 -0.18901304195E+01 -0.11549422479E+02 -0.11907182577E+02  0.16695590729E+02  0.51100000000E-03 0. -1.
        -11    1    4    4    0    0 -0.79093104087E+01 -0.91583579976E+01 -0.22521346158E+02  0.25566457427E+02  0.51100000000E-03 0.  1.
         12    1    4    4    0    0 -0.52115141064E+01 -0.17729756391E+01  0.47398683184E+00  0.55252136081E+01  0.00000000000E+00 0. -1.
</event>
<event>
 8    1  0.2994958E-010  0.9118800E+02  0.7816164E-02  0.1184000E+00
        -11   -1    0    0    0    0  0.00000000000E+00  0.00000000000E+00  0.45593999997E+02  0.45594000000E+02  0.51100000000E-03 0. -1.
         11   -1    0    0    0    0 -0.00000000000E+00 -0.00000000000E+00 -0.45593999997E+02  0.45594000000E+02  0.51100000000E-03 0.  1.
         23    2    1    2    0    0  0.00000000000E+00  0.00000000000E+00  0.00000000000E+00  0.91188000000E+02  0.91188000000E+02 0.  0.
    9900012    2    3    3    0    0  0.50272028406E+01  0.34526602192E+02  0.25812093120E+02  0.47787272142E+02  0.20000005004E+02 0.  0.
        -12    1    3    3    0    0 -0.50272028406E+01 -0.34526602192E+02 -0.25812093120E+02  0.43400727858E+02  0.00000000000E+00 0.  1.
         11    1    4    4    0    0  0.25900871716E+01  0.68317194020E+01  0.84698622561E+01  0.11185683191E+02  0.51100000000E-03 0. -1.
        -11    1    4    4    0    0  0.36364324651E+01 -0.66195083435E+00  0.91308010809E+00  0.38073002936E+01  0.51100000000E-03 0.  1.
         12    1    4    4    0    0 -0.11993167961E+01  0.28356833625E+02  0.16429150756E+02  0.32794288658E+02  0.00000000000E+00 0. -1.
</event>
<event>
 8    1  0.2994958E-010  0.9118800E+02  0.7816164E-02  0.1184000E+00
        -11   -1    0    0    0    0  0.00000000000E+00  0.00000000000E+00  0.45593999997E+02  0.45594000000E+02  0.51100000000E-03 0. -1.
         11   -1    0    0    0    0 -0.00000000000E+00 -0.00000000000E+00 -0.45593999997E+02  0.45594000000E+02  0.51100000000E-03 0.  1.
         23    2    1    2    0    0  0.17763568394E-14  0.17763568394E-14  0.71054273576E-14  0.91188000000E+02  0.91188000000E+02 0.  0.
    9900012    2    3    3    0    0  0.10746015519E+02  0.11213016489E+02  0.40526710222E+02  0.47787276161E+02  0.20000023330E+02 0.  0.
        -12    1    3    3    0    0 -0.10746015519E+02 -0.11213016489E+02 -0.40526710222E+02  0.43400723839E+02  0.00000000000E+00 0.  1.
         11    1    4    4    0    0  0.10005737792E+02  0.54465021765E+01  0.12200232826E+02  0.16692059669E+02  0.51100000000E-03 0. -1.
        -11    1    4    4    0    0  0.38998707891E+01  0.80089113930E+01  0.18515207035E+02  0.20546643173E+02  0.51100000000E-03 0.  1.
        -12    1    4    4    0    0 -0.31595930617E+01 -0.22423970803E+01  0.98112703605E+01  0.10548573319E+02  0.00000000000E+00 0.  1.
</event>
<event>
 8    1  0.2994958E-010  0.9118800E+02  0.7816164E-02  0.1184000E+00
        -11   -1    0    0    0    0  0.00000000000E+00  0.00000000000E+00  0.45593999997E+02  0.45594000000E+02  0.51100000000E-03 0. -1.
         11   -1    0    0    0    0 -0.00000000000E+00 -0.00000000000E+00 -0.45593999997E+02  0.45594000000E+02  0.51100000000E-03 0.  1.
         23    2    1    2    0    0  0.00000000000E+00  0.00000000000E+00  0.00000000000E+00  0.91188000000E+02  0.91188000000E+02 0.  0.
    9900012    2    3    3    0    0 -0.15517711572E+02 -0.85477034945E+01 -0.39620206183E+02  0.47787270219E+02  0.19999996238E+02 0.  0.
         12    1    3    3    0    0  0.15517711572E+02  0.85477034945E+01  0.39620206183E+02  0.43400729781E+02  0.00000000000E+00 0. -1.
         11    1    4    4    0    0  0.30364002023E+01  0.21296014446E+00 -0.46771460053E+01  0.55803918525E+01  0.51100000000E-03 0. -1.
        -11    1    4    4    0    0 -0.25602492131E+01  0.24630577895E+01 -0.93899065356E+01  0.10039515661E+02  0.51100000000E-03 0.  1.
         12    1    4    4    0    0 -0.15993862562E+02 -0.11223721429E+02 -0.25553153643E+02  0.32167362705E+02  0.00000000000E+00 0. -1.
</event>
<event>
 8    1  0.3134905E-010  0.9118800E+02  0.7816164E-02  0.1184000E+00
        -11   -1    0    0    0    0  0.00000000000E+00  0.00000000000E+00  0.45593999997E+02  0.45594000000E+02  0.51100000000E-03 0. -1.
         11   -1    0    0    0    0 -0.00000000000E+00 -0.00000000000E+00 -0.45593999997E+02  0.45594000000E+02  0.51100000000E-03 0.  1.
         23    2    1    2    0    0  0.44408920985E-15  0.00000000000E+00  0.71054273576E-14  0.91188000000E+02  0.91188000000E+02 0.  0.
    9900012    2    3    3    0    0  0.35062157407E+01 -0.12384954466E+02  0.41448065525E+02  0.47787276715E+02  0.20000025854E+02 0.  0.
        -12    1    3    3    0    0 -0.35062157407E+01  0.12384954466E+02 -0.41448065525E+02  0.43400723285E+02  0.00000000000E+00 0.  1.
         11    1    4    4    0    0  0.34312251551E+00 -0.26222275380E+01  0.23087168967E+02  0.23238140663E+02  0.51100000000E-03 0. -1.
        -11    1    4    4    0    0  0.19268191619E+01  0.28121225474E+01  0.58311651867E+01  0.67544913205E+01  0.51100000000E-03 0.  1.
         12    1    4    4    0    0  0.12362740633E+01 -0.12574849475E+02  0.12529731371E+02  0.17794644731E+02  0.00000000000E+00 0. -1.
</event>
<event>
 8    1  0.2994958E-010  0.9118800E+02  0.7816164E-02  0.1184000E+00
        -11   -1    0    0    0    0  0.00000000000E+00  0.00000000000E+00  0.45593999997E+02  0.45594000000E+02  0.51100000000E-03 0. -1.
         11   -1    0    0    0    0 -0.00000000000E+00 -0.00000000000E+00 -0.45593999997E+02  0.45594000000E+02  0.51100000000E-03 0.  1.
         23    2    1    2    0    0  0.00000000000E+00 -0.71054273576E-14 -0.71054273576E-14  0.91188000000E+02  0.91188000000E+02 0.  0.
    9900012    2    3    3    0    0  0.20503396144E+01  0.18700124492E+02  0.39111695691E+02  0.47787270878E+02  0.19999999239E+02 0.  0.
        -12    1    3    3    0    0 -0.20503396144E+01 -0.18700124492E+02 -0.39111695691E+02  0.43400729122E+02  0.00000000000E+00 0.  1.
         11    1    4    4    0    0  0.75502455760E+01  0.17513697618E+02  0.27035571628E+02  0.33085615394E+02  0.51100000000E-03 0. -1.
        -11    1    4    4    0    0 -0.31211998212E+01  0.32952797058E+01  0.41040610280E+01  0.61191563018E+01  0.51100000000E-03 0.  1.
         12    1    4    4    0    0 -0.23787061404E+01 -0.21088528317E+01  0.79720630351E+01  0.85824991817E+01  0.00000000000E+00 0. -1.
</event>
<event>
 8    1  0.2994958E-010  0.9118800E+02  0.7816164E-02  0.1184000E+00
        -11   -1    0    0    0    0  0.00000000000E+00  0.00000000000E+00  0.45593999997E+02  0.45594000000E+02  0.51100000000E-03 0.  1.
         11   -1    0    0    0    0 -0.00000000000E+00 -0.00000000000E+00 -0.45593999997E+02  0.45594000000E+02  0.51100000000E-03 0. -1.
         23    2    1    2    0    0  0.00000000000E+00  0.35527136788E-14  0.00000000000E+00  0.91188000000E+02  0.91188000000E+02 0.  0.
    9900012    2    3    3    0    0  0.30439704313E+02 -0.29680115797E+02  0.87257212206E+01  0.47787273241E+02  0.20000010016E+02 0.  0.
         12    1    3    3    0    0 -0.30439704313E+02  0.29680115797E+02 -0.87257212206E+01  0.43400726759E+02  0.00000000000E+00 0. -1.
         11    1    4    4    0    0  0.62116005048E+01 -0.97638353803E+01  0.13067015129E+01  0.11645768814E+02  0.51100000000E-03 0. -1.
        -11    1    4    4    0    0  0.23476420200E+02 -0.17406251207E+02  0.11404663167E+02  0.31371742519E+02  0.51100000000E-03 0.  1.
         12    1    4    4    0    0  0.75168360814E+00 -0.25100292096E+01 -0.39856434589E+01  0.47697619082E+01  0.00000000000E+00 0. -1.
</event>
<event>
 8    1  0.2994958E-010  0.9118800E+02  0.7816164E-02  0.1184000E+00
        -11   -1    0    0    0    0  0.00000000000E+00  0.00000000000E+00  0.45593999997E+02  0.45594000000E+02  0.51100000000E-03 0. -1.
         11   -1    0    0    0    0 -0.00000000000E+00 -0.00000000000E+00 -0.45593999997E+02  0.45594000000E+02  0.51100000000E-03 0.  1.
         23    2    1    2    0    0  0.00000000000E+00 -0.35527136788E-14  0.00000000000E+00  0.91188000000E+02  0.91188000000E+02 0.  0.
    9900012    2    3    3    0    0  0.10668121344E+02 -0.26693095372E+02  0.32516043152E+02  0.47787271713E+02  0.20000003048E+02 0.  0.
        -12    1    3    3    0    0 -0.10668121344E+02  0.26693095372E+02 -0.32516043152E+02  0.43400728287E+02  0.00000000000E+00 0.  1.
         11    1    4    4    0    0  0.46223725026E+01 -0.31465488209E+01  0.66990210114E+01  0.87260517880E+01  0.51100000000E-03 0.  1.
        -11    1    4    4    0    0  0.25240257278E+01 -0.10051338497E+02  0.76892085363E+00  0.10391888711E+02  0.51100000000E-03 0. -1.
         12    1    4    4    0    0  0.35217231135E+01 -0.13495208055E+02  0.25048101287E+02  0.28669331214E+02  0.00000000000E+00 0. -1.
</event>
<event>
 8    1  0.2994958E-010  0.9118800E+02  0.7816164E-02  0.1184000E+00
        -11   -1    0    0    0    0  0.00000000000E+00  0.00000000000E+00  0.45593999997E+02  0.45594000000E+02  0.51100000000E-03 0. -1.
         11   -1    0    0    0    0 -0.00000000000E+00 -0.00000000000E+00 -0.45593999997E+02  0.45594000000E+02  0.51100000000E-03 0.  1.
         23    2    1    2    0    0  0.00000000000E+00  0.00000000000E+00  0.00000000000E+00  0.91188000000E+02  0.91188000000E+02 0.  0.
    9900012    2    3    3    0    0  0.80935511580E+01  0.12217127302E+02 -0.40851681166E+02  0.47787267011E+02  0.19999981611E+02 0.  0.
         12    1    3    3    0    0 -0.80935511580E+01 -0.12217127302E+02  0.40851681166E+02  0.43400732989E+02  0.00000000000E+00 0. -1.
         11    1    4    4    0    0  0.44714714142E+01  0.27282668053E+00 -0.43751223894E+01  0.62618038287E+01  0.51100000000E-03 0. -1.
        -11    1    4    4    0    0  0.74412670402E+01  0.16043364497E+01 -0.82620897308E+01  0.11234254652E+02  0.51100000000E-03 0.  1.
        -12    1    4    4    0    0 -0.38191872965E+01  0.10339964172E+02 -0.28214469046E+02  0.30291208530E+02  0.00000000000E+00 0.  1.
</event>
<event>
 8    1  0.2994958E-010  0.9118800E+02  0.7816164E-02  0.1184000E+00
        -11   -1    0    0    0    0  0.00000000000E+00  0.00000000000E+00  0.45593999997E+02  0.45594000000E+02  0.51100000000E-03 0.  1.
         11   -1    0    0    0    0 -0.00000000000E+00 -0.00000000000E+00 -0.45593999997E+02  0.45594000000E+02  0.51100000000E-03 0. -1.
         23    2    1    2    0    0  0.71054273576E-14  0.00000000000E+00  0.17763568394E-14  0.91188000000E+02  0.91188000000E+02 0.  0.
    9900012    2    3    3    0    0  0.36662516838E+02  0.20281569240E+02  0.11319941611E+02  0.47787271091E+02  0.20000000214E+02 0.  0.
        -12    1    3    3    0    0 -0.36662516838E+02 -0.20281569240E+02 -0.11319941611E+02  0.43400728909E+02  0.00000000000E+00 0.  1.
         11    1    4    4    0    0  0.30079467144E+02  0.14102211988E+02  0.69709878770E+01  0.33944681452E+02  0.51100000000E-03 0. -1.
        -11    1    4    4    0    0  0.53593203668E+01  0.11423518422E+01 -0.18301090162E+01  0.57772469047E+01  0.51100000000E-03 0.  1.
        -12    1    4    4    0    0  0.12237293270E+01  0.50370054097E+01  0.61790627497E+01  0.80653427347E+01  0.00000000000E+00 0.  1.
</event>
<event>
 8    1  0.2994958E-010  0.9118800E+02  0.7816164E-02  0.1184000E+00
        -11   -1    0    0    0    0  0.00000000000E+00  0.00000000000E+00  0.45593999997E+02  0.45594000000E+02  0.51100000000E-03 0. -1.
         11   -1    0    0    0    0 -0.00000000000E+00 -0.00000000000E+00 -0.45593999997E+02  0.45594000000E+02  0.51100000000E-03 0.  1.
         23    2    1    2    0    0  0.00000000000E+00 -0.88817841970E-15 -0.71054273576E-14  0.91188000000E+02  0.91188000000E+02 0.  0.
    9900012    2    3    3    0    0 -0.97592670471E+01 -0.28385222473E+01  0.42193875545E+02  0.47787266880E+02  0.19999981011E+02 0.  0.
        -12    1    3    3    0    0  0.97592670471E+01  0.28385222473E+01 -0.42193875545E+02  0.43400733120E+02  0.00000000000E+00 0.  1.
         11    1    4    4    0    0 -0.27658580836E+01  0.16169953863E+01  0.87989274660E+01  0.93640680172E+01  0.51100000000E-03 0. -1.
        -11    1    4    4    0    0 -0.65076807682E+01 -0.10769128959E+02  0.23909910270E+02  0.27018657570E+02  0.51100000000E-03 0.  1.
        -12    1    4    4    0    0 -0.48572819531E+00  0.63136113251E+01  0.94850378093E+01  0.11404541292E+02  0.00000000000E+00 0.  1.
</event>
<event>
 8    1  0.2994958E-010  0.9118800E+02  0.7816164E-02  0.1184000E+00
        -11   -1    0    0    0    0  0.00000000000E+00  0.00000000000E+00  0.45593999997E+02  0.45594000000E+02  0.51100000000E-03 0.  1.
         11   -1    0    0    0    0 -0.00000000000E+00 -0.00000000000E+00 -0.45593999997E+02  0.45594000000E+02  0.51100000000E-03 0. -1.
         23    2    1    2    0    0 -0.71054273576E-14  0.44408920985E-15  0.17763568394E-14  0.91188000000E+02  0.91188000000E+02 0.  0.
    9900012    2    3    3    0    0  0.42236478664E+02  0.13036484125E+01 -0.98996814344E+01  0.47787270495E+02  0.19999997494E+02 0.  0.
         12    1    3    3    0    0 -0.42236478664E+02 -0.13036484125E+01  0.98996814344E+01  0.43400729505E+02  0.00000000000E+00 0. -1.
         11    1    4    4    0    0  0.43970605781E+01  0.20346364663E+01  0.12474935134E+01  0.50030118533E+01  0.51100000000E-03 0. -1.
        -11    1    4    4    0    0  0.25550302856E+02 -0.78785669299E+01 -0.45906878042E+01  0.27128660263E+02  0.51100000000E-03 0.  1.
        -12    1    4    4    0    0  0.12289115230E+02  0.71475788761E+01 -0.65564871436E+01  0.15655598378E+02  0.00000000000E+00 0.  1.
</event>
<event>
 8    1  0.2994958E-010  0.9118800E+02  0.7816164E-02  0.1184000E+00
        -11   -1    0    0    0    0  0.00000000000E+00  0.00000000000E+00  0.45593999997E+02  0.45594000000E+02  0.51100000000E-03 0. -1.
         11   -1    0    0    0    0 -0.00000000000E+00 -0.00000000000E+00 -0.45593999997E+02  0.45594000000E+02  0.51100000000E-03 0.  1.
         23    2    1    2    0    0 -0.17763568394E-14  0.00000000000E+00  0.00000000000E+00  0.91188000000E+02  0.91188000000E+02 0.  0.
    9900012    2    3    3    0    0  0.15263512152E+02  0.62582132579E+01 -0.40143251163E+02  0.47787301269E+02  0.20000137806E+02 0.  0.
         12    1    3    3    0    0 -0.15263512152E+02 -0.62582132579E+01  0.40143251163E+02  0.43400698731E+02  0.00000000000E+00 0. -1.
         11    1    4    4    0    0  0.45773360375E-01  0.50008589897E+00  0.15830409385E+01  0.16607829421E+01  0.51100000000E-03 0. -1.
        -11    1    4    4    0    0 -0.14719638749E+01  0.67162836883E+00 -0.79173473183E+01  0.80809746401E+01  0.51100000000E-03 0.  1.
        -12    1    4    4    0    0  0.16689702667E+02  0.50864989901E+01 -0.33808944783E+02  0.38045543687E+02  0.00000000000E+00 0.  1.
</event>
<event>
 8    1  0.2994958E-010  0.9118800E+02  0.7816164E-02  0.1184000E+00
        -11   -1    0    0    0    0  0.00000000000E+00  0.00000000000E+00  0.45593999997E+02  0.45594000000E+02  0.51100000000E-03 0.  1.
         11   -1    0    0    0    0 -0.00000000000E+00 -0.00000000000E+00 -0.45593999997E+02  0.45594000000E+02  0.51100000000E-03 0. -1.
         23    2    1    2    0    0  0.00000000000E+00 -0.35527136788E-14  0.88817841970E-15  0.91188000000E+02  0.91188000000E+02 0.  0.
    9900012    2    3    3    0    0  0.35838224547E+02  0.23487106139E+02  0.68993867341E+01  0.47787262325E+02  0.19999960242E+02 0.  0.
        -12    1    3    3    0    0 -0.35838224547E+02 -0.23487106139E+02 -0.68993867341E+01  0.43400737675E+02  0.00000000000E+00 0.  1.
         11    1    4    4    0    0  0.11832797105E+02  0.76890681396E+01  0.29173518054E+01  0.14409989521E+02  0.51100000000E-03 0. -1.
        -11    1    4    4    0    0  0.36077261850E+01  0.94138168280E+01  0.62850051382E+01  0.11880106285E+02  0.51100000000E-03 0.  1.
         12    1    4    4    0    0  0.20397701256E+02  0.63842211719E+01 -0.23029702094E+01  0.21497166518E+02  0.00000000000E+00 0. -1.
</event>
<event>
 8    1  0.2994958E-010  0.9118800E+02  0.7816164E-02  0.1184000E+00
        -11   -1    0    0    0    0  0.00000000000E+00  0.00000000000E+00  0.45593999997E+02  0.45594000000E+02  0.51100000000E-03 0. -1.
         11   -1    0    0    0    0 -0.00000000000E+00 -0.00000000000E+00 -0.45593999997E+02  0.45594000000E+02  0.51100000000E-03 0.  1.
         23    2    1    2    0    0  0.71054273576E-14  0.35527136788E-14  0.00000000000E+00  0.91188000000E+02  0.91188000000E+02 0.  0.
    9900012    2    3    3    0    0 -0.29316862834E+02 -0.25829285319E+02 -0.18894250350E+02  0.47787272785E+02  0.20000007934E+02 0.  0.
         12    1    3    3    0    0  0.29316862834E+02  0.25829285319E+02  0.18894250350E+02  0.43400727215E+02  0.00000000000E+00 0. -1.
         11    1    4    4    0    0 -0.18935703055E+02 -0.90621635636E+01 -0.44668840837E+01  0.21462448889E+02  0.51100000000E-03 0. -1.
        -11    1    4    4    0    0  0.91015654673E+00  0.56721602036E+00  0.51819088115E-01  0.10736873066E+01  0.51100000000E-03 0.  1.
        -12    1    4    4    0    0 -0.11291316326E+02 -0.17334337776E+02 -0.14479185355E+02  0.25251136589E+02  0.00000000000E+00 0.  1.
</event>
<event>
 8    1  0.2994958E-010  0.9118800E+02  0.7816164E-02  0.1184000E+00
        -11   -1    0    0    0    0  0.00000000000E+00  0.00000000000E+00  0.45593999997E+02  0.45594000000E+02  0.51100000000E-03 0. -1.
         11   -1    0    0    0    0 -0.00000000000E+00 -0.00000000000E+00 -0.45593999997E+02  0.45594000000E+02  0.51100000000E-03 0.  1.
         23    2    1    2    0    0  0.00000000000E+00 -0.35527136788E-14  0.00000000000E+00  0.91188000000E+02  0.91188000000E+02 0.  0.
    9900012    2    3    3    0    0 -0.20975480197E+00  0.21205232828E+02  0.37867107487E+02  0.47787265838E+02  0.19999976263E+02 0.  0.
        -12    1    3    3    0    0  0.20975480197E+00 -0.21205232828E+02 -0.37867107487E+02  0.43400734162E+02  0.00000000000E+00 0.  1.
         11    1    4    4    0    0  0.61245725415E+00  0.76207625305E+01  0.19697014781E+02  0.21128736757E+02  0.51100000000E-03 0. -1.
        -11    1    4    4    0    0  0.23694670624E+01  0.15535470547E+02  0.13885610284E+02  0.20970822409E+02  0.51100000000E-03 0.  1.
        -12    1    4    4    0    0 -0.31916791185E+01 -0.19510002492E+01  0.42844824214E+01  0.56877066720E+01  0.00000000000E+00 0.  1.
</event>
<event>
 8    1  0.2994958E-010  0.9118800E+02  0.7816164E-02  0.1184000E+00
        -11   -1    0    0    0    0  0.00000000000E+00  0.00000000000E+00  0.45593999997E+02  0.45594000000E+02  0.51100000000E-03 0.  1.
         11   -1    0    0    0    0 -0.00000000000E+00 -0.00000000000E+00 -0.45593999997E+02  0.45594000000E+02  0.51100000000E-03 0. -1.
         23    2    1    2    0    0 -0.35527136788E-14  0.00000000000E+00  0.00000000000E+00  0.91188000000E+02  0.91188000000E+02 0.  0.
    9900012    2    3    3    0    0 -0.25505609149E+02 -0.21005515414E+02  0.28139920627E+02  0.47787275251E+02  0.20000019177E+02 0.  0.
        -12    1    3    3    0    0  0.25505609149E+02  0.21005515414E+02 -0.28139920627E+02  0.43400724749E+02  0.00000000000E+00 0.  1.
         11    1    4    4    0    0 -0.65895602427E+01 -0.19039731389E+01 -0.27220023326E+00  0.68645109902E+01  0.51100000000E-03 0. -1.
        -11    1    4    4    0    0 -0.13195920773E+02 -0.14599088981E+02  0.12206888226E+02  0.23157587192E+02  0.51100000000E-03 0.  1.
         12    1    4    4    0    0 -0.57201281328E+01 -0.45024532939E+01  0.16205232635E+02  0.17765177068E+02  0.00000000000E+00 0. -1.
</event>
<event>
 8    1  0.2994958E-010  0.9118800E+02  0.7816164E-02  0.1184000E+00
        -11   -1    0    0    0    0  0.00000000000E+00  0.00000000000E+00  0.45593999997E+02  0.45594000000E+02  0.51100000000E-03 0. -1.
         11   -1    0    0    0    0 -0.00000000000E+00 -0.00000000000E+00 -0.45593999997E+02  0.45594000000E+02  0.51100000000E-03 0.  1.
         23    2    1    2    0    0  0.00000000000E+00  0.00000000000E+00  0.00000000000E+00  0.91188000000E+02  0.91188000000E+02 0.  0.
    9900012    2    3    3    0    0 -0.73274392444E+01  0.35244578552E+02 -0.24243584248E+02  0.47787273504E+02  0.20000011214E+02 0.  0.
         12    1    3    3    0    0  0.73274392444E+01 -0.35244578552E+02  0.24243584248E+02  0.43400726496E+02  0.00000000000E+00 0. -1.
         11    1    4    4    0    0  0.45092717370E+00  0.79106234958E+01  0.25974687324E+01  0.83383537635E+01  0.51100000000E-03 0. -1.
        -11    1    4    4    0    0 -0.11713252778E-01  0.88232057074E+01 -0.76660481458E+01  0.11688344219E+02  0.51100000000E-03 0.  1.
         12    1    4    4    0    0 -0.77666531654E+01  0.18510749349E+02 -0.19175004835E+02  0.27760575521E+02  0.00000000000E+00 0. -1.
</event>
<event>
 8    1  0.2994958E-010  0.9118800E+02  0.7816164E-02  0.1184000E+00
        -11   -1    0    0    0    0  0.00000000000E+00  0.00000000000E+00  0.45593999997E+02  0.45594000000E+02  0.51100000000E-03 0. -1.
         11   -1    0    0    0    0 -0.00000000000E+00 -0.00000000000E+00 -0.45593999997E+02  0.45594000000E+02  0.51100000000E-03 0.  1.
         23    2    1    2    0    0 -0.71054273576E-14 -0.44408920985E-15  0.35527136788E-14  0.91188000000E+02  0.91188000000E+02 0.  0.
    9900012    2    3    3    0    0 -0.35250228459E+02 -0.21987480322E+01  0.25223206920E+02  0.47787271127E+02  0.20000000379E+02 0.  0.
        -12    1    3    3    0    0  0.35250228459E+02  0.21987480322E+01 -0.25223206920E+02  0.43400728873E+02  0.00000000000E+00 0.  1.
         11    1    4    4    0    0 -0.19003120429E+02 -0.75539378696E+01  0.14683768780E+02  0.25175258275E+02  0.51100000000E-03 0. -1.
        -11    1    4    4    0    0 -0.54241656791E+01 -0.28619738549E+01  0.15726909850E+01  0.63313367354E+01  0.51100000000E-03 0.  1.
         12    1    4    4    0    0 -0.10822942351E+02  0.82171636924E+01  0.89667471553E+01  0.16280676117E+02  0.00000000000E+00 0. -1.
</event>
<event>
 8    1  0.2994958E-010  0.9118800E+02  0.7816164E-02  0.1184000E+00
        -11   -1    0    0    0    0  0.00000000000E+00  0.00000000000E+00  0.45593999997E+02  0.45594000000E+02  0.51100000000E-03 0. -1.
         11   -1    0    0    0    0 -0.00000000000E+00 -0.00000000000E+00 -0.45593999997E+02  0.45594000000E+02  0.51100000000E-03 0.  1.
         23    2    1    2    0    0  0.00000000000E+00  0.44408920985E-15  0.00000000000E+00  0.91188000000E+02  0.91188000000E+02 0.  0.
    9900012    2    3    3    0    0 -0.33050055035E+02 -0.39189671410E+01 -0.27856036717E+02  0.47787271632E+02  0.20000002678E+02 0.  0.
         12    1    3    3    0    0  0.33050055035E+02  0.39189671410E+01  0.27856036717E+02  0.43400728368E+02  0.00000000000E+00 0. -1.
         11    1    4    4    0    0 -0.17776649308E+02  0.41474662655E+01 -0.15397335730E+02  0.23880717846E+02  0.51100000000E-03 0. -1.
        -11    1    4    4    0    0 -0.88038083908E+01  0.10564283715E+01 -0.77322940756E+01  0.11764839779E+02  0.51100000000E-03 0.  1.
         12    1    4    4    0    0 -0.64695973369E+01 -0.91228617780E+01 -0.47264069120E+01  0.12141714007E+02  0.00000000000E+00 0. -1.
</event>
<event>
 8    1 -0.1044263E-009  0.9118800E+02  0.7816164E-02  0.1184000E+00
        -11   -1    0    0    0    0  0.00000000000E+00  0.00000000000E+00  0.45593999997E+02  0.45594000000E+02  0.51100000000E-03 0. -1.
         11   -1    0    0    0    0 -0.00000000000E+00 -0.00000000000E+00 -0.45593999997E+02  0.45594000000E+02  0.51100000000E-03 0.  1.
         23    2    1    2    0    0  0.00000000000E+00 -0.35527136788E-14  0.35527136788E-14  0.91188000000E+02  0.91188000000E+02 0.  0.
    9900012    2    3    3    0    0 -0.94765838590E+01  0.29389538017E+02 -0.30497085546E+02  0.47787276350E+02  0.20000024192E+02 0.  0.
         12    1    3    3    0    0  0.94765838590E+01 -0.29389538017E+02  0.30497085546E+02  0.43400723650E+02  0.00000000000E+00 0. -1.
         11    1    4    4    0    0  0.22127861694E+01  0.14103263716E+02 -0.55441957514E+01  0.15314587061E+02  0.51100000000E-03 0. -1.
        -11    1    4    4    0    0 -0.12184598963E+00  0.15688151005E+01 -0.66792578247E+01  0.68621070098E+01  0.51100000000E-03 0.  1.
         12    1    4    4    0    0 -0.11567524039E+02  0.13717459201E+02 -0.18273631970E+02  0.25610582279E+02  0.00000000000E+00 0. -1.
</event>
<event>
 8    1  0.2994958E-010  0.9118800E+02  0.7816164E-02  0.1184000E+00
        -11   -1    0    0    0    0  0.00000000000E+00  0.00000000000E+00  0.45593999997E+02  0.45594000000E+02  0.51100000000E-03 0. -1.
         11   -1    0    0    0    0 -0.00000000000E+00 -0.00000000000E+00 -0.45593999997E+02  0.45594000000E+02  0.51100000000E-03 0.  1.
         23    2    1    2    0    0 -0.71054273576E-14  0.88817841970E-15  0.88817841970E-15  0.91188000000E+02  0.91188000000E+02 0.  0.
    9900012    2    3    3    0    0 -0.42608801665E+02  0.53908914632E+01  0.62491438674E+01  0.47787268564E+02  0.19999988689E+02 0.  0.
         12    1    3    3    0    0  0.42608801665E+02 -0.53908914632E+01 -0.62491438674E+01  0.43400731436E+02  0.00000000000E+00 0. -1.
         11    1    4    4    0    0 -0.19557497053E+02  0.63627576316E+01  0.17605358361E+01  0.20641702021E+02  0.51100000000E-03 0.  1.
        -11    1    4    4    0    0 -0.23437012879E+02 -0.83723479900E+00  0.70994198302E+01  0.24502985471E+02  0.51100000000E-03 0. -1.
         12    1    4    4    0    0  0.38570826607E+00 -0.13463136932E+00 -0.26108117988E+01  0.26425810718E+01  0.00000000000E+00 0. -1.
</event>
<event>
 8    1  0.2994958E-010  0.9118800E+02  0.7816164E-02  0.1184000E+00
        -11   -1    0    0    0    0  0.00000000000E+00  0.00000000000E+00  0.45593999997E+02  0.45594000000E+02  0.51100000000E-03 0. -1.
         11   -1    0    0    0    0 -0.00000000000E+00 -0.00000000000E+00 -0.45593999997E+02  0.45594000000E+02  0.51100000000E-03 0.  1.
         23    2    1    2    0    0  0.00000000000E+00  0.35527136788E-14 -0.35527136788E-14  0.91188000000E+02  0.91188000000E+02 0.  0.
    9900012    2    3    3    0    0  0.30273865077E+01 -0.29400485335E+02  0.31781589296E+02  0.47787273910E+02  0.20000013064E+02 0.  0.
        -12    1    3    3    0    0 -0.30273865077E+01  0.29400485335E+02 -0.31781589296E+02  0.43400726090E+02  0.00000000000E+00 0.  1.
         11    1    4    4    0    0  0.11573625360E+01 -0.15932598866E+01 -0.75592274502E+00  0.21093564335E+01  0.51100000000E-03 0. -1.
        -11    1    4    4    0    0  0.16850439690E+01 -0.27404115867E+02  0.22138649674E+02  0.35269600924E+02  0.51100000000E-03 0.  1.
         12    1    4    4    0    0  0.18498000260E+00 -0.40310958068E+00  0.10398862367E+02  0.10408316553E+02  0.00000000000E+00 0. -1.
</event>
<event>
 8    1  0.2994958E-010  0.9118800E+02  0.7816164E-02  0.1184000E+00
        -11   -1    0    0    0    0  0.00000000000E+00  0.00000000000E+00  0.45593999997E+02  0.45594000000E+02  0.51100000000E-03 0. -1.
         11   -1    0    0    0    0 -0.00000000000E+00 -0.00000000000E+00 -0.45593999997E+02  0.45594000000E+02  0.51100000000E-03 0.  1.
         23    2    1    2    0    0  0.35527136788E-14 -0.35527136788E-14 -0.35527136788E-14  0.91188000000E+02  0.91188000000E+02 0.  0.
    9900012    2    3    3    0    0  0.22022064235E+02 -0.24681178702E+02 -0.28097885532E+02  0.47787273432E+02  0.20000010886E+02 0.  0.
         12    1    3    3    0    0 -0.22022064235E+02  0.24681178702E+02  0.28097885532E+02  0.43400726568E+02  0.00000000000E+00 0. -1.
         11    1    4    4    0    0  0.60721709159E+01 -0.97206683622E+01 -0.16954640125E+01  0.11586080076E+02  0.51100000000E-03 0. -1.
        -11    1    4    4    0    0  0.10668281383E+02 -0.14785758633E+02 -0.14913204641E+02  0.23554926426E+02  0.51100000000E-03 0.  1.
         12    1    4    4    0    0  0.52816119364E+01 -0.17475170679E+00 -0.11489216878E+02  0.12646266931E+02  0.00000000000E+00 0. -1.
</event>
<event>
 8    1  0.2994958E-010  0.9118800E+02  0.7816164E-02  0.1184000E+00
        -11   -1    0    0    0    0  0.00000000000E+00  0.00000000000E+00  0.45593999997E+02  0.45594000000E+02  0.51100000000E-03 0.  1.
         11   -1    0    0    0    0 -0.00000000000E+00 -0.00000000000E+00 -0.45593999997E+02  0.45594000000E+02  0.51100000000E-03 0. -1.
         23    2    1    2    0    0  0.00000000000E+00  0.00000000000E+00  0.35527136788E-14  0.91188000000E+02  0.91188000000E+02 0.  0.
    9900012    2    3    3    0    0 -0.19291350418E+02  0.33363339052E+02 -0.19958851415E+02  0.47787258722E+02  0.19999943818E+02 0.  0.
         12    1    3    3    0    0  0.19291350418E+02 -0.33363339052E+02  0.19958851415E+02  0.43400741278E+02  0.00000000000E+00 0. -1.
         11    1    4    4    0    0 -0.46648475574E+01  0.16290454770E+02 -0.11302167137E+02  0.20368571418E+02  0.51100000000E-03 0.  1.
        -11    1    4    4    0    0 -0.10703901284E+02  0.11070314856E+02 -0.11985070140E+02  0.19513259088E+02  0.51100000000E-03 0. -1.
        -12    1    4    4    0    0 -0.39226015760E+01  0.60025694264E+01  0.33283858619E+01  0.79054282166E+01  0.00000000000E+00 0.  1.
</event>
<event>
 8    1  0.2994958E-010  0.9118800E+02  0.7816164E-02  0.1184000E+00
        -11   -1    0    0    0    0  0.00000000000E+00  0.00000000000E+00  0.45593999997E+02  0.45594000000E+02  0.51100000000E-03 0. -1.
         11   -1    0    0    0    0 -0.00000000000E+00 -0.00000000000E+00 -0.45593999997E+02  0.45594000000E+02  0.51100000000E-03 0.  1.
         23    2    1    2    0    0  0.00000000000E+00  0.00000000000E+00 -0.35527136788E-14  0.91188000000E+02  0.91188000000E+02 0.  0.
    9900012    2    3    3    0    0 -0.98645107117E+01 -0.32619726060E+02 -0.26875046564E+02  0.47787271577E+02  0.20000002430E+02 0.  0.
         12    1    3    3    0    0  0.98645107117E+01  0.32619726060E+02  0.26875046564E+02  0.43400728423E+02  0.00000000000E+00 0. -1.
         11    1    4    4    0    0 -0.56714433809E+01 -0.16179719404E+02 -0.27045010189E+01  0.17356927033E+02  0.51100000000E-03 0. -1.
        -11    1    4    4    0    0 -0.51334853936E+00 -0.56655003690E+01 -0.30952717333E+01  0.64762742776E+01  0.51100000000E-03 0.  1.
        -12    1    4    4    0    0 -0.36797187914E+01 -0.10774506287E+02 -0.21075273811E+02  0.23954070267E+02  0.00000000000E+00 0.  1.
</event>
<event>
 8    1  0.2994958E-010  0.9118800E+02  0.7816164E-02  0.1184000E+00
        -11   -1    0    0    0    0  0.00000000000E+00  0.00000000000E+00  0.45593999997E+02  0.45594000000E+02  0.51100000000E-03 0. -1.
         11   -1    0    0    0    0 -0.00000000000E+00 -0.00000000000E+00 -0.45593999997E+02  0.45594000000E+02  0.51100000000E-03 0.  1.
         23    2    1    2    0    0  0.71054273576E-14  0.35527136788E-14  0.00000000000E+00  0.91188000000E+02  0.91188000000E+02 0.  0.
    9900012    2    3    3    0    0 -0.32981239196E+02 -0.24237899534E+02  0.14435565311E+02  0.47787268917E+02  0.19999990298E+02 0.  0.
        -12    1    3    3    0    0  0.32981239196E+02  0.24237899534E+02 -0.14435565311E+02  0.43400731083E+02  0.00000000000E+00 0.  1.
         11    1    4    4    0    0 -0.15332345416E+02 -0.80380619174E+01  0.32855401792E+01  0.17620613777E+02  0.51100000000E-03 0. -1.
        -11    1    4    4    0    0 -0.73613574957E+01 -0.10820624704E+02 -0.12907392229E+01  0.13150722838E+02  0.51100000000E-03 0.  1.
        -12    1    4    4    0    0 -0.10287536284E+02 -0.53792129129E+01  0.12440764354E+02  0.17015932301E+02  0.00000000000E+00 0.  1.
</event>
<event>
 8    1  0.2994958E-010  0.9118800E+02  0.7816164E-02  0.1184000E+00
        -11   -1    0    0    0    0  0.00000000000E+00  0.00000000000E+00  0.45593999997E+02  0.45594000000E+02  0.51100000000E-03 0. -1.
         11   -1    0    0    0    0 -0.00000000000E+00 -0.00000000000E+00 -0.45593999997E+02  0.45594000000E+02  0.51100000000E-03 0.  1.
         23    2    1    2    0    0 -0.17763568394E-14  0.44408920985E-15  0.00000000000E+00  0.91188000000E+02  0.91188000000E+02 0.  0.
    9900012    2    3    3    0    0 -0.15145109682E+02  0.28663350446E+01 -0.40571333297E+02  0.47787270635E+02  0.19999998134E+02 0.  0.
         12    1    3    3    0    0  0.15145109682E+02 -0.28663350446E+01  0.40571333297E+02  0.43400729365E+02  0.00000000000E+00 0. -1.
         11    1    4    4    0    0 -0.82587226980E+01 -0.38163871017E+01 -0.19204842555E+02  0.21250818547E+02  0.51100000000E-03 0. -1.
        -11    1    4    4    0    0 -0.15590511503E+01  0.34906795318E+01 -0.19753381173E+02  0.20119929227E+02  0.51100000000E-03 0.  1.
         12    1    4    4    0    0 -0.53273358338E+01  0.31920426145E+01 -0.16131095699E+01  0.64165228609E+01  0.00000000000E+00 0. -1.
</event>
<event>
 8    1  0.2994958E-010  0.9118800E+02  0.7816164E-02  0.1184000E+00
        -11   -1    0    0    0    0  0.00000000000E+00  0.00000000000E+00  0.45593999997E+02  0.45594000000E+02  0.51100000000E-03 0. -1.
         11   -1    0    0    0    0 -0.00000000000E+00 -0.00000000000E+00 -0.45593999997E+02  0.45594000000E+02  0.51100000000E-03 0.  1.
         23    2    1    2    0    0 -0.17763568394E-14  0.00000000000E+00  0.00000000000E+00  0.91188000000E+02  0.91188000000E+02 0.  0.
    9900012    2    3    3    0    0 -0.11236731218E+02 -0.30582733883E+02 -0.28671509005E+02  0.47787272254E+02  0.20000005516E+02 0.  0.
         12    1    3    3    0    0  0.11236731218E+02  0.30582733883E+02  0.28671509005E+02  0.43400727746E+02  0.00000000000E+00 0. -1.
         11    1    4    4    0    0  0.49756843039E+01 -0.49634494580E+01 -0.44332185172E+01  0.83094338854E+01  0.51100000000E-03 0. -1.
        -11    1    4    4    0    0 -0.34481724708E+01 -0.54714171220E+01 -0.93254370043E+01  0.11348571465E+02  0.51100000000E-03 0.  1.
         12    1    4    4    0    0 -0.12764243051E+02 -0.20147867303E+02 -0.14912853483E+02  0.28129266904E+02  0.00000000000E+00 0. -1.
</event>
<event>
 8    1  0.2994958E-010  0.9118800E+02  0.7816164E-02  0.1184000E+00
        -11   -1    0    0    0    0  0.00000000000E+00  0.00000000000E+00  0.45593999997E+02  0.45594000000E+02  0.51100000000E-03 0. -1.
         11   -1    0    0    0    0 -0.00000000000E+00 -0.00000000000E+00 -0.45593999997E+02  0.45594000000E+02  0.51100000000E-03 0.  1.
         23    2    1    2    0    0 -0.17763568394E-14  0.17763568394E-14  0.71054273576E-14  0.91188000000E+02  0.91188000000E+02 0.  0.
    9900012    2    3    3    0    0 -0.12946188105E+02  0.13915889332E+02 -0.39017527754E+02  0.47787271499E+02  0.20000002073E+02 0.  0.
         12    1    3    3    0    0  0.12946188105E+02 -0.13915889332E+02  0.39017527754E+02  0.43400728501E+02  0.00000000000E+00 0. -1.
         11    1    4    4    0    0  0.28438414899E+01  0.44396672685E+01 -0.10069964381E+02  0.11366717326E+02  0.51100000000E-03 0. -1.
        -11    1    4    4    0    0 -0.61458651535E+01  0.57972832709E+01 -0.23011286039E+02  0.24513250238E+02  0.51100000000E-03 0.  1.
         12    1    4    4    0    0 -0.96441644412E+01  0.36789387925E+01 -0.59362773346E+01  0.11907303935E+02  0.00000000000E+00 0. -1.
</event>
<event>
 8    1  0.2994958E-010  0.9118800E+02  0.7816164E-02  0.1184000E+00
        -11   -1    0    0    0    0  0.00000000000E+00  0.00000000000E+00  0.45593999997E+02  0.45594000000E+02  0.51100000000E-03 0. -1.
         11   -1    0    0    0    0 -0.00000000000E+00 -0.00000000000E+00 -0.45593999997E+02  0.45594000000E+02  0.51100000000E-03 0.  1.
         23    2    1    2    0    0  0.00000000000E+00  0.00000000000E+00 -0.35527136788E-14  0.91188000000E+02  0.91188000000E+02 0.  0.
    9900012    2    3    3    0    0  0.23488868533E+02 -0.24657768175E+02  0.26905218419E+02  0.47787271268E+02  0.20000001017E+02 0.  0.
        -12    1    3    3    0    0 -0.23488868533E+02  0.24657768175E+02 -0.26905218419E+02  0.43400728732E+02  0.00000000000E+00 0.  1.
         11    1    4    4    0    0  0.22134300195E+02 -0.12666502474E+02  0.15240803347E+02  0.29709419667E+02  0.51100000000E-03 0.  1.
        -11    1    4    4    0    0  0.20075918143E+01 -0.23313957517E+01  0.62951982024E+01  0.70068075265E+01  0.51100000000E-03 0. -1.
        -12    1    4    4    0    0 -0.65302347591E+00 -0.96598699493E+01  0.53692168697E+01  0.11071044074E+02  0.00000000000E+00 0.  1.
</event>
<event>
 8    1  0.2994958E-010  0.9118800E+02  0.7816164E-02  0.1184000E+00
        -11   -1    0    0    0    0  0.00000000000E+00  0.00000000000E+00  0.45593999997E+02  0.45594000000E+02  0.51100000000E-03 0. -1.
         11   -1    0    0    0    0 -0.00000000000E+00 -0.00000000000E+00 -0.45593999997E+02  0.45594000000E+02  0.51100000000E-03 0.  1.
         23    2    1    2    0    0  0.00000000000E+00 -0.88817841970E-15  0.00000000000E+00  0.91188000000E+02  0.91188000000E+02 0.  0.
    9900012    2    3    3    0    0  0.39506095159E+01 -0.65278582150E+01 -0.42724734598E+02  0.47787271954E+02  0.20000004147E+02 0.  0.
         12    1    3    3    0    0 -0.39506095159E+01  0.65278582150E+01  0.42724734598E+02  0.43400728046E+02  0.00000000000E+00 0. -1.
         11    1    4    4    0    0  0.18837093285E+01 -0.20735380069E+01 -0.61648694087E+00  0.28684450683E+01  0.51100000000E-03 0. -1.
        -11    1    4    4    0    0  0.59594659474E+01 -0.21980360525E+01 -0.67244381909E+01  0.92501170863E+01  0.51100000000E-03 0.  1.
         12    1    4    4    0    0 -0.38925657600E+01 -0.22562841556E+01 -0.35383809467E+02  0.35668709799E+02  0.00000000000E+00 0. -1.
</event>
<event>
 8    1  0.2994958E-010  0.9118800E+02  0.7816164E-02  0.1184000E+00
        -11   -1    0    0    0    0  0.00000000000E+00  0.00000000000E+00  0.45593999997E+02  0.45594000000E+02  0.51100000000E-03 0. -1.
         11   -1    0    0    0    0 -0.00000000000E+00 -0.00000000000E+00 -0.45593999997E+02  0.45594000000E+02  0.51100000000E-03 0.  1.
         23    2    1    2    0    0  0.17763568394E-14  0.00000000000E+00  0.00000000000E+00  0.91188000000E+02  0.91188000000E+02 0.  0.
    9900012    2    3    3    0    0 -0.12012905158E+02 -0.17249748172E+02 -0.37970509621E+02  0.47787270706E+02  0.19999998459E+02 0.  0.
         12    1    3    3    0    0  0.12012905158E+02  0.17249748172E+02  0.37970509621E+02  0.43400729294E+02  0.00000000000E+00 0. -1.
         11    1    4    4    0    0 -0.54702003454E+01 -0.34703843042E+01 -0.12921597356E+02  0.14454561132E+02  0.51100000000E-03 0. -1.
        -11    1    4    4    0    0 -0.26457619350E+01 -0.35796575273E+01 -0.21342853454E+02  0.21802096185E+02  0.51100000000E-03 0.  1.
         12    1    4    4    0    0 -0.38969428778E+01 -0.10199706341E+02 -0.37060588111E+01  0.11530613390E+02  0.00000000000E+00 0. -1.
</event>
<event>
 8    1  0.2994958E-010  0.9118800E+02  0.7816164E-02  0.1184000E+00
        -11   -1    0    0    0    0  0.00000000000E+00  0.00000000000E+00  0.45593999997E+02  0.45594000000E+02  0.51100000000E-03 0. -1.
         11   -1    0    0    0    0 -0.00000000000E+00 -0.00000000000E+00 -0.45593999997E+02  0.45594000000E+02  0.51100000000E-03 0.  1.
         23    2    1    2    0    0  0.00000000000E+00 -0.88817841970E-15  0.00000000000E+00  0.91188000000E+02  0.91188000000E+02 0.  0.
    9900012    2    3    3    0    0 -0.45289297381E+01 -0.71626234007E+01  0.42565349634E+02  0.47787269960E+02  0.19999995055E+02 0.  0.
        -12    1    3    3    0    0  0.45289297381E+01  0.71626234007E+01 -0.42565349634E+02  0.43400730040E+02  0.00000000000E+00 0.  1.
         11    1    4    4    0    0 -0.36002304532E+01  0.21534551429E+01  0.30871649373E+02  0.31155380975E+02  0.51100000000E-03 0. -1.
        -11    1    4    4    0    0 -0.17393215889E+01 -0.17551982609E+01  0.76087146476E+01  0.79999062104E+01  0.51100000000E-03 0.  1.
        -12    1    4    4    0    0  0.81062230399E+00 -0.75608802827E+01  0.40849856129E+01  0.86319827750E+01  0.00000000000E+00 0.  1.
</event>
<event>
 8    1  0.2994958E-010  0.9118800E+02  0.7816164E-02  0.1184000E+00
        -11   -1    0    0    0    0  0.00000000000E+00  0.00000000000E+00  0.45593999997E+02  0.45594000000E+02  0.51100000000E-03 0.  1.
         11   -1    0    0    0    0 -0.00000000000E+00 -0.00000000000E+00 -0.45593999997E+02  0.45594000000E+02  0.51100000000E-03 0. -1.
         23    2    1    2    0    0  0.00000000000E+00  0.26645352591E-14  0.00000000000E+00  0.91188000000E+02  0.91188000000E+02 0.  0.
    9900012    2    3    3    0    0 -0.42345926517E+02  0.49771732479E+01 -0.81039344039E+01  0.47787268451E+02  0.19999988177E+02 0.  0.
        -12    1    3    3    0    0  0.42345926517E+02 -0.49771732479E+01  0.81039344039E+01  0.43400731549E+02  0.00000000000E+00 0.  1.
         11    1    4    4    0    0 -0.17349031646E+02  0.22714748435E+01 -0.10562358363E+02  0.20438001651E+02  0.51100000000E-03 0. -1.
        -11    1    4    4    0    0 -0.14930593186E+02  0.63613352627E+01 -0.50555990055E+00  0.16237142306E+02  0.51100000000E-03 0.  1.
        -12    1    4    4    0    0 -0.10066301685E+02 -0.36556368583E+01  0.29639838594E+01  0.11112124494E+02  0.00000000000E+00 0.  1.
</event>
<event>
 8    1  0.2994958E-010  0.9118800E+02  0.7816164E-02  0.1184000E+00
        -11   -1    0    0    0    0  0.00000000000E+00  0.00000000000E+00  0.45593999997E+02  0.45594000000E+02  0.51100000000E-03 0. -1.
         11   -1    0    0    0    0 -0.00000000000E+00 -0.00000000000E+00 -0.45593999997E+02  0.45594000000E+02  0.51100000000E-03 0.  1.
         23    2    1    2    0    0  0.00000000000E+00  0.00000000000E+00  0.00000000000E+00  0.91188000000E+02  0.91188000000E+02 0.  0.
    9900012    2    3    3    0    0  0.90129684870E+01  0.70068819440E+01  0.41872344441E+02  0.47787271613E+02  0.20000002591E+02 0.  0.
        -12    1    3    3    0    0 -0.90129684870E+01 -0.70068819440E+01 -0.41872344441E+02  0.43400728387E+02  0.00000000000E+00 0.  1.
         11    1    4    4    0    0 -0.14720220657E+01  0.66919535537E+01  0.21609598062E+02  0.22669887957E+02  0.51100000000E-03 0. -1.
        -11    1    4    4    0    0  0.26665668713E+01  0.35010145318E+01  0.13800972727E+02  0.14485666367E+02  0.51100000000E-03 0.  1.
        -12    1    4    4    0    0  0.78184236814E+01 -0.31860861415E+01  0.64617736525E+01  0.10631717288E+02  0.00000000000E+00 0.  1.
</event>
<event>
 8    1  0.2994958E-010  0.9118800E+02  0.7816164E-02  0.1184000E+00
        -11   -1    0    0    0    0  0.00000000000E+00  0.00000000000E+00  0.45593999997E+02  0.45594000000E+02  0.51100000000E-03 0. -1.
         11   -1    0    0    0    0 -0.00000000000E+00 -0.00000000000E+00 -0.45593999997E+02  0.45594000000E+02  0.51100000000E-03 0.  1.
         23    2    1    2    0    0  0.88817841970E-15 -0.35527136788E-14  0.00000000000E+00  0.91188000000E+02  0.91188000000E+02 0.  0.
    9900012    2    3    3    0    0  0.52491806850E+01 -0.22020397426E+02 -0.37029335001E+02  0.47787269001E+02  0.19999990682E+02 0.  0.
         12    1    3    3    0    0 -0.52491806850E+01  0.22020397426E+02  0.37029335001E+02  0.43400730999E+02  0.00000000000E+00 0. -1.
         11    1    4    4    0    0 -0.10191544391E+01 -0.97685941147E+01 -0.93094918948E+01  0.13532580920E+02  0.51100000000E-03 0. -1.
        -11    1    4    4    0    0  0.98084330088E+01 -0.58457684534E+01 -0.22605882855E+02  0.25325961123E+02  0.51100000000E-03 0.  1.
        -12    1    4    4    0    0 -0.35400978846E+01 -0.64060348583E+01 -0.51139602511E+01  0.89287269579E+01  0.00000000000E+00 0.  1.
</event>
<event>
 8    1  0.2994958E-010  0.9118800E+02  0.7816164E-02  0.1184000E+00
        -11   -1    0    0    0    0  0.00000000000E+00  0.00000000000E+00  0.45593999997E+02  0.45594000000E+02  0.51100000000E-03 0. -1.
         11   -1    0    0    0    0 -0.00000000000E+00 -0.00000000000E+00 -0.45593999997E+02  0.45594000000E+02  0.51100000000E-03 0.  1.
         23    2    1    2    0    0  0.00000000000E+00  0.00000000000E+00  0.00000000000E+00  0.91188000000E+02  0.91188000000E+02 0.  0.
    9900012    2    3    3    0    0 -0.77565820483E+00 -0.16217708063E+02 -0.40249322907E+02  0.47787266193E+02  0.19999977883E+02 0.  0.
         12    1    3    3    0    0  0.77565820483E+00  0.16217708063E+02  0.40249322907E+02  0.43400733807E+02  0.00000000000E+00 0. -1.
         11    1    4    4    0    0 -0.16110005162E+01 -0.65002818390E+01 -0.73119094156E+01  0.99152915344E+01  0.51100000000E-03 0. -1.
        -11    1    4    4    0    0 -0.35930324456E+01 -0.78464157858E+01 -0.60043968575E+01  0.10513272788E+02  0.51100000000E-03 0.  1.
        -12    1    4    4    0    0  0.44283747570E+01 -0.18710104382E+01 -0.26933016634E+02  0.27358701871E+02  0.00000000000E+00 0.  1.
</event>
<event>
 8    1  0.2994958E-010  0.9118800E+02  0.7816164E-02  0.1184000E+00
        -11   -1    0    0    0    0  0.00000000000E+00  0.00000000000E+00  0.45593999997E+02  0.45594000000E+02  0.51100000000E-03 0. -1.
         11   -1    0    0    0    0 -0.00000000000E+00 -0.00000000000E+00 -0.45593999997E+02  0.45594000000E+02  0.51100000000E-03 0.  1.
         23    2    1    2    0    0  0.00000000000E+00  0.00000000000E+00  0.35527136788E-14  0.91188000000E+02  0.91188000000E+02 0.  0.
    9900012    2    3    3    0    0 -0.35920649184E+02  0.10287135639E+02 -0.22079504500E+02  0.47787277466E+02  0.20000029279E+02 0.  0.
         12    1    3    3    0    0  0.35920649184E+02 -0.10287135639E+02  0.22079504500E+02  0.43400722534E+02  0.00000000000E+00 0. -1.
         11    1    4    4    0    0 -0.14207542482E+02  0.49154374571E+01 -0.16231423062E+02  0.22124079272E+02  0.51100000000E-03 0. -1.
        -11    1    4    4    0    0 -0.14190986477E+02  0.20722871288E+01 -0.89250632161E+01  0.16891868600E+02  0.51100000000E-03 0.  1.
        -12    1    4    4    0    0 -0.75221202253E+01  0.32994110534E+01  0.30769817777E+01  0.87713295938E+01  0.00000000000E+00 0.  1.
</event>
<event>
 8    1  0.2994958E-010  0.9118800E+02  0.7816164E-02  0.1184000E+00
        -11   -1    0    0    0    0  0.00000000000E+00  0.00000000000E+00  0.45593999997E+02  0.45594000000E+02  0.51100000000E-03 0. -1.
         11   -1    0    0    0    0 -0.00000000000E+00 -0.00000000000E+00 -0.45593999997E+02  0.45594000000E+02  0.51100000000E-03 0.  1.
         23    2    1    2    0    0 -0.44408920985E-15  0.00000000000E+00  0.00000000000E+00  0.91188000000E+02  0.91188000000E+02 0.  0.
    9900012    2    3    3    0    0 -0.25657521396E+01 -0.36736854104E+02 -0.22966146300E+02  0.47787269483E+02  0.19999992883E+02 0.  0.
         12    1    3    3    0    0  0.25657521396E+01  0.36736854104E+02  0.22966146300E+02  0.43400730517E+02  0.00000000000E+00 0. -1.
         11    1    4    4    0    0 -0.30183573528E+01 -0.83738496955E+01 -0.64765801691E+01  0.11008084792E+02  0.51100000000E-03 0. -1.
        -11    1    4    4    0    0  0.41342543624E+01 -0.26443254955E+01 -0.81121052232E+01  0.94810741940E+01  0.51100000000E-03 0.  1.
         12    1    4    4    0    0 -0.36816491492E+01 -0.25718678913E+02 -0.83774609075E+01  0.27298110498E+02  0.00000000000E+00 0. -1.
</event>
<event>
 8    1  0.2994958E-010  0.9118800E+02  0.7816164E-02  0.1184000E+00
        -11   -1    0    0    0    0  0.00000000000E+00  0.00000000000E+00  0.45593999997E+02  0.45594000000E+02  0.51100000000E-03 0. -1.
         11   -1    0    0    0    0 -0.00000000000E+00 -0.00000000000E+00 -0.45593999997E+02  0.45594000000E+02  0.51100000000E-03 0.  1.
         23    2    1    2    0    0  0.00000000000E+00 -0.88817841970E-15  0.00000000000E+00  0.91188000000E+02  0.91188000000E+02 0.  0.
    9900012    2    3    3    0    0 -0.38364034672E+02  0.28646343510E+01 -0.20090255308E+02  0.47787266774E+02  0.19999980527E+02 0.  0.
         12    1    3    3    0    0  0.38364034672E+02 -0.28646343510E+01  0.20090255308E+02  0.43400733226E+02  0.00000000000E+00 0. -1.
         11    1    4    4    0    0 -0.10065143726E+02  0.57409841464E+01 -0.35323509826E+01  0.12113774016E+02  0.51100000000E-03 0. -1.
        -11    1    4    4    0    0 -0.22243074929E+02  0.33021551913E+01 -0.14576767734E+02  0.26798148612E+02  0.51100000000E-03 0.  1.
        -12    1    4    4    0    0 -0.60558160175E+01 -0.61785049868E+01 -0.19811365909E+01  0.88753441455E+01  0.00000000000E+00 0.  1.
</event>
<event>
 8    1  0.2994958E-010  0.9118800E+02  0.7816164E-02  0.1184000E+00
        -11   -1    0    0    0    0  0.00000000000E+00  0.00000000000E+00  0.45593999997E+02  0.45594000000E+02  0.51100000000E-03 0. -1.
         11   -1    0    0    0    0 -0.00000000000E+00 -0.00000000000E+00 -0.45593999997E+02  0.45594000000E+02  0.51100000000E-03 0.  1.
         23    2    1    2    0    0 -0.35527136788E-14  0.00000000000E+00 -0.35527136788E-14  0.91188000000E+02  0.91188000000E+02 0.  0.
    9900012    2    3    3    0    0  0.22574100557E+02  0.24501206178E+02  0.27815895854E+02  0.47787272100E+02  0.20000004811E+02 0.  0.
        -12    1    3    3    0    0 -0.22574100557E+02 -0.24501206178E+02 -0.27815895854E+02  0.43400727900E+02  0.00000000000E+00 0.  1.
         11    1    4    4    0    0  0.21384438428E+02  0.20555114466E+02  0.15831634456E+02  0.33622129430E+02  0.51100000000E-03 0. -1.
        -11    1    4    4    0    0  0.23211160130E+01 -0.37627578605E+00  0.15549170696E+01  0.28190300402E+01  0.51100000000E-03 0.  1.
         12    1    4    4    0    0 -0.11314538844E+01  0.43223674979E+01  0.10429344328E+02  0.11346112629E+02  0.00000000000E+00 0. -1.
</event>
<event>
 8    1  0.2994958E-010  0.9118800E+02  0.7816164E-02  0.1184000E+00
        -11   -1    0    0    0    0  0.00000000000E+00  0.00000000000E+00  0.45593999997E+02  0.45594000000E+02  0.51100000000E-03 0. -1.
         11   -1    0    0    0    0 -0.00000000000E+00 -0.00000000000E+00 -0.45593999997E+02  0.45594000000E+02  0.51100000000E-03 0.  1.
         23    2    1    2    0    0  0.00000000000E+00  0.00000000000E+00  0.00000000000E+00  0.91188000000E+02  0.91188000000E+02 0.  0.
    9900012    2    3    3    0    0  0.37054529846E+02 -0.44068310317E+01  0.22162250029E+02  0.47787266502E+02  0.19999979289E+02 0.  0.
        -12    1    3    3    0    0 -0.37054529846E+02  0.44068310317E+01 -0.22162250029E+02  0.43400733498E+02  0.00000000000E+00 0.  1.
         11    1    4    4    0    0  0.75637055864E-01 -0.71327848794E+00 -0.51489657220E+00  0.88295294708E+00  0.51100000000E-03 0.  1.
        -11    1    4    4    0    0  0.19180803237E+02  0.18625081917E+00  0.19046445558E+01  0.19276036246E+02  0.51100000000E-03 0. -1.
         12    1    4    4    0    0  0.17798089552E+02 -0.38798033629E+01  0.20772502045E+02  0.27628277309E+02  0.00000000000E+00 0. -1.
</event>
<event>
 8    1  0.4691032E-010  0.9118800E+02  0.7816164E-02  0.1184000E+00
        -11   -1    0    0    0    0  0.00000000000E+00  0.00000000000E+00  0.45593999997E+02  0.45594000000E+02  0.51100000000E-03 0. -1.
         11   -1    0    0    0    0 -0.00000000000E+00 -0.00000000000E+00 -0.45593999997E+02  0.45594000000E+02  0.51100000000E-03 0.  1.
         23    2    1    2    0    0  0.88817841970E-15  0.17763568394E-14  0.00000000000E+00  0.91188000000E+02  0.91188000000E+02 0.  0.
    9900012    2    3    3    0    0 -0.42322367370E+01 -0.12423651416E+02  0.41368639013E+02  0.47787271480E+02  0.20000001985E+02 0.  0.
        -12    1    3    3    0    0  0.42322367370E+01  0.12423651416E+02 -0.41368639013E+02  0.43400728520E+02  0.00000000000E+00 0.  1.
         11    1    4    4    0    0 -0.48866217332E+01 -0.55930823894E+01  0.54973969251E+01  0.92402930576E+01  0.51100000000E-03 0. -1.
        -11    1    4    4    0    0  0.73129665746E+00  0.23991504636E+01  0.14231370808E+01  0.28837540048E+01  0.51100000000E-03 0.  1.
         12    1    4    4    0    0 -0.76911661315E-01 -0.92297194906E+01  0.34448105007E+02  0.35663224417E+02  0.00000000000E+00 0. -1.
</event>
<event>
 8    1  0.2994958E-010  0.9118800E+02  0.7816164E-02  0.1184000E+00
        -11   -1    0    0    0    0  0.00000000000E+00  0.00000000000E+00  0.45593999997E+02  0.45594000000E+02  0.51100000000E-03 0. -1.
         11   -1    0    0    0    0 -0.00000000000E+00 -0.00000000000E+00 -0.45593999997E+02  0.45594000000E+02  0.51100000000E-03 0.  1.
         23    2    1    2    0    0 -0.35527136788E-14 -0.44408920985E-15  0.71054273576E-14  0.91188000000E+02  0.91188000000E+02 0.  0.
    9900012    2    3    3    0    0 -0.21013562535E+02 -0.25210828920E+01  0.37890604125E+02  0.47787267860E+02  0.19999985479E+02 0.  0.
        -12    1    3    3    0    0  0.21013562535E+02  0.25210828920E+01 -0.37890604125E+02  0.43400732140E+02  0.00000000000E+00 0.  1.
         11    1    4    4    0    0 -0.89744752889E-01 -0.19033589235E+01  0.94815491472E+01  0.96711221584E+01  0.51100000000E-03 0. -1.
        -11    1    4    4    0    0 -0.11006493034E+02  0.28372345451E+01  0.24322270226E+02  0.26847078389E+02  0.51100000000E-03 0.  1.
         12    1    4    4    0    0 -0.99173247482E+01 -0.34549585136E+01  0.40867847512E+01  0.11269067313E+02  0.00000000000E+00 0. -1.
</event>
<event>
 8    1  0.2994958E-010  0.9118800E+02  0.7816164E-02  0.1184000E+00
        -11   -1    0    0    0    0  0.00000000000E+00  0.00000000000E+00  0.45593999997E+02  0.45594000000E+02  0.51100000000E-03 0. -1.
         11   -1    0    0    0    0 -0.00000000000E+00 -0.00000000000E+00 -0.45593999997E+02  0.45594000000E+02  0.51100000000E-03 0.  1.
         23    2    1    2    0    0  0.71054273576E-14  0.00000000000E+00  0.35527136788E-14  0.91188000000E+02  0.91188000000E+02 0.  0.
    9900012    2    3    3    0    0 -0.33672653923E+02 -0.14948342027E+02 -0.22941710205E+02  0.47787278593E+02  0.20000034416E+02 0.  0.
         12    1    3    3    0    0  0.33672653923E+02  0.14948342027E+02  0.22941710205E+02  0.43400721407E+02  0.00000000000E+00 0. -1.
         11    1    4    4    0    0 -0.96266826030E+01 -0.77780583756E+01 -0.15221932152E+02  0.19618318703E+02  0.51100000000E-03 0. -1.
        -11    1    4    4    0    0 -0.79464468413E+01  0.16267427299E+01 -0.52384026171E+01  0.96557325745E+01  0.51100000000E-03 0.  1.
         12    1    4    4    0    0 -0.16099524478E+02 -0.87970263814E+01 -0.24813754361E+01  0.18513227316E+02  0.00000000000E+00 0. -1.
</event>
<event>
 8    1  0.2994958E-010  0.9118800E+02  0.7816164E-02  0.1184000E+00
        -11   -1    0    0    0    0  0.00000000000E+00  0.00000000000E+00  0.45593999997E+02  0.45594000000E+02  0.51100000000E-03 0. -1.
         11   -1    0    0    0    0 -0.00000000000E+00 -0.00000000000E+00 -0.45593999997E+02  0.45594000000E+02  0.51100000000E-03 0.  1.
         23    2    1    2    0    0  0.71054273576E-14  0.17763568394E-14  0.00000000000E+00  0.91188000000E+02  0.91188000000E+02 0.  0.
    9900012    2    3    3    0    0 -0.31214163282E+02 -0.13147095595E+02 -0.27137668851E+02  0.47787272095E+02  0.20000004791E+02 0.  0.
         12    1    3    3    0    0  0.31214163282E+02  0.13147095595E+02  0.27137668851E+02  0.43400727905E+02  0.00000000000E+00 0. -1.
         11    1    4    4    0    0 -0.85657682829E+01 -0.83406765973E+01 -0.85408729341E+01  0.14693052206E+02  0.51100000000E-03 0. -1.
        -11    1    4    4    0    0 -0.24622378158E+02 -0.52027929703E+01 -0.18159693243E+02  0.31033933360E+02  0.51100000000E-03 0.  1.
        -12    1    4    4    0    0  0.19739831587E+01  0.39637397231E+00 -0.43710267380E+00  0.20602865297E+01  0.00000000000E+00 0.  1.
</event>
<event>
 8    1  0.2994958E-010  0.9118800E+02  0.7816164E-02  0.1184000E+00
        -11   -1    0    0    0    0  0.00000000000E+00  0.00000000000E+00  0.45593999997E+02  0.45594000000E+02  0.51100000000E-03 0. -1.
         11   -1    0    0    0    0 -0.00000000000E+00 -0.00000000000E+00 -0.45593999997E+02  0.45594000000E+02  0.51100000000E-03 0.  1.
         23    2    1    2    0    0 -0.35527136788E-14 -0.35527136788E-14  0.35527136788E-14  0.91188000000E+02  0.91188000000E+02 0.  0.
    9900012    2    3    3    0    0  0.20206843870E+02 -0.21294822325E+02  0.31966181107E+02  0.47787277292E+02  0.20000028486E+02 0.  0.
        -12    1    3    3    0    0 -0.20206843870E+02  0.21294822325E+02 -0.31966181107E+02  0.43400722708E+02  0.00000000000E+00 0.  1.
         11    1    4    4    0    0  0.15353524484E+02 -0.64795065482E+01  0.90631676234E+01  0.18969863648E+02  0.51100000000E-03 0.  1.
        -11    1    4    4    0    0  0.32199357649E+01 -0.47792930185E+01  0.30693353112E+01  0.65291996141E+01  0.51100000000E-03 0. -1.
        -12    1    4    4    0    0  0.16333836214E+01 -0.10036022758E+02  0.19833678172E+02  0.22288214031E+02  0.00000000000E+00 0.  1.
</event>
<event>
 8    1  0.2994958E-010  0.9118800E+02  0.7816164E-02  0.1184000E+00
        -11   -1    0    0    0    0  0.00000000000E+00  0.00000000000E+00  0.45593999997E+02  0.45594000000E+02  0.51100000000E-03 0. -1.
         11   -1    0    0    0    0 -0.00000000000E+00 -0.00000000000E+00 -0.45593999997E+02  0.45594000000E+02  0.51100000000E-03 0.  1.
         23    2    1    2    0    0  0.44408920985E-15  0.00000000000E+00  0.35527136788E-14  0.91188000000E+02  0.91188000000E+02 0.  0.
    9900012    2    3    3    0    0  0.34189279689E+01  0.33639501354E+02 -0.27208788857E+02  0.47787270618E+02  0.19999998056E+02 0.  0.
         12    1    3    3    0    0 -0.34189279689E+01 -0.33639501354E+02  0.27208788857E+02  0.43400729382E+02  0.00000000000E+00 0. -1.
         11    1    4    4    0    0  0.38811642267E+01  0.35527083120E+02 -0.24294030613E+02  0.43213851882E+02  0.51100000000E-03 0.  1.
        -11    1    4    4    0    0  0.34276274038E+00 -0.17460067190E+00  0.52290450270E+00  0.64915411952E+00  0.51100000000E-03 0. -1.
        -12    1    4    4    0    0 -0.80499899813E+00 -0.17129810943E+01 -0.34376627476E+01  0.39242646168E+01  0.00000000000E+00 0.  1.
</event>
<event>
 8    1  0.2994958E-010  0.9118800E+02  0.7816164E-02  0.1184000E+00
        -11   -1    0    0    0    0  0.00000000000E+00  0.00000000000E+00  0.45593999997E+02  0.45594000000E+02  0.51100000000E-03 0. -1.
         11   -1    0    0    0    0 -0.00000000000E+00 -0.00000000000E+00 -0.45593999997E+02  0.45594000000E+02  0.51100000000E-03 0.  1.
         23    2    1    2    0    0  0.00000000000E+00  0.35527136788E-14  0.00000000000E+00  0.91188000000E+02  0.91188000000E+02 0.  0.
    9900012    2    3    3    0    0  0.81437160701E+01 -0.26097681973E+02  0.33707774709E+02  0.47787271992E+02  0.20000004320E+02 0.  0.
        -12    1    3    3    0    0 -0.81437160701E+01  0.26097681973E+02 -0.33707774709E+02  0.43400728008E+02  0.00000000000E+00 0.  1.
         11    1    4    4    0    0 -0.37056273882E+01 -0.80673648246E+01  0.13759850027E+02  0.16375210612E+02  0.51100000000E-03 0. -1.
        -11    1    4    4    0    0  0.85857596590E+00 -0.50123721727E+00 -0.13779288995E+01  0.16991408860E+01  0.51100000000E-03 0.  1.
         12    1    4    4    0    0  0.10990767492E+02 -0.17529079931E+02  0.21325853582E+02  0.29712920494E+02  0.00000000000E+00 0. -1.
</event>
<event>
 8    1  0.2994958E-010  0.9118800E+02  0.7816164E-02  0.1184000E+00
        -11   -1    0    0    0    0  0.00000000000E+00  0.00000000000E+00  0.45593999997E+02  0.45594000000E+02  0.51100000000E-03 0. -1.
         11   -1    0    0    0    0 -0.00000000000E+00 -0.00000000000E+00 -0.45593999997E+02  0.45594000000E+02  0.51100000000E-03 0.  1.
         23    2    1    2    0    0  0.00000000000E+00  0.17763568394E-14  0.00000000000E+00  0.91188000000E+02  0.91188000000E+02 0.  0.
    9900012    2    3    3    0    0 -0.58589082133E+01 -0.10590135534E+02 -0.41679073236E+02  0.47787275100E+02  0.20000018490E+02 0.  0.
         12    1    3    3    0    0  0.58589082133E+01  0.10590135534E+02  0.41679073236E+02  0.43400724900E+02  0.00000000000E+00 0. -1.
         11    1    4    4    0    0 -0.85422762847E+00 -0.59250087557E+01 -0.95437578342E+01  0.11265822094E+02  0.51100000000E-03 0.  1.
        -11    1    4    4    0    0  0.18641886098E+01 -0.89993449325E+01 -0.15803408333E+02  0.18281442054E+02  0.51100000000E-03 0. -1.
         12    1    4    4    0    0 -0.68688691946E+01  0.43342181538E+01 -0.16331907069E+02  0.18240010952E+02  0.00000000000E+00 0. -1.
</event>
<event>
 8    1  0.2994958E-010  0.9118800E+02  0.7816164E-02  0.1184000E+00
        -11   -1    0    0    0    0  0.00000000000E+00  0.00000000000E+00  0.45593999997E+02  0.45594000000E+02  0.51100000000E-03 0.  1.
         11   -1    0    0    0    0 -0.00000000000E+00 -0.00000000000E+00 -0.45593999997E+02  0.45594000000E+02  0.51100000000E-03 0. -1.
         23    2    1    2    0    0  0.35527136788E-14  0.00000000000E+00  0.17763568394E-14  0.91188000000E+02  0.91188000000E+02 0.  0.
    9900012    2    3    3    0    0  0.24172910898E+02 -0.35166169516E+02  0.79141800265E+01  0.47787270222E+02  0.19999996251E+02 0.  0.
        -12    1    3    3    0    0 -0.24172910898E+02  0.35166169516E+02 -0.79141800265E+01  0.43400729778E+02  0.00000000000E+00 0.  1.
         11    1    4    4    0    0  0.14973483586E+02 -0.10440672421E+02  0.75560057586E+01  0.19756165483E+02  0.51100000000E-03 0. -1.
        -11    1    4    4    0    0  0.51989748613E+01 -0.31957417296E+01 -0.43839388247E+00  0.61183571543E+01  0.51100000000E-03 0.  1.
        -12    1    4    4    0    0  0.40004524513E+01 -0.21529755365E+02  0.79656815041E+00  0.21912747585E+02  0.00000000000E+00 0.  1.
</event>
<event>
 8    1  0.2994958E-010  0.9118800E+02  0.7816164E-02  0.1184000E+00
        -11   -1    0    0    0    0  0.00000000000E+00  0.00000000000E+00  0.45593999997E+02  0.45594000000E+02  0.51100000000E-03 0. -1.
         11   -1    0    0    0    0 -0.00000000000E+00 -0.00000000000E+00 -0.45593999997E+02  0.45594000000E+02  0.51100000000E-03 0.  1.
         23    2    1    2    0    0  0.00000000000E+00  0.00000000000E+00  0.00000000000E+00  0.91188000000E+02  0.91188000000E+02 0.  0.
    9900012    2    3    3    0    0 -0.11134371184E+02  0.38006379075E+02 -0.17752848780E+02  0.47787277519E+02  0.20000029521E+02 0.  0.
         12    1    3    3    0    0  0.11134371184E+02 -0.38006379075E+02  0.17752848780E+02  0.43400722481E+02  0.00000000000E+00 0. -1.
         11    1    4    4    0    0  0.53754435450E+00 -0.15436095503E+00 -0.15637977982E+01  0.16607965114E+01  0.51100000000E-03 0. -1.
        -11    1    4    4    0    0 -0.15161026552E+02  0.22541318592E+02 -0.10900420164E+02  0.29270922944E+02  0.51100000000E-03 0.  1.
        -12    1    4    4    0    0  0.34891110130E+01  0.15619421438E+02 -0.52886308176E+01  0.16855558064E+02  0.00000000000E+00 0.  1.
</event>
<event>
 8    1  0.2994958E-010  0.9118800E+02  0.7816164E-02  0.1184000E+00
        -11   -1    0    0    0    0  0.00000000000E+00  0.00000000000E+00  0.45593999997E+02  0.45594000000E+02  0.51100000000E-03 0. -1.
         11   -1    0    0    0    0 -0.00000000000E+00 -0.00000000000E+00 -0.45593999997E+02  0.45594000000E+02  0.51100000000E-03 0.  1.
         23    2    1    2    0    0  0.00000000000E+00  0.17763568394E-14  0.00000000000E+00  0.91188000000E+02  0.91188000000E+02 0.  0.
    9900012    2    3    3    0    0 -0.41157809231E+02  0.96874878794E+01  0.97882913694E+01  0.47787270397E+02  0.19999997048E+02 0.  0.
        -12    1    3    3    0    0  0.41157809231E+02 -0.96874878794E+01 -0.97882913694E+01  0.43400729603E+02  0.00000000000E+00 0.  1.
         11    1    4    4    0    0 -0.92731894636E+01 -0.26263417860E+01  0.10246626494E+01  0.96922467886E+01  0.51100000000E-03 0. -1.
        -11    1    4    4    0    0 -0.37107334368E+01 -0.14212138625E+01  0.52074847221E+01  0.65503655527E+01  0.51100000000E-03 0.  1.
        -12    1    4    4    0    0 -0.28173886331E+02  0.13735043528E+02  0.35561439979E+01  0.31544658056E+02  0.00000000000E+00 0.  1.
</event>
<event>
 8    1  0.2994958E-010  0.9118800E+02  0.7816164E-02  0.1184000E+00
        -11   -1    0    0    0    0  0.00000000000E+00  0.00000000000E+00  0.45593999997E+02  0.45594000000E+02  0.51100000000E-03 0. -1.
         11   -1    0    0    0    0 -0.00000000000E+00 -0.00000000000E+00 -0.45593999997E+02  0.45594000000E+02  0.51100000000E-03 0.  1.
         23    2    1    2    0    0  0.00000000000E+00  0.71054273576E-14  0.00000000000E+00  0.91188000000E+02  0.91188000000E+02 0.  0.
    9900012    2    3    3    0    0 -0.77871206772E+01 -0.41629811067E+02  0.94838228993E+01  0.47787270574E+02  0.19999997856E+02 0.  0.
        -12    1    3    3    0    0  0.77871206772E+01  0.41629811067E+02 -0.94838228993E+01  0.43400729426E+02  0.00000000000E+00 0.  1.
         11    1    4    4    0    0 -0.18236812560E+00 -0.10390873149E+02  0.52114651501E+01  0.11625956830E+02  0.51100000000E-03 0. -1.
        -11    1    4    4    0    0  0.47481409670E+01 -0.11243995235E+02  0.32749234746E+01  0.12637143487E+02  0.51100000000E-03 0.  1.
         12    1    4    4    0    0 -0.12352893519E+02 -0.19994942682E+02  0.99743427466E+00  0.23524170257E+02  0.00000000000E+00 0. -1.
</event>
<event>
 8    1  0.2994958E-010  0.9118800E+02  0.7816164E-02  0.1184000E+00
        -11   -1    0    0    0    0  0.00000000000E+00  0.00000000000E+00  0.45593999997E+02  0.45594000000E+02  0.51100000000E-03 0. -1.
         11   -1    0    0    0    0 -0.00000000000E+00 -0.00000000000E+00 -0.45593999997E+02  0.45594000000E+02  0.51100000000E-03 0.  1.
         23    2    1    2    0    0  0.88817841970E-15  0.00000000000E+00  0.00000000000E+00  0.91188000000E+02  0.91188000000E+02 0.  0.
    9900012    2    3    3    0    0 -0.38788955134E+01  0.35833400240E+02  0.24177362816E+02  0.47787271021E+02  0.19999999893E+02 0.  0.
        -12    1    3    3    0    0  0.38788955134E+01 -0.35833400240E+02 -0.24177362816E+02  0.43400728979E+02  0.00000000000E+00 0.  1.
         11    1    4    4    0    0  0.20831132681E+01  0.19508475334E+02  0.13311323334E+02  0.23708886518E+02  0.51100000000E-03 0. -1.
        -11    1    4    4    0    0  0.34770357605E+01  0.79189338080E+01  0.60396565919E+01  0.10548779187E+02  0.51100000000E-03 0.  1.
         12    1    4    4    0    0 -0.94390445419E+01  0.84059910980E+01  0.48263828903E+01  0.13529605316E+02  0.00000000000E+00 0. -1.
</event>
<event>
 8    1  0.2994958E-010  0.9118800E+02  0.7816164E-02  0.1184000E+00
        -11   -1    0    0    0    0  0.00000000000E+00  0.00000000000E+00  0.45593999997E+02  0.45594000000E+02  0.51100000000E-03 0. -1.
         11   -1    0    0    0    0 -0.00000000000E+00 -0.00000000000E+00 -0.45593999997E+02  0.45594000000E+02  0.51100000000E-03 0.  1.
         23    2    1    2    0    0  0.00000000000E+00  0.00000000000E+00 -0.35527136788E-14  0.91188000000E+02  0.91188000000E+02 0.  0.
    9900012    2    3    3    0    0  0.36150150437E+01  0.33845443378E+02 -0.26926506449E+02  0.47787318890E+02  0.20000218147E+02 0.  0.
         12    1    3    3    0    0 -0.36150150437E+01 -0.33845443378E+02  0.26926506449E+02  0.43400681110E+02  0.00000000000E+00 0. -1.
         11    1    4    4    0    0 -0.48446621910E+00  0.62695830899E+01 -0.47272883417E+00  0.63060171623E+01  0.51100000000E-03 0. -1.
        -11    1    4    4    0    0 -0.50115816616E+01  0.35977390264E+01 -0.66849786033E+01  0.90966266297E+01  0.51100000000E-03 0.  1.
        -12    1    4    4    0    0  0.91110629243E+01  0.23978121262E+02 -0.19768799012E+02  0.32384675098E+02  0.00000000000E+00 0.  1.
</event>
<event>
 8    1  0.2994958E-010  0.9118800E+02  0.7816164E-02  0.1184000E+00
        -11   -1    0    0    0    0  0.00000000000E+00  0.00000000000E+00  0.45593999997E+02  0.45594000000E+02  0.51100000000E-03 0.  1.
         11   -1    0    0    0    0 -0.00000000000E+00 -0.00000000000E+00 -0.45593999997E+02  0.45594000000E+02  0.51100000000E-03 0. -1.
         23    2    1    2    0    0  0.17763568394E-14 -0.35527136788E-14  0.00000000000E+00  0.91188000000E+02  0.91188000000E+02 0.  0.
    9900012    2    3    3    0    0  0.10897531559E+02  0.30894054815E+02  0.28467954062E+02  0.47787271602E+02  0.20000002543E+02 0.  0.
        -12    1    3    3    0    0 -0.10897531559E+02 -0.30894054815E+02 -0.28467954062E+02  0.43400728398E+02  0.00000000000E+00 0.  1.
         11    1    4    4    0    0  0.11777330847E+02  0.22100175260E+02  0.14942017460E+02  0.29161398362E+02  0.51100000000E-03 0. -1.
        -11    1    4    4    0    0  0.31719802613E+01  0.40699248766E+00  0.53463296111E+01  0.62297947185E+01  0.51100000000E-03 0.  1.
        -12    1    4    4    0    0 -0.40517795490E+01  0.83868870673E+01  0.81796069906E+01  0.12396078522E+02  0.00000000000E+00 0.  1.
</event>
<event>
 8    1  0.2994958E-010  0.9118800E+02  0.7816164E-02  0.1184000E+00
        -11   -1    0    0    0    0  0.00000000000E+00  0.00000000000E+00  0.45593999997E+02  0.45594000000E+02  0.51100000000E-03 0. -1.
         11   -1    0    0    0    0 -0.00000000000E+00 -0.00000000000E+00 -0.45593999997E+02  0.45594000000E+02  0.51100000000E-03 0.  1.
         23    2    1    2    0    0  0.00000000000E+00  0.00000000000E+00  0.00000000000E+00  0.91188000000E+02  0.91188000000E+02 0.  0.
    9900012    2    3    3    0    0 -0.11400608038E+02  0.45040126018E+01 -0.41633678526E+02  0.47787272118E+02  0.20000004893E+02 0.  0.
         12    1    3    3    0    0  0.11400608038E+02 -0.45040126018E+01  0.41633678526E+02  0.43400727882E+02  0.00000000000E+00 0. -1.
         11    1    4    4    0    0  0.15093138856E+01  0.60267860679E+01 -0.19975191942E+02  0.20919093482E+02  0.51100000000E-03 0. -1.
        -11    1    4    4    0    0 -0.11179594634E+02  0.91793380602E+00 -0.20994939247E+02  0.23803642850E+02  0.51100000000E-03 0.  1.
        -12    1    4    4    0    0 -0.17303272890E+01 -0.24407072721E+01 -0.66354733609E+00  0.30645357858E+01  0.00000000000E+00 0.  1.
</event>
<event>
 8    1  0.2994958E-010  0.9118800E+02  0.7816164E-02  0.1184000E+00
        -11   -1    0    0    0    0  0.00000000000E+00  0.00000000000E+00  0.45593999997E+02  0.45594000000E+02  0.51100000000E-03 0. -1.
         11   -1    0    0    0    0 -0.00000000000E+00 -0.00000000000E+00 -0.45593999997E+02  0.45594000000E+02  0.51100000000E-03 0.  1.
         23    2    1    2    0    0  0.17763568394E-14  0.00000000000E+00  0.00000000000E+00  0.91188000000E+02  0.91188000000E+02 0.  0.
    9900012    2    3    3    0    0  0.13285579204E+02  0.31063857674E+02 -0.27242502943E+02  0.47787264580E+02  0.19999970528E+02 0.  0.
         12    1    3    3    0    0 -0.13285579204E+02 -0.31063857674E+02  0.27242502943E+02  0.43400735420E+02  0.00000000000E+00 0. -1.
         11    1    4    4    0    0  0.62584739177E+01  0.54997142319E-02 -0.24356105336E+01  0.67157073312E+01  0.51100000000E-03 0. -1.
        -11    1    4    4    0    0  0.42704501364E+00  0.32091479366E+01 -0.60215100407E+01  0.68366352363E+01  0.51100000000E-03 0.  1.
         12    1    4    4    0    0  0.66000602730E+01  0.27849210023E+02 -0.18785382369E+02  0.34234922013E+02  0.00000000000E+00 0. -1.
</event>
<event>
 8    1  0.2994958E-010  0.9118800E+02  0.7816164E-02  0.1184000E+00
        -11   -1    0    0    0    0  0.00000000000E+00  0.00000000000E+00  0.45593999997E+02  0.45594000000E+02  0.51100000000E-03 0. -1.
         11   -1    0    0    0    0 -0.00000000000E+00 -0.00000000000E+00 -0.45593999997E+02  0.45594000000E+02  0.51100000000E-03 0.  1.
         23    2    1    2    0    0  0.17763568394E-14  0.00000000000E+00  0.00000000000E+00  0.91188000000E+02  0.91188000000E+02 0.  0.
    9900012    2    3    3    0    0 -0.13491685278E+02  0.10934723909E+02  0.39774739276E+02  0.47787266791E+02  0.19999980607E+02 0.  0.
        -12    1    3    3    0    0  0.13491685278E+02 -0.10934723909E+02 -0.39774739276E+02  0.43400733209E+02  0.00000000000E+00 0.  1.
         11    1    4    4    0    0 -0.25732969893E+01  0.10716484845E+02  0.16645529070E+02  0.19963430144E+02  0.51100000000E-03 0. -1.
        -11    1    4    4    0    0 -0.55604940435E+01  0.54679688698E+01  0.97486648172E+01  0.12484159705E+02  0.51100000000E-03 0.  1.
         12    1    4    4    0    0 -0.53578942457E+01 -0.52497298061E+01  0.13380545389E+02  0.15339676942E+02  0.00000000000E+00 0. -1.
</event>
<event>
 8    1  0.2994958E-010  0.9118800E+02  0.7816164E-02  0.1184000E+00
        -11   -1    0    0    0    0  0.00000000000E+00  0.00000000000E+00  0.45593999997E+02  0.45594000000E+02  0.51100000000E-03 0.  1.
         11   -1    0    0    0    0 -0.00000000000E+00 -0.00000000000E+00 -0.45593999997E+02  0.45594000000E+02  0.51100000000E-03 0. -1.
         23    2    1    2    0    0 -0.35527136788E-14  0.00000000000E+00  0.00000000000E+00  0.91188000000E+02  0.91188000000E+02 0.  0.
    9900012    2    3    3    0    0 -0.28535953198E+02  0.21873119479E+02 -0.24308215717E+02  0.47787270375E+02  0.19999996949E+02 0.  0.
         12    1    3    3    0    0  0.28535953198E+02 -0.21873119479E+02  0.24308215717E+02  0.43400729625E+02  0.00000000000E+00 0. -1.
         11    1    4    4    0    0 -0.12161685077E+01 -0.22112409682E+01 -0.34727096485E+01  0.42928271596E+01  0.51100000000E-03 0. -1.
        -11    1    4    4    0    0 -0.69431365128E+01  0.52644574509E+00 -0.48367352394E+01  0.84781069700E+01  0.51100000000E-03 0.  1.
         12    1    4    4    0    0 -0.20376648177E+02  0.23557914702E+02 -0.15998770829E+02  0.35016336246E+02  0.00000000000E+00 0. -1.
</event>
<event>
 8    1  0.2994958E-010  0.9118800E+02  0.7816164E-02  0.1184000E+00
        -11   -1    0    0    0    0  0.00000000000E+00  0.00000000000E+00  0.45593999997E+02  0.45594000000E+02  0.51100000000E-03 0. -1.
         11   -1    0    0    0    0 -0.00000000000E+00 -0.00000000000E+00 -0.45593999997E+02  0.45594000000E+02  0.51100000000E-03 0.  1.
         23    2    1    2    0    0  0.00000000000E+00  0.00000000000E+00  0.35527136788E-14  0.91188000000E+02  0.91188000000E+02 0.  0.
    9900012    2    3    3    0    0 -0.57984344678E+01 -0.38481276468E+02  0.19214393651E+02  0.47787269542E+02  0.19999993150E+02 0.  0.
        -12    1    3    3    0    0  0.57984344678E+01  0.38481276468E+02 -0.19214393651E+02  0.43400730458E+02  0.00000000000E+00 0.  1.
         11    1    4    4    0    0 -0.31350984583E+01 -0.16990934260E+02  0.48214197015E+01  0.17937858779E+02  0.51100000000E-03 0. -1.
        -11    1    4    4    0    0  0.55945373460E+01 -0.10397240606E+02  0.37151003555E+01  0.12377537366E+02  0.51100000000E-03 0.  1.
         12    1    4    4    0    0 -0.82578733555E+01 -0.11093101602E+02  0.10677873594E+02  0.17471873397E+02  0.00000000000E+00 0. -1.
</event>
<event>
 8    1  0.2994958E-010  0.9118800E+02  0.7816164E-02  0.1184000E+00
        -11   -1    0    0    0    0  0.00000000000E+00  0.00000000000E+00  0.45593999997E+02  0.45594000000E+02  0.51100000000E-03 0. -1.
         11   -1    0    0    0    0 -0.00000000000E+00 -0.00000000000E+00 -0.45593999997E+02  0.45594000000E+02  0.51100000000E-03 0.  1.
         23    2    1    2    0    0 -0.17763568394E-14  0.00000000000E+00  0.00000000000E+00  0.91188000000E+02  0.91188000000E+02 0.  0.
    9900012    2    3    3    0    0 -0.15636476607E+02  0.24763436640E+02 -0.32029610804E+02  0.47787272320E+02  0.20000005815E+02 0.  0.
         12    1    3    3    0    0  0.15636476607E+02 -0.24763436640E+02  0.32029610804E+02  0.43400727680E+02  0.00000000000E+00 0. -1.
         11    1    4    4    0    0  0.67685405175E+00  0.74138710959E+01 -0.45861781690E+01  0.87439491360E+01  0.51100000000E-03 0. -1.
        -11    1    4    4    0    0 -0.40560575180E+00  0.10342525071E+02 -0.11241223257E+02  0.15280623071E+02  0.51100000000E-03 0.  1.
         12    1    4    4    0    0 -0.15907724907E+02  0.70070404732E+01 -0.16202209378E+02  0.23762700113E+02  0.00000000000E+00 0. -1.
</event>
<event>
 8    1  0.2994958E-010  0.9118800E+02  0.7816164E-02  0.1184000E+00
        -11   -1    0    0    0    0  0.00000000000E+00  0.00000000000E+00  0.45593999997E+02  0.45594000000E+02  0.51100000000E-03 0. -1.
         11   -1    0    0    0    0 -0.00000000000E+00 -0.00000000000E+00 -0.45593999997E+02  0.45594000000E+02  0.51100000000E-03 0.  1.
         23    2    1    2    0    0  0.35527136788E-14  0.44408920985E-15  0.00000000000E+00  0.91188000000E+02  0.91188000000E+02 0.  0.
    9900012    2    3    3    0    0  0.26404655589E+02  0.14070602282E+01 -0.34415658657E+02  0.47787271711E+02  0.20000003038E+02 0.  0.
         12    1    3    3    0    0 -0.26404655589E+02 -0.14070602282E+01  0.34415658657E+02  0.43400728289E+02  0.00000000000E+00 0. -1.
         11    1    4    4    0    0  0.84373061091E+01 -0.73904266556E+01 -0.86611474390E+01  0.14171168468E+02  0.51100000000E-03 0. -1.
        -11    1    4    4    0    0  0.67656689843E+01 -0.71583357192E+00 -0.97334221574E+01  0.11875445325E+02  0.51100000000E-03 0.  1.
        -12    1    4    4    0    0  0.11201680496E+02  0.95133204557E+01 -0.16021089060E+02  0.21740657918E+02  0.00000000000E+00 0.  1.
</event>
<event>
 8    1  0.2994958E-010  0.9118800E+02  0.7816164E-02  0.1184000E+00
        -11   -1    0    0    0    0  0.00000000000E+00  0.00000000000E+00  0.45593999997E+02  0.45594000000E+02  0.51100000000E-03 0. -1.
         11   -1    0    0    0    0 -0.00000000000E+00 -0.00000000000E+00 -0.45593999997E+02  0.45594000000E+02  0.51100000000E-03 0.  1.
         23    2    1    2    0    0  0.00000000000E+00  0.00000000000E+00  0.00000000000E+00  0.91188000000E+02  0.91188000000E+02 0.  0.
    9900012    2    3    3    0    0  0.18165129242E+02 -0.30314563341E+02 -0.25192829736E+02  0.47787270271E+02  0.19999996474E+02 0.  0.
         12    1    3    3    0    0 -0.18165129242E+02  0.30314563341E+02  0.25192829736E+02  0.43400729729E+02  0.00000000000E+00 0. -1.
         11    1    4    4    0    0  0.36424922565E+01 -0.18653854158E+01  0.11438170443E+01  0.42492034877E+01  0.51100000000E-03 0. -1.
        -11    1    4    4    0    0 -0.25317837878E+01 -0.33195220030E+01 -0.20492243383E+01  0.46506425499E+01  0.51100000000E-03 0.  1.
        -12    1    4    4    0    0  0.17054420773E+02 -0.25129655922E+02 -0.24287422442E+02  0.38887424234E+02  0.00000000000E+00 0.  1.
</event>
<event>
 8    1  0.2994958E-010  0.9118800E+02  0.7816164E-02  0.1184000E+00
        -11   -1    0    0    0    0  0.00000000000E+00  0.00000000000E+00  0.45593999997E+02  0.45594000000E+02  0.51100000000E-03 0. -1.
         11   -1    0    0    0    0 -0.00000000000E+00 -0.00000000000E+00 -0.45593999997E+02  0.45594000000E+02  0.51100000000E-03 0.  1.
         23    2    1    2    0    0 -0.71054273576E-14  0.00000000000E+00  0.00000000000E+00  0.91188000000E+02  0.91188000000E+02 0.  0.
    9900012    2    3    3    0    0 -0.41064202062E+02  0.70686093829E+01 -0.12140425052E+02  0.47787264406E+02  0.19999969735E+02 0.  0.
         12    1    3    3    0    0  0.41064202062E+02 -0.70686093829E+01  0.12140425052E+02  0.43400735594E+02  0.00000000000E+00 0. -1.
         11    1    4    4    0    0 -0.16742899961E+02 -0.13370229897E+01 -0.12825634308E+01  0.16845097174E+02  0.51100000000E-03 0.  1.
        -11    1    4    4    0    0 -0.49113634798E+01  0.19920028634E+01  0.31460240821E+01  0.61633622662E+01  0.51100000000E-03 0. -1.
        -12    1    4    4    0    0 -0.19409938622E+02  0.64136295092E+01 -0.14003885704E+02  0.24778804967E+02  0.00000000000E+00 0.  1.
</event>
<event>
 8    1  0.2994958E-010  0.9118800E+02  0.7816164E-02  0.1184000E+00
        -11   -1    0    0    0    0  0.00000000000E+00  0.00000000000E+00  0.45593999997E+02  0.45594000000E+02  0.51100000000E-03 0. -1.
         11   -1    0    0    0    0 -0.00000000000E+00 -0.00000000000E+00 -0.45593999997E+02  0.45594000000E+02  0.51100000000E-03 0.  1.
         23    2    1    2    0    0  0.35527136788E-14  0.00000000000E+00  0.00000000000E+00  0.91188000000E+02  0.91188000000E+02 0.  0.
    9900012    2    3    3    0    0 -0.22003217894E+02  0.33535761894E+01  0.37259028825E+02  0.47787270744E+02  0.19999998631E+02 0.  0.
        -12    1    3    3    0    0  0.22003217894E+02 -0.33535761894E+01 -0.37259028825E+02  0.43400729256E+02  0.00000000000E+00 0.  1.
         11    1    4    4    0    0 -0.15668921563E+02  0.59570897810E+01  0.14874666488E+02  0.22411107179E+02  0.51100000000E-03 0. -1.
        -11    1    4    4    0    0 -0.10717746550E+01 -0.54394762081E+01  0.14176860768E+02  0.15222351455E+02  0.51100000000E-03 0.  1.
        -12    1    4    4    0    0 -0.52625216763E+01  0.28359626165E+01  0.82075015696E+01  0.10153812110E+02  0.00000000000E+00 0.  1.
</event>
<event>
 8    1  0.2994958E-010  0.9118800E+02  0.7816164E-02  0.1184000E+00
        -11   -1    0    0    0    0  0.00000000000E+00  0.00000000000E+00  0.45593999997E+02  0.45594000000E+02  0.51100000000E-03 0. -1.
         11   -1    0    0    0    0 -0.00000000000E+00 -0.00000000000E+00 -0.45593999997E+02  0.45594000000E+02  0.51100000000E-03 0.  1.
         23    2    1    2    0    0  0.00000000000E+00  0.00000000000E+00  0.00000000000E+00  0.91188000000E+02  0.91188000000E+02 0.  0.
    9900012    2    3    3    0    0  0.22296228732E+02  0.14353637642E+02 -0.34358040661E+02  0.47787266282E+02  0.19999978286E+02 0.  0.
         12    1    3    3    0    0 -0.22296228732E+02 -0.14353637642E+02  0.34358040661E+02  0.43400733718E+02  0.00000000000E+00 0. -1.
         11    1    4    4    0    0  0.13078388117E+01 -0.23065909437E+01 -0.57499940358E-01  0.26521897826E+01  0.51100000000E-03 0. -1.
        -11    1    4    4    0    0  0.65123911581E+01  0.33203291928E+01 -0.24827107949E+01  0.77200827520E+01  0.51100000000E-03 0.  1.
         12    1    4    4    0    0  0.14475998762E+02  0.13339899393E+02 -0.31817829925E+02  0.37414993747E+02  0.00000000000E+00 0. -1.
</event>
<event>
 8    1  0.2994958E-010  0.9118800E+02  0.7816164E-02  0.1184000E+00
        -11   -1    0    0    0    0  0.00000000000E+00  0.00000000000E+00  0.45593999997E+02  0.45594000000E+02  0.51100000000E-03 0.  1.
         11   -1    0    0    0    0 -0.00000000000E+00 -0.00000000000E+00 -0.45593999997E+02  0.45594000000E+02  0.51100000000E-03 0. -1.
         23    2    1    2    0    0  0.00000000000E+00 -0.35527136788E-14  0.71054273576E-14  0.91188000000E+02  0.91188000000E+02 0.  0.
    9900012    2    3    3    0    0 -0.98636130008E+01  0.26655165297E+02 -0.32799916261E+02  0.47787271836E+02  0.20000003608E+02 0.  0.
         12    1    3    3    0    0  0.98636130008E+01 -0.26655165297E+02  0.32799916261E+02  0.43400728164E+02  0.00000000000E+00 0. -1.
         11    1    4    4    0    0  0.10807855999E+01  0.11775319531E+02 -0.14983878685E+02  0.19087767504E+02  0.51100000000E-03 0. -1.
        -11    1    4    4    0    0 -0.26392677739E+01 -0.22460204782E+01 -0.28429357194E+01  0.44824799092E+01  0.51100000000E-03 0.  1.
         12    1    4    4    0    0 -0.83051308267E+01  0.17125866244E+02 -0.14973101857E+02  0.24217024422E+02  0.00000000000E+00 0. -1.
</event>
<event>
 8    1  0.2994958E-010  0.9118800E+02  0.7816164E-02  0.1184000E+00
        -11   -1    0    0    0    0  0.00000000000E+00  0.00000000000E+00  0.45593999997E+02  0.45594000000E+02  0.51100000000E-03 0. -1.
         11   -1    0    0    0    0 -0.00000000000E+00 -0.00000000000E+00 -0.45593999997E+02  0.45594000000E+02  0.51100000000E-03 0.  1.
         23    2    1    2    0    0  0.00000000000E+00  0.44408920985E-15  0.00000000000E+00  0.91188000000E+02  0.91188000000E+02 0.  0.
    9900012    2    3    3    0    0  0.32872596417E+01 -0.21546872217E+01 -0.43222386761E+02  0.47787268781E+02  0.19999989682E+02 0.  0.
         12    1    3    3    0    0 -0.32872596417E+01  0.21546872217E+01  0.43222386761E+02  0.43400731219E+02  0.00000000000E+00 0. -1.
         11    1    4    4    0    0  0.50114047529E+01 -0.48995155809E+01 -0.13220457955E+02  0.14963286381E+02  0.51100000000E-03 0. -1.
        -11    1    4    4    0    0 -0.28595416166E+01 -0.38365477245E+01 -0.21428598604E+02  0.21956341114E+02  0.51100000000E-03 0.  1.
         12    1    4    4    0    0  0.11353965054E+01  0.65813760837E+01 -0.85733302014E+01  0.10867641286E+02  0.00000000000E+00 0. -1.
</event>
<event>
 8    1  0.2994958E-010  0.9118800E+02  0.7816164E-02  0.1184000E+00
        -11   -1    0    0    0    0  0.00000000000E+00  0.00000000000E+00  0.45593999997E+02  0.45594000000E+02  0.51100000000E-03 0. -1.
         11   -1    0    0    0    0 -0.00000000000E+00 -0.00000000000E+00 -0.45593999997E+02  0.45594000000E+02  0.51100000000E-03 0.  1.
         23    2    1    2    0    0 -0.88817841970E-15  0.88817841970E-15  0.00000000000E+00  0.91188000000E+02  0.91188000000E+02 0.  0.
    9900012    2    3    3    0    0  0.76855143190E+01  0.29631064994E+01 -0.42611925446E+02  0.47787270505E+02  0.19999997541E+02 0.  0.
         12    1    3    3    0    0 -0.76855143190E+01 -0.29631064994E+01  0.42611925446E+02  0.43400729495E+02  0.00000000000E+00 0. -1.
         11    1    4    4    0    0  0.48242665289E+01 -0.41883331193E+01 -0.19626702868E+02  0.20640328185E+02  0.51100000000E-03 0. -1.
        -11    1    4    4    0    0 -0.31940545444E+01 -0.16533678433E+01 -0.41509743074E+01  0.54923763181E+01  0.51100000000E-03 0.  1.
         12    1    4    4    0    0  0.60553023345E+01  0.88048074620E+01 -0.18834248271E+02  0.21654566002E+02  0.00000000000E+00 0. -1.
</event>
<event>
 8    1  0.2994958E-010  0.9118800E+02  0.7816164E-02  0.1184000E+00
        -11   -1    0    0    0    0  0.00000000000E+00  0.00000000000E+00  0.45593999997E+02  0.45594000000E+02  0.51100000000E-03 0. -1.
         11   -1    0    0    0    0 -0.00000000000E+00 -0.00000000000E+00 -0.45593999997E+02  0.45594000000E+02  0.51100000000E-03 0.  1.
         23    2    1    2    0    0  0.00000000000E+00  0.00000000000E+00  0.00000000000E+00  0.91188000000E+02  0.91188000000E+02 0.  0.
    9900012    2    3    3    0    0  0.14818432970E+02  0.89117874763E+01 -0.39807242741E+02  0.47787280117E+02  0.20000041364E+02 0.  0.
         12    1    3    3    0    0 -0.14818432970E+02 -0.89117874763E+01  0.39807242741E+02  0.43400719883E+02  0.00000000000E+00 0. -1.
         11    1    4    4    0    0  0.34301989743E+00 -0.29134941654E+01 -0.93026161179E+01  0.97542184617E+01  0.51100000000E-03 0. -1.
        -11    1    4    4    0    0  0.51535481370E+01 -0.22985403074E+01 -0.58371427927E+01  0.81187795997E+01  0.51100000000E-03 0.  1.
        -12    1    4    4    0    0  0.93218649357E+01  0.14123821949E+02 -0.24667483831E+02  0.29914282055E+02  0.00000000000E+00 0.  1.
</event>
<event>
 8    1  0.2994958E-010  0.9118800E+02  0.7816164E-02  0.1184000E+00
        -11   -1    0    0    0    0  0.00000000000E+00  0.00000000000E+00  0.45593999997E+02  0.45594000000E+02  0.51100000000E-03 0. -1.
         11   -1    0    0    0    0 -0.00000000000E+00 -0.00000000000E+00 -0.45593999997E+02  0.45594000000E+02  0.51100000000E-03 0.  1.
         23    2    1    2    0    0  0.88817841970E-15  0.44408920985E-15  0.00000000000E+00  0.91188000000E+02  0.91188000000E+02 0.  0.
    9900012    2    3    3    0    0  0.57413894404E+01 -0.27369912728E+01 -0.42932138184E+02  0.47787272322E+02  0.20000005824E+02 0.  0.
         12    1    3    3    0    0 -0.57413894404E+01  0.27369912728E+01  0.42932138184E+02  0.43400727678E+02  0.00000000000E+00 0. -1.
         11    1    4    4    0    0  0.73451659373E+01  0.60123472032E+00 -0.62354245276E+01  0.96536762498E+01  0.51100000000E-03 0. -1.
        -11    1    4    4    0    0  0.30517724092E+01  0.13602270995E+01 -0.17847360171E+02  0.18157417160E+02  0.51100000000E-03 0.  1.
         12    1    4    4    0    0 -0.46555489061E+01 -0.46984530926E+01 -0.18849353486E+02  0.19976178912E+02  0.00000000000E+00 0. -1.
</event>
<event>
 8    1  0.2994958E-010  0.9118800E+02  0.7816164E-02  0.1184000E+00
        -11   -1    0    0    0    0  0.00000000000E+00  0.00000000000E+00  0.45593999997E+02  0.45594000000E+02  0.51100000000E-03 0. -1.
         11   -1    0    0    0    0 -0.00000000000E+00 -0.00000000000E+00 -0.45593999997E+02  0.45594000000E+02  0.51100000000E-03 0.  1.
         23    2    1    2    0    0  0.00000000000E+00  0.44408920985E-15  0.00000000000E+00  0.91188000000E+02  0.91188000000E+02 0.  0.
    9900012    2    3    3    0    0  0.62927290689E+01 -0.98490728983E+00 -0.42930813968E+02  0.47787271096E+02  0.20000000233E+02 0.  0.
         12    1    3    3    0    0 -0.62927290689E+01  0.98490728983E+00  0.42930813968E+02  0.43400728904E+02  0.00000000000E+00 0. -1.
         11    1    4    4    0    0  0.19393606931E+01 -0.48748376005E+01 -0.87713679512E+01  0.10220668155E+02  0.51100000000E-03 0.  1.
        -11    1    4    4    0    0 -0.17560331504E+01  0.12740844321E+01 -0.29184286284E+02  0.29264816926E+02  0.51100000000E-03 0. -1.
         12    1    4    4    0    0  0.61094015261E+01  0.26158458786E+01 -0.49751597326E+01  0.83017860146E+01  0.00000000000E+00 0. -1.
</event>
<event>
 8    1  0.2994958E-010  0.9118800E+02  0.7816164E-02  0.1184000E+00
        -11   -1    0    0    0    0  0.00000000000E+00  0.00000000000E+00  0.45593999997E+02  0.45594000000E+02  0.51100000000E-03 0.  1.
         11   -1    0    0    0    0 -0.00000000000E+00 -0.00000000000E+00 -0.45593999997E+02  0.45594000000E+02  0.51100000000E-03 0. -1.
         23    2    1    2    0    0 -0.17763568394E-14  0.00000000000E+00  0.00000000000E+00  0.91188000000E+02  0.91188000000E+02 0.  0.
    9900012    2    3    3    0    0  0.96459706201E+01 -0.41663740027E+02 -0.73966303441E+01  0.47787284307E+02  0.20000060468E+02 0.  0.
         12    1    3    3    0    0 -0.96459706201E+01  0.41663740027E+02  0.73966303441E+01  0.43400715693E+02  0.00000000000E+00 0. -1.
         11    1    4    4    0    0 -0.33135894102E+01 -0.54469459519E+01  0.85195139369E+00  0.64323336683E+01  0.51100000000E-03 0. -1.
        -11    1    4    4    0    0  0.98835042236E+01 -0.34082034060E+02 -0.40297983912E+01  0.35714254531E+02  0.51100000000E-03 0.  1.
         12    1    4    4    0    0  0.30760558066E+01 -0.21347600152E+01 -0.42187833466E+01  0.56406961072E+01  0.00000000000E+00 0. -1.
</event>
<event>
 8    1  0.2994958E-010  0.9118800E+02  0.7816164E-02  0.1184000E+00
        -11   -1    0    0    0    0  0.00000000000E+00  0.00000000000E+00  0.45593999997E+02  0.45594000000E+02  0.51100000000E-03 0. -1.
         11   -1    0    0    0    0 -0.00000000000E+00 -0.00000000000E+00 -0.45593999997E+02  0.45594000000E+02  0.51100000000E-03 0.  1.
         23    2    1    2    0    0 -0.35527136788E-14 -0.88817841970E-15  0.71054273576E-14  0.91188000000E+02  0.91188000000E+02 0.  0.
    9900012    2    3    3    0    0  0.13155859559E+02 -0.54649900595E+01 -0.40996109732E+02  0.47787265326E+02  0.19999973928E+02 0.  0.
         12    1    3    3    0    0 -0.13155859559E+02  0.54649900595E+01  0.40996109732E+02  0.43400734674E+02  0.00000000000E+00 0. -1.
         11    1    4    4    0    0  0.78162032433E+01  0.23029689060E+01 -0.15875981425E+02  0.17844984881E+02  0.51100000000E-03 0. -1.
        -11    1    4    4    0    0  0.44793110020E+01 -0.83385066913E-01 -0.20392854829E+02  0.20879169247E+02  0.51100000000E-03 0.  1.
         12    1    4    4    0    0  0.86034531327E+00 -0.76845738986E+01 -0.47272734783E+01  0.90631111987E+01  0.00000000000E+00 0. -1.
</event>
<event>
 8    1  0.2994958E-010  0.9118800E+02  0.7816164E-02  0.1184000E+00
        -11   -1    0    0    0    0  0.00000000000E+00  0.00000000000E+00  0.45593999997E+02  0.45594000000E+02  0.51100000000E-03 0. -1.
         11   -1    0    0    0    0 -0.00000000000E+00 -0.00000000000E+00 -0.45593999997E+02  0.45594000000E+02  0.51100000000E-03 0.  1.
         23    2    1    2    0    0  0.00000000000E+00  0.00000000000E+00 -0.17763568394E-14  0.91188000000E+02  0.91188000000E+02 0.  0.
    9900012    2    3    3    0    0 -0.28504773226E+01 -0.42305928107E+02  0.92577872436E+01  0.47787269608E+02  0.19999993449E+02 0.  0.
        -12    1    3    3    0    0  0.28504773226E+01  0.42305928107E+02 -0.92577872436E+01  0.43400730392E+02  0.00000000000E+00 0.  1.
         11    1    4    4    0    0 -0.35579441471E+00 -0.25237278719E+02  0.31488365607E+01  0.25435447682E+02  0.51100000000E-03 0. -1.
        -11    1    4    4    0    0 -0.13971087261E+01 -0.66671542309E+01 -0.39216324283E+01  0.78601564549E+01  0.51100000000E-03 0.  1.
         12    1    4    4    0    0 -0.10975741819E+01 -0.10401495156E+02  0.10030583111E+02  0.14491665471E+02  0.00000000000E+00 0. -1.
</event>
<event>
 8    1  0.2994958E-010  0.9118800E+02  0.7816164E-02  0.1184000E+00
        -11   -1    0    0    0    0  0.00000000000E+00  0.00000000000E+00  0.45593999997E+02  0.45594000000E+02  0.51100000000E-03 0. -1.
         11   -1    0    0    0    0 -0.00000000000E+00 -0.00000000000E+00 -0.45593999997E+02  0.45594000000E+02  0.51100000000E-03 0.  1.
         23    2    1    2    0    0  0.00000000000E+00 -0.17763568394E-14  0.00000000000E+00  0.91188000000E+02  0.91188000000E+02 0.  0.
    9900012    2    3    3    0    0  0.32404863462E+02  0.15122417102E+02 -0.24593916674E+02  0.47787269449E+02  0.19999992726E+02 0.  0.
         12    1    3    3    0    0 -0.32404863462E+02 -0.15122417102E+02  0.24593916674E+02  0.43400730551E+02  0.00000000000E+00 0. -1.
         11    1    4    4    0    0  0.41973416344E+01  0.15872672748E+01 -0.32133294040E+01  0.55192916500E+01  0.51100000000E-03 0. -1.
        -11    1    4    4    0    0  0.29312569732E+02  0.75539868088E+01 -0.16538938645E+02  0.34493853840E+02  0.51100000000E-03 0.  1.
         12    1    4    4    0    0 -0.11050479041E+01  0.59811630181E+01 -0.48416486251E+01  0.77741239589E+01  0.00000000000E+00 0. -1.
</event>
<event>
 8    1  0.2994958E-010  0.9118800E+02  0.7816164E-02  0.1184000E+00
        -11   -1    0    0    0    0  0.00000000000E+00  0.00000000000E+00  0.45593999997E+02  0.45594000000E+02  0.51100000000E-03 0. -1.
         11   -1    0    0    0    0 -0.00000000000E+00 -0.00000000000E+00 -0.45593999997E+02  0.45594000000E+02  0.51100000000E-03 0.  1.
         23    2    1    2    0    0  0.00000000000E+00  0.44408920985E-15  0.00000000000E+00  0.91188000000E+02  0.91188000000E+02 0.  0.
    9900012    2    3    3    0    0 -0.15432258612E+02 -0.25808136481E+01 -0.40482193862E+02  0.47787271609E+02  0.20000002574E+02 0.  0.
         12    1    3    3    0    0  0.15432258612E+02  0.25808136481E+01  0.40482193862E+02  0.43400728391E+02  0.00000000000E+00 0. -1.
         11    1    4    4    0    0  0.14060729362E+01 -0.97816299932E+00 -0.22407137639E+01  0.28203975585E+01  0.51100000000E-03 0. -1.
        -11    1    4    4    0    0 -0.92295958535E+01  0.69558092561E+01 -0.13980514089E+02  0.18139004837E+02  0.51100000000E-03 0.  1.
        -12    1    4    4    0    0 -0.76087356948E+01 -0.85584599049E+01 -0.24260966010E+02  0.26827869214E+02  0.00000000000E+00 0.  1.
</event>
<event>
 8    1  0.2994958E-010  0.9118800E+02  0.7816164E-02  0.1184000E+00
        -11   -1    0    0    0    0  0.00000000000E+00  0.00000000000E+00  0.45593999997E+02  0.45594000000E+02  0.51100000000E-03 0. -1.
         11   -1    0    0    0    0 -0.00000000000E+00 -0.00000000000E+00 -0.45593999997E+02  0.45594000000E+02  0.51100000000E-03 0.  1.
         23    2    1    2    0    0  0.00000000000E+00  0.00000000000E+00  0.00000000000E+00  0.91188000000E+02  0.91188000000E+02 0.  0.
    9900012    2    3    3    0    0 -0.22539011724E+02  0.34855369696E+02 -0.12677520141E+02  0.47787270017E+02  0.19999995315E+02 0.  0.
         12    1    3    3    0    0  0.22539011724E+02 -0.34855369696E+02  0.12677520141E+02  0.43400729983E+02  0.00000000000E+00 0. -1.
         11    1    4    4    0    0 -0.69748352018E+01  0.15344361033E+01 -0.32909642201E+01  0.78634131270E+01  0.51100000000E-03 0. -1.
        -11    1    4    4    0    0 -0.15337466238E+02  0.19857062828E+02 -0.39392335704E+01  0.25397999451E+02  0.51100000000E-03 0.  1.
         12    1    4    4    0    0 -0.22671028413E+00  0.13463870765E+02 -0.54473223503E+01  0.14525857438E+02  0.00000000000E+00 0. -1.
</event>
<event>
 8    1  0.2994958E-010  0.9118800E+02  0.7816164E-02  0.1184000E+00
        -11   -1    0    0    0    0  0.00000000000E+00  0.00000000000E+00  0.45593999997E+02  0.45594000000E+02  0.51100000000E-03 0. -1.
         11   -1    0    0    0    0 -0.00000000000E+00 -0.00000000000E+00 -0.45593999997E+02  0.45594000000E+02  0.51100000000E-03 0.  1.
         23    2    1    2    0    0  0.00000000000E+00  0.00000000000E+00  0.00000000000E+00  0.91188000000E+02  0.91188000000E+02 0.  0.
    9900012    2    3    3    0    0 -0.14058342711E+02 -0.38810224995E+02 -0.13407207441E+02  0.47787265268E+02  0.19999973662E+02 0.  0.
         12    1    3    3    0    0  0.14058342711E+02  0.38810224995E+02  0.13407207441E+02  0.43400734732E+02  0.00000000000E+00 0. -1.
         11    1    4    4    0    0  0.31835694411E+00 -0.15503648056E+01 -0.39483468078E+01  0.42537542183E+01  0.51100000000E-03 0. -1.
        -11    1    4    4    0    0 -0.26301025535E+00 -0.10030185335E+02 -0.79935108351E+01  0.12828484243E+02  0.51100000000E-03 0.  1.
         12    1    4    4    0    0 -0.14113689399E+02 -0.27229674854E+02 -0.14653497985E+01  0.30705026806E+02  0.00000000000E+00 0. -1.
</event>
<event>
 8    1  0.2994958E-010  0.9118800E+02  0.7816164E-02  0.1184000E+00
        -11   -1    0    0    0    0  0.00000000000E+00  0.00000000000E+00  0.45593999997E+02  0.45594000000E+02  0.51100000000E-03 0. -1.
         11   -1    0    0    0    0 -0.00000000000E+00 -0.00000000000E+00 -0.45593999997E+02  0.45594000000E+02  0.51100000000E-03 0.  1.
         23    2    1    2    0    0 -0.35527136788E-14  0.35527136788E-14 -0.71054273576E-14  0.91188000000E+02  0.91188000000E+02 0.  0.
    9900012    2    3    3    0    0  0.20230276284E+02 -0.17002330766E+02  0.34427892624E+02  0.47787272811E+02  0.20000008055E+02 0.  0.
        -12    1    3    3    0    0 -0.20230276284E+02  0.17002330766E+02 -0.34427892624E+02  0.43400727189E+02  0.00000000000E+00 0.  1.
         11    1    4    4    0    0  0.46098583883E+01 -0.57152687390E+01  0.94048055464E+01  0.11931699743E+02  0.51100000000E-03 0. -1.
        -11    1    4    4    0    0  0.98001924168E+01 -0.14012548006E+01  0.19530712445E+01  0.10090677577E+02  0.51100000000E-03 0.  1.
         12    1    4    4    0    0  0.58202254788E+01 -0.98858072262E+01  0.23070015833E+02  0.25764895491E+02  0.00000000000E+00 0. -1.
</event>
<event>
 8    1  0.2994958E-010  0.9118800E+02  0.7816164E-02  0.1184000E+00
        -11   -1    0    0    0    0  0.00000000000E+00  0.00000000000E+00  0.45593999997E+02  0.45594000000E+02  0.51100000000E-03 0. -1.
         11   -1    0    0    0    0 -0.00000000000E+00 -0.00000000000E+00 -0.45593999997E+02  0.45594000000E+02  0.51100000000E-03 0.  1.
         23    2    1    2    0    0  0.00000000000E+00 -0.66613381478E-15  0.35527136788E-14  0.91188000000E+02  0.91188000000E+02 0.  0.
    9900012    2    3    3    0    0  0.29577617337E+02 -0.10578453231E+01  0.31743798022E+02  0.47787271931E+02  0.20000004043E+02 0.  0.
        -12    1    3    3    0    0 -0.29577617337E+02  0.10578453231E+01 -0.31743798022E+02  0.43400728069E+02  0.00000000000E+00 0.  1.
         11    1    4    4    0    0  0.54066580319E+01 -0.73874250268E+01  0.56240993262E+01  0.10744137615E+02  0.51100000000E-03 0. -1.
        -11    1    4    4    0    0  0.81382310777E+00  0.10519693927E+01 -0.32359656713E+00  0.13688179766E+01  0.51100000000E-03 0.  1.
        -12    1    4    4    0    0  0.23357136197E+02  0.52776103110E+01  0.26443295263E+02  0.35674316339E+02  0.00000000000E+00 0.  1.
</event>
<event>
 8    1  0.2994958E-010  0.9118800E+02  0.7816164E-02  0.1184000E+00
        -11   -1    0    0    0    0  0.00000000000E+00  0.00000000000E+00  0.45593999997E+02  0.45594000000E+02  0.51100000000E-03 0. -1.
         11   -1    0    0    0    0 -0.00000000000E+00 -0.00000000000E+00 -0.45593999997E+02  0.45594000000E+02  0.51100000000E-03 0.  1.
         23    2    1    2    0    0  0.71054273576E-14  0.17763568394E-14  0.44408920985E-15  0.91188000000E+02  0.91188000000E+02 0.  0.
    9900012    2    3    3    0    0 -0.41109874536E+02 -0.13407570445E+02 -0.37200265951E+01  0.47787270427E+02  0.19999997186E+02 0.  0.
         12    1    3    3    0    0  0.41109874536E+02  0.13407570445E+02  0.37200265951E+01  0.43400729573E+02  0.00000000000E+00 0. -1.
         11    1    4    4    0    0 -0.20690628696E+02 -0.63436419117E+01  0.72667063001E+00  0.21653451434E+02  0.51100000000E-03 0. -1.
        -11    1    4    4    0    0 -0.88715153829E+01 -0.72896213862E-01  0.44913465898E+01  0.99439073557E+01  0.51100000000E-03 0.  1.
         12    1    4    4    0    0 -0.11547730457E+02 -0.69910323191E+01 -0.89380438150E+01  0.16189911638E+02  0.00000000000E+00 0. -1.
</event>
<event>
 8    1  0.2994958E-010  0.9118800E+02  0.7816164E-02  0.1184000E+00
        -11   -1    0    0    0    0  0.00000000000E+00  0.00000000000E+00  0.45593999997E+02  0.45594000000E+02  0.51100000000E-03 0. -1.
         11   -1    0    0    0    0 -0.00000000000E+00 -0.00000000000E+00 -0.45593999997E+02  0.45594000000E+02  0.51100000000E-03 0.  1.
         23    2    1    2    0    0  0.00000000000E+00 -0.27755575616E-16  0.00000000000E+00  0.91188000000E+02  0.91188000000E+02 0.  0.
    9900012    2    3    3    0    0 -0.26498023611E+02 -0.10049278351E+00 -0.34372485800E+02  0.47787272654E+02  0.20000007340E+02 0.  0.
         12    1    3    3    0    0  0.26498023611E+02  0.10049278351E+00  0.34372485800E+02  0.43400727346E+02  0.00000000000E+00 0. -1.
         11    1    4    4    0    0 -0.54004477853E+01  0.46677688472E+01 -0.99111438254E+01  0.12214076898E+02  0.51100000000E-03 0. -1.
        -11    1    4    4    0    0  0.20137109697E+01 -0.57809646086E+00 -0.35659866396E+01  0.41358781852E+01  0.51100000000E-03 0.  1.
        -12    1    4    4    0    0 -0.23111286795E+02 -0.41901651698E+01 -0.20895355335E+02  0.31437317571E+02  0.00000000000E+00 0.  1.
</event>
<event>
 8    1  0.2994958E-010  0.9118800E+02  0.7816164E-02  0.1184000E+00
        -11   -1    0    0    0    0  0.00000000000E+00  0.00000000000E+00  0.45593999997E+02  0.45594000000E+02  0.51100000000E-03 0. -1.
         11   -1    0    0    0    0 -0.00000000000E+00 -0.00000000000E+00 -0.45593999997E+02  0.45594000000E+02  0.51100000000E-03 0.  1.
         23    2    1    2    0    0  0.00000000000E+00 -0.44408920985E-15  0.22204460493E-15  0.91188000000E+02  0.91188000000E+02 0.  0.
    9900012    2    3    3    0    0  0.43368461361E+02  0.10838128870E+01 -0.12749924575E+01  0.47787266170E+02  0.19999977774E+02 0.  0.
        -12    1    3    3    0    0 -0.43368461361E+02 -0.10838128870E+01  0.12749924575E+01  0.43400733830E+02  0.00000000000E+00 0.  1.
         11    1    4    4    0    0  0.19738574893E+02 -0.78732961066E+00  0.11408182349E+01  0.19787185076E+02  0.51100000000E-03 0. -1.
        -11    1    4    4    0    0  0.21384626873E+02  0.47707010840E+01 -0.61593414795E+01  0.22759598921E+02  0.51100000000E-03 0.  1.
         12    1    4    4    0    0  0.22452595951E+01 -0.28995585863E+01  0.37435307871E+01  0.52404821723E+01  0.00000000000E+00 0. -1.
</event>
<event>
 8    1  0.2994958E-010  0.9118800E+02  0.7816164E-02  0.1184000E+00
        -11   -1    0    0    0    0  0.00000000000E+00  0.00000000000E+00  0.45593999997E+02  0.45594000000E+02  0.51100000000E-03 0. -1.
         11   -1    0    0    0    0 -0.00000000000E+00 -0.00000000000E+00 -0.45593999997E+02  0.45594000000E+02  0.51100000000E-03 0.  1.
         23    2    1    2    0    0  0.00000000000E+00  0.00000000000E+00  0.44408920985E-15  0.91188000000E+02  0.91188000000E+02 0.  0.
    9900012    2    3    3    0    0 -0.42146857838E+02 -0.99740268229E+01 -0.27900703091E+01  0.47787270409E+02  0.19999997104E+02 0.  0.
        -12    1    3    3    0    0  0.42146857838E+02  0.99740268229E+01  0.27900703091E+01  0.43400729591E+02  0.00000000000E+00 0.  1.
         11    1    4    4    0    0 -0.12281705211E+02 -0.85274809617E+01  0.33371558921E+01  0.15319752744E+02  0.51100000000E-03 0. -1.
        -11    1    4    4    0    0  0.82790250824E+00 -0.84799540437E+00 -0.24317637665E+00  0.12098155976E+01  0.51100000000E-03 0.  1.
        -12    1    4    4    0    0 -0.30693055136E+02 -0.59855045681E+00 -0.58840498245E+01  0.31257702068E+02  0.00000000000E+00 0.  1.
</event>
<event>
 8    1  0.2994958E-010  0.9118800E+02  0.7816164E-02  0.1184000E+00
        -11   -1    0    0    0    0  0.00000000000E+00  0.00000000000E+00  0.45593999997E+02  0.45594000000E+02  0.51100000000E-03 0.  1.
         11   -1    0    0    0    0 -0.00000000000E+00 -0.00000000000E+00 -0.45593999997E+02  0.45594000000E+02  0.51100000000E-03 0. -1.
         23    2    1    2    0    0  0.00000000000E+00  0.00000000000E+00  0.00000000000E+00  0.91188000000E+02  0.91188000000E+02 0.  0.
    9900012    2    3    3    0    0 -0.18703450180E+02 -0.32045370891E+02 -0.22514406106E+02  0.47787270438E+02  0.19999997237E+02 0.  0.
         12    1    3    3    0    0  0.18703450180E+02  0.32045370891E+02  0.22514406106E+02  0.43400729562E+02  0.00000000000E+00 0. -1.
         11    1    4    4    0    0 -0.10174275037E+02 -0.20873632309E+02 -0.73229266214E+01  0.24348504119E+02  0.51100000000E-03 0.  1.
        -11    1    4    4    0    0 -0.31686476804E+01 -0.45009968035E+01 -0.13683603094E+02  0.14749247244E+02  0.51100000000E-03 0. -1.
         12    1    4    4    0    0 -0.53605274622E+01 -0.66707417787E+01 -0.15078763901E+01  0.86895190753E+01  0.00000000000E+00 0. -1.
</event>
<event>
 8    1  0.2994958E-010  0.9118800E+02  0.7816164E-02  0.1184000E+00
        -11   -1    0    0    0    0  0.00000000000E+00  0.00000000000E+00  0.45593999997E+02  0.45594000000E+02  0.51100000000E-03 0. -1.
         11   -1    0    0    0    0 -0.00000000000E+00 -0.00000000000E+00 -0.45593999997E+02  0.45594000000E+02  0.51100000000E-03 0.  1.
         23    2    1    2    0    0 -0.35527136788E-14  0.00000000000E+00  0.00000000000E+00  0.91188000000E+02  0.91188000000E+02 0.  0.
    9900012    2    3    3    0    0  0.31121332740E+02 -0.37272985310E+01  0.30019892860E+02  0.47787261836E+02  0.19999958014E+02 0.  0.
        -12    1    3    3    0    0 -0.31121332740E+02  0.37272985310E+01 -0.30019892860E+02  0.43400738164E+02  0.00000000000E+00 0.  1.
         11    1    4    4    0    0  0.79783763747E+01 -0.75696364496E+00  0.19334684518E+02  0.20929823439E+02  0.51100000000E-03 0. -1.
        -11    1    4    4    0    0  0.28315205962E+01  0.13133920436E+01  0.39489406591E+01  0.50335514438E+01  0.51100000000E-03 0.  1.
        -12    1    4    4    0    0  0.20311435770E+02 -0.42837269296E+01  0.67362676834E+01  0.21823886953E+02  0.00000000000E+00 0.  1.
</event>
<event>
 8    1  0.3631799E-010  0.9118800E+02  0.7816164E-02  0.1184000E+00
        -11   -1    0    0    0    0  0.00000000000E+00  0.00000000000E+00  0.45593999997E+02  0.45594000000E+02  0.51100000000E-03 0. -1.
         11   -1    0    0    0    0 -0.00000000000E+00 -0.00000000000E+00 -0.45593999997E+02  0.45594000000E+02  0.51100000000E-03 0.  1.
         23    2    1    2    0    0 -0.35527136788E-14  0.35527136788E-14  0.00000000000E+00  0.91188000000E+02  0.91188000000E+02 0.  0.
    9900012    2    3    3    0    0  0.17694653085E+02 -0.20224393489E+02  0.34080727573E+02  0.47787276138E+02  0.20000023225E+02 0.  0.
        -12    1    3    3    0    0 -0.17694653085E+02  0.20224393489E+02 -0.34080727573E+02  0.43400723862E+02  0.00000000000E+00 0.  1.
         11    1    4    4    0    0  0.29950464785E+01  0.14442221289E+01  0.29984718765E+01  0.44773781191E+01  0.51100000000E-03 0. -1.
        -11    1    4    4    0    0 -0.28023139566E+01 -0.39128155816E+01  0.26474202965E+01  0.54928975755E+01  0.51100000000E-03 0.  1.
         12    1    4    4    0    0  0.17501920563E+02 -0.17755800037E+02  0.28434835400E+02  0.37817000444E+02  0.00000000000E+00 0. -1.
</event>
<event>
 8    1  0.2994958E-010  0.9118800E+02  0.7816164E-02  0.1184000E+00
        -11   -1    0    0    0    0  0.00000000000E+00  0.00000000000E+00  0.45593999997E+02  0.45594000000E+02  0.51100000000E-03 0. -1.
         11   -1    0    0    0    0 -0.00000000000E+00 -0.00000000000E+00 -0.45593999997E+02  0.45594000000E+02  0.51100000000E-03 0.  1.
         23    2    1    2    0    0  0.00000000000E+00  0.17763568394E-14 -0.71054273576E-14  0.91188000000E+02  0.91188000000E+02 0.  0.
    9900012    2    3    3    0    0 -0.98836466512E+01  0.87695587150E+01  0.41340438499E+02  0.47787268595E+02  0.19999988833E+02 0.  0.
        -12    1    3    3    0    0  0.98836466512E+01 -0.87695587150E+01 -0.41340438499E+02  0.43400731405E+02  0.00000000000E+00 0.  1.
         11    1    4    4    0    0 -0.74874872448E+01 -0.31720777454E+00  0.21350294287E+02  0.22627376172E+02  0.51100000000E-03 0. -1.
        -11    1    4    4    0    0 -0.62377255061E+01  0.43558728819E+01  0.53466301775E+01  0.92988871683E+01  0.51100000000E-03 0.  1.
         12    1    4    4    0    0  0.38415660998E+01  0.47308936077E+01  0.14643514034E+02  0.15861005255E+02  0.00000000000E+00 0. -1.
</event>
<event>
 8    1  0.2994958E-010  0.9118800E+02  0.7816164E-02  0.1184000E+00
        -11   -1    0    0    0    0  0.00000000000E+00  0.00000000000E+00  0.45593999997E+02  0.45594000000E+02  0.51100000000E-03 0. -1.
         11   -1    0    0    0    0 -0.00000000000E+00 -0.00000000000E+00 -0.45593999997E+02  0.45594000000E+02  0.51100000000E-03 0.  1.
         23    2    1    2    0    0 -0.44408920985E-15  0.44408920985E-15  0.00000000000E+00  0.91188000000E+02  0.91188000000E+02 0.  0.
    9900012    2    3    3    0    0  0.39850247033E+01 -0.25713712705E+01  0.43140824090E+02  0.47787273332E+02  0.20000010432E+02 0.  0.
        -12    1    3    3    0    0 -0.39850247033E+01  0.25713712705E+01 -0.43140824090E+02  0.43400726668E+02  0.00000000000E+00 0.  1.
         11    1    4    4    0    0 -0.13355325040E+00  0.26181245760E+01  0.57992681048E+01  0.63642692887E+01  0.51100000000E-03 0. -1.
        -11    1    4    4    0    0  0.11155171020E+00 -0.74170218795E+01  0.35838833792E+02  0.36598451678E+02  0.51100000000E-03 0.  1.
        -12    1    4    4    0    0  0.40070262435E+01  0.22275260331E+01  0.15027221930E+01  0.48245523661E+01  0.00000000000E+00 0.  1.
</event>
<event>
 8    1  0.2994958E-010  0.9118800E+02  0.7816164E-02  0.1184000E+00
        -11   -1    0    0    0    0  0.00000000000E+00  0.00000000000E+00  0.45593999997E+02  0.45594000000E+02  0.51100000000E-03 0. -1.
         11   -1    0    0    0    0 -0.00000000000E+00 -0.00000000000E+00 -0.45593999997E+02  0.45594000000E+02  0.51100000000E-03 0.  1.
         23    2    1    2    0    0  0.00000000000E+00  0.17763568394E-14  0.00000000000E+00  0.91188000000E+02  0.91188000000E+02 0.  0.
    9900012    2    3    3    0    0 -0.63643839997E+01 -0.96887280417E+01  0.41823985600E+02  0.47787278736E+02  0.20000035067E+02 0.  0.
        -12    1    3    3    0    0  0.63643839997E+01  0.96887280417E+01 -0.41823985600E+02  0.43400721264E+02  0.00000000000E+00 0.  1.
         11    1    4    4    0    0 -0.33644886579E+01 -0.73983881632E+01  0.77226644085E+01  0.11211399430E+02  0.51100000000E-03 0. -1.
        -11    1    4    4    0    0  0.30315006747E+01  0.32897585873E+01  0.74834570445E+01  0.87186373649E+01  0.51100000000E-03 0.  1.
         12    1    4    4    0    0 -0.60313960165E+01 -0.55800984658E+01  0.26617864147E+02  0.27857241941E+02  0.00000000000E+00 0. -1.
</event>
<event>
 8    1  0.2994958E-010  0.9118800E+02  0.7816164E-02  0.1184000E+00
        -11   -1    0    0    0    0  0.00000000000E+00  0.00000000000E+00  0.45593999997E+02  0.45594000000E+02  0.51100000000E-03 0. -1.
         11   -1    0    0    0    0 -0.00000000000E+00 -0.00000000000E+00 -0.45593999997E+02  0.45594000000E+02  0.51100000000E-03 0.  1.
         23    2    1    2    0    0 -0.71054273576E-14 -0.17763568394E-14 -0.35527136788E-14  0.91188000000E+02  0.91188000000E+02 0.  0.
    9900012    2    3    3    0    0  0.28100830855E+02  0.11409891180E+02  0.31044815389E+02  0.47787275651E+02  0.20000021005E+02 0.  0.
        -12    1    3    3    0    0 -0.28100830855E+02 -0.11409891180E+02 -0.31044815389E+02  0.43400724349E+02  0.00000000000E+00 0.  1.
         11    1    4    4    0    0  0.16225215186E+02  0.38997187397E+01  0.26486148550E+02  0.31304655874E+02  0.51100000000E-03 0. -1.
        -11    1    4    4    0    0  0.98584023776E+01  0.33574113192E+01  0.54899697767E+01  0.11772853376E+02  0.51100000000E-03 0.  1.
        -12    1    4    4    0    0  0.20172132913E+01  0.41527611215E+01 -0.93130293858E+00  0.47097664016E+01  0.00000000000E+00 0.  1.
</event>
<event>
 8    1  0.2994958E-010  0.9118800E+02  0.7816164E-02  0.1184000E+00
        -11   -1    0    0    0    0  0.00000000000E+00  0.00000000000E+00  0.45593999997E+02  0.45594000000E+02  0.51100000000E-03 0. -1.
         11   -1    0    0    0    0 -0.00000000000E+00 -0.00000000000E+00 -0.45593999997E+02  0.45594000000E+02  0.51100000000E-03 0.  1.
         23    2    1    2    0    0 -0.17763568394E-14 -0.88817841970E-15  0.00000000000E+00  0.91188000000E+02  0.91188000000E+02 0.  0.
    9900012    2    3    3    0    0  0.11111918481E+02  0.68890654453E+01 -0.41384645534E+02  0.47787276031E+02  0.20000022736E+02 0.  0.
         12    1    3    3    0    0 -0.11111918481E+02 -0.68890654453E+01  0.41384645534E+02  0.43400723969E+02  0.00000000000E+00 0. -1.
         11    1    4    4    0    0 -0.94771444688E+00  0.38078308227E+01 -0.61384404949E+00  0.39717178935E+01  0.51100000000E-03 0. -1.
        -11    1    4    4    0    0  0.12684611038E+01  0.46898912587E+01 -0.16601191748E+02  0.17297503904E+02  0.51100000000E-03 0.  1.
         12    1    4    4    0    0  0.10791171824E+02 -0.16086566361E+01 -0.24169609737E+02  0.26518054234E+02  0.00000000000E+00 0. -1.
</event>
<event>
 8    1  0.2994958E-010  0.9118800E+02  0.7816164E-02  0.1184000E+00
        -11   -1    0    0    0    0  0.00000000000E+00  0.00000000000E+00  0.45593999997E+02  0.45594000000E+02  0.51100000000E-03 0. -1.
         11   -1    0    0    0    0 -0.00000000000E+00 -0.00000000000E+00 -0.45593999997E+02  0.45594000000E+02  0.51100000000E-03 0.  1.
         23    2    1    2    0    0  0.00000000000E+00  0.00000000000E+00  0.00000000000E+00  0.91188000000E+02  0.91188000000E+02 0.  0.
    9900012    2    3    3    0    0  0.40141298794E+01 -0.27991901378E+02 -0.32923600952E+02  0.47787270961E+02  0.19999999619E+02 0.  0.
         12    1    3    3    0    0 -0.40141298794E+01  0.27991901378E+02  0.32923600952E+02  0.43400729039E+02  0.00000000000E+00 0. -1.
         11    1    4    4    0    0 -0.30077605619E+01 -0.79371685316E+01 -0.41214622503E+01  0.94356620986E+01  0.51100000000E-03 0. -1.
        -11    1    4    4    0    0  0.54354656305E+01 -0.21954665542E+02 -0.24185415306E+02  0.33113229071E+02  0.51100000000E-03 0.  1.
        -12    1    4    4    0    0  0.15864248107E+01  0.18999326957E+01 -0.46167233958E+01  0.52383797916E+01  0.00000000000E+00 0.  1.
</event>
<event>
 8    1  0.2994958E-010  0.9118800E+02  0.7816164E-02  0.1184000E+00
        -11   -1    0    0    0    0  0.00000000000E+00  0.00000000000E+00  0.45593999997E+02  0.45594000000E+02  0.51100000000E-03 0. -1.
         11   -1    0    0    0    0 -0.00000000000E+00 -0.00000000000E+00 -0.45593999997E+02  0.45594000000E+02  0.51100000000E-03 0.  1.
         23    2    1    2    0    0  0.00000000000E+00  0.00000000000E+00  0.00000000000E+00  0.91188000000E+02  0.91188000000E+02 0.  0.
    9900012    2    3    3    0    0 -0.22990238587E+02 -0.16637017024E+02 -0.32837202985E+02  0.47787270678E+02  0.19999998331E+02 0.  0.
         12    1    3    3    0    0  0.22990238587E+02  0.16637017024E+02  0.32837202985E+02  0.43400729322E+02  0.00000000000E+00 0. -1.
         11    1    4    4    0    0 -0.90416616792E-01 -0.41386033651E+01 -0.32679887933E+00  0.41524704390E+01  0.51100000000E-03 0. -1.
        -11    1    4    4    0    0 -0.13306908721E+01 -0.52844009926E+01 -0.25413766986E+01  0.60128385837E+01  0.51100000000E-03 0.  1.
        -12    1    4    4    0    0 -0.21569131099E+02 -0.72140126663E+01 -0.29969027407E+02  0.37621961656E+02  0.00000000000E+00 0.  1.
</event>
<event>
 8    1  0.2994958E-010  0.9118800E+02  0.7816164E-02  0.1184000E+00
        -11   -1    0    0    0    0  0.00000000000E+00  0.00000000000E+00  0.45593999997E+02  0.45594000000E+02  0.51100000000E-03 0. -1.
         11   -1    0    0    0    0 -0.00000000000E+00 -0.00000000000E+00 -0.45593999997E+02  0.45594000000E+02  0.51100000000E-03 0.  1.
         23    2    1    2    0    0  0.00000000000E+00  0.13322676296E-14  0.00000000000E+00  0.91188000000E+02  0.91188000000E+02 0.  0.
    9900012    2    3    3    0    0  0.28264752296E+02 -0.27767846259E+01 -0.32817924307E+02  0.47787275225E+02  0.20000019060E+02 0.  0.
         12    1    3    3    0    0 -0.28264752296E+02  0.27767846259E+01  0.32817924307E+02  0.43400724775E+02  0.00000000000E+00 0. -1.
         11    1    4    4    0    0  0.60144128104E+01 -0.25317743633E+01 -0.12536138118E+02  0.14132862486E+02  0.51100000000E-03 0.  1.
        -11    1    4    4    0    0  0.53121969361E+01 -0.45250669692E+01 -0.12944542282E+02  0.14705673821E+02  0.51100000000E-03 0. -1.
         12    1    4    4    0    0  0.16938142549E+02  0.42800567067E+01 -0.73372439070E+01  0.18948738918E+02  0.00000000000E+00 0. -1.
</event>
<event>
 8    1  0.2994958E-010  0.9118800E+02  0.7816164E-02  0.1184000E+00
        -11   -1    0    0    0    0  0.00000000000E+00  0.00000000000E+00  0.45593999997E+02  0.45594000000E+02  0.51100000000E-03 0. -1.
         11   -1    0    0    0    0 -0.00000000000E+00 -0.00000000000E+00 -0.45593999997E+02  0.45594000000E+02  0.51100000000E-03 0.  1.
         23    2    1    2    0    0  0.00000000000E+00  0.00000000000E+00  0.35527136788E-14  0.91188000000E+02  0.91188000000E+02 0.  0.
    9900012    2    3    3    0    0  0.34047764824E+02 -0.11038010633E+02  0.24546597805E+02  0.47787269222E+02  0.19999991690E+02 0.  0.
        -12    1    3    3    0    0 -0.34047764824E+02  0.11038010633E+02 -0.24546597805E+02  0.43400730778E+02  0.00000000000E+00 0.  1.
         11    1    4    4    0    0  0.17292045483E+02 -0.19345702722E+01  0.13214531977E+02  0.21849056153E+02  0.51100000000E-03 0. -1.
        -11    1    4    4    0    0  0.39220274260E+01 -0.18108408047E+01  0.10267110597E+02  0.11138895987E+02  0.51100000000E-03 0.  1.
        -12    1    4    4    0    0  0.12833691915E+02 -0.72925995556E+01  0.10649552321E+01  0.14799317082E+02  0.00000000000E+00 0.  1.
</event>
<event>
 8    1  0.2994958E-010  0.9118800E+02  0.7816164E-02  0.1184000E+00
        -11   -1    0    0    0    0  0.00000000000E+00  0.00000000000E+00  0.45593999997E+02  0.45594000000E+02  0.51100000000E-03 0. -1.
         11   -1    0    0    0    0 -0.00000000000E+00 -0.00000000000E+00 -0.45593999997E+02  0.45594000000E+02  0.51100000000E-03 0.  1.
         23    2    1    2    0    0  0.00000000000E+00  0.35527136788E-14 -0.35527136788E-14  0.91188000000E+02  0.91188000000E+02 0.  0.
    9900012    2    3    3    0    0  0.23462170238E+02 -0.25855394042E+02 -0.25780775681E+02  0.47787271572E+02  0.20000002407E+02 0.  0.
         12    1    3    3    0    0 -0.23462170238E+02  0.25855394042E+02  0.25780775681E+02  0.43400728428E+02  0.00000000000E+00 0. -1.
         11    1    4    4    0    0  0.10630957141E+01  0.10423341055E+01  0.15961287618E+01  0.21827185275E+01  0.51100000000E-03 0. -1.
        -11    1    4    4    0    0  0.22283666486E+01 -0.85206241164E+01 -0.39986822228E+01  0.96724409036E+01  0.51100000000E-03 0.  1.
        -12    1    4    4    0    0  0.20170707875E+02 -0.18377104031E+02 -0.23378222220E+02  0.35932112141E+02  0.00000000000E+00 0.  1.
</event>
<event>
 8    1  0.2994958E-010  0.9118800E+02  0.7816164E-02  0.1184000E+00
        -11   -1    0    0    0    0  0.00000000000E+00  0.00000000000E+00  0.45593999997E+02  0.45594000000E+02  0.51100000000E-03 0. -1.
         11   -1    0    0    0    0 -0.00000000000E+00 -0.00000000000E+00 -0.45593999997E+02  0.45594000000E+02  0.51100000000E-03 0.  1.
         23    2    1    2    0    0  0.00000000000E+00 -0.71054273576E-14 -0.44408920985E-15  0.91188000000E+02  0.91188000000E+02 0.  0.
    9900012    2    3    3    0    0 -0.23940610336E+02 -0.35990276643E+02  0.38949185676E+01  0.47787271588E+02  0.20000002477E+02 0.  0.
        -12    1    3    3    0    0  0.23940610336E+02  0.35990276643E+02 -0.38949185676E+01  0.43400728412E+02  0.00000000000E+00 0.  1.
         11    1    4    4    0    0 -0.29630478161E+01 -0.37903320061E+01  0.34306614069E+01  0.59089514321E+01  0.51100000000E-03 0. -1.
        -11    1    4    4    0    0 -0.76778840182E+01 -0.26160769424E+02  0.60920653434E+00  0.27270989947E+02  0.51100000000E-03 0.  1.
        -12    1    4    4    0    0 -0.13299678501E+02 -0.60391752129E+01 -0.14494937368E+00  0.14607330208E+02  0.00000000000E+00 0.  1.
</event>
<event>
 8    1  0.2994958E-010  0.9118800E+02  0.7816164E-02  0.1184000E+00
        -11   -1    0    0    0    0  0.00000000000E+00  0.00000000000E+00  0.45593999997E+02  0.45594000000E+02  0.51100000000E-03 0. -1.
         11   -1    0    0    0    0 -0.00000000000E+00 -0.00000000000E+00 -0.45593999997E+02  0.45594000000E+02  0.51100000000E-03 0.  1.
         23    2    1    2    0    0  0.00000000000E+00  0.00000000000E+00  0.00000000000E+00  0.91188000000E+02  0.91188000000E+02 0.  0.
    9900012    2    3    3    0    0  0.56994138061E+01  0.26733474920E+02 -0.33711380125E+02  0.47787318566E+02  0.20000216667E+02 0.  0.
         12    1    3    3    0    0 -0.56994138061E+01 -0.26733474920E+02  0.33711380125E+02  0.43400681434E+02  0.00000000000E+00 0. -1.
         11    1    4    4    0    0 -0.20421489944E+01  0.16879325282E+02 -0.11804125712E+02  0.20698294098E+02  0.51100000000E-03 0. -1.
        -11    1    4    4    0    0  0.10026684354E+01  0.81850236776E+01 -0.15887665558E+02  0.17900219936E+02  0.51100000000E-03 0.  1.
         12    1    4    4    0    0  0.67388943650E+01  0.16691259599E+01 -0.60195888556E+01  0.91888045318E+01  0.00000000000E+00 0. -1.
</event>
<event>
 8    1  0.2994958E-010  0.9118800E+02  0.7816164E-02  0.1184000E+00
        -11   -1    0    0    0    0  0.00000000000E+00  0.00000000000E+00  0.45593999997E+02  0.45594000000E+02  0.51100000000E-03 0. -1.
         11   -1    0    0    0    0 -0.00000000000E+00 -0.00000000000E+00 -0.45593999997E+02  0.45594000000E+02  0.51100000000E-03 0.  1.
         23    2    1    2    0    0  0.13322676296E-14  0.00000000000E+00  0.00000000000E+00  0.91188000000E+02  0.91188000000E+02 0.  0.
    9900012    2    3    3    0    0  0.32366425430E+01 -0.12367149115E+02  0.41475304144E+02  0.47787273208E+02  0.20000009866E+02 0.  0.
        -12    1    3    3    0    0 -0.32366425430E+01  0.12367149115E+02 -0.41475304144E+02  0.43400726792E+02  0.00000000000E+00 0.  1.
         11    1    4    4    0    0  0.28689162760E+01  0.57148802493E+00  0.46440097239E+01  0.54885431344E+01  0.51100000000E-03 0. -1.
        -11    1    4    4    0    0  0.60157704925E+01 -0.34138712292E-01  0.16516166323E+02  0.17577667943E+02  0.51100000000E-03 0.  1.
        -12    1    4    4    0    0 -0.56480442255E+01 -0.12904498427E+02  0.20315128098E+02  0.24721062131E+02  0.00000000000E+00 0.  1.
</event>
<event>
 8    1  0.2994958E-010  0.9118800E+02  0.7816164E-02  0.1184000E+00
        -11   -1    0    0    0    0  0.00000000000E+00  0.00000000000E+00  0.45593999997E+02  0.45594000000E+02  0.51100000000E-03 0. -1.
         11   -1    0    0    0    0 -0.00000000000E+00 -0.00000000000E+00 -0.45593999997E+02  0.45594000000E+02  0.51100000000E-03 0.  1.
         23    2    1    2    0    0  0.00000000000E+00 -0.35527136788E-14  0.71054273576E-14  0.91188000000E+02  0.91188000000E+02 0.  0.
    9900012    2    3    3    0    0 -0.14889519649E+02 -0.26669421436E+02  0.30832897563E+02  0.47787269508E+02  0.19999992994E+02 0.  0.
        -12    1    3    3    0    0  0.14889519649E+02  0.26669421436E+02 -0.30832897563E+02  0.43400730492E+02  0.00000000000E+00 0.  1.
         11    1    4    4    0    0  0.57976109386E+00 -0.82465831111E+00  0.11623822724E+01  0.15386088081E+01  0.51100000000E-03 0. -1.
        -11    1    4    4    0    0 -0.16477818273E+01 -0.13924494108E+02  0.22760015081E+02  0.26732471039E+02  0.51100000000E-03 0.  1.
        -12    1    4    4    0    0 -0.13821498916E+02 -0.11920269018E+02  0.69105002098E+01  0.19516189661E+02  0.00000000000E+00 0.  1.
</event>
<event>
 8    1  0.2994958E-010  0.9118800E+02  0.7816164E-02  0.1184000E+00
        -11   -1    0    0    0    0  0.00000000000E+00  0.00000000000E+00  0.45593999997E+02  0.45594000000E+02  0.51100000000E-03 0. -1.
         11   -1    0    0    0    0 -0.00000000000E+00 -0.00000000000E+00 -0.45593999997E+02  0.45594000000E+02  0.51100000000E-03 0.  1.
         23    2    1    2    0    0  0.00000000000E+00  0.00000000000E+00  0.00000000000E+00  0.91188000000E+02  0.91188000000E+02 0.  0.
    9900012    2    3    3    0    0  0.26089085707E+02  0.25597325225E+02 -0.23404276703E+02  0.47787267060E+02  0.19999981834E+02 0.  0.
         12    1    3    3    0    0 -0.26089085707E+02 -0.25597325225E+02  0.23404276703E+02  0.43400732940E+02  0.00000000000E+00 0. -1.
         11    1    4    4    0    0  0.11886496010E+02  0.11683977711E+02 -0.25812715929E+01  0.16866152076E+02  0.51100000000E-03 0. -1.
        -11    1    4    4    0    0 -0.78303389602E+00  0.32629895524E+01 -0.30206004914E+00  0.33691962596E+01  0.51100000000E-03 0.  1.
        -12    1    4    4    0    0  0.14985623593E+02  0.10650357961E+02 -0.20520945061E+02  0.27551918724E+02  0.00000000000E+00 0.  1.
</event>
<event>
 8    1  0.2994958E-010  0.9118800E+02  0.7816164E-02  0.1184000E+00
        -11   -1    0    0    0    0  0.00000000000E+00  0.00000000000E+00  0.45593999997E+02  0.45594000000E+02  0.51100000000E-03 0.  1.
         11   -1    0    0    0    0 -0.00000000000E+00 -0.00000000000E+00 -0.45593999997E+02  0.45594000000E+02  0.51100000000E-03 0. -1.
         23    2    1    2    0    0 -0.35527136788E-14  0.00000000000E+00 -0.22204460493E-15  0.91188000000E+02  0.91188000000E+02 0.  0.
    9900012    2    3    3    0    0 -0.22491121636E+02 -0.37076409083E+02 -0.17642448084E+01  0.47787271634E+02  0.20000002689E+02 0.  0.
         12    1    3    3    0    0  0.22491121636E+02  0.37076409083E+02  0.17642448084E+01  0.43400728366E+02  0.00000000000E+00 0. -1.
         11    1    4    4    0    0 -0.63718092956E+01 -0.51348797690E+00  0.16588257627E+01  0.66041900922E+01  0.51100000000E-03 0.  1.
        -11    1    4    4    0    0 -0.29203421880E+01 -0.73390167891E+01  0.30550445195E+01  0.84689351871E+01  0.51100000000E-03 0. -1.
        -12    1    4    4    0    0 -0.13198970153E+02 -0.29223904317E+02 -0.64781150905E+01  0.32714146355E+02  0.00000000000E+00 0.  1.
</event>
<event>
 8    1  0.2994958E-010  0.9118800E+02  0.7816164E-02  0.1184000E+00
        -11   -1    0    0    0    0  0.00000000000E+00  0.00000000000E+00  0.45593999997E+02  0.45594000000E+02  0.51100000000E-03 0. -1.
         11   -1    0    0    0    0 -0.00000000000E+00 -0.00000000000E+00 -0.45593999997E+02  0.45594000000E+02  0.51100000000E-03 0.  1.
         23    2    1    2    0    0  0.00000000000E+00 -0.35527136788E-14  0.00000000000E+00  0.91188000000E+02  0.91188000000E+02 0.  0.
    9900012    2    3    3    0    0 -0.98883932990E+01  0.22211339839E+02 -0.35951347295E+02  0.47787270607E+02  0.19999998007E+02 0.  0.
         12    1    3    3    0    0  0.98883932990E+01 -0.22211339839E+02  0.35951347295E+02  0.43400729393E+02  0.00000000000E+00 0. -1.
         11    1    4    4    0    0  0.29082393714E+01  0.48394468170E+00 -0.75410941199E+01  0.80969228404E+01  0.51100000000E-03 0. -1.
        -11    1    4    4    0    0 -0.11159460261E+01  0.46816294107E+00 -0.77016653994E+01  0.77961633037E+01  0.51100000000E-03 0.  1.
         12    1    4    4    0    0 -0.11680686644E+02  0.21259232216E+02 -0.20708587776E+02  0.31894184463E+02  0.00000000000E+00 0. -1.
</event>
<event>
 8    1  0.2994958E-010  0.9118800E+02  0.7816164E-02  0.1184000E+00
        -11   -1    0    0    0    0  0.00000000000E+00  0.00000000000E+00  0.45593999997E+02  0.45594000000E+02  0.51100000000E-03 0. -1.
         11   -1    0    0    0    0 -0.00000000000E+00 -0.00000000000E+00 -0.45593999997E+02  0.45594000000E+02  0.51100000000E-03 0.  1.
         23    2    1    2    0    0  0.00000000000E+00  0.17763568394E-14  0.00000000000E+00  0.91188000000E+02  0.91188000000E+02 0.  0.
    9900012    2    3    3    0    0  0.25027503246E+01 -0.15917254988E+02  0.40298884920E+02  0.47787275451E+02  0.20000020091E+02 0.  0.
        -12    1    3    3    0    0 -0.25027503246E+01  0.15917254988E+02 -0.40298884920E+02  0.43400724549E+02  0.00000000000E+00 0.  1.
         11    1    4    4    0    0  0.57272354312E+01 -0.16096919088E+02  0.19410218971E+02  0.25858627778E+02  0.51100000000E-03 0. -1.
        -11    1    4    4    0    0  0.87347199866E+00  0.14784359699E+01  0.24267780262E+01  0.29728737106E+01  0.51100000000E-03 0.  1.
         12    1    4    4    0    0 -0.40979571053E+01 -0.12987718699E+01  0.18461887923E+02  0.18955773962E+02  0.00000000000E+00 0. -1.
</event>
<event>
 8    1  0.2994958E-010  0.9118800E+02  0.7816164E-02  0.1184000E+00
        -11   -1    0    0    0    0  0.00000000000E+00  0.00000000000E+00  0.45593999997E+02  0.45594000000E+02  0.51100000000E-03 0. -1.
         11   -1    0    0    0    0 -0.00000000000E+00 -0.00000000000E+00 -0.45593999997E+02  0.45594000000E+02  0.51100000000E-03 0.  1.
         23    2    1    2    0    0  0.17763568394E-14 -0.35527136788E-14  0.00000000000E+00  0.91188000000E+02  0.91188000000E+02 0.  0.
    9900012    2    3    3    0    0  0.13901413459E+02  0.21320714459E+02  0.35153963293E+02  0.47787270785E+02  0.19999998819E+02 0.  0.
        -12    1    3    3    0    0 -0.13901413459E+02 -0.21320714459E+02 -0.35153963293E+02  0.43400729215E+02  0.00000000000E+00 0.  1.
         11    1    4    4    0    0  0.13274241736E+02  0.14842967659E+02  0.13515732256E+02  0.24066453857E+02  0.51100000000E-03 0.  1.
        -11    1    4    4    0    0  0.28927436659E+01  0.63962642606E+01  0.12823693382E+02  0.14619414305E+02  0.51100000000E-03 0. -1.
         12    1    4    4    0    0 -0.22655719437E+01  0.81482539264E-01  0.88145376549E+01  0.91014026230E+01  0.00000000000E+00 0. -1.
</event>
<event>
 8    1  0.2994958E-010  0.9118800E+02  0.7816164E-02  0.1184000E+00
        -11   -1    0    0    0    0  0.00000000000E+00  0.00000000000E+00  0.45593999997E+02  0.45594000000E+02  0.51100000000E-03 0. -1.
         11   -1    0    0    0    0 -0.00000000000E+00 -0.00000000000E+00 -0.45593999997E+02  0.45594000000E+02  0.51100000000E-03 0.  1.
         23    2    1    2    0    0  0.17763568394E-14  0.71054273576E-14  0.35527136788E-14  0.91188000000E+02  0.91188000000E+02 0.  0.
    9900012    2    3    3    0    0  0.13791482070E+02  0.30035334800E+02  0.28130000945E+02  0.47787271119E+02  0.20000000339E+02 0.  0.
        -12    1    3    3    0    0 -0.13791482070E+02 -0.30035334800E+02 -0.28130000945E+02  0.43400728881E+02  0.00000000000E+00 0.  1.
         11    1    4    4    0    0 -0.65000546017E+00  0.41599605238E+01  0.69950180745E+01  0.81644385466E+01  0.51100000000E-03 0. -1.
        -11    1    4    4    0    0 -0.10169801073E+01 -0.16541214473E+01  0.12934445241E+01  0.23331020764E+01  0.51100000000E-03 0.  1.
         12    1    4    4    0    0  0.15458467637E+02  0.27529495724E+02  0.19841538346E+02  0.37289730496E+02  0.00000000000E+00 0. -1.
</event>
<event>
 8    1  0.2994958E-010  0.9118800E+02  0.7816164E-02  0.1184000E+00
        -11   -1    0    0    0    0  0.00000000000E+00  0.00000000000E+00  0.45593999997E+02  0.45594000000E+02  0.51100000000E-03 0. -1.
         11   -1    0    0    0    0 -0.00000000000E+00 -0.00000000000E+00 -0.45593999997E+02  0.45594000000E+02  0.51100000000E-03 0.  1.
         23    2    1    2    0    0  0.00000000000E+00  0.35527136788E-14 -0.35527136788E-14  0.91188000000E+02  0.91188000000E+02 0.  0.
    9900012    2    3    3    0    0  0.16060861968E+02  0.29749975279E+02  0.27214166323E+02  0.47787272300E+02  0.20000005723E+02 0.  0.
        -12    1    3    3    0    0 -0.16060861968E+02 -0.29749975279E+02 -0.27214166323E+02  0.43400727700E+02  0.00000000000E+00 0.  1.
         11    1    4    4    0    0  0.11104933610E+02  0.44950094023E+01  0.54715754419E+01  0.13170527632E+02  0.51100000000E-03 0. -1.
        -11    1    4    4    0    0  0.50006301069E+01  0.76341874224E+01  0.55219035607E+01  0.10666702314E+02  0.51100000000E-03 0.  1.
        -12    1    4    4    0    0 -0.44701749470E-01  0.17620778455E+02  0.16220687320E+02  0.23950042354E+02  0.00000000000E+00 0.  1.
</event>
<event>
 8    1  0.2994958E-010  0.9118800E+02  0.7816164E-02  0.1184000E+00
        -11   -1    0    0    0    0  0.00000000000E+00  0.00000000000E+00  0.45593999997E+02  0.45594000000E+02  0.51100000000E-03 0.  1.
         11   -1    0    0    0    0 -0.00000000000E+00 -0.00000000000E+00 -0.45593999997E+02  0.45594000000E+02  0.51100000000E-03 0. -1.
         23    2    1    2    0    0 -0.17763568394E-14 -0.71054273576E-14  0.72164496601E-15  0.91188000000E+02  0.91188000000E+02 0.  0.
    9900012    2    3    3    0    0  0.89770253120E+01  0.42460957035E+02 -0.32180811456E+00  0.47787269404E+02  0.19999992522E+02 0.  0.
         12    1    3    3    0    0 -0.89770253120E+01 -0.42460957035E+02  0.32180811456E+00  0.43400730596E+02  0.00000000000E+00 0. -1.
         11    1    4    4    0    0  0.79369630498E+01  0.13745961514E+02  0.61532878704E+01  0.17023800758E+02  0.51100000000E-03 0. -1.
        -11    1    4    4    0    0  0.23234776524E+01  0.19610723640E+02 -0.41608781057E+00  0.19752269728E+02  0.51100000000E-03 0.  1.
        -12    1    4    4    0    0 -0.12834153903E+01  0.91042718817E+01 -0.60590081744E+01  0.11011198918E+02  0.00000000000E+00 0.  1.
</event>
<event>
 8    1  0.2994958E-010  0.9118800E+02  0.7816164E-02  0.1184000E+00
        -11   -1    0    0    0    0  0.00000000000E+00  0.00000000000E+00  0.45593999997E+02  0.45594000000E+02  0.51100000000E-03 0. -1.
         11   -1    0    0    0    0 -0.00000000000E+00 -0.00000000000E+00 -0.45593999997E+02  0.45594000000E+02  0.51100000000E-03 0.  1.
         23    2    1    2    0    0  0.00000000000E+00  0.88817841970E-15  0.00000000000E+00  0.91188000000E+02  0.91188000000E+02 0.  0.
    9900012    2    3    3    0    0 -0.10815918229E+02  0.75349193538E+01  0.41350509982E+02  0.47787265299E+02  0.19999973805E+02 0.  0.
        -12    1    3    3    0    0  0.10815918229E+02 -0.75349193538E+01 -0.41350509982E+02  0.43400734701E+02  0.00000000000E+00 0.  1.
         11    1    4    4    0    0  0.43395489044E+00  0.38189193442E+00 -0.63796127940E-01  0.58157415999E+00  0.51100000000E-03 0. -1.
        -11    1    4    4    0    0 -0.45323794908E+01  0.34824013441E-01 -0.11967692637E+00  0.45340930061E+01  0.51100000000E-03 0.  1.
         12    1    4    4    0    0 -0.67174936288E+01  0.71182034060E+01  0.41533983036E+02  0.42671598133E+02  0.00000000000E+00 0. -1.
</event>
