<event>
 7    1  0.2395003E-008  0.4614232E+02  0.7816164E-02  0.1320468E+00
        -11   -1    0    0    0    0  0.00000000000E+00  0.00000000000E+00  0.45593999997E+02  0.45594000000E+02  0.51100000000E-03 0. -1.
         11   -1    0    0    0    0 -0.00000000000E+00 -0.00000000000E+00 -0.45593999997E+02  0.45594000000E+02  0.51100000000E-03 0.  1.
    9900012    2    1    2    0    0 -0.25558990261E+02  0.35639480206E+02 -0.10280003366E+02  0.46142323163E+02  0.10000049257E+02 0.  0.
         12    1    1    2    0    0  0.25558990261E+02 -0.35639480206E+02  0.10280003366E+02  0.45045676837E+02  0.00000000000E+00 0. -1.
         11    1    3    3    0    0 -0.44248991365E+01  0.12041916137E+02 -0.39693934921E+01  0.13429205545E+02  0.51100000000E-03 0. -1.
        -11    1    3    3    0    0 -0.35459913144E+01  0.30308905687E+01 -0.27585647988E+01  0.54194125191E+01  0.51100000000E-03 0.  1.
        -12    1    3    3    0    0 -0.17588099810E+02  0.20566673500E+02 -0.35520450751E+01  0.27293705099E+02  0.00000000000E+00 0.  1.
</event>
<event>
 7    1  0.2395003E-008  0.4614232E+02  0.7816164E-02  0.1320468E+00
        -11   -1    0    0    0    0  0.00000000000E+00  0.00000000000E+00  0.45593999997E+02  0.45594000000E+02  0.51100000000E-03 0.  1.
         11   -1    0    0    0    0 -0.00000000000E+00 -0.00000000000E+00 -0.45593999997E+02  0.45594000000E+02  0.51100000000E-03 0. -1.
    9900012    2    1    2    0    0  0.14395845970E+02  0.29199910987E+02  0.31132591973E+02  0.46142318012E+02  0.10000002285E+02 0.  0.
         12    1    1    2    0    0 -0.14395845970E+02 -0.29199910987E+02 -0.31132591973E+02  0.45045681988E+02  0.00000000000E+00 0. -1.
         11    1    3    3    0    0  0.20010465020E+01  0.33868287188E+01  0.27138090829E+01  0.47790747926E+01  0.51100000000E-03 0. -1.
        -11    1    3    3    0    0  0.56138323507E+01  0.13078682278E+02  0.78942083397E+01  0.16275305507E+02  0.51100000000E-03 0.  1.
         12    1    3    3    0    0  0.67809671169E+01  0.12734399991E+02  0.20524574550E+02  0.25087937712E+02  0.00000000000E+00 0. -1.
</event>
<event>
 7    1  0.2395003E-008  0.4614232E+02  0.7816164E-02  0.1320468E+00
        -11   -1    0    0    0    0  0.00000000000E+00  0.00000000000E+00  0.45593999997E+02  0.45594000000E+02  0.51100000000E-03 0.  1.
         11   -1    0    0    0    0 -0.00000000000E+00 -0.00000000000E+00 -0.45593999997E+02  0.45594000000E+02  0.51100000000E-03 0. -1.
    9900012    2    1    2    0    0  0.17183623525E+02  0.44532856287E+01  0.41400540360E+02  0.46142318604E+02  0.10000007685E+02 0.  0.
         12    1    1    2    0    0 -0.17183623525E+02 -0.44532856287E+01 -0.41400540360E+02  0.45045681396E+02  0.00000000000E+00 0. -1.
         11    1    3    3    0    0  0.22888748015E+01  0.21111623776E+01  0.11325218389E+02  0.11745489614E+02  0.51100000000E-03 0. -1.
        -11    1    3    3    0    0  0.15232860670E+02  0.33727436073E+01  0.27896454092E+02  0.31962909674E+02  0.51100000000E-03 0.  1.
        -12    1    3    3    0    0 -0.33811194632E+00 -0.10306203562E+01  0.21788678783E+01  0.24339193162E+01  0.00000000000E+00 0.  1.
</event>
<event>
 7    1  0.2395003E-008  0.4614232E+02  0.7816164E-02  0.1320468E+00
        -11   -1    0    0    0    0  0.00000000000E+00  0.00000000000E+00  0.45593999997E+02  0.45594000000E+02  0.51100000000E-03 0. -1.
         11   -1    0    0    0    0 -0.00000000000E+00 -0.00000000000E+00 -0.45593999997E+02  0.45594000000E+02  0.51100000000E-03 0.  1.
    9900012    2    1    2    0    0  0.42708564435E+02 -0.10518443985E+02  0.97187627626E+01  0.46142317748E+02  0.99999998784E+01 0.  0.
         12    1    1    2    0    0 -0.42708564435E+02  0.10518443985E+02 -0.97187627626E+01  0.45045682252E+02  0.00000000000E+00 0. -1.
         11    1    3    3    0    0  0.36628566399E+01  0.26965595829E+00  0.11951910664E+01  0.38623457958E+01  0.51100000000E-03 0. -1.
        -11    1    3    3    0    0  0.37202472407E+02 -0.12085490288E+02  0.76200362351E+01  0.39851574388E+02  0.51100000000E-03 0.  1.
        -12    1    3    3    0    0  0.18432353877E+01  0.12973903445E+01  0.90353546109E+00  0.24283975642E+01  0.00000000000E+00 0.  1.
</event>
<event>
 7    1  0.2395003E-008  0.4614232E+02  0.7816164E-02  0.1320468E+00
        -11   -1    0    0    0    0  0.00000000000E+00  0.00000000000E+00  0.45593999997E+02  0.45594000000E+02  0.51100000000E-03 0. -1.
         11   -1    0    0    0    0 -0.00000000000E+00 -0.00000000000E+00 -0.45593999997E+02  0.45594000000E+02  0.51100000000E-03 0.  1.
    9900012    2    1    2    0    0  0.17387082332E+02 -0.41551703740E+02 -0.50882616985E+00  0.46142316302E+02  0.99999866955E+01 0.  0.
         12    1    1    2    0    0 -0.17387082332E+02  0.41551703740E+02  0.50882616985E+00  0.45045683698E+02  0.00000000000E+00 0. -1.
         11    1    3    3    0    0  0.50676364697E+00 -0.95340859822E+01 -0.11594360677E+01  0.96176866847E+01  0.51100000000E-03 0. -1.
        -11    1    3    3    0    0  0.99720047096E+01 -0.19304066813E+02  0.27609280307E+01  0.21902296622E+02  0.51100000000E-03 0.  1.
        -12    1    3    3    0    0  0.69083139753E+01 -0.12713550945E+02 -0.21103181328E+01  0.14622332996E+02  0.00000000000E+00 0.  1.
</event>
<event>
 7    1  0.2395003E-008  0.4614232E+02  0.7816164E-02  0.1320468E+00
        -11   -1    0    0    0    0  0.00000000000E+00  0.00000000000E+00  0.45593999997E+02  0.45594000000E+02  0.51100000000E-03 0.  1.
         11   -1    0    0    0    0 -0.00000000000E+00 -0.00000000000E+00 -0.45593999997E+02  0.45594000000E+02  0.51100000000E-03 0. -1.
    9900012    2    1    2    0    0 -0.12918521095E+02 -0.27882610358E+02  0.32936077923E+02  0.46142319001E+02  0.10000011311E+02 0.  0.
         12    1    1    2    0    0  0.12918521095E+02  0.27882610358E+02 -0.32936077923E+02  0.45045680999E+02  0.00000000000E+00 0. -1.
         11    1    3    3    0    0 -0.14295383476E+01 -0.32125147201E+00  0.13519814153E+01  0.19936490173E+01  0.51100000000E-03 0. -1.
        -11    1    3    3    0    0 -0.64221926190E+01 -0.90490615243E+01  0.15753692431E+02  0.19269377208E+02  0.51100000000E-03 0.  1.
        -12    1    3    3    0    0 -0.50667901283E+01 -0.18512297362E+02  0.15830404077E+02  0.24879292776E+02  0.00000000000E+00 0.  1.
</event>
<event>
 7    1  0.2395003E-008  0.4614232E+02  0.7816164E-02  0.1320468E+00
        -11   -1    0    0    0    0  0.00000000000E+00  0.00000000000E+00  0.45593999997E+02  0.45594000000E+02  0.51100000000E-03 0. -1.
         11   -1    0    0    0    0 -0.00000000000E+00 -0.00000000000E+00 -0.45593999997E+02  0.45594000000E+02  0.51100000000E-03 0.  1.
    9900012    2    1    2    0    0  0.19716514033E+02  0.40500554880E+02 -0.27853942008E+00  0.46142318127E+02  0.10000003334E+02 0.  0.
         12    1    1    2    0    0 -0.19716514033E+02 -0.40500554880E+02  0.27853942008E+00  0.45045681873E+02  0.00000000000E+00 0. -1.
         11    1    3    3    0    0 -0.43932882738E+00  0.30051951307E+01  0.28810457235E+00  0.30507723773E+01  0.51100000000E-03 0. -1.
        -11    1    3    3    0    0  0.35375892587E+01  0.55965010874E+01 -0.24862783750E+01  0.70722657334E+01  0.51100000000E-03 0.  1.
         12    1    3    3    0    0  0.16618253602E+02  0.31898858662E+02  0.19196343826E+01  0.36019280016E+02  0.00000000000E+00 0. -1.
</event>
<event>
 7    1  0.2395003E-008  0.4614232E+02  0.7816164E-02  0.1320468E+00
        -11   -1    0    0    0    0  0.00000000000E+00  0.00000000000E+00  0.45593999997E+02  0.45594000000E+02  0.51100000000E-03 0. -1.
         11   -1    0    0    0    0 -0.00000000000E+00 -0.00000000000E+00 -0.45593999997E+02  0.45594000000E+02  0.51100000000E-03 0.  1.
    9900012    2    1    2    0    0  0.64129534180E+01 -0.24397094782E+02 -0.37319820150E+02  0.46142321169E+02  0.10000031072E+02 0.  0.
         12    1    1    2    0    0 -0.64129534180E+01  0.24397094782E+02  0.37319820150E+02  0.45045678831E+02  0.00000000000E+00 0. -1.
         11    1    3    3    0    0 -0.42247936391E+00 -0.15998565837E+01 -0.29855667505E+01  0.34134497190E+01  0.51100000000E-03 0. -1.
        -11    1    3    3    0    0  0.34230844697E+01 -0.88891959274E+01 -0.21431430985E+02  0.23452964543E+02  0.51100000000E-03 0.  1.
        -12    1    3    3    0    0  0.34123483122E+01 -0.13908042271E+02 -0.12902822415E+02  0.19275906907E+02  0.00000000000E+00 0.  1.
</event>
<event>
 7    1  0.2395003E-008  0.4614232E+02  0.7816164E-02  0.1320468E+00
        -11   -1    0    0    0    0  0.00000000000E+00  0.00000000000E+00  0.45593999997E+02  0.45594000000E+02  0.51100000000E-03 0.  1.
         11   -1    0    0    0    0 -0.00000000000E+00 -0.00000000000E+00 -0.45593999997E+02  0.45594000000E+02  0.51100000000E-03 0. -1.
    9900012    2    1    2    0    0  0.13213003217E+02 -0.35954671573E+02  0.23702146627E+02  0.46142316337E+02  0.99999870136E+01 0.  0.
         12    1    1    2    0    0 -0.13213003217E+02  0.35954671573E+02 -0.23702146627E+02  0.45045683663E+02  0.00000000000E+00 0. -1.
         11    1    3    3    0    0  0.12511146924E+01 -0.20351152938E+01 -0.23764815678E+00  0.24007205460E+01  0.51100000000E-03 0. -1.
        -11    1    3    3    0    0  0.90899054091E+01 -0.16411685357E+02  0.10638056507E+02  0.21567059213E+02  0.51100000000E-03 0.  1.
         12    1    3    3    0    0  0.28719831158E+01 -0.17507870922E+02  0.13301738277E+02  0.22174536578E+02  0.00000000000E+00 0. -1.
</event>
<event>
 7    1  0.2395003E-008  0.4614232E+02  0.7816164E-02  0.1320468E+00
        -11   -1    0    0    0    0  0.00000000000E+00  0.00000000000E+00  0.45593999997E+02  0.45594000000E+02  0.51100000000E-03 0.  1.
         11   -1    0    0    0    0 -0.00000000000E+00 -0.00000000000E+00 -0.45593999997E+02  0.45594000000E+02  0.51100000000E-03 0. -1.
    9900012    2    1    2    0    0 -0.16422879317E+02 -0.37983686280E+02  0.17794439256E+02  0.46142318110E+02  0.10000003184E+02 0.  0.
         12    1    1    2    0    0  0.16422879317E+02  0.37983686280E+02 -0.17794439256E+02  0.45045681890E+02  0.00000000000E+00 0. -1.
         11    1    3    3    0    0 -0.34716805768E+01 -0.13466537411E+02  0.75917018096E+01  0.15844056693E+02  0.51100000000E-03 0. -1.
        -11    1    3    3    0    0 -0.11779697472E+02 -0.24385288353E+02  0.88207018705E+01  0.28481719441E+02  0.51100000000E-03 0.  1.
         12    1    3    3    0    0 -0.11715012681E+01 -0.13186051625E+00  0.13820355762E+01  0.18165419761E+01  0.00000000000E+00 0. -1.
</event>
<event>
 7    1  0.2395003E-008  0.4614232E+02  0.7816164E-02  0.1320468E+00
        -11   -1    0    0    0    0  0.00000000000E+00  0.00000000000E+00  0.45593999997E+02  0.45594000000E+02  0.51100000000E-03 0.  1.
         11   -1    0    0    0    0 -0.00000000000E+00 -0.00000000000E+00 -0.45593999997E+02  0.45594000000E+02  0.51100000000E-03 0. -1.
    9900012    2    1    2    0    0 -0.20307246686E+02  0.17862290767E+02  0.36023156492E+02  0.46142317598E+02  0.99999985112E+01 0.  0.
         12    1    1    2    0    0  0.20307246686E+02 -0.17862290767E+02 -0.36023156492E+02  0.45045682402E+02  0.00000000000E+00 0. -1.
         11    1    3    3    0    0 -0.36758832917E+01  0.14111283138E+01  0.46209705055E+01  0.60709776614E+01  0.51100000000E-03 0. -1.
        -11    1    3    3    0    0 -0.11873083538E+02  0.79040515406E+01  0.13336032031E+02  0.19526748169E+02  0.51100000000E-03 0.  1.
        -12    1    3    3    0    0 -0.47582798562E+01  0.85471109126E+01  0.18066153956E+02  0.20544591768E+02  0.00000000000E+00 0.  1.
</event>
<event>
 7    1  0.2395003E-008  0.4614232E+02  0.7816164E-02  0.1320468E+00
        -11   -1    0    0    0    0  0.00000000000E+00  0.00000000000E+00  0.45593999997E+02  0.45594000000E+02  0.51100000000E-03 0. -1.
         11   -1    0    0    0    0 -0.00000000000E+00 -0.00000000000E+00 -0.45593999997E+02  0.45594000000E+02  0.51100000000E-03 0.  1.
    9900012    2    1    2    0    0 -0.20552369380E+02 -0.39916017147E+02 -0.36640446092E+01  0.46142317244E+02  0.99999952874E+01 0.  0.
         12    1    1    2    0    0  0.20552369380E+02  0.39916017147E+02  0.36640446092E+01  0.45045682756E+02  0.00000000000E+00 0. -1.
         11    1    3    3    0    0 -0.68085650282E+01 -0.21183005307E+02 -0.50054690171E+01  0.22806380509E+02  0.51100000000E-03 0. -1.
        -11    1    3    3    0    0 -0.73087732922E+01 -0.10824177732E+02  0.69368752699E-01  0.13060850007E+02  0.51100000000E-03 0.  1.
         12    1    3    3    0    0 -0.64350310600E+01 -0.79088341077E+01  0.12720556552E+01  0.10275086728E+02  0.00000000000E+00 0. -1.
</event>
<event>
 7    1  0.2395003E-008  0.4614232E+02  0.7816164E-02  0.1320468E+00
        -11   -1    0    0    0    0  0.00000000000E+00  0.00000000000E+00  0.45593999997E+02  0.45594000000E+02  0.51100000000E-03 0.  1.
         11   -1    0    0    0    0 -0.00000000000E+00 -0.00000000000E+00 -0.45593999997E+02  0.45594000000E+02  0.51100000000E-03 0. -1.
    9900012    2    1    2    0    0  0.34462152060E+02 -0.12666136937E+02  0.26096791133E+02  0.46142318110E+02  0.10000003180E+02 0.  0.
         12    1    1    2    0    0 -0.34462152060E+02  0.12666136937E+02 -0.26096791133E+02  0.45045681890E+02  0.00000000000E+00 0. -1.
         11    1    3    3    0    0  0.16273465831E+02 -0.60101459779E+01  0.13069089628E+02  0.21719775523E+02  0.51100000000E-03 0. -1.
        -11    1    3    3    0    0  0.16376819591E+02 -0.76048595090E+01  0.13204737945E+02  0.22369604657E+02  0.51100000000E-03 0.  1.
         12    1    3    3    0    0  0.18118666381E+01  0.94886855008E+00 -0.17703643992E+00  0.20529379291E+01  0.00000000000E+00 0. -1.
</event>
<event>
 7    1  0.2395003E-008  0.4614232E+02  0.7816164E-02  0.1320468E+00
        -11   -1    0    0    0    0  0.00000000000E+00  0.00000000000E+00  0.45593999997E+02  0.45594000000E+02  0.51100000000E-03 0.  1.
         11   -1    0    0    0    0 -0.00000000000E+00 -0.00000000000E+00 -0.45593999997E+02  0.45594000000E+02  0.51100000000E-03 0. -1.
    9900012    2    1    2    0    0  0.42164950595E+02 -0.14919086282E+02 -0.53526916733E+01  0.46142317606E+02  0.99999985897E+01 0.  0.
         12    1    1    2    0    0 -0.42164950595E+02  0.14919086282E+02  0.53526916733E+01  0.45045682394E+02  0.00000000000E+00 0. -1.
         11    1    3    3    0    0  0.66061578413E+01 -0.55118424866E+01 -0.27212750074E+01  0.90236947504E+01  0.51100000000E-03 0. -1.
        -11    1    3    3    0    0  0.25091298908E+02 -0.84358710879E+01 -0.26731702680E+01  0.26606071515E+02  0.51100000000E-03 0.  1.
         12    1    3    3    0    0  0.10467493845E+02 -0.97137270763E+00  0.41753602103E-01  0.10512551341E+02  0.00000000000E+00 0. -1.
</event>
<event>
 7    1  0.2395003E-008  0.4614232E+02  0.7816164E-02  0.1320468E+00
        -11   -1    0    0    0    0  0.00000000000E+00  0.00000000000E+00  0.45593999997E+02  0.45594000000E+02  0.51100000000E-03 0.  1.
         11   -1    0    0    0    0 -0.00000000000E+00 -0.00000000000E+00 -0.45593999997E+02  0.45594000000E+02  0.51100000000E-03 0. -1.
    9900012    2    1    2    0    0  0.39435995052E+02  0.21149702636E+02 -0.51580859932E+01  0.46142317871E+02  0.10000001003E+02 0.  0.
         12    1    1    2    0    0 -0.39435995052E+02 -0.21149702636E+02  0.51580859932E+01  0.45045682129E+02  0.00000000000E+00 0. -1.
         11    1    3    3    0    0  0.17879813415E+02  0.11340360086E+02  0.69602401338E+00  0.21184332520E+02  0.51100000000E-03 0. -1.
        -11    1    3    3    0    0  0.11286729990E+02  0.77182324281E+01 -0.21439384958E+01  0.13840442848E+02  0.51100000000E-03 0.  1.
         12    1    3    3    0    0  0.10269451647E+02  0.20911101217E+01 -0.37101715108E+01  0.11117542504E+02  0.00000000000E+00 0. -1.
</event>
<event>
 7    1  0.2395003E-008  0.4614232E+02  0.7816164E-02  0.1320468E+00
        -11   -1    0    0    0    0  0.00000000000E+00  0.00000000000E+00  0.45593999997E+02  0.45594000000E+02  0.51100000000E-03 0. -1.
         11   -1    0    0    0    0 -0.00000000000E+00 -0.00000000000E+00 -0.45593999997E+02  0.45594000000E+02  0.51100000000E-03 0.  1.
    9900012    2    1    2    0    0  0.12731029382E+02  0.37817272200E+02 -0.20901874286E+02  0.46142317250E+02  0.99999953365E+01 0.  0.
         12    1    1    2    0    0 -0.12731029382E+02 -0.37817272200E+02  0.20901874286E+02  0.45045682750E+02  0.00000000000E+00 0. -1.
         11    1    3    3    0    0 -0.41207162121E+00 -0.12631549497E+00  0.10835091096E+00  0.44440837785E+00  0.51100000000E-03 0. -1.
        -11    1    3    3    0    0  0.64292064139E+01  0.18755014600E+02 -0.13678168381E+02  0.24086875229E+02  0.51100000000E-03 0.  1.
         12    1    3    3    0    0  0.67138945890E+01  0.19188573095E+02 -0.73320568159E+01  0.21611033643E+02  0.00000000000E+00 0. -1.
</event>
<event>
 7    1  0.2395003E-008  0.4614233E+02  0.7816164E-02  0.1320468E+00
        -11   -1    0    0    0    0  0.00000000000E+00  0.00000000000E+00  0.45593999997E+02  0.45594000000E+02  0.51100000000E-03 0.  1.
         11   -1    0    0    0    0 -0.00000000000E+00 -0.00000000000E+00 -0.45593999997E+02  0.45594000000E+02  0.51100000000E-03 0. -1.
    9900012    2    1    2    0    0  0.32944147041E+02  0.11290690714E+01  0.30700502057E+02  0.46142329312E+02  0.10000105326E+02 0.  0.
         12    1    1    2    0    0 -0.32944147041E+02 -0.11290690714E+01 -0.30700502057E+02  0.45045670688E+02  0.00000000000E+00 0. -1.
         11    1    3    3    0    0  0.29970403588E+01 -0.10714416087E+01  0.10443147765E+01  0.33497509828E+01  0.51100000000E-03 0. -1.
        -11    1    3    3    0    0  0.11861522099E+02  0.35322610546E+01  0.89829597103E+01  0.15292682566E+02  0.51100000000E-03 0.  1.
        -12    1    3    3    0    0  0.18085584583E+02 -0.13317503745E+01  0.20673227570E+02  0.27499895763E+02  0.00000000000E+00 0.  1.
</event>
<event>
 7    1  0.2395003E-008  0.4614232E+02  0.7816164E-02  0.1320468E+00
        -11   -1    0    0    0    0  0.00000000000E+00  0.00000000000E+00  0.45593999997E+02  0.45594000000E+02  0.51100000000E-03 0.  1.
         11   -1    0    0    0    0 -0.00000000000E+00 -0.00000000000E+00 -0.45593999997E+02  0.45594000000E+02  0.51100000000E-03 0. -1.
    9900012    2    1    2    0    0  0.15211551944E+02  0.38312001601E+02  0.18163497260E+02  0.46142318609E+02  0.10000007734E+02 0.  0.
         12    1    1    2    0    0 -0.15211551944E+02 -0.38312001601E+02 -0.18163497260E+02  0.45045681391E+02  0.00000000000E+00 0. -1.
         11    1    3    3    0    0  0.10454519214E+02  0.22704433401E+02  0.14050626081E+02  0.28674175866E+02  0.51100000000E-03 0. -1.
        -11    1    3    3    0    0  0.30006846797E+01  0.47049425576E+01  0.30872321824E+01  0.63774286218E+01  0.51100000000E-03 0.  1.
         12    1    3    3    0    0  0.17563480509E+01  0.10902625643E+02  0.10256389968E+01  0.11090714122E+02  0.00000000000E+00 0. -1.
</event>
<event>
 7    1  0.2395003E-008  0.4614232E+02  0.7816164E-02  0.1320468E+00
        -11   -1    0    0    0    0  0.00000000000E+00  0.00000000000E+00  0.45593999997E+02  0.45594000000E+02  0.51100000000E-03 0.  1.
         11   -1    0    0    0    0 -0.00000000000E+00 -0.00000000000E+00 -0.45593999997E+02  0.45594000000E+02  0.51100000000E-03 0. -1.
    9900012    2    1    2    0    0  0.88559276972E+01 -0.21800511213E+02  0.38411245089E+02  0.46142317701E+02  0.99999994525E+01 0.  0.
         12    1    1    2    0    0 -0.88559276972E+01  0.21800511213E+02 -0.38411245089E+02  0.45045682299E+02  0.00000000000E+00 0. -1.
         11    1    3    3    0    0  0.60012739729E+01 -0.74552497727E+01  0.19608392533E+02  0.21819374337E+02  0.51100000000E-03 0.  1.
        -11    1    3    3    0    0  0.69104284448E+00 -0.21273554209E+01  0.64024057711E+00  0.23266047274E+01  0.51100000000E-03 0. -1.
        -12    1    3    3    0    0  0.21636108799E+01 -0.12217906019E+02  0.18162611978E+02  0.21996338636E+02  0.00000000000E+00 0.  1.
</event>
<event>
 7    1  0.2395003E-008  0.4614232E+02  0.7816164E-02  0.1320468E+00
        -11   -1    0    0    0    0  0.00000000000E+00  0.00000000000E+00  0.45593999997E+02  0.45594000000E+02  0.51100000000E-03 0. -1.
         11   -1    0    0    0    0 -0.00000000000E+00 -0.00000000000E+00 -0.45593999997E+02  0.45594000000E+02  0.51100000000E-03 0.  1.
    9900012    2    1    2    0    0  0.19384367338E+02 -0.34117916297E+02 -0.22120751172E+02  0.46142317166E+02  0.99999945767E+01 0.  0.
         12    1    1    2    0    0 -0.19384367338E+02  0.34117916297E+02  0.22120751172E+02  0.45045682834E+02  0.00000000000E+00 0. -1.
         11    1    3    3    0    0  0.35368030310E+01 -0.85572858996E+01 -0.61984160888E+01  0.11142552666E+02  0.51100000000E-03 0. -1.
        -11    1    3    3    0    0  0.50595322430E+01 -0.23968000050E+01 -0.24233457693E+01  0.61005017630E+01  0.51100000000E-03 0.  1.
        -12    1    3    3    0    0  0.10788032064E+02 -0.23163830392E+02 -0.13498989314E+02  0.28899262737E+02  0.00000000000E+00 0.  1.
</event>
<event>
 7    1  0.2395003E-008  0.4614232E+02  0.7816164E-02  0.1320468E+00
        -11   -1    0    0    0    0  0.00000000000E+00  0.00000000000E+00  0.45593999997E+02  0.45594000000E+02  0.51100000000E-03 0.  1.
         11   -1    0    0    0    0 -0.00000000000E+00 -0.00000000000E+00 -0.45593999997E+02  0.45594000000E+02  0.51100000000E-03 0. -1.
    9900012    2    1    2    0    0 -0.18746517982E+02  0.88798615411E+01  0.39985368534E+02  0.46142316808E+02  0.99999913112E+01 0.  0.
         12    1    1    2    0    0  0.18746517982E+02 -0.88798615411E+01 -0.39985368534E+02  0.45045683192E+02  0.00000000000E+00 0. -1.
         11    1    3    3    0    0 -0.12263027501E+02  0.46534925707E+01  0.28543289332E+02  0.31412675829E+02  0.51100000000E-03 0. -1.
        -11    1    3    3    0    0 -0.18749452982E+01 -0.99856174796E-01  0.63226406617E+01  0.65955421555E+01  0.51100000000E-03 0.  1.
        -12    1    3    3    0    0 -0.46085451827E+01  0.43262251452E+01  0.51194385401E+01  0.81340988237E+01  0.00000000000E+00 0.  1.
</event>
<event>
 7    1  0.2395003E-008  0.4614231E+02  0.7816164E-02  0.1320468E+00
        -11   -1    0    0    0    0  0.00000000000E+00  0.00000000000E+00  0.45593999997E+02  0.45594000000E+02  0.51100000000E-03 0.  1.
         11   -1    0    0    0    0 -0.00000000000E+00 -0.00000000000E+00 -0.45593999997E+02  0.45594000000E+02  0.51100000000E-03 0. -1.
    9900012    2    1    2    0    0  0.20327185101E+02  0.85661041685E+01  0.39275206988E+02  0.46142306769E+02  0.99998997647E+01 0.  0.
         12    1    1    2    0    0 -0.20327185101E+02 -0.85661041685E+01 -0.39275206988E+02  0.45045693231E+02  0.00000000000E+00 0. -1.
         11    1    3    3    0    0  0.17337764295E+01  0.16894762730E+01  0.11814598031E+02  0.12060059605E+02  0.51100000000E-03 0. -1.
        -11    1    3    3    0    0  0.47937200306E+01  0.21632837718E+00  0.77658614130E+01  0.91288089828E+01  0.51100000000E-03 0.  1.
        -12    1    3    3    0    0  0.13799688641E+02  0.66602995183E+01  0.19694747544E+02  0.24953438181E+02  0.00000000000E+00 0.  1.
</event>
<event>
 7    1  0.2395003E-008  0.4614232E+02  0.7816164E-02  0.1320468E+00
        -11   -1    0    0    0    0  0.00000000000E+00  0.00000000000E+00  0.45593999997E+02  0.45594000000E+02  0.51100000000E-03 0.  1.
         11   -1    0    0    0    0 -0.00000000000E+00 -0.00000000000E+00 -0.45593999997E+02  0.45594000000E+02  0.51100000000E-03 0. -1.
    9900012    2    1    2    0    0 -0.40124336653E+02 -0.94491724325E+01  0.18162165468E+02  0.46142317566E+02  0.99999982166E+01 0.  0.
         12    1    1    2    0    0  0.40124336653E+02  0.94491724325E+01 -0.18162165468E+02  0.45045682434E+02  0.00000000000E+00 0. -1.
         11    1    3    3    0    0 -0.88012421516E+01 -0.52730713287E+01  0.54617801486E+01  0.11623174579E+02  0.51100000000E-03 0. -1.
        -11    1    3    3    0    0 -0.14495895803E+02 -0.43317330254E+01  0.76273364987E+01  0.16943174686E+02  0.51100000000E-03 0.  1.
         12    1    3    3    0    0 -0.16827198699E+02  0.15563192159E+00  0.50730488204E+01  0.17575968300E+02  0.00000000000E+00 0. -1.
</event>
<event>
 7    1  0.2395003E-008  0.4614232E+02  0.7816164E-02  0.1320468E+00
        -11   -1    0    0    0    0  0.00000000000E+00  0.00000000000E+00  0.45593999997E+02  0.45594000000E+02  0.51100000000E-03 0. -1.
         11   -1    0    0    0    0 -0.00000000000E+00 -0.00000000000E+00 -0.45593999997E+02  0.45594000000E+02  0.51100000000E-03 0.  1.
    9900012    2    1    2    0    0  0.97000413957E+01  0.41594811323E+02 -0.14314132810E+02  0.46142317297E+02  0.99999957663E+01 0.  0.
         12    1    1    2    0    0 -0.97000413957E+01 -0.41594811323E+02  0.14314132810E+02  0.45045682703E+02  0.00000000000E+00 0. -1.
         11    1    3    3    0    0  0.11029055954E+00  0.12955262016E+02 -0.64170614165E+01  0.14457857912E+02  0.51100000000E-03 0. -1.
        -11    1    3    3    0    0  0.54769988760E+01  0.18811437920E+02 -0.25306698136E+01  0.19755303169E+02  0.51100000000E-03 0.  1.
        -12    1    3    3    0    0  0.41127519601E+01  0.98281113864E+01 -0.53664015802E+01  0.11929156216E+02  0.00000000000E+00 0.  1.
</event>
<event>
 7    1  0.2395003E-008  0.4614232E+02  0.7816164E-02  0.1320468E+00
        -11   -1    0    0    0    0  0.00000000000E+00  0.00000000000E+00  0.45593999997E+02  0.45594000000E+02  0.51100000000E-03 0. -1.
         11   -1    0    0    0    0 -0.00000000000E+00 -0.00000000000E+00 -0.45593999997E+02  0.45594000000E+02  0.51100000000E-03 0.  1.
    9900012    2    1    2    0    0 -0.21254633512E+02 -0.15503580980E+02 -0.36564915700E+02  0.46142317309E+02  0.99999958817E+01 0.  0.
         12    1    1    2    0    0  0.21254633512E+02  0.15503580980E+02  0.36564915700E+02  0.45045682691E+02  0.00000000000E+00 0. -1.
         11    1    3    3    0    0 -0.35447234513E+00 -0.33051166588E+01 -0.35048626951E+01  0.48304771550E+01  0.51100000000E-03 0. -1.
        -11    1    3    3    0    0 -0.88870236526E+01 -0.72773461232E+01 -0.12321575115E+02  0.16845182385E+02  0.51100000000E-03 0.  1.
         12    1    3    3    0    0 -0.12013137514E+02 -0.49211181985E+01 -0.20738477889E+02  0.24466657770E+02  0.00000000000E+00 0. -1.
</event>
<event>
 7    1  0.2395003E-008  0.4614232E+02  0.7816164E-02  0.1320468E+00
        -11   -1    0    0    0    0  0.00000000000E+00  0.00000000000E+00  0.45593999997E+02  0.45594000000E+02  0.51100000000E-03 0. -1.
         11   -1    0    0    0    0 -0.00000000000E+00 -0.00000000000E+00 -0.45593999997E+02  0.45594000000E+02  0.51100000000E-03 0.  1.
    9900012    2    1    2    0    0  0.20063109058E+01 -0.21298673674E+02 -0.39641578493E+02  0.46142317309E+02  0.99999958757E+01 0.  0.
         12    1    1    2    0    0 -0.20063109058E+01  0.21298673674E+02  0.39641578493E+02  0.45045682691E+02  0.00000000000E+00 0. -1.
         11    1    3    3    0    0  0.73769622765E+00 -0.20420082527E+01 -0.72066333821E+01  0.75265900907E+01  0.51100000000E-03 0. -1.
        -11    1    3    3    0    0 -0.28387821951E+01 -0.13970459004E+02 -0.22481685004E+02  0.26620641804E+02  0.51100000000E-03 0.  1.
        -12    1    3    3    0    0  0.41073968733E+01 -0.52862064166E+01 -0.99532601065E+01  0.11995085415E+02  0.00000000000E+00 0.  1.
</event>
<event>
 7    1  0.2395003E-008  0.4614232E+02  0.7816164E-02  0.1320468E+00
        -11   -1    0    0    0    0  0.00000000000E+00  0.00000000000E+00  0.45593999997E+02  0.45594000000E+02  0.51100000000E-03 0.  1.
         11   -1    0    0    0    0 -0.00000000000E+00 -0.00000000000E+00 -0.45593999997E+02  0.45594000000E+02  0.51100000000E-03 0. -1.
    9900012    2    1    2    0    0  0.35059674732E+02  0.13238927953E+02  0.24993268770E+02  0.46142317748E+02  0.99999998825E+01 0.  0.
         12    1    1    2    0    0 -0.35059674732E+02 -0.13238927953E+02 -0.24993268770E+02  0.45045682252E+02  0.00000000000E+00 0. -1.
         11    1    3    3    0    0  0.18852683042E+02  0.85502082119E+01  0.12060369626E+02  0.23957926331E+02  0.51100000000E-03 0. -1.
        -11    1    3    3    0    0  0.99153918870E+01  0.56855060748E+01  0.99350895103E+01  0.15144173118E+02  0.51100000000E-03 0.  1.
         12    1    3    3    0    0  0.62915998038E+01 -0.99678633325E+00  0.29978096344E+01  0.70402182984E+01  0.00000000000E+00 0. -1.
</event>
<event>
 7    1  0.2395003E-008  0.4614232E+02  0.7816164E-02  0.1320468E+00
        -11   -1    0    0    0    0  0.00000000000E+00  0.00000000000E+00  0.45593999997E+02  0.45594000000E+02  0.51100000000E-03 0.  1.
         11   -1    0    0    0    0 -0.00000000000E+00 -0.00000000000E+00 -0.45593999997E+02  0.45594000000E+02  0.51100000000E-03 0. -1.
    9900012    2    1    2    0    0 -0.42122941218E+02  0.10758528701E+02  0.11790903356E+02  0.46142317426E+02  0.99999969397E+01 0.  0.
         12    1    1    2    0    0  0.42122941218E+02 -0.10758528701E+02 -0.11790903356E+02  0.45045682574E+02  0.00000000000E+00 0. -1.
         11    1    3    3    0    0 -0.21223234822E+02  0.32709031036E+01  0.58776069875E+01  0.22263664738E+02  0.51100000000E-03 0.  1.
        -11    1    3    3    0    0 -0.14146497347E+02  0.17265791157E+01  0.39234748989E+01  0.14781681845E+02  0.51100000000E-03 0. -1.
        -12    1    3    3    0    0 -0.67532090496E+01  0.57610464814E+01  0.19898214696E+01  0.90969708425E+01  0.00000000000E+00 0.  1.
</event>
<event>
 7    1  0.2395003E-008  0.4614232E+02  0.7816164E-02  0.1320468E+00
        -11   -1    0    0    0    0  0.00000000000E+00  0.00000000000E+00  0.45593999997E+02  0.45594000000E+02  0.51100000000E-03 0.  1.
         11   -1    0    0    0    0 -0.00000000000E+00 -0.00000000000E+00 -0.45593999997E+02  0.45594000000E+02  0.51100000000E-03 0. -1.
    9900012    2    1    2    0    0  0.32765021931E+02 -0.23981931274E+02  0.19504710735E+02  0.46142318402E+02  0.10000005847E+02 0.  0.
         12    1    1    2    0    0 -0.32765021931E+02  0.23981931274E+02 -0.19504710735E+02  0.45045681598E+02  0.00000000000E+00 0. -1.
         11    1    3    3    0    0  0.16085342136E+01  0.19460934066E+00 -0.12251015997E+00  0.16248889538E+01  0.51100000000E-03 0. -1.
        -11    1    3    3    0    0  0.19257050498E+02 -0.12733517502E+02  0.84653970536E+01  0.24589416613E+02  0.51100000000E-03 0.  1.
        -12    1    3    3    0    0  0.11899437219E+02 -0.11443023113E+02  0.11161823841E+02  0.19928012835E+02  0.00000000000E+00 0.  1.
</event>
<event>
 7    1  0.2395003E-008  0.4614232E+02  0.7816164E-02  0.1320468E+00
        -11   -1    0    0    0    0  0.00000000000E+00  0.00000000000E+00  0.45593999997E+02  0.45594000000E+02  0.51100000000E-03 0.  1.
         11   -1    0    0    0    0 -0.00000000000E+00 -0.00000000000E+00 -0.45593999997E+02  0.45594000000E+02  0.51100000000E-03 0. -1.
    9900012    2    1    2    0    0  0.12416893499E+02  0.37400299275E+02  0.21820901887E+02  0.46142318863E+02  0.10000010044E+02 0.  0.
         12    1    1    2    0    0 -0.12416893499E+02 -0.37400299275E+02 -0.21820901887E+02  0.45045681137E+02  0.00000000000E+00 0. -1.
         11    1    3    3    0    0  0.94952937735E+01  0.19205479531E+02  0.11541108697E+02  0.24335329011E+02  0.51100000000E-03 0. -1.
        -11    1    3    3    0    0  0.36146644627E+00  0.58797037720E+01  0.57284541576E+00  0.59185916036E+01  0.51100000000E-03 0.  1.
        -12    1    3    3    0    0  0.25601332789E+01  0.12315115972E+02  0.97069477737E+01  0.15888398248E+02  0.00000000000E+00 0.  1.
</event>
<event>
 7    1  0.2395003E-008  0.4614232E+02  0.7816164E-02  0.1320468E+00
        -11   -1    0    0    0    0  0.00000000000E+00  0.00000000000E+00  0.45593999997E+02  0.45594000000E+02  0.51100000000E-03 0. -1.
         11   -1    0    0    0    0 -0.00000000000E+00 -0.00000000000E+00 -0.45593999997E+02  0.45594000000E+02  0.51100000000E-03 0.  1.
    9900012    2    1    2    0    0 -0.39800822775E+02 -0.21075545056E+02  0.91062053675E+00  0.46142319600E+02  0.10000016766E+02 0.  0.
         12    1    1    2    0    0  0.39800822775E+02  0.21075545056E+02 -0.91062053675E+00  0.45045680400E+02  0.00000000000E+00 0. -1.
         11    1    3    3    0    0 -0.87104783055E+01 -0.28526901450E+01  0.24074679623E+01  0.94766120330E+01  0.51100000000E-03 0. -1.
        -11    1    3    3    0    0 -0.21231346983E+02 -0.11380544269E+02  0.19830747405E+01  0.24170632352E+02  0.51100000000E-03 0.  1.
        -12    1    3    3    0    0 -0.98589974862E+01 -0.68423106415E+01 -0.34799221661E+01  0.12495075215E+02  0.00000000000E+00 0.  1.
</event>
<event>
 7    1  0.2395003E-008  0.4614232E+02  0.7816164E-02  0.1320468E+00
        -11   -1    0    0    0    0  0.00000000000E+00  0.00000000000E+00  0.45593999997E+02  0.45594000000E+02  0.51100000000E-03 0. -1.
         11   -1    0    0    0    0 -0.00000000000E+00 -0.00000000000E+00 -0.45593999997E+02  0.45594000000E+02  0.51100000000E-03 0.  1.
    9900012    2    1    2    0    0 -0.28056740303E+02 -0.29334946951E+02  0.19529303636E+02  0.46142317748E+02  0.99999998838E+01 0.  0.
         12    1    1    2    0    0  0.28056740303E+02  0.29334946951E+02 -0.19529303636E+02  0.45045682252E+02  0.00000000000E+00 0. -1.
         11    1    3    3    0    0 -0.88586410246E+01 -0.12084154693E+02  0.94181363406E+01  0.17697559375E+02  0.51100000000E-03 0. -1.
        -11    1    3    3    0    0 -0.79765344381E+01 -0.10570292657E+02  0.71675120461E+01  0.15057536906E+02  0.51100000000E-03 0.  1.
         12    1    3    3    0    0 -0.11221564840E+02 -0.66804996006E+01  0.29436552493E+01  0.13387221467E+02  0.00000000000E+00 0. -1.
</event>
<event>
 7    1  0.2395003E-008  0.4614232E+02  0.7816164E-02  0.1320468E+00
        -11   -1    0    0    0    0  0.00000000000E+00  0.00000000000E+00  0.45593999997E+02  0.45594000000E+02  0.51100000000E-03 0.  1.
         11   -1    0    0    0    0 -0.00000000000E+00 -0.00000000000E+00 -0.45593999997E+02  0.45594000000E+02  0.51100000000E-03 0. -1.
    9900012    2    1    2    0    0  0.65564774767E+01 -0.44022585578E+02  0.69381560555E+01  0.46142318217E+02  0.10000004153E+02 0.  0.
         12    1    1    2    0    0 -0.65564774767E+01  0.44022585578E+02 -0.69381560555E+01  0.45045681783E+02  0.00000000000E+00 0. -1.
         11    1    3    3    0    0  0.17829485155E+01 -0.31584564261E+02  0.33681410949E+01  0.31813644551E+02  0.51100000000E-03 0. -1.
        -11    1    3    3    0    0  0.32529394931E+01 -0.11403353908E+02  0.22627612011E+01  0.12072207098E+02  0.51100000000E-03 0.  1.
         12    1    3    3    0    0  0.15205894681E+01 -0.10346674097E+01  0.13072537595E+01  0.22564665676E+01  0.00000000000E+00 0. -1.
</event>
<event>
 7    1  0.2395003E-008  0.4614232E+02  0.7816164E-02  0.1320468E+00
        -11   -1    0    0    0    0  0.00000000000E+00  0.00000000000E+00  0.45593999997E+02  0.45594000000E+02  0.51100000000E-03 0.  1.
         11   -1    0    0    0    0 -0.00000000000E+00 -0.00000000000E+00 -0.45593999997E+02  0.45594000000E+02  0.51100000000E-03 0. -1.
    9900012    2    1    2    0    0  0.21463607366E+02  0.30411331079E+02  0.25368838169E+02  0.46142318196E+02  0.10000003964E+02 0.  0.
         12    1    1    2    0    0 -0.21463607366E+02 -0.30411331079E+02 -0.25368838169E+02  0.45045681804E+02  0.00000000000E+00 0. -1.
         11    1    3    3    0    0  0.12765482942E+01  0.41787050122E+01  0.23332864266E+01  0.49533197894E+01  0.51100000000E-03 0. -1.
        -11    1    3    3    0    0  0.87172230259E+01  0.14616623991E+02  0.73098322900E+01  0.18522130616E+02  0.51100000000E-03 0.  1.
        -12    1    3    3    0    0  0.11469836046E+02  0.11616002076E+02  0.15725719453E+02  0.22666867791E+02  0.00000000000E+00 0.  1.
</event>
<event>
 7    1  0.2395003E-008  0.4614232E+02  0.7816164E-02  0.1320468E+00
        -11   -1    0    0    0    0  0.00000000000E+00  0.00000000000E+00  0.45593999997E+02  0.45594000000E+02  0.51100000000E-03 0.  1.
         11   -1    0    0    0    0 -0.00000000000E+00 -0.00000000000E+00 -0.45593999997E+02  0.45594000000E+02  0.51100000000E-03 0. -1.
    9900012    2    1    2    0    0  0.32485866580E+02  0.64376066929E+01  0.30534229348E+02  0.46142317973E+02  0.10000001932E+02 0.  0.
         12    1    1    2    0    0 -0.32485866580E+02 -0.64376066929E+01 -0.30534229348E+02  0.45045682027E+02  0.00000000000E+00 0. -1.
         11    1    3    3    0    0  0.75862879195E+01  0.15831112492E+01  0.11100209725E+02  0.13537823378E+02  0.51100000000E-03 0. -1.
        -11    1    3    3    0    0  0.15693324060E+02  0.37518879262E+01  0.15981638665E+02  0.22710567094E+02  0.51100000000E-03 0.  1.
         12    1    3    3    0    0  0.92062546003E+01  0.11026075175E+01  0.34523809588E+01  0.98939275006E+01  0.00000000000E+00 0. -1.
</event>
<event>
 7    1  0.2395003E-008  0.4614232E+02  0.7816164E-02  0.1320468E+00
        -11   -1    0    0    0    0  0.00000000000E+00  0.00000000000E+00  0.45593999997E+02  0.45594000000E+02  0.51100000000E-03 0.  1.
         11   -1    0    0    0    0 -0.00000000000E+00 -0.00000000000E+00 -0.45593999997E+02  0.45594000000E+02  0.51100000000E-03 0. -1.
    9900012    2    1    2    0    0  0.33018912121E+02 -0.75483812816E+01  0.29696582672E+02  0.46142316077E+02  0.99999846475E+01 0.  0.
         12    1    1    2    0    0 -0.33018912121E+02  0.75483812816E+01 -0.29696582672E+02  0.45045683923E+02  0.00000000000E+00 0. -1.
         11    1    3    3    0    0  0.15875938457E+02 -0.31165919468E+01  0.10454752453E+02  0.19262928551E+02  0.51100000000E-03 0. -1.
        -11    1    3    3    0    0  0.21541969928E+01 -0.29714836175E+01  0.44781717435E+01  0.57900174437E+01  0.51100000000E-03 0.  1.
        -12    1    3    3    0    0  0.14988776671E+02 -0.14603057173E+01  0.14763658476E+02  0.21089370083E+02  0.00000000000E+00 0.  1.
</event>
<event>
 7    1  0.2395003E-008  0.4614232E+02  0.7816164E-02  0.1320468E+00
        -11   -1    0    0    0    0  0.00000000000E+00  0.00000000000E+00  0.45593999997E+02  0.45594000000E+02  0.51100000000E-03 0. -1.
         11   -1    0    0    0    0 -0.00000000000E+00 -0.00000000000E+00 -0.45593999997E+02  0.45594000000E+02  0.51100000000E-03 0.  1.
    9900012    2    1    2    0    0 -0.20810975121E+02  0.10591060391E+02 -0.38520725690E+02  0.46142317039E+02  0.99999934184E+01 0.  0.
         12    1    1    2    0    0  0.20810975121E+02 -0.10591060391E+02  0.38520725690E+02  0.45045682961E+02  0.00000000000E+00 0. -1.
         11    1    3    3    0    0 -0.18420661823E+01  0.12006547584E+01 -0.60124017889E+01  0.64018556061E+01  0.51100000000E-03 0. -1.
        -11    1    3    3    0    0 -0.12131848703E+02  0.72047517545E+01 -0.27742273981E+02  0.31124330783E+02  0.51100000000E-03 0.  1.
         12    1    3    3    0    0 -0.68370602357E+01  0.21856538779E+01 -0.47660499208E+01  0.86161306506E+01  0.00000000000E+00 0. -1.
</event>
<event>
 7    1  0.2395003E-008  0.4614232E+02  0.7816164E-02  0.1320468E+00
        -11   -1    0    0    0    0  0.00000000000E+00  0.00000000000E+00  0.45593999997E+02  0.45594000000E+02  0.51100000000E-03 0.  1.
         11   -1    0    0    0    0 -0.00000000000E+00 -0.00000000000E+00 -0.45593999997E+02  0.45594000000E+02  0.51100000000E-03 0. -1.
    9900012    2    1    2    0    0  0.38717822251E+01 -0.58172658863E+01  0.44500360316E+02  0.46142319316E+02  0.10000014182E+02 0.  0.
         12    1    1    2    0    0 -0.38717822251E+01  0.58172658863E+01 -0.44500360316E+02  0.45045680684E+02  0.00000000000E+00 0. -1.
         11    1    3    3    0    0  0.86865121857E+00 -0.40925422079E+01  0.31407411016E+02  0.31684837440E+02  0.51100000000E-03 0. -1.
        -11    1    3    3    0    0  0.72764352631E+00 -0.21596307950E+01  0.11301429101E+02  0.11528910193E+02  0.51100000000E-03 0.  1.
         12    1    3    3    0    0  0.22754874803E+01  0.43490711651E+00  0.17915201999E+01  0.29285716825E+01  0.00000000000E+00 0. -1.
</event>
<event>
 7    1  0.2395003E-008  0.4614232E+02  0.7816164E-02  0.1320468E+00
        -11   -1    0    0    0    0  0.00000000000E+00  0.00000000000E+00  0.45593999997E+02  0.45594000000E+02  0.51100000000E-03 0.  1.
         11   -1    0    0    0    0 -0.00000000000E+00 -0.00000000000E+00 -0.45593999997E+02  0.45594000000E+02  0.51100000000E-03 0. -1.
    9900012    2    1    2    0    0 -0.37326020582E+02 -0.18623506271E+01  0.25147828819E+02  0.46142318113E+02  0.10000003213E+02 0.  0.
         12    1    1    2    0    0  0.37326020582E+02  0.18623506271E+01 -0.25147828819E+02  0.45045681887E+02  0.00000000000E+00 0. -1.
         11    1    3    3    0    0 -0.19662357012E+01  0.15326274524E+00 -0.59074514644E+00  0.20587744876E+01  0.51100000000E-03 0. -1.
        -11    1    3    3    0    0 -0.95339293041E+01 -0.61232907200E+00  0.98864498183E+01  0.13748186976E+02  0.51100000000E-03 0.  1.
         12    1    3    3    0    0 -0.25825855576E+02 -0.14032843004E+01  0.15852124147E+02  0.30335356649E+02  0.00000000000E+00 0. -1.
</event>
<event>
 7    1  0.2395003E-008  0.4614232E+02  0.7816164E-02  0.1320468E+00
        -11   -1    0    0    0    0  0.00000000000E+00  0.00000000000E+00  0.45593999997E+02  0.45594000000E+02  0.51100000000E-03 0. -1.
         11   -1    0    0    0    0 -0.00000000000E+00 -0.00000000000E+00 -0.45593999997E+02  0.45594000000E+02  0.51100000000E-03 0.  1.
    9900012    2    1    2    0    0 -0.35114431109E+02  0.14449802471E+02 -0.24234140504E+02  0.46142316194E+02  0.99999857105E+01 0.  0.
         12    1    1    2    0    0  0.35114431109E+02 -0.14449802471E+02  0.24234140504E+02  0.45045683806E+02  0.00000000000E+00 0. -1.
         11    1    3    3    0    0 -0.13853613253E+02  0.28147966484E+01 -0.97122822499E+01  0.17151504514E+02  0.51100000000E-03 0. -1.
        -11    1    3    3    0    0 -0.14921987947E+00 -0.55326829504E+00  0.74185477646E-01  0.57782014930E+00  0.51100000000E-03 0.  1.
        -12    1    3    3    0    0 -0.21111597977E+02  0.12188274118E+02 -0.14596043731E+02  0.28412991531E+02  0.00000000000E+00 0.  1.
</event>
<event>
 7    1  0.2395003E-008  0.4614232E+02  0.7816164E-02  0.1320468E+00
        -11   -1    0    0    0    0  0.00000000000E+00  0.00000000000E+00  0.45593999997E+02  0.45594000000E+02  0.51100000000E-03 0.  1.
         11   -1    0    0    0    0 -0.00000000000E+00 -0.00000000000E+00 -0.45593999997E+02  0.45594000000E+02  0.51100000000E-03 0. -1.
    9900012    2    1    2    0    0  0.14575696713E+02  0.24674250854E+02  0.34754046841E+02  0.46142319167E+02  0.10000012822E+02 0.  0.
         12    1    1    2    0    0 -0.14575696713E+02 -0.24674250854E+02 -0.34754046841E+02  0.45045680833E+02  0.00000000000E+00 0. -1.
         11    1    3    3    0    0  0.59724690929E+01  0.48852190484E+01  0.12706020640E+02  0.14865352770E+02  0.51100000000E-03 0. -1.
        -11    1    3    3    0    0  0.46724898986E+01  0.11205283967E+02  0.15922587618E+02  0.20022970493E+02  0.51100000000E-03 0.  1.
         12    1    3    3    0    0  0.39307377213E+01  0.85837478385E+01  0.61254385834E+01  0.11253995905E+02  0.00000000000E+00 0. -1.
</event>
<event>
 7    1  0.2395003E-008  0.4614232E+02  0.7816164E-02  0.1320468E+00
        -11   -1    0    0    0    0  0.00000000000E+00  0.00000000000E+00  0.45593999997E+02  0.45594000000E+02  0.51100000000E-03 0. -1.
         11   -1    0    0    0    0 -0.00000000000E+00 -0.00000000000E+00 -0.45593999997E+02  0.45594000000E+02  0.51100000000E-03 0.  1.
    9900012    2    1    2    0    0 -0.44085587300E+02  0.17653707462E+01 -0.90806361993E+01  0.46142317685E+02  0.99999993059E+01 0.  0.
         12    1    1    2    0    0  0.44085587300E+02 -0.17653707462E+01  0.90806361993E+01  0.45045682315E+02  0.00000000000E+00 0. -1.
         11    1    3    3    0    0 -0.13768155950E+02  0.33381864870E+01 -0.28127829248E+01  0.14443592189E+02  0.51100000000E-03 0. -1.
        -11    1    3    3    0    0 -0.22903620113E+02  0.15821797684E+01 -0.37886145742E+01  0.23268706620E+02  0.51100000000E-03 0.  1.
         12    1    3    3    0    0 -0.74138112366E+01 -0.31549955092E+01 -0.24792387003E+01  0.84300188759E+01  0.00000000000E+00 0. -1.
</event>
<event>
 7    1  0.2395003E-008  0.4614232E+02  0.7816164E-02  0.1320468E+00
        -11   -1    0    0    0    0  0.00000000000E+00  0.00000000000E+00  0.45593999997E+02  0.45594000000E+02  0.51100000000E-03 0.  1.
         11   -1    0    0    0    0 -0.00000000000E+00 -0.00000000000E+00 -0.45593999997E+02  0.45594000000E+02  0.51100000000E-03 0. -1.
    9900012    2    1    2    0    0 -0.35212636520E+02  0.86548770657E+01  0.26725957945E+02  0.46142317678E+02  0.99999992452E+01 0.  0.
         12    1    1    2    0    0  0.35212636520E+02 -0.86548770657E+01 -0.26725957945E+02  0.45045682322E+02  0.00000000000E+00 0. -1.
         11    1    3    3    0    0 -0.51815722896E+01  0.64764251064E+00  0.54928388760E+01  0.75788792966E+01  0.51100000000E-03 0. -1.
        -11    1    3    3    0    0 -0.19420316940E+02  0.40907366736E+01  0.18016594241E+02  0.26804486655E+02  0.51100000000E-03 0.  1.
         12    1    3    3    0    0 -0.10610747291E+02  0.39164978814E+01  0.32165248288E+01  0.11758951726E+02  0.00000000000E+00 0. -1.
</event>
<event>
 7    1  0.2395003E-008  0.4614232E+02  0.7816164E-02  0.1320468E+00
        -11   -1    0    0    0    0  0.00000000000E+00  0.00000000000E+00  0.45593999997E+02  0.45594000000E+02  0.51100000000E-03 0. -1.
         11   -1    0    0    0    0 -0.00000000000E+00 -0.00000000000E+00 -0.45593999997E+02  0.45594000000E+02  0.51100000000E-03 0.  1.
    9900012    2    1    2    0    0 -0.38111160207E+02  0.23800597121E+02  0.31913267894E+01  0.46142317384E+02  0.99999965606E+01 0.  0.
         12    1    1    2    0    0  0.38111160207E+02 -0.23800597121E+02 -0.31913267894E+01  0.45045682616E+02  0.00000000000E+00 0. -1.
         11    1    3    3    0    0 -0.14131268910E+02  0.65374941112E+01  0.12965285785E+00  0.15570754650E+02  0.51100000000E-03 0. -1.
        -11    1    3    3    0    0 -0.56173791825E+01  0.79759992707E+00 -0.29058205674E+00  0.56811576916E+01  0.51100000000E-03 0.  1.
         12    1    3    3    0    0 -0.18362512115E+02  0.16465503083E+02  0.33522559883E+01  0.24890405042E+02  0.00000000000E+00 0. -1.
</event>
<event>
 7    1  0.2395003E-008  0.4614232E+02  0.7816164E-02  0.1320468E+00
        -11   -1    0    0    0    0  0.00000000000E+00  0.00000000000E+00  0.45593999997E+02  0.45594000000E+02  0.51100000000E-03 0.  1.
         11   -1    0    0    0    0 -0.00000000000E+00 -0.00000000000E+00 -0.45593999997E+02  0.45594000000E+02  0.51100000000E-03 0. -1.
    9900012    2    1    2    0    0  0.21382237790E+02 -0.15204649610E+02  0.36616008598E+02  0.46142317096E+02  0.99999939347E+01 0.  0.
         12    1    1    2    0    0 -0.21382237790E+02  0.15204649610E+02 -0.36616008598E+02  0.45045682904E+02  0.00000000000E+00 0. -1.
         11    1    3    3    0    0  0.36434994794E+01 -0.65498336245E+01  0.88607194452E+01  0.11605505517E+02  0.51100000000E-03 0. -1.
        -11    1    3    3    0    0  0.99764665183E+01 -0.78033084753E+01  0.15678177317E+02  0.20155067641E+02  0.51100000000E-03 0.  1.
        -12    1    3    3    0    0  0.77622717919E+01 -0.85150751026E+00  0.12077111835E+02  0.14381743938E+02  0.00000000000E+00 0.  1.
</event>
<event>
 7    1  0.2395003E-008  0.4614232E+02  0.7816164E-02  0.1320468E+00
        -11   -1    0    0    0    0  0.00000000000E+00  0.00000000000E+00  0.45593999997E+02  0.45594000000E+02  0.51100000000E-03 0.  1.
         11   -1    0    0    0    0 -0.00000000000E+00 -0.00000000000E+00 -0.45593999997E+02  0.45594000000E+02  0.51100000000E-03 0. -1.
    9900012    2    1    2    0    0 -0.87396023929E+01 -0.14503037533E+02  0.41742003443E+02  0.46142316532E+02  0.99999887898E+01 0.  0.
         12    1    1    2    0    0  0.87396023929E+01  0.14503037533E+02 -0.41742003443E+02  0.45045683468E+02  0.00000000000E+00 0. -1.
         11    1    3    3    0    0 -0.59058108678E+01 -0.69955793108E+01  0.23973312829E+02  0.25661965243E+02  0.51100000000E-03 0. -1.
        -11    1    3    3    0    0 -0.17032728850E+01 -0.55644331271E+01  0.17205401419E+02  0.18162871271E+02  0.51100000000E-03 0.  1.
         12    1    3    3    0    0 -0.11305186401E+01 -0.19430250953E+01  0.56328919582E+00  0.23174800182E+01  0.00000000000E+00 0. -1.
</event>
<event>
 7    1  0.2395003E-008  0.4614232E+02  0.7816164E-02  0.1320468E+00
        -11   -1    0    0    0    0  0.00000000000E+00  0.00000000000E+00  0.45593999997E+02  0.45594000000E+02  0.51100000000E-03 0.  1.
         11   -1    0    0    0    0 -0.00000000000E+00 -0.00000000000E+00 -0.45593999997E+02  0.45594000000E+02  0.51100000000E-03 0. -1.
    9900012    2    1    2    0    0  0.14875519447E+01  0.44980327451E+02  0.19159179932E+01  0.46142318629E+02  0.10000007914E+02 0.  0.
         12    1    1    2    0    0 -0.14875519447E+01 -0.44980327451E+02 -0.19159179932E+01  0.45045681371E+02  0.00000000000E+00 0. -1.
         11    1    3    3    0    0 -0.16484906021E+00  0.39204014869E-01 -0.67712251060E+00  0.69800238031E+00  0.51100000000E-03 0. -1.
        -11    1    3    3    0    0  0.69713905295E-01  0.20698964556E+02 -0.17209136153E+01  0.20770496808E+02  0.51100000000E-03 0.  1.
        -12    1    3    3    0    0  0.15826870996E+01  0.24242158881E+02  0.43139541192E+01  0.24673819441E+02  0.00000000000E+00 0.  1.
</event>
<event>
 7    1  0.2395003E-008  0.4614232E+02  0.7816164E-02  0.1320468E+00
        -11   -1    0    0    0    0  0.00000000000E+00  0.00000000000E+00  0.45593999997E+02  0.45594000000E+02  0.51100000000E-03 0.  1.
         11   -1    0    0    0    0 -0.00000000000E+00 -0.00000000000E+00 -0.45593999997E+02  0.45594000000E+02  0.51100000000E-03 0. -1.
    9900012    2    1    2    0    0  0.31576084795E+02 -0.28957529911E+02  0.13911358430E+02  0.46142316934E+02  0.99999924593E+01 0.  0.
         12    1    1    2    0    0 -0.31576084795E+02  0.28957529911E+02 -0.13911358430E+02  0.45045683066E+02  0.00000000000E+00 0. -1.
         11    1    3    3    0    0  0.93541326187E+01 -0.50341608072E+01  0.42133498007E+01  0.11427812078E+02  0.51100000000E-03 0. -1.
        -11    1    3    3    0    0  0.89029748655E+01 -0.75881592945E+01  0.65409546221E+01  0.13402507622E+02  0.51100000000E-03 0.  1.
        -12    1    3    3    0    0  0.13318977311E+02 -0.16335209809E+02  0.31570540071E+01  0.21311997234E+02  0.00000000000E+00 0.  1.
</event>
<event>
 7    1  0.2395003E-008  0.4614232E+02  0.7816164E-02  0.1320468E+00
        -11   -1    0    0    0    0  0.00000000000E+00  0.00000000000E+00  0.45593999997E+02  0.45594000000E+02  0.51100000000E-03 0.  1.
         11   -1    0    0    0    0 -0.00000000000E+00 -0.00000000000E+00 -0.45593999997E+02  0.45594000000E+02  0.51100000000E-03 0. -1.
    9900012    2    1    2    0    0  0.14978907877E+02  0.42375700296E+02  0.30075569728E+01  0.46142322564E+02  0.10000043796E+02 0.  0.
         12    1    1    2    0    0 -0.14978907877E+02 -0.42375700296E+02 -0.30075569728E+01  0.45045677436E+02  0.00000000000E+00 0. -1.
         11    1    3    3    0    0  0.48401347263E+01  0.10610669279E+02 -0.59541049919E+00  0.11677659039E+02  0.51100000000E-03 0. -1.
        -11    1    3    3    0    0  0.23644160143E+01  0.54117202887E+01  0.37360332018E+01  0.69882132135E+01  0.51100000000E-03 0.  1.
        -12    1    3    3    0    0  0.77743571361E+01  0.26353310728E+02 -0.13306572981E+00  0.27476450311E+02  0.00000000000E+00 0.  1.
</event>
<event>
 7    1  0.2395003E-008  0.4614232E+02  0.7816164E-02  0.1320468E+00
        -11   -1    0    0    0    0  0.00000000000E+00  0.00000000000E+00  0.45593999997E+02  0.45594000000E+02  0.51100000000E-03 0.  1.
         11   -1    0    0    0    0 -0.00000000000E+00 -0.00000000000E+00 -0.45593999997E+02  0.45594000000E+02  0.51100000000E-03 0. -1.
    9900012    2    1    2    0    0 -0.97237609591E+01 -0.16303255151E+02 -0.40850531696E+02  0.46142316571E+02  0.99999891522E+01 0.  0.
         12    1    1    2    0    0  0.97237609591E+01  0.16303255151E+02  0.40850531696E+02  0.45045683429E+02  0.00000000000E+00 0. -1.
         11    1    3    3    0    0 -0.18752759229E+01 -0.29718264580E+01 -0.32066994143E+01  0.47572401325E+01  0.51100000000E-03 0. -1.
        -11    1    3    3    0    0 -0.41161115153E+01 -0.12733399382E+02 -0.28252367892E+02  0.31261447913E+02  0.51100000000E-03 0.  1.
         12    1    3    3    0    0 -0.37323735210E+01 -0.59802931044E+00 -0.93914643891E+01  0.10123628526E+02  0.00000000000E+00 0. -1.
</event>
<event>
 7    1  0.2395003E-008  0.4614233E+02  0.7816164E-02  0.1320468E+00
        -11   -1    0    0    0    0  0.00000000000E+00  0.00000000000E+00  0.45593999997E+02  0.45594000000E+02  0.51100000000E-03 0.  1.
         11   -1    0    0    0    0 -0.00000000000E+00 -0.00000000000E+00 -0.45593999997E+02  0.45594000000E+02  0.51100000000E-03 0. -1.
    9900012    2    1    2    0    0  0.32038208967E+02 -0.41538551685E+01  0.31391263950E+02  0.46142325414E+02  0.10000069781E+02 0.  0.
         12    1    1    2    0    0 -0.32038208967E+02  0.41538551685E+01 -0.31391263950E+02  0.45045674586E+02  0.00000000000E+00 0. -1.
         11    1    3    3    0    0  0.67427343169E+01 -0.48059003063E+01  0.98998938560E+01  0.12906162964E+02  0.51100000000E-03 0. -1.
        -11    1    3    3    0    0  0.13096481280E+02  0.33511066912E+00  0.12156448326E+02  0.17872027228E+02  0.51100000000E-03 0.  1.
         12    1    3    3    0    0  0.12198993370E+02  0.31693446864E+00  0.93349217677E+01  0.15364135222E+02  0.00000000000E+00 0. -1.
</event>
<event>
 7    1  0.2395003E-008  0.4614232E+02  0.7816164E-02  0.1320468E+00
        -11   -1    0    0    0    0  0.00000000000E+00  0.00000000000E+00  0.45593999997E+02  0.45594000000E+02  0.51100000000E-03 0. -1.
         11   -1    0    0    0    0 -0.00000000000E+00 -0.00000000000E+00 -0.45593999997E+02  0.45594000000E+02  0.51100000000E-03 0.  1.
    9900012    2    1    2    0    0  0.10240556067E+02  0.40909946371E+02 -0.15831005433E+02  0.46142318368E+02  0.10000005538E+02 0.  0.
         12    1    1    2    0    0 -0.10240556067E+02 -0.40909946371E+02  0.15831005433E+02  0.45045681632E+02  0.00000000000E+00 0. -1.
         11    1    3    3    0    0  0.55192090084E+01  0.13341033072E+02 -0.77546201152E+01  0.16388378959E+02  0.51100000000E-03 0.  1.
        -11    1    3    3    0    0  0.44790349500E+00  0.85231447415E+01 -0.52780441438E+01  0.10035056755E+02  0.51100000000E-03 0. -1.
         12    1    3    3    0    0  0.42734435636E+01  0.19045768557E+02 -0.27983411744E+01  0.19718882655E+02  0.00000000000E+00 0. -1.
</event>
<event>
 7    1  0.2395003E-008  0.4614232E+02  0.7816164E-02  0.1320468E+00
        -11   -1    0    0    0    0  0.00000000000E+00  0.00000000000E+00  0.45593999997E+02  0.45594000000E+02  0.51100000000E-03 0.  1.
         11   -1    0    0    0    0 -0.00000000000E+00 -0.00000000000E+00 -0.45593999997E+02  0.45594000000E+02  0.51100000000E-03 0. -1.
    9900012    2    1    2    0    0  0.30649672136E+02 -0.27125486694E+02  0.18812736587E+02  0.46142317762E+02  0.10000000007E+02 0.  0.
         12    1    1    2    0    0 -0.30649672136E+02  0.27125486694E+02 -0.18812736587E+02  0.45045682238E+02  0.00000000000E+00 0. -1.
         11    1    3    3    0    0  0.99043065444E+01 -0.10648628042E+02  0.41525557376E+01  0.15123897868E+02  0.51100000000E-03 0. -1.
        -11    1    3    3    0    0  0.92753751833E+01 -0.85556886835E+01  0.10653867493E+02  0.16514759655E+02  0.51100000000E-03 0.  1.
         12    1    3    3    0    0  0.11469990408E+02 -0.79211699680E+01  0.40063133573E+01  0.14503660239E+02  0.00000000000E+00 0. -1.
</event>
<event>
 7    1  0.2395003E-008  0.4614231E+02  0.7816164E-02  0.1320468E+00
        -11   -1    0    0    0    0  0.00000000000E+00  0.00000000000E+00  0.45593999997E+02  0.45594000000E+02  0.51100000000E-03 0.  1.
         11   -1    0    0    0    0 -0.00000000000E+00 -0.00000000000E+00 -0.45593999997E+02  0.45594000000E+02  0.51100000000E-03 0. -1.
    9900012    2    1    2    0    0 -0.20540834699E+02  0.38204908665E+02  0.12147956904E+02  0.46142314378E+02  0.99999691492E+01 0.  0.
         12    1    1    2    0    0  0.20540834699E+02 -0.38204908665E+02 -0.12147956904E+02  0.45045685622E+02  0.00000000000E+00 0. -1.
         11    1    3    3    0    0 -0.14418310946E+02  0.27215281687E+02  0.12584381971E+02  0.33270496204E+02  0.51100000000E-03 0.  1.
        -11    1    3    3    0    0 -0.29992454909E+01  0.28554785448E+01 -0.37893309362E+00  0.41584638732E+01  0.51100000000E-03 0. -1.
        -12    1    3    3    0    0 -0.31232782621E+01  0.81341484332E+01 -0.57491973281E-01  0.87133543003E+01  0.00000000000E+00 0.  1.
</event>
<event>
 7    1  0.2395003E-008  0.4614232E+02  0.7816164E-02  0.1320468E+00
        -11   -1    0    0    0    0  0.00000000000E+00  0.00000000000E+00  0.45593999997E+02  0.45594000000E+02  0.51100000000E-03 0. -1.
         11   -1    0    0    0    0 -0.00000000000E+00 -0.00000000000E+00 -0.45593999997E+02  0.45594000000E+02  0.51100000000E-03 0.  1.
    9900012    2    1    2    0    0  0.88565894831E+01  0.25733891634E+02 -0.35894861674E+02  0.46142318181E+02  0.10000003830E+02 0.  0.
         12    1    1    2    0    0 -0.88565894831E+01 -0.25733891634E+02  0.35894861674E+02  0.45045681819E+02  0.00000000000E+00 0. -1.
         11    1    3    3    0    0  0.14485175378E+01  0.30465118438E+01 -0.39266881358E+01  0.51767091331E+01  0.51100000000E-03 0. -1.
        -11    1    3    3    0    0  0.91145402430E+01  0.19930817648E+02 -0.30068952474E+02  0.37208254986E+02  0.51100000000E-03 0.  1.
         12    1    3    3    0    0 -0.17064682977E+01  0.27565621419E+01 -0.18992210644E+01  0.37573540617E+01  0.00000000000E+00 0. -1.
</event>
<event>
 7    1  0.2395003E-008  0.4614232E+02  0.7816164E-02  0.1320468E+00
        -11   -1    0    0    0    0  0.00000000000E+00  0.00000000000E+00  0.45593999997E+02  0.45594000000E+02  0.51100000000E-03 0.  1.
         11   -1    0    0    0    0 -0.00000000000E+00 -0.00000000000E+00 -0.45593999997E+02  0.45594000000E+02  0.51100000000E-03 0. -1.
    9900012    2    1    2    0    0 -0.17499402979E+02 -0.37703837001E+02  0.17358140429E+02  0.46142317983E+02  0.10000002022E+02 0.  0.
         12    1    1    2    0    0  0.17499402979E+02  0.37703837001E+02 -0.17358140429E+02  0.45045682017E+02  0.00000000000E+00 0. -1.
         11    1    3    3    0    0  0.98401886571E+00 -0.43912843867E+00  0.78161246888E+00  0.13311818908E+01  0.51100000000E-03 0. -1.
        -11    1    3    3    0    0 -0.96242064863E+01 -0.19192691551E+02  0.76354599933E+01  0.22787825895E+02  0.51100000000E-03 0.  1.
         12    1    3    3    0    0 -0.88592153584E+01 -0.18072017012E+02  0.89410679668E+01  0.22023310197E+02  0.00000000000E+00 0. -1.
</event>
<event>
 7    1  0.2395003E-008  0.4614232E+02  0.7816164E-02  0.1320468E+00
        -11   -1    0    0    0    0  0.00000000000E+00  0.00000000000E+00  0.45593999997E+02  0.45594000000E+02  0.51100000000E-03 0.  1.
         11   -1    0    0    0    0 -0.00000000000E+00 -0.00000000000E+00 -0.45593999997E+02  0.45594000000E+02  0.51100000000E-03 0. -1.
    9900012    2    1    2    0    0  0.31699023077E+02 -0.23596591784E+01  0.31917352859E+02  0.46142317976E+02  0.10000001955E+02 0.  0.
         12    1    1    2    0    0 -0.31699023077E+02  0.23596591784E+01 -0.31917352859E+02  0.45045682024E+02  0.00000000000E+00 0. -1.
         11    1    3    3    0    0 -0.50855563996E+00 -0.17457889626E+00  0.15279693200E+01  0.16198139195E+01  0.51100000000E-03 0. -1.
        -11    1    3    3    0    0  0.63796625171E+01 -0.18556627983E+01  0.73816865003E+01  0.99314084652E+01  0.51100000000E-03 0.  1.
        -12    1    3    3    0    0  0.25827916200E+02 -0.32941748376E+00  0.23007697039E+02  0.34591095591E+02  0.00000000000E+00 0.  1.
</event>
<event>
 7    1  0.2395003E-008  0.4614232E+02  0.7816164E-02  0.1320468E+00
        -11   -1    0    0    0    0  0.00000000000E+00  0.00000000000E+00  0.45593999997E+02  0.45594000000E+02  0.51100000000E-03 0. -1.
         11   -1    0    0    0    0 -0.00000000000E+00 -0.00000000000E+00 -0.45593999997E+02  0.45594000000E+02  0.51100000000E-03 0.  1.
    9900012    2    1    2    0    0  0.13120748660E+02  0.37004834569E+02 -0.22081704371E+02  0.46142317690E+02  0.99999993530E+01 0.  0.
         12    1    1    2    0    0 -0.13120748660E+02 -0.37004834569E+02  0.22081704371E+02  0.45045682310E+02  0.00000000000E+00 0. -1.
         11    1    3    3    0    0  0.15247645672E+00  0.89742851952E+01 -0.22171411049E+01  0.92453641775E+01  0.51100000000E-03 0. -1.
        -11    1    3    3    0    0  0.68438336134E+01  0.14863405448E+02 -0.12643319110E+02  0.20678791028E+02  0.51100000000E-03 0.  1.
         12    1    3    3    0    0  0.61244385895E+01  0.13167143926E+02 -0.72212441560E+01  0.16218162484E+02  0.00000000000E+00 0. -1.
</event>
<event>
 7    1  0.2419102E-008  0.4614232E+02  0.7816164E-02  0.1320468E+00
        -11   -1    0    0    0    0  0.00000000000E+00  0.00000000000E+00  0.45593999997E+02  0.45594000000E+02  0.51100000000E-03 0.  1.
         11   -1    0    0    0    0 -0.00000000000E+00 -0.00000000000E+00 -0.45593999997E+02  0.45594000000E+02  0.51100000000E-03 0. -1.
    9900012    2    1    2    0    0 -0.23838049854E+02  0.38196445832E+02 -0.13756189925E+01  0.46142318490E+02  0.10000006649E+02 0.  0.
         12    1    1    2    0    0  0.23838049854E+02 -0.38196445832E+02  0.13756189925E+01  0.45045681510E+02  0.00000000000E+00 0. -1.
         11    1    3    3    0    0 -0.24192744275E+01  0.10361419243E+02  0.61666382360E+00  0.10657962846E+02  0.51100000000E-03 0. -1.
        -11    1    3    3    0    0 -0.36231839933E+00 -0.30744110051E-01  0.31558788411E+00  0.48147252934E+00  0.51100000000E-03 0.  1.
        -12    1    3    3    0    0 -0.21056457028E+02  0.27865770699E+02 -0.23078707002E+01  0.35002883115E+02  0.00000000000E+00 0.  1.
</event>
<event>
 7    1  0.2395003E-008  0.4614232E+02  0.7816164E-02  0.1320468E+00
        -11   -1    0    0    0    0  0.00000000000E+00  0.00000000000E+00  0.45593999997E+02  0.45594000000E+02  0.51100000000E-03 0. -1.
         11   -1    0    0    0    0 -0.00000000000E+00 -0.00000000000E+00 -0.45593999997E+02  0.45594000000E+02  0.51100000000E-03 0.  1.
    9900012    2    1    2    0    0  0.65391648808E+01 -0.43769608874E+02  0.84008442396E+01  0.46142317385E+02  0.99999965708E+01 0.  0.
         12    1    1    2    0    0 -0.65391648808E+01  0.43769608874E+02 -0.84008442396E+01  0.45045682615E+02  0.00000000000E+00 0. -1.
         11    1    3    3    0    0 -0.55141494480E+00 -0.61843878519E+01  0.24066708795E+01  0.66590372072E+01  0.51100000000E-03 0. -1.
        -11    1    3    3    0    0 -0.51275101666E+00 -0.15269321545E+02  0.41721301497E+01  0.15837353450E+02  0.51100000000E-03 0.  1.
        -12    1    3    3    0    0  0.76033308422E+01 -0.22315899477E+02  0.18220432105E+01  0.23645926728E+02  0.00000000000E+00 0.  1.
</event>
<event>
 7    1  0.2395003E-008  0.4614231E+02  0.7816164E-02  0.1320468E+00
        -11   -1    0    0    0    0  0.00000000000E+00  0.00000000000E+00  0.45593999997E+02  0.45594000000E+02  0.51100000000E-03 0.  1.
         11   -1    0    0    0    0 -0.00000000000E+00 -0.00000000000E+00 -0.45593999997E+02  0.45594000000E+02  0.51100000000E-03 0. -1.
    9900012    2    1    2    0    0  0.28933342062E+02  0.13499552215E+02  0.31776367815E+02  0.46142314919E+02  0.99999740857E+01 0.  0.
         12    1    1    2    0    0 -0.28933342062E+02 -0.13499552215E+02 -0.31776367815E+02  0.45045685081E+02  0.00000000000E+00 0. -1.
         11    1    3    3    0    0  0.17116815121E+01 -0.94766287150E+00  0.16153627004E+01  0.25371865189E+01  0.51100000000E-03 0. -1.
        -11    1    3    3    0    0  0.21313870027E+02  0.83286619793E+01  0.23511139730E+02  0.32808860961E+02  0.51100000000E-03 0.  1.
        -12    1    3    3    0    0  0.59077905228E+01  0.61185531073E+01  0.66498653844E+01  0.10796267439E+02  0.00000000000E+00 0.  1.
</event>
<event>
 7    1  0.2395003E-008  0.4614232E+02  0.7816164E-02  0.1320468E+00
        -11   -1    0    0    0    0  0.00000000000E+00  0.00000000000E+00  0.45593999997E+02  0.45594000000E+02  0.51100000000E-03 0. -1.
         11   -1    0    0    0    0 -0.00000000000E+00 -0.00000000000E+00 -0.45593999997E+02  0.45594000000E+02  0.51100000000E-03 0.  1.
    9900012    2    1    2    0    0 -0.21217684764E+02  0.37556376703E+02  0.12978516686E+02  0.46142317929E+02  0.10000001535E+02 0.  0.
         12    1    1    2    0    0  0.21217684764E+02 -0.37556376703E+02 -0.12978516686E+02  0.45045682071E+02  0.00000000000E+00 0. -1.
         11    1    3    3    0    0 -0.14568328481E+01  0.73233339175E+01  0.25243198208E+01  0.78819903853E+01  0.51100000000E-03 0. -1.
        -11    1    3    3    0    0 -0.16713659957E+02  0.25567953364E+02  0.11408546084E+02  0.32607078869E+02  0.51100000000E-03 0.  1.
        -12    1    3    3    0    0 -0.30471919588E+01  0.46650894217E+01 -0.95434921833E+00  0.56532486746E+01  0.00000000000E+00 0.  1.
</event>
<event>
 7    1  0.2395003E-008  0.4614232E+02  0.7816164E-02  0.1320468E+00
        -11   -1    0    0    0    0  0.00000000000E+00  0.00000000000E+00  0.45593999997E+02  0.45594000000E+02  0.51100000000E-03 0. -1.
         11   -1    0    0    0    0 -0.00000000000E+00 -0.00000000000E+00 -0.45593999997E+02  0.45594000000E+02  0.51100000000E-03 0.  1.
    9900012    2    1    2    0    0 -0.20958662185E+02  0.32227132367E+02 -0.23478923326E+02  0.46142318501E+02  0.10000006748E+02 0.  0.
         12    1    1    2    0    0  0.20958662185E+02 -0.32227132367E+02  0.23478923326E+02  0.45045681499E+02  0.00000000000E+00 0. -1.
         11    1    3    3    0    0 -0.94938228418E+00  0.81808759765E+00 -0.24952502557E+01  0.27922872593E+01  0.51100000000E-03 0. -1.
        -11    1    3    3    0    0 -0.11961645193E+02  0.18081463707E+02 -0.16196204829E+02  0.27061731959E+02  0.51100000000E-03 0.  1.
         12    1    3    3    0    0 -0.80476347076E+01  0.13327581062E+02 -0.47874682412E+01  0.16288299283E+02  0.00000000000E+00 0. -1.
</event>
<event>
 7    1  0.2395003E-008  0.4614232E+02  0.7816164E-02  0.1320468E+00
        -11   -1    0    0    0    0  0.00000000000E+00  0.00000000000E+00  0.45593999997E+02  0.45594000000E+02  0.51100000000E-03 0. -1.
         11   -1    0    0    0    0 -0.00000000000E+00 -0.00000000000E+00 -0.45593999997E+02  0.45594000000E+02  0.51100000000E-03 0.  1.
    9900012    2    1    2    0    0  0.30425888289E+02 -0.22002402380E+02 -0.24885198699E+02  0.46142317599E+02  0.99999985238E+01 0.  0.
         12    1    1    2    0    0 -0.30425888289E+02  0.22002402380E+02  0.24885198699E+02  0.45045682401E+02  0.00000000000E+00 0. -1.
         11    1    3    3    0    0  0.93902502787E+01 -0.70739614366E+01 -0.86806512344E+01  0.14614083509E+02  0.51100000000E-03 0. -1.
        -11    1    3    3    0    0  0.53738513419E+01 -0.56780191857E+01 -0.91085784272E+01  0.12003515374E+02  0.51100000000E-03 0.  1.
         12    1    3    3    0    0  0.15661786668E+02 -0.92504217577E+01 -0.70959690375E+01  0.19524718715E+02  0.00000000000E+00 0. -1.
</event>
<event>
 7    1  0.2395003E-008  0.4614232E+02  0.7816164E-02  0.1320468E+00
        -11   -1    0    0    0    0  0.00000000000E+00  0.00000000000E+00  0.45593999997E+02  0.45594000000E+02  0.51100000000E-03 0. -1.
         11   -1    0    0    0    0 -0.00000000000E+00 -0.00000000000E+00 -0.45593999997E+02  0.45594000000E+02  0.51100000000E-03 0.  1.
    9900012    2    1    2    0    0  0.43642740738E+02  0.28180446779E+01 -0.10792742456E+02  0.46142317802E+02  0.10000000377E+02 0.  0.
         12    1    1    2    0    0 -0.43642740738E+02 -0.28180446779E+01  0.10792742456E+02  0.45045682198E+02  0.00000000000E+00 0. -1.
         11    1    3    3    0    0  0.19425131495E+02  0.21902174236E+01 -0.32384576234E+01  0.19814650993E+02  0.51100000000E-03 0. -1.
        -11    1    3    3    0    0  0.28387977534E+01 -0.23511311986E+00  0.13504343100E+01  0.31524155738E+01  0.51100000000E-03 0.  1.
        -12    1    3    3    0    0  0.21378811490E+02  0.86294037411E+00 -0.89047191426E+01  0.23175251235E+02  0.00000000000E+00 0.  1.
</event>
<event>
 7    1  0.2395003E-008  0.4614232E+02  0.7816164E-02  0.1320468E+00
        -11   -1    0    0    0    0  0.00000000000E+00  0.00000000000E+00  0.45593999997E+02  0.45594000000E+02  0.51100000000E-03 0.  1.
         11   -1    0    0    0    0 -0.00000000000E+00 -0.00000000000E+00 -0.45593999997E+02  0.45594000000E+02  0.51100000000E-03 0. -1.
    9900012    2    1    2    0    0 -0.33928472282E+01 -0.16764708578E+02  0.41671892509E+02  0.46142317728E+02  0.99999997008E+01 0.  0.
         12    1    1    2    0    0  0.33928472282E+01  0.16764708578E+02 -0.41671892509E+02  0.45045682272E+02  0.00000000000E+00 0. -1.
         11    1    3    3    0    0 -0.31797722020E+00  0.56122287298E-01  0.82698276058E+00  0.88778374119E+00  0.51100000000E-03 0. -1.
        -11    1    3    3    0    0 -0.45124359216E+01 -0.10952358160E+02  0.34572114209E+02  0.36545140694E+02  0.51100000000E-03 0.  1.
         12    1    3    3    0    0  0.14375659136E+01 -0.58684727055E+01  0.62727955398E+01  0.87093932931E+01  0.00000000000E+00 0. -1.
</event>
<event>
 7    1  0.2395003E-008  0.4614232E+02  0.7816164E-02  0.1320468E+00
        -11   -1    0    0    0    0  0.00000000000E+00  0.00000000000E+00  0.45593999997E+02  0.45594000000E+02  0.51100000000E-03 0.  1.
         11   -1    0    0    0    0 -0.00000000000E+00 -0.00000000000E+00 -0.45593999997E+02  0.45594000000E+02  0.51100000000E-03 0. -1.
    9900012    2    1    2    0    0  0.28246798403E+02  0.16690229365E+02  0.30865323660E+02  0.46142316734E+02  0.99999906298E+01 0.  0.
         12    1    1    2    0    0 -0.28246798403E+02 -0.16690229365E+02 -0.30865323660E+02  0.45045683266E+02  0.00000000000E+00 0. -1.
         11    1    3    3    0    0  0.93436777460E+00  0.35992022138E+00 -0.30556523253E+00  0.10468792081E+01  0.51100000000E-03 0. -1.
        -11    1    3    3    0    0  0.77381775500E+01  0.76056223962E+01  0.13494357071E+02  0.17315384976E+02  0.51100000000E-03 0.  1.
        -12    1    3    3    0    0  0.19574253079E+02  0.87246867470E+01  0.17676531822E+02  0.27780052550E+02  0.00000000000E+00 0.  1.
</event>
<event>
 7    1  0.2395003E-008  0.4614232E+02  0.7816164E-02  0.1320468E+00
        -11   -1    0    0    0    0  0.00000000000E+00  0.00000000000E+00  0.45593999997E+02  0.45594000000E+02  0.51100000000E-03 0.  1.
         11   -1    0    0    0    0 -0.00000000000E+00 -0.00000000000E+00 -0.45593999997E+02  0.45594000000E+02  0.51100000000E-03 0. -1.
    9900012    2    1    2    0    0 -0.21745425311E+02  0.29217553423E+02  0.26506309593E+02  0.46142318761E+02  0.10000009122E+02 0.  0.
         12    1    1    2    0    0  0.21745425311E+02 -0.29217553423E+02 -0.26506309593E+02  0.45045681239E+02  0.00000000000E+00 0. -1.
         11    1    3    3    0    0 -0.31556329817E+01  0.51952416807E+01  0.73985765289E+01  0.95753585077E+01  0.51100000000E-03 0. -1.
        -11    1    3    3    0    0 -0.28555523205E+01  0.53227523119E+00  0.17660653264E+01  0.33994827511E+01  0.51100000000E-03 0.  1.
        -12    1    3    3    0    0 -0.15734240008E+02  0.23490036512E+02  0.17341667738E+02  0.33167477503E+02  0.00000000000E+00 0.  1.
</event>
<event>
 7    1  0.2395003E-008  0.4614232E+02  0.7816164E-02  0.1320468E+00
        -11   -1    0    0    0    0  0.00000000000E+00  0.00000000000E+00  0.45593999997E+02  0.45594000000E+02  0.51100000000E-03 0.  1.
         11   -1    0    0    0    0 -0.00000000000E+00 -0.00000000000E+00 -0.45593999997E+02  0.45594000000E+02  0.51100000000E-03 0. -1.
    9900012    2    1    2    0    0 -0.75788599798E+01 -0.28229139854E+02  0.34275210106E+02  0.46142317818E+02  0.10000000514E+02 0.  0.
         12    1    1    2    0    0  0.75788599798E+01  0.28229139854E+02 -0.34275210106E+02  0.45045682182E+02  0.00000000000E+00 0. -1.
         11    1    3    3    0    0 -0.41467576881E+01 -0.77671689234E+01  0.72537827482E+01  0.11407974265E+02  0.51100000000E-03 0. -1.
        -11    1    3    3    0    0 -0.52122774750E+01 -0.17498922412E+02  0.21352413142E+02  0.28094584341E+02  0.51100000000E-03 0.  1.
         12    1    3    3    0    0  0.17801751833E+01 -0.29630485178E+01  0.56690142160E+01  0.66397592112E+01  0.00000000000E+00 0. -1.
</event>
<event>
 7    1  0.2395003E-008  0.4614232E+02  0.7816164E-02  0.1320468E+00
        -11   -1    0    0    0    0  0.00000000000E+00  0.00000000000E+00  0.45593999997E+02  0.45594000000E+02  0.51100000000E-03 0.  1.
         11   -1    0    0    0    0 -0.00000000000E+00 -0.00000000000E+00 -0.45593999997E+02  0.45594000000E+02  0.51100000000E-03 0. -1.
    9900012    2    1    2    0    0 -0.48750411995E+01 -0.19103992993E+01  0.44740337822E+02  0.46142317847E+02  0.10000000783E+02 0.  0.
         12    1    1    2    0    0  0.48750411995E+01  0.19103992993E+01 -0.44740337822E+02  0.45045682153E+02  0.00000000000E+00 0. -1.
         11    1    3    3    0    0 -0.25350020395E+01 -0.11742406203E+01  0.37417485979E+01  0.46696637144E+01  0.51100000000E-03 0. -1.
        -11    1    3    3    0    0 -0.33091528195E+01  0.19564605722E+00  0.12189363782E+02  0.12632076609E+02  0.51100000000E-03 0.  1.
        -12    1    3    3    0    0  0.96911365952E+00 -0.93180473628E+00  0.28809225442E+02  0.28840577524E+02  0.00000000000E+00 0.  1.
</event>
<event>
 7    1  0.2395003E-008  0.4614232E+02  0.7816164E-02  0.1320468E+00
        -11   -1    0    0    0    0  0.00000000000E+00  0.00000000000E+00  0.45593999997E+02  0.45594000000E+02  0.51100000000E-03 0.  1.
         11   -1    0    0    0    0 -0.00000000000E+00 -0.00000000000E+00 -0.45593999997E+02  0.45594000000E+02  0.51100000000E-03 0. -1.
    9900012    2    1    2    0    0 -0.19360772340E+02 -0.35744841639E+02  0.19405675491E+02  0.46142318179E+02  0.10000003811E+02 0.  0.
         12    1    1    2    0    0  0.19360772340E+02  0.35744841639E+02 -0.19405675491E+02  0.45045681821E+02  0.00000000000E+00 0. -1.
         11    1    3    3    0    0 -0.86041745657E+01 -0.84884772521E+01  0.66474878796E+01  0.13794026294E+02  0.51100000000E-03 0. -1.
        -11    1    3    3    0    0 -0.92344519358E+01 -0.17117145563E+02  0.89695142454E+01  0.21417842114E+02  0.51100000000E-03 0.  1.
        -12    1    3    3    0    0 -0.15221458389E+01 -0.10139218825E+02  0.37886733662E+01  0.10930449771E+02  0.00000000000E+00 0.  1.
</event>
<event>
 7    1  0.2395003E-008  0.4614232E+02  0.7816164E-02  0.1320468E+00
        -11   -1    0    0    0    0  0.00000000000E+00  0.00000000000E+00  0.45593999997E+02  0.45594000000E+02  0.51100000000E-03 0. -1.
         11   -1    0    0    0    0 -0.00000000000E+00 -0.00000000000E+00 -0.45593999997E+02  0.45594000000E+02  0.51100000000E-03 0.  1.
    9900012    2    1    2    0    0 -0.38249225824E+02 -0.63959095173E+01 -0.22917302268E+02  0.46142315657E+02  0.99999808157E+01 0.  0.
         12    1    1    2    0    0  0.38249225824E+02  0.63959095173E+01  0.22917302268E+02  0.45045684343E+02  0.00000000000E+00 0. -1.
         11    1    3    3    0    0 -0.89687905471E+01 -0.31692410822E+01 -0.90368936696E+01  0.13120546497E+02  0.51100000000E-03 0. -1.
        -11    1    3    3    0    0 -0.29501529409E+02 -0.33442658242E+01 -0.13636841907E+02  0.32672431939E+02  0.51100000000E-03 0.  1.
         12    1    3    3    0    0  0.22109413211E+00  0.11759738912E+00 -0.24356669158E+00  0.34933722165E+00  0.00000000000E+00 0. -1.
</event>
<event>
 7    1  0.2395003E-008  0.4614232E+02  0.7816164E-02  0.1320468E+00
        -11   -1    0    0    0    0  0.00000000000E+00  0.00000000000E+00  0.45593999997E+02  0.45594000000E+02  0.51100000000E-03 0. -1.
         11   -1    0    0    0    0 -0.00000000000E+00 -0.00000000000E+00 -0.45593999997E+02  0.45594000000E+02  0.51100000000E-03 0.  1.
    9900012    2    1    2    0    0 -0.42863539623E+02 -0.27566723909E+01 -0.13573174740E+02  0.46142319361E+02  0.10000014592E+02 0.  0.
         12    1    1    2    0    0  0.42863539623E+02  0.27566723909E+01  0.13573174740E+02  0.45045680639E+02  0.00000000000E+00 0. -1.
         11    1    3    3    0    0 -0.55595695850E+01 -0.12303220039E+01  0.24760705978E+00  0.56994574936E+01  0.51100000000E-03 0. -1.
        -11    1    3    3    0    0 -0.20651213204E+02 -0.11962292974E+01 -0.11378389958E+02  0.23608713003E+02  0.51100000000E-03 0.  1.
        -12    1    3    3    0    0 -0.16652756834E+02 -0.33012108958E+00 -0.24423918410E+01  0.16834148865E+02  0.00000000000E+00 0.  1.
</event>
<event>
 7    1  0.2395003E-008  0.4614232E+02  0.7816164E-02  0.1320468E+00
        -11   -1    0    0    0    0  0.00000000000E+00  0.00000000000E+00  0.45593999997E+02  0.45594000000E+02  0.51100000000E-03 0.  1.
         11   -1    0    0    0    0 -0.00000000000E+00 -0.00000000000E+00 -0.45593999997E+02  0.45594000000E+02  0.51100000000E-03 0. -1.
    9900012    2    1    2    0    0  0.42106233357E+02  0.60621476909E+01  0.14813136016E+02  0.46142317402E+02  0.99999967254E+01 0.  0.
         12    1    1    2    0    0 -0.42106233357E+02 -0.60621476909E+01 -0.14813136016E+02  0.45045682598E+02  0.00000000000E+00 0. -1.
         11    1    3    3    0    0  0.47517909219E+01 -0.46736626661E-02  0.65788926780E+00  0.47971196939E+01  0.51100000000E-03 0. -1.
        -11    1    3    3    0    0  0.93741696977E+01  0.38213817162E+01  0.51477524821E+00  0.10136222647E+02  0.51100000000E-03 0.  1.
         12    1    3    3    0    0  0.27980272737E+02  0.22454396374E+01  0.13640471500E+02  0.31208975061E+02  0.00000000000E+00 0. -1.
</event>
<event>
 7    1  0.2395003E-008  0.4614232E+02  0.7816164E-02  0.1320468E+00
        -11   -1    0    0    0    0  0.00000000000E+00  0.00000000000E+00  0.45593999997E+02  0.45594000000E+02  0.51100000000E-03 0.  1.
         11   -1    0    0    0    0 -0.00000000000E+00 -0.00000000000E+00 -0.45593999997E+02  0.45594000000E+02  0.51100000000E-03 0. -1.
    9900012    2    1    2    0    0  0.65162985900E+01  0.30914538538E+02  0.32108294800E+02  0.46142318350E+02  0.10000005374E+02 0.  0.
         12    1    1    2    0    0 -0.65162985900E+01 -0.30914538538E+02 -0.32108294800E+02  0.45045681650E+02  0.00000000000E+00 0. -1.
         11    1    3    3    0    0  0.32679662656E+01  0.16460916105E+02  0.20934229929E+02  0.26830641914E+02  0.51100000000E-03 0.  1.
        -11    1    3    3    0    0  0.25388801624E+01  0.41953154530E+01  0.61542249751E+01  0.78689941883E+01  0.51100000000E-03 0. -1.
         12    1    3    3    0    0  0.70945216192E+00  0.10258306979E+02  0.50198398957E+01  0.11442682248E+02  0.00000000000E+00 0. -1.
</event>
<event>
 7    1  0.2395003E-008  0.4614232E+02  0.7816164E-02  0.1320468E+00
        -11   -1    0    0    0    0  0.00000000000E+00  0.00000000000E+00  0.45593999997E+02  0.45594000000E+02  0.51100000000E-03 0. -1.
         11   -1    0    0    0    0 -0.00000000000E+00 -0.00000000000E+00 -0.45593999997E+02  0.45594000000E+02  0.51100000000E-03 0.  1.
    9900012    2    1    2    0    0  0.18458424192E+02  0.15686617934E+02 -0.37978020365E+02  0.46142318335E+02  0.10000005235E+02 0.  0.
         12    1    1    2    0    0 -0.18458424192E+02 -0.15686617934E+02  0.37978020365E+02  0.45045681665E+02  0.00000000000E+00 0. -1.
         11    1    3    3    0    0  0.23665433691E+01  0.85166631670E+00 -0.82225218644E+00  0.26461220592E+01  0.51100000000E-03 0. -1.
        -11    1    3    3    0    0  0.15501969006E+02  0.15243168126E+02 -0.34794080948E+02  0.41027957381E+02  0.51100000000E-03 0.  1.
        -12    1    3    3    0    0  0.58991181630E+00 -0.40821650913E+00 -0.23616872297E+01  0.24682388945E+01  0.00000000000E+00 0.  1.
</event>
<event>
 7    1  0.2395003E-008  0.4614232E+02  0.7816164E-02  0.1320468E+00
        -11   -1    0    0    0    0  0.00000000000E+00  0.00000000000E+00  0.45593999997E+02  0.45594000000E+02  0.51100000000E-03 0.  1.
         11   -1    0    0    0    0 -0.00000000000E+00 -0.00000000000E+00 -0.45593999997E+02  0.45594000000E+02  0.51100000000E-03 0. -1.
    9900012    2    1    2    0    0  0.23318860249E+02 -0.38010872682E+02  0.63653586862E+01  0.46142317892E+02  0.10000001193E+02 0.  0.
         12    1    1    2    0    0 -0.23318860249E+02  0.38010872682E+02 -0.63653586862E+01  0.45045682108E+02  0.00000000000E+00 0. -1.
         11    1    3    3    0    0  0.50379646034E+01 -0.49299537925E+01 -0.38738684084E+00  0.70594334452E+01  0.51100000000E-03 0. -1.
        -11    1    3    3    0    0  0.14774470302E+02 -0.24473627427E+02  0.80485800564E+01  0.29698872930E+02  0.51100000000E-03 0.  1.
        -12    1    3    3    0    0  0.35064253440E+01 -0.86072914629E+01 -0.12958345293E+01  0.93840115168E+01  0.00000000000E+00 0.  1.
</event>
<event>
 7    1  0.2395003E-008  0.4614232E+02  0.7816164E-02  0.1320468E+00
        -11   -1    0    0    0    0  0.00000000000E+00  0.00000000000E+00  0.45593999997E+02  0.45594000000E+02  0.51100000000E-03 0. -1.
         11   -1    0    0    0    0 -0.00000000000E+00 -0.00000000000E+00 -0.45593999997E+02  0.45594000000E+02  0.51100000000E-03 0.  1.
    9900012    2    1    2    0    0  0.36525358945E+02 -0.25979178315E+02 -0.44826303581E+01  0.46142317333E+02  0.99999960950E+01 0.  0.
         12    1    1    2    0    0 -0.36525358945E+02  0.25979178315E+02  0.44826303581E+01  0.45045682667E+02  0.00000000000E+00 0. -1.
         11    1    3    3    0    0  0.26606366931E+02 -0.16960162474E+02 -0.26883060900E+01  0.31666589054E+02  0.51100000000E-03 0.  1.
        -11    1    3    3    0    0  0.10360573499E+02 -0.89845375353E+01 -0.12449119843E+01  0.13770011041E+02  0.51100000000E-03 0. -1.
         12    1    3    3    0    0 -0.44158148547E+00 -0.34478305746E-01 -0.54941228373E+00  0.70571723756E+00  0.00000000000E+00 0. -1.
</event>
<event>
 7    1  0.2395003E-008  0.4614232E+02  0.7816164E-02  0.1320468E+00
        -11   -1    0    0    0    0  0.00000000000E+00  0.00000000000E+00  0.45593999997E+02  0.45594000000E+02  0.51100000000E-03 0.  1.
         11   -1    0    0    0    0 -0.00000000000E+00 -0.00000000000E+00 -0.45593999997E+02  0.45594000000E+02  0.51100000000E-03 0. -1.
    9900012    2    1    2    0    0 -0.25997625253E+02 -0.13276486540E+02  0.34307024201E+02  0.46142317375E+02  0.99999964770E+01 0.  0.
         12    1    1    2    0    0  0.25997625253E+02  0.13276486540E+02 -0.34307024201E+02  0.45045682625E+02  0.00000000000E+00 0. -1.
         11    1    3    3    0    0 -0.19585828094E+02 -0.10486870118E+02  0.25554295866E+02  0.33861499442E+02  0.51100000000E-03 0.  1.
        -11    1    3    3    0    0  0.45487907436E+00 -0.15045154969E+01  0.21912751221E+01  0.26966958996E+01  0.51100000000E-03 0. -1.
         12    1    3    3    0    0 -0.68666762330E+01 -0.12851009250E+01  0.65614532133E+01  0.95841220332E+01  0.00000000000E+00 0. -1.
</event>
<event>
 7    1  0.2395003E-008  0.4614232E+02  0.7816164E-02  0.1320468E+00
        -11   -1    0    0    0    0  0.00000000000E+00  0.00000000000E+00  0.45593999997E+02  0.45594000000E+02  0.51100000000E-03 0. -1.
         11   -1    0    0    0    0 -0.00000000000E+00 -0.00000000000E+00 -0.45593999997E+02  0.45594000000E+02  0.51100000000E-03 0.  1.
    9900012    2    1    2    0    0  0.28804952308E+00  0.31155623742E+02 -0.32532408847E+02  0.46142317758E+02  0.99999999684E+01 0.  0.
         12    1    1    2    0    0 -0.28804952308E+00 -0.31155623742E+02  0.32532408847E+02  0.45045682242E+02  0.00000000000E+00 0. -1.
         11    1    3    3    0    0  0.36466219870E+01  0.13749218220E+02 -0.11999327416E+02  0.18609747775E+02  0.51100000000E-03 0. -1.
        -11    1    3    3    0    0 -0.92818144752E+00  0.14015963103E+02 -0.17102859372E+02  0.22131799327E+02  0.51100000000E-03 0.  1.
         12    1    3    3    0    0 -0.24303910164E+01  0.33904424193E+01 -0.34302220593E+01  0.54007706549E+01  0.00000000000E+00 0. -1.
</event>
<event>
 7    1  0.2395003E-008  0.4614232E+02  0.7816164E-02  0.1320468E+00
        -11   -1    0    0    0    0  0.00000000000E+00  0.00000000000E+00  0.45593999997E+02  0.45594000000E+02  0.51100000000E-03 0.  1.
         11   -1    0    0    0    0 -0.00000000000E+00 -0.00000000000E+00 -0.45593999997E+02  0.45594000000E+02  0.51100000000E-03 0. -1.
    9900012    2    1    2    0    0 -0.34176303418E+02 -0.82269393284E+01  0.28167555469E+02  0.46142318441E+02  0.10000006198E+02 0.  0.
         12    1    1    2    0    0  0.34176303418E+02  0.82269393284E+01 -0.28167555469E+02  0.45045681559E+02  0.00000000000E+00 0. -1.
         11    1    3    3    0    0 -0.65351397129E+01 -0.33465632800E+01  0.55656768346E+01  0.92132673760E+01  0.51100000000E-03 0. -1.
        -11    1    3    3    0    0 -0.20044302966E+02 -0.43304875655E+01  0.20570588716E+02  0.29046106871E+02  0.51100000000E-03 0.  1.
         12    1    3    3    0    0 -0.75968607394E+01 -0.54988848284E+00  0.20312899176E+01  0.78829441941E+01  0.00000000000E+00 0. -1.
</event>
<event>
 7    1  0.2395003E-008  0.4614232E+02  0.7816164E-02  0.1320468E+00
        -11   -1    0    0    0    0  0.00000000000E+00  0.00000000000E+00  0.45593999997E+02  0.45594000000E+02  0.51100000000E-03 0.  1.
         11   -1    0    0    0    0 -0.00000000000E+00 -0.00000000000E+00 -0.45593999997E+02  0.45594000000E+02  0.51100000000E-03 0. -1.
    9900012    2    1    2    0    0  0.23474293512E+02 -0.32534770213E+01  0.38307778851E+02  0.46142317753E+02  0.99999999241E+01 0.  0.
         12    1    1    2    0    0 -0.23474293512E+02  0.32534770213E+01 -0.38307778851E+02  0.45045682247E+02  0.00000000000E+00 0. -1.
         11    1    3    3    0    0  0.56047242341E+00  0.99616591606E+00  0.33347781777E+01  0.35252264644E+01  0.51100000000E-03 0.  1.
        -11    1    3    3    0    0  0.44859535691E+00 -0.13731525861E+01  0.89538481243E+00  0.16995587787E+01  0.51100000000E-03 0. -1.
        -12    1    3    3    0    0  0.22465225732E+02 -0.28764903513E+01  0.34077615861E+02  0.40917532510E+02  0.00000000000E+00 0.  1.
</event>
<event>
 7    1  0.2395003E-008  0.4614232E+02  0.7816164E-02  0.1320468E+00
        -11   -1    0    0    0    0  0.00000000000E+00  0.00000000000E+00  0.45593999997E+02  0.45594000000E+02  0.51100000000E-03 0.  1.
         11   -1    0    0    0    0 -0.00000000000E+00 -0.00000000000E+00 -0.45593999997E+02  0.45594000000E+02  0.51100000000E-03 0. -1.
    9900012    2    1    2    0    0  0.51710361582E+01 -0.15693398831E+02  0.41905741136E+02  0.46142317388E+02  0.99999965944E+01 0.  0.
         12    1    1    2    0    0 -0.51710361582E+01  0.15693398831E+02 -0.41905741136E+02  0.45045682612E+02  0.00000000000E+00 0. -1.
         11    1    3    3    0    0  0.63062824980E+00 -0.88010763212E+01  0.19468549038E+02  0.21374775749E+02  0.51100000000E-03 0. -1.
        -11    1    3    3    0    0  0.14785092510E+01  0.19973365751E+00  0.10113304149E+02  0.10222759129E+02  0.51100000000E-03 0.  1.
         12    1    3    3    0    0  0.30618986573E+01 -0.70920561675E+01  0.12323887949E+02  0.14544782510E+02  0.00000000000E+00 0. -1.
</event>
<event>
 7    1  0.2395003E-008  0.4614232E+02  0.7816164E-02  0.1320468E+00
        -11   -1    0    0    0    0  0.00000000000E+00  0.00000000000E+00  0.45593999997E+02  0.45594000000E+02  0.51100000000E-03 0.  1.
         11   -1    0    0    0    0 -0.00000000000E+00 -0.00000000000E+00 -0.45593999997E+02  0.45594000000E+02  0.51100000000E-03 0. -1.
    9900012    2    1    2    0    0  0.11548969000E+02  0.43360486384E+02  0.39500617016E+01  0.46142318166E+02  0.10000003692E+02 0.  0.
         12    1    1    2    0    0 -0.11548969000E+02 -0.43360486384E+02 -0.39500617016E+01  0.45045681834E+02  0.00000000000E+00 0. -1.
         11    1    3    3    0    0  0.62111636790E+01  0.10996004305E+02  0.27193683563E+01  0.12918422096E+02  0.51100000000E-03 0. -1.
        -11    1    3    3    0    0  0.14313472410E+01  0.16291365888E+02  0.28618627310E+01  0.16602638826E+02  0.51100000000E-03 0.  1.
         12    1    3    3    0    0  0.39064580804E+01  0.16073116191E+02 -0.16311693856E+01  0.16621257244E+02  0.00000000000E+00 0. -1.
</event>
<event>
 7    1  0.2395003E-008  0.4614232E+02  0.7816164E-02  0.1320468E+00
        -11   -1    0    0    0    0  0.00000000000E+00  0.00000000000E+00  0.45593999997E+02  0.45594000000E+02  0.51100000000E-03 0.  1.
         11   -1    0    0    0    0 -0.00000000000E+00 -0.00000000000E+00 -0.45593999997E+02  0.45594000000E+02  0.51100000000E-03 0. -1.
    9900012    2    1    2    0    0  0.17083878219E+02  0.12967575994E+02  0.39611825163E+02  0.46142316357E+02  0.99999871926E+01 0.  0.
         12    1    1    2    0    0 -0.17083878219E+02 -0.12967575994E+02 -0.39611825163E+02  0.45045683643E+02  0.00000000000E+00 0. -1.
         11    1    3    3    0    0  0.74257623543E-01  0.91976026586E+00  0.21803403243E+01  0.23675635857E+01  0.51100000000E-03 0. -1.
        -11    1    3    3    0    0  0.14628468103E+02  0.94372843088E+01  0.35950371002E+02  0.39943504973E+02  0.51100000000E-03 0.  1.
         12    1    3    3    0    0  0.23811524933E+01  0.26105314194E+01  0.14811138369E+01  0.38312477975E+01  0.00000000000E+00 0. -1.
</event>
<event>
 7    1  0.2395003E-008  0.4614232E+02  0.7816164E-02  0.1320468E+00
        -11   -1    0    0    0    0  0.00000000000E+00  0.00000000000E+00  0.45593999997E+02  0.45594000000E+02  0.51100000000E-03 0.  1.
         11   -1    0    0    0    0 -0.00000000000E+00 -0.00000000000E+00 -0.45593999997E+02  0.45594000000E+02  0.51100000000E-03 0. -1.
    9900012    2    1    2    0    0 -0.43068327946E+02 -0.63867875846E+01  0.11551691627E+02  0.46142317552E+02  0.99999980949E+01 0.  0.
         12    1    1    2    0    0  0.43068327946E+02  0.63867875846E+01 -0.11551691627E+02  0.45045682448E+02  0.00000000000E+00 0. -1.
         11    1    3    3    0    0 -0.90677345943E+01 -0.27713844275E+01  0.45901288810E+01  0.10534403909E+02  0.51100000000E-03 0. -1.
        -11    1    3    3    0    0 -0.30007927216E+02 -0.53014215890E+01  0.70312427897E+01  0.31273297589E+02  0.51100000000E-03 0.  1.
         12    1    3    3    0    0 -0.39926661363E+01  0.16860184319E+01 -0.69680043567E-01  0.43346160542E+01  0.00000000000E+00 0. -1.
</event>
<event>
 7    1  0.2395003E-008  0.4614232E+02  0.7816164E-02  0.1320468E+00
        -11   -1    0    0    0    0  0.00000000000E+00  0.00000000000E+00  0.45593999997E+02  0.45594000000E+02  0.51100000000E-03 0.  1.
         11   -1    0    0    0    0 -0.00000000000E+00 -0.00000000000E+00 -0.45593999997E+02  0.45594000000E+02  0.51100000000E-03 0. -1.
    9900012    2    1    2    0    0  0.32775386592E+02  0.12562604774E+02  0.28232399894E+02  0.46142318645E+02  0.10000008062E+02 0.  0.
         12    1    1    2    0    0 -0.32775386592E+02 -0.12562604774E+02 -0.28232399894E+02  0.45045681355E+02  0.00000000000E+00 0. -1.
         11    1    3    3    0    0  0.95705671573E+01  0.14445663367E+00  0.58060655221E+01  0.11194955138E+02  0.51100000000E-03 0. -1.
        -11    1    3    3    0    0  0.73037499248E+01  0.28803098836E+01  0.95978299423E+01  0.12399971284E+02  0.51100000000E-03 0.  1.
         12    1    3    3    0    0  0.15901069509E+02  0.95378382565E+01  0.12828504430E+02  0.22547392223E+02  0.00000000000E+00 0. -1.
</event>
<event>
 7    1  0.2395003E-008  0.4614232E+02  0.7816164E-02  0.1320468E+00
        -11   -1    0    0    0    0  0.00000000000E+00  0.00000000000E+00  0.45593999997E+02  0.45594000000E+02  0.51100000000E-03 0. -1.
         11   -1    0    0    0    0 -0.00000000000E+00 -0.00000000000E+00 -0.45593999997E+02  0.45594000000E+02  0.51100000000E-03 0.  1.
    9900012    2    1    2    0    0  0.29894457852E+02  0.73066519309E+01 -0.32894493063E+02  0.46142318225E+02  0.10000004227E+02 0.  0.
         12    1    1    2    0    0 -0.29894457852E+02 -0.73066519309E+01  0.32894493063E+02  0.45045681775E+02  0.00000000000E+00 0. -1.
         11    1    3    3    0    0  0.23232140650E+02  0.72381582434E+01 -0.20628196513E+02  0.31900560897E+02  0.51100000000E-03 0. -1.
        -11    1    3    3    0    0  0.20041279880E+01  0.13204711802E+01 -0.44828231646E+01  0.50848674433E+01  0.51100000000E-03 0.  1.
         12    1    3    3    0    0  0.46581892145E+01 -0.12519774927E+01 -0.77834733859E+01  0.91568898840E+01  0.00000000000E+00 0. -1.
</event>
<event>
 7    1  0.2395003E-008  0.4614232E+02  0.7816164E-02  0.1320468E+00
        -11   -1    0    0    0    0  0.00000000000E+00  0.00000000000E+00  0.45593999997E+02  0.45594000000E+02  0.51100000000E-03 0.  1.
         11   -1    0    0    0    0 -0.00000000000E+00 -0.00000000000E+00 -0.45593999997E+02  0.45594000000E+02  0.51100000000E-03 0. -1.
    9900012    2    1    2    0    0  0.40652662592E+01  0.89688556947E+00  0.44852900916E+02  0.46142317476E+02  0.99999974010E+01 0.  0.
         12    1    1    2    0    0 -0.40652662592E+01 -0.89688556947E+00 -0.44852900916E+02  0.45045682524E+02  0.00000000000E+00 0. -1.
         11    1    3    3    0    0  0.60282637736E-01 -0.14475767744E+01  0.73264617874E+01  0.74683435310E+01  0.51100000000E-03 0. -1.
        -11    1    3    3    0    0  0.20587756853E+01  0.49916263990E+01  0.15721629644E+02  0.16623012072E+02  0.51100000000E-03 0.  1.
        -12    1    3    3    0    0  0.19462079361E+01 -0.26471640551E+01  0.21804809485E+02  0.22050961873E+02  0.00000000000E+00 0.  1.
</event>
<event>
 7    1  0.2395003E-008  0.4614232E+02  0.7816164E-02  0.1320468E+00
        -11   -1    0    0    0    0  0.00000000000E+00  0.00000000000E+00  0.45593999997E+02  0.45594000000E+02  0.51100000000E-03 0. -1.
         11   -1    0    0    0    0 -0.00000000000E+00 -0.00000000000E+00 -0.45593999997E+02  0.45594000000E+02  0.51100000000E-03 0.  1.
    9900012    2    1    2    0    0 -0.26063459996E+02  0.35154216844E+02  0.10676637062E+02  0.46142317767E+02  0.10000000055E+02 0.  0.
         12    1    1    2    0    0  0.26063459996E+02 -0.35154216844E+02 -0.10676637062E+02  0.45045682233E+02  0.00000000000E+00 0. -1.
         11    1    3    3    0    0 -0.38817133974E+01  0.12523891339E+02  0.25449272633E+01  0.13356354601E+02  0.51100000000E-03 0. -1.
        -11    1    3    3    0    0 -0.14298081900E+01  0.85555760516E+00  0.20024845821E+00  0.16782222684E+01  0.51100000000E-03 0.  1.
        -12    1    3    3    0    0 -0.20751938409E+02  0.21774767899E+02  0.79314613402E+01  0.31107740898E+02  0.00000000000E+00 0.  1.
</event>
<event>
 7    1  0.2395003E-008  0.4614232E+02  0.7816164E-02  0.1320468E+00
        -11   -1    0    0    0    0  0.00000000000E+00  0.00000000000E+00  0.45593999997E+02  0.45594000000E+02  0.51100000000E-03 0.  1.
         11   -1    0    0    0    0 -0.00000000000E+00 -0.00000000000E+00 -0.45593999997E+02  0.45594000000E+02  0.51100000000E-03 0. -1.
    9900012    2    1    2    0    0 -0.27323315024E+01  0.34991702928E+02  0.28235236606E+02  0.46142317682E+02  0.99999992807E+01 0.  0.
         12    1    1    2    0    0  0.27323315024E+01 -0.34991702928E+02 -0.28235236606E+02  0.45045682318E+02  0.00000000000E+00 0. -1.
         11    1    3    3    0    0  0.23295122079E+01  0.12246899917E+02  0.10450960003E+02  0.16267628898E+02  0.51100000000E-03 0. -1.
        -11    1    3    3    0    0 -0.43371811287E+01  0.70333330102E+01  0.56570172998E+01  0.10014028079E+02  0.51100000000E-03 0.  1.
        -12    1    3    3    0    0 -0.72466258156E+00  0.15711470001E+02  0.12127259304E+02  0.19860660705E+02  0.00000000000E+00 0.  1.
</event>
<event>
 7    1  0.2395003E-008  0.4614232E+02  0.7816164E-02  0.1320468E+00
        -11   -1    0    0    0    0  0.00000000000E+00  0.00000000000E+00  0.45593999997E+02  0.45594000000E+02  0.51100000000E-03 0.  1.
         11   -1    0    0    0    0 -0.00000000000E+00 -0.00000000000E+00 -0.45593999997E+02  0.45594000000E+02  0.51100000000E-03 0. -1.
    9900012    2    1    2    0    0 -0.29973013259E+02 -0.33116094030E+02 -0.58357749491E+01  0.46142317888E+02  0.10000001160E+02 0.  0.
         12    1    1    2    0    0  0.29973013259E+02  0.33116094030E+02  0.58357749491E+01  0.45045682112E+02  0.00000000000E+00 0. -1.
         11    1    3    3    0    0 -0.45552456279E+01 -0.56180400549E+01 -0.19985167722E+01  0.75037794703E+01  0.51100000000E-03 0. -1.
        -11    1    3    3    0    0 -0.14615921660E+02 -0.15669794929E+02  0.21544970748E+01  0.21536236834E+02  0.51100000000E-03 0.  1.
        -12    1    3    3    0    0 -0.10801845971E+02 -0.11828259046E+02 -0.59917552516E+01  0.17102301583E+02  0.00000000000E+00 0.  1.
</event>
<event>
 7    1  0.2395003E-008  0.4614232E+02  0.7816164E-02  0.1320468E+00
        -11   -1    0    0    0    0  0.00000000000E+00  0.00000000000E+00  0.45593999997E+02  0.45594000000E+02  0.51100000000E-03 0.  1.
         11   -1    0    0    0    0 -0.00000000000E+00 -0.00000000000E+00 -0.45593999997E+02  0.45594000000E+02  0.51100000000E-03 0. -1.
    9900012    2    1    2    0    0  0.12690054794E+02 -0.94226158450E+01  0.42181634627E+02  0.46142317855E+02  0.10000000860E+02 0.  0.
         12    1    1    2    0    0 -0.12690054794E+02  0.94226158450E+01 -0.42181634627E+02  0.45045682145E+02  0.00000000000E+00 0. -1.
         11    1    3    3    0    0  0.19643696314E+01  0.11423926722E+01  0.10649418715E+02  0.10889165638E+02  0.51100000000E-03 0. -1.
        -11    1    3    3    0    0  0.54194613896E+01 -0.80803171926E+01  0.22135800442E+02  0.24179655688E+02  0.51100000000E-03 0.  1.
         12    1    3    3    0    0  0.53062237730E+01 -0.24846913245E+01  0.93964154700E+01  0.11073496530E+02  0.00000000000E+00 0. -1.
</event>
<event>
 7    1  0.2395003E-008  0.4614232E+02  0.7816164E-02  0.1320468E+00
        -11   -1    0    0    0    0  0.00000000000E+00  0.00000000000E+00  0.45593999997E+02  0.45594000000E+02  0.51100000000E-03 0. -1.
         11   -1    0    0    0    0 -0.00000000000E+00 -0.00000000000E+00 -0.45593999997E+02  0.45594000000E+02  0.51100000000E-03 0.  1.
    9900012    2    1    2    0    0 -0.20166642745E+02  0.52714529344E+01 -0.39932840782E+02  0.46142317980E+02  0.10000001999E+02 0.  0.
         12    1    1    2    0    0  0.20166642745E+02 -0.52714529344E+01  0.39932840782E+02  0.45045682020E+02  0.00000000000E+00 0. -1.
         11    1    3    3    0    0 -0.68204051269E+01  0.46203847511E+01 -0.10889458904E+02  0.13654530268E+02  0.51100000000E-03 0. -1.
        -11    1    3    3    0    0 -0.16267382303E+01  0.20221299295E+01 -0.35630958953E+01  0.44080539178E+01  0.51100000000E-03 0.  1.
        -12    1    3    3    0    0 -0.11719499388E+02 -0.13710617463E+01 -0.25480285983E+02  0.28079733795E+02  0.00000000000E+00 0.  1.
</event>
<event>
 7    1  0.2395003E-008  0.4614232E+02  0.7816164E-02  0.1320468E+00
        -11   -1    0    0    0    0  0.00000000000E+00  0.00000000000E+00  0.45593999997E+02  0.45594000000E+02  0.51100000000E-03 0.  1.
         11   -1    0    0    0    0 -0.00000000000E+00 -0.00000000000E+00 -0.45593999997E+02  0.45594000000E+02  0.51100000000E-03 0. -1.
    9900012    2    1    2    0    0  0.40622573886E+01 -0.29140624164E+02  0.34109170807E+02  0.46142318243E+02  0.10000004397E+02 0.  0.
         12    1    1    2    0    0 -0.40622573886E+01  0.29140624164E+02 -0.34109170807E+02  0.45045681757E+02  0.00000000000E+00 0. -1.
         11    1    3    3    0    0  0.40861626895E+00 -0.98368300451E+01  0.79377896471E+01  0.12646687208E+02  0.51100000000E-03 0. -1.
        -11    1    3    3    0    0  0.38686886205E+01 -0.64204100446E+01  0.61968928007E+01  0.97257337732E+01  0.51100000000E-03 0.  1.
        -12    1    3    3    0    0 -0.21504750085E+00 -0.12883384075E+02  0.19974488359E+02  0.23769897262E+02  0.00000000000E+00 0.  1.
</event>
<event>
 7    1  0.2395003E-008  0.4614232E+02  0.7816164E-02  0.1320468E+00
        -11   -1    0    0    0    0  0.00000000000E+00  0.00000000000E+00  0.45593999997E+02  0.45594000000E+02  0.51100000000E-03 0.  1.
         11   -1    0    0    0    0 -0.00000000000E+00 -0.00000000000E+00 -0.45593999997E+02  0.45594000000E+02  0.51100000000E-03 0. -1.
    9900012    2    1    2    0    0  0.25244804254E+02 -0.68492077429E+01  0.36672900725E+02  0.46142318341E+02  0.10000005288E+02 0.  0.
         12    1    1    2    0    0 -0.25244804254E+02  0.68492077429E+01 -0.36672900725E+02  0.45045681659E+02  0.00000000000E+00 0. -1.
         11    1    3    3    0    0  0.11409811235E+02 -0.73624890330E+01  0.18366922684E+02  0.22841494836E+02  0.51100000000E-03 0. -1.
        -11    1    3    3    0    0  0.11192348662E+02 -0.69125121698E+00  0.12393845975E+02  0.16713883903E+02  0.51100000000E-03 0.  1.
        -12    1    3    3    0    0  0.26426443572E+01  0.12045325070E+01  0.59121320656E+01  0.65869396020E+01  0.00000000000E+00 0.  1.
</event>
<event>
 7    1  0.2395003E-008  0.4614232E+02  0.7816164E-02  0.1320468E+00
        -11   -1    0    0    0    0  0.00000000000E+00  0.00000000000E+00  0.45593999997E+02  0.45594000000E+02  0.51100000000E-03 0.  1.
         11   -1    0    0    0    0 -0.00000000000E+00 -0.00000000000E+00 -0.45593999997E+02  0.45594000000E+02  0.51100000000E-03 0. -1.
    9900012    2    1    2    0    0 -0.28264705558E+00 -0.76389887448E+01  0.44392335873E+02  0.46142317380E+02  0.99999965264E+01 0.  0.
         12    1    1    2    0    0  0.28264705558E+00  0.76389887448E+01 -0.44392335873E+02  0.45045682620E+02  0.00000000000E+00 0. -1.
         11    1    3    3    0    0 -0.33695209149E+00 -0.12016302613E+01  0.11472663804E+01  0.16951909644E+01  0.51100000000E-03 0. -1.
        -11    1    3    3    0    0  0.33610046114E+01 -0.31301786100E+01  0.11908397158E+02  0.12763396619E+02  0.51100000000E-03 0.  1.
        -12    1    3    3    0    0 -0.33066995754E+01 -0.33071798735E+01  0.31336672335E+02  0.31683729797E+02  0.00000000000E+00 0.  1.
</event>
<event>
 7    1  0.2395003E-008  0.4614232E+02  0.7816164E-02  0.1320468E+00
        -11   -1    0    0    0    0  0.00000000000E+00  0.00000000000E+00  0.45593999997E+02  0.45594000000E+02  0.51100000000E-03 0. -1.
         11   -1    0    0    0    0 -0.00000000000E+00 -0.00000000000E+00 -0.45593999997E+02  0.45594000000E+02  0.51100000000E-03 0.  1.
    9900012    2    1    2    0    0  0.29254851816E+02  0.87647526741E+01 -0.33112628302E+02  0.46142318772E+02  0.10000009222E+02 0.  0.
         12    1    1    2    0    0 -0.29254851816E+02 -0.87647526741E+01  0.33112628302E+02  0.45045681228E+02  0.00000000000E+00 0. -1.
         11    1    3    3    0    0  0.13439390236E+02  0.32333704764E+01 -0.20385213827E+02  0.24629836329E+02  0.51100000000E-03 0. -1.
        -11    1    3    3    0    0  0.92609433061E+01  0.23013751249E+01 -0.96877479007E+01  0.13598303498E+02  0.51100000000E-03 0.  1.
        -12    1    3    3    0    0  0.65545182741E+01  0.32300070728E+01 -0.30396665738E+01  0.79141789451E+01  0.00000000000E+00 0.  1.
</event>
<event>
 7    1  0.2395003E-008  0.4614232E+02  0.7816164E-02  0.1320468E+00
        -11   -1    0    0    0    0  0.00000000000E+00  0.00000000000E+00  0.45593999997E+02  0.45594000000E+02  0.51100000000E-03 0.  1.
         11   -1    0    0    0    0 -0.00000000000E+00 -0.00000000000E+00 -0.45593999997E+02  0.45594000000E+02  0.51100000000E-03 0. -1.
    9900012    2    1    2    0    0 -0.15435974287E+02  0.41114418226E+02  0.10022417127E+02  0.46142317263E+02  0.99999954550E+01 0.  0.
         12    1    1    2    0    0  0.15435974287E+02 -0.41114418226E+02 -0.10022417127E+02  0.45045682737E+02  0.00000000000E+00 0. -1.
         11    1    3    3    0    0 -0.31149078888E+00  0.40364672483E+01 -0.65098724895E+00  0.41004730236E+01  0.51100000000E-03 0. -1.
        -11    1    3    3    0    0 -0.57324903245E+01  0.16791997531E+02  0.12666727246E+01  0.17788678604E+02  0.51100000000E-03 0.  1.
        -12    1    3    3    0    0 -0.93919931732E+01  0.20285953446E+02  0.94067316514E+01  0.24253165635E+02  0.00000000000E+00 0.  1.
</event>
<event>
 7    1  0.2395003E-008  0.4614232E+02  0.7816164E-02  0.1320468E+00
        -11   -1    0    0    0    0  0.00000000000E+00  0.00000000000E+00  0.45593999997E+02  0.45594000000E+02  0.51100000000E-03 0.  1.
         11   -1    0    0    0    0 -0.00000000000E+00 -0.00000000000E+00 -0.45593999997E+02  0.45594000000E+02  0.51100000000E-03 0. -1.
    9900012    2    1    2    0    0  0.26432250608E+02 -0.22824535677E+02  0.28451541594E+02  0.46142317408E+02  0.99999967829E+01 0.  0.
         12    1    1    2    0    0 -0.26432250608E+02  0.22824535677E+02 -0.28451541594E+02  0.45045682592E+02  0.00000000000E+00 0. -1.
         11    1    3    3    0    0  0.10671799355E+02 -0.12342311008E+02  0.17105962269E+02  0.23639667678E+02  0.51100000000E-03 0. -1.
        -11    1    3    3    0    0  0.12710521380E+02 -0.10330171627E+02  0.95048128838E+01  0.18937034293E+02  0.51100000000E-03 0.  1.
         12    1    3    3    0    0  0.30499298735E+01 -0.15205304202E+00  0.18407664403E+01  0.35656154376E+01  0.00000000000E+00 0. -1.
</event>
<event>
 7    1  0.2395003E-008  0.4614232E+02  0.7816164E-02  0.1320468E+00
        -11   -1    0    0    0    0  0.00000000000E+00  0.00000000000E+00  0.45593999997E+02  0.45594000000E+02  0.51100000000E-03 0.  1.
         11   -1    0    0    0    0 -0.00000000000E+00 -0.00000000000E+00 -0.45593999997E+02  0.45594000000E+02  0.51100000000E-03 0. -1.
    9900012    2    1    2    0    0 -0.28113554860E+02 -0.28434419807E+02  0.20741872453E+02  0.46142317971E+02  0.10000001913E+02 0.  0.
         12    1    1    2    0    0  0.28113554860E+02  0.28434419807E+02 -0.20741872453E+02  0.45045682029E+02  0.00000000000E+00 0. -1.
         11    1    3    3    0    0 -0.96736907602E+00 -0.12356847615E+01 -0.46885677674E-02  0.15693125893E+01  0.51100000000E-03 0. -1.
        -11    1    3    3    0    0 -0.23392494442E+02 -0.24312249194E+02  0.14470204471E+02  0.36710776003E+02  0.51100000000E-03 0.  1.
         12    1    3    3    0    0 -0.37536913416E+01 -0.28864858523E+01  0.62763565494E+01  0.78622293784E+01  0.00000000000E+00 0. -1.
</event>
<event>
 7    1  0.2395003E-008  0.4614232E+02  0.7816164E-02  0.1320468E+00
        -11   -1    0    0    0    0  0.00000000000E+00  0.00000000000E+00  0.45593999997E+02  0.45594000000E+02  0.51100000000E-03 0.  1.
         11   -1    0    0    0    0 -0.00000000000E+00 -0.00000000000E+00 -0.45593999997E+02  0.45594000000E+02  0.51100000000E-03 0. -1.
    9900012    2    1    2    0    0  0.40650375635E+02 -0.19405750532E+02  0.27829323817E+00  0.46142316076E+02  0.99999846371E+01 0.  0.
         12    1    1    2    0    0 -0.40650375635E+02  0.19405750532E+02 -0.27829323817E+00  0.45045683924E+02  0.00000000000E+00 0. -1.
         11    1    3    3    0    0  0.82304595669E+01 -0.42273496014E+01 -0.36661242570E+01  0.99524578202E+01  0.51100000000E-03 0. -1.
        -11    1    3    3    0    0  0.21375972763E+02 -0.81507417633E+01  0.21720741579E+01  0.22980093761E+02  0.51100000000E-03 0.  1.
         12    1    3    3    0    0  0.11043943306E+02 -0.70276591675E+01  0.17723433373E+01  0.13209764495E+02  0.00000000000E+00 0. -1.
</event>
<event>
 7    1  0.2395003E-008  0.4614232E+02  0.7816164E-02  0.1320468E+00
        -11   -1    0    0    0    0  0.00000000000E+00  0.00000000000E+00  0.45593999997E+02  0.45594000000E+02  0.51100000000E-03 0.  1.
         11   -1    0    0    0    0 -0.00000000000E+00 -0.00000000000E+00 -0.45593999997E+02  0.45594000000E+02  0.51100000000E-03 0. -1.
    9900012    2    1    2    0    0  0.34995016327E+02 -0.12596102700E+02  0.25412607989E+02  0.46142316347E+02  0.99999871058E+01 0.  0.
         12    1    1    2    0    0 -0.34995016327E+02  0.12596102700E+02 -0.25412607989E+02  0.45045683653E+02  0.00000000000E+00 0. -1.
         11    1    3    3    0    0  0.14825445846E+01  0.61238620749E+00  0.10138770333E+01  0.18976043350E+01  0.51100000000E-03 0. -1.
        -11    1    3    3    0    0  0.30074276869E+02 -0.98687427060E+01  0.23363623687E+02  0.39340985293E+02  0.51100000000E-03 0.  1.
         12    1    3    3    0    0  0.34381948734E+01 -0.33397462012E+01  0.10351072689E+01  0.49037267190E+01  0.00000000000E+00 0. -1.
</event>
<event>
 7    1  0.2395003E-008  0.4614232E+02  0.7816164E-02  0.1320468E+00
        -11   -1    0    0    0    0  0.00000000000E+00  0.00000000000E+00  0.45593999997E+02  0.45594000000E+02  0.51100000000E-03 0.  1.
         11   -1    0    0    0    0 -0.00000000000E+00 -0.00000000000E+00 -0.45593999997E+02  0.45594000000E+02  0.51100000000E-03 0. -1.
    9900012    2    1    2    0    0  0.41575790359E+02  0.10461957963E+02  0.13824415943E+02  0.46142318913E+02  0.10000010506E+02 0.  0.
         12    1    1    2    0    0 -0.41575790359E+02 -0.10461957963E+02 -0.13824415943E+02  0.45045681087E+02  0.00000000000E+00 0. -1.
         11    1    3    3    0    0  0.53527130183E+00  0.14233765331E+01 -0.29120172579E+00  0.15483264603E+01  0.51100000000E-03 0. -1.
        -11    1    3    3    0    0  0.13543570148E+02  0.50463121943E+01  0.59872859037E+01  0.15644205057E+02  0.51100000000E-03 0.  1.
         12    1    3    3    0    0  0.27496948909E+02  0.39922692351E+01  0.81283317649E+01  0.28949787396E+02  0.00000000000E+00 0. -1.
</event>
<event>
 7    1  0.2395003E-008  0.4614232E+02  0.7816164E-02  0.1320468E+00
        -11   -1    0    0    0    0  0.00000000000E+00  0.00000000000E+00  0.45593999997E+02  0.45594000000E+02  0.51100000000E-03 0.  1.
         11   -1    0    0    0    0 -0.00000000000E+00 -0.00000000000E+00 -0.45593999997E+02  0.45594000000E+02  0.51100000000E-03 0. -1.
    9900012    2    1    2    0    0  0.17609278862E+01  0.23204251299E+02  0.38569097004E+02  0.46142318863E+02  0.10000010045E+02 0.  0.
         12    1    1    2    0    0 -0.17609278862E+01 -0.23204251299E+02 -0.38569097004E+02  0.45045681137E+02  0.00000000000E+00 0. -1.
         11    1    3    3    0    0  0.30353611511E+01  0.76766934628E+01  0.11372856541E+02  0.14053003451E+02  0.51100000000E-03 0. -1.
        -11    1    3    3    0    0  0.28323998746E+01  0.54261095989E+01  0.93474242742E+01  0.11173159591E+02  0.51100000000E-03 0.  1.
         12    1    3    3    0    0 -0.41068331395E+01  0.10101448238E+02  0.17848816190E+02  0.20916155820E+02  0.00000000000E+00 0. -1.
</event>
<event>
 7    1  0.2395003E-008  0.4614231E+02  0.7816164E-02  0.1320468E+00
        -11   -1    0    0    0    0  0.00000000000E+00  0.00000000000E+00  0.45593999997E+02  0.45594000000E+02  0.51100000000E-03 0.  1.
         11   -1    0    0    0    0 -0.00000000000E+00 -0.00000000000E+00 -0.45593999997E+02  0.45594000000E+02  0.51100000000E-03 0. -1.
    9900012    2    1    2    0    0  0.36979270114E+02  0.15544077785E+02  0.20494614793E+02  0.46142311995E+02  0.99999474220E+01 0.  0.
         12    1    1    2    0    0 -0.36979270114E+02 -0.15544077785E+02 -0.20494614793E+02  0.45045688005E+02  0.00000000000E+00 0. -1.
         11    1    3    3    0    0  0.97932446496E+01  0.18901677381E+01  0.48675018996E+01  0.11098330949E+02  0.51100000000E-03 0.  1.
        -11    1    3    3    0    0  0.23793220802E+02  0.14489604761E+02  0.14216410351E+02  0.31275746607E+02  0.51100000000E-03 0. -1.
         12    1    3    3    0    0  0.33928046618E+01 -0.83569471478E+00  0.14107025424E+01  0.37682344397E+01  0.00000000000E+00 0. -1.
</event>
<event>
 7    1  0.2395003E-008  0.4614232E+02  0.7816164E-02  0.1320468E+00
        -11   -1    0    0    0    0  0.00000000000E+00  0.00000000000E+00  0.45593999997E+02  0.45594000000E+02  0.51100000000E-03 0.  1.
         11   -1    0    0    0    0 -0.00000000000E+00 -0.00000000000E+00 -0.45593999997E+02  0.45594000000E+02  0.51100000000E-03 0. -1.
    9900012    2    1    2    0    0 -0.34401731378E+01  0.13352250600E+02  0.42883517837E+02  0.46142317750E+02  0.99999998980E+01 0.  0.
         12    1    1    2    0    0  0.34401731378E+01 -0.13352250600E+02 -0.42883517837E+02  0.45045682250E+02  0.00000000000E+00 0. -1.
         11    1    3    3    0    0 -0.11532233941E+01  0.39602610877E+01  0.12907458185E+02  0.13550500697E+02  0.51100000000E-03 0. -1.
        -11    1    3    3    0    0  0.29894703911E+01  0.38705525875E+01  0.86127426818E+01  0.99044155464E+01  0.51100000000E-03 0.  1.
         12    1    3    3    0    0 -0.52764201348E+01  0.55214369249E+01  0.21363316970E+02  0.22687401507E+02  0.00000000000E+00 0. -1.
</event>
<event>
 7    1  0.2395003E-008  0.4614232E+02  0.7816164E-02  0.1320468E+00
        -11   -1    0    0    0    0  0.00000000000E+00  0.00000000000E+00  0.45593999997E+02  0.45594000000E+02  0.51100000000E-03 0.  1.
         11   -1    0    0    0    0 -0.00000000000E+00 -0.00000000000E+00 -0.45593999997E+02  0.45594000000E+02  0.51100000000E-03 0. -1.
    9900012    2    1    2    0    0  0.19847199967E+02  0.28270870384E+02 -0.28912971395E+02  0.46142319034E+02  0.10000011609E+02 0.  0.
         12    1    1    2    0    0 -0.19847199967E+02 -0.28270870384E+02  0.28912971395E+02  0.45045680966E+02  0.00000000000E+00 0. -1.
         11    1    3    3    0    0  0.56340839474E+01  0.39266052989E+01 -0.33739071444E+01  0.76514299827E+01  0.51100000000E-03 0. -1.
        -11    1    3    3    0    0  0.11646252617E+02  0.21958918955E+02 -0.19851559448E+02  0.31810591546E+02  0.51100000000E-03 0.  1.
         12    1    3    3    0    0  0.25668634023E+01  0.23853461293E+01 -0.56875048031E+01  0.66802975060E+01  0.00000000000E+00 0. -1.
</event>
<event>
 7    1  0.2395003E-008  0.4614232E+02  0.7816164E-02  0.1320468E+00
        -11   -1    0    0    0    0  0.00000000000E+00  0.00000000000E+00  0.45593999997E+02  0.45594000000E+02  0.51100000000E-03 0.  1.
         11   -1    0    0    0    0 -0.00000000000E+00 -0.00000000000E+00 -0.45593999997E+02  0.45594000000E+02  0.51100000000E-03 0. -1.
    9900012    2    1    2    0    0  0.15040216706E+00  0.44744751191E+02 -0.51959758307E+01  0.46142317135E+02  0.99999942935E+01 0.  0.
         12    1    1    2    0    0 -0.15040216706E+00 -0.44744751191E+02  0.51959758307E+01  0.45045682865E+02  0.00000000000E+00 0. -1.
         11    1    3    3    0    0  0.44253415357E+00 -0.33420796990E+00  0.39203075528E+00  0.67913166501E+00  0.51100000000E-03 0. -1.
        -11    1    3    3    0    0 -0.27346292754E+00  0.10243996351E+02 -0.20322285000E+01  0.10447209970E+02  0.51100000000E-03 0.  1.
        -12    1    3    3    0    0 -0.18669058970E-01  0.34834962810E+02 -0.35557780859E+01  0.35015975501E+02  0.00000000000E+00 0.  1.
</event>
<event>
 7    1  0.2395003E-008  0.4614232E+02  0.7816164E-02  0.1320468E+00
        -11   -1    0    0    0    0  0.00000000000E+00  0.00000000000E+00  0.45593999997E+02  0.45594000000E+02  0.51100000000E-03 0. -1.
         11   -1    0    0    0    0 -0.00000000000E+00 -0.00000000000E+00 -0.45593999997E+02  0.45594000000E+02  0.51100000000E-03 0.  1.
    9900012    2    1    2    0    0 -0.44651480718E+01  0.32253999498E+02  0.31126442935E+02  0.46142317846E+02  0.10000000773E+02 0.  0.
         12    1    1    2    0    0  0.44651480718E+01 -0.32253999498E+02 -0.31126442935E+02  0.45045682154E+02  0.00000000000E+00 0. -1.
         11    1    3    3    0    0  0.13089996234E+01  0.26093134800E+01  0.63619325118E+01  0.69997273087E+01  0.51100000000E-03 0. -1.
        -11    1    3    3    0    0 -0.13974238753E+01  0.33792368514E+01  0.35598825080E+01  0.51034105182E+01  0.51100000000E-03 0.  1.
         12    1    3    3    0    0 -0.43767238199E+01  0.26265449167E+02  0.21204627915E+02  0.34039180019E+02  0.00000000000E+00 0. -1.
</event>
<event>
 7    1  0.2395003E-008  0.4614232E+02  0.7816164E-02  0.1320468E+00
        -11   -1    0    0    0    0  0.00000000000E+00  0.00000000000E+00  0.45593999997E+02  0.45594000000E+02  0.51100000000E-03 0.  1.
         11   -1    0    0    0    0 -0.00000000000E+00 -0.00000000000E+00 -0.45593999997E+02  0.45594000000E+02  0.51100000000E-03 0. -1.
    9900012    2    1    2    0    0 -0.31327502699E+02 -0.20950429934E+02  0.24673478813E+02  0.46142317671E+02  0.99999991748E+01 0.  0.
         12    1    1    2    0    0  0.31327502699E+02  0.20950429934E+02 -0.24673478813E+02  0.45045682329E+02  0.00000000000E+00 0. -1.
         11    1    3    3    0    0 -0.84832404191E+01 -0.41409213661E+01  0.45323360688E+01  0.10471612496E+02  0.51100000000E-03 0. -1.
        -11    1    3    3    0    0 -0.18298754960E+02 -0.89795871880E+01  0.13695942228E+02  0.24557203687E+02  0.51100000000E-03 0.  1.
         12    1    3    3    0    0 -0.45455073197E+01 -0.78299213803E+01  0.64452005168E+01  0.11113501488E+02  0.00000000000E+00 0. -1.
</event>
<event>
 7    1  0.2395003E-008  0.4614232E+02  0.7816164E-02  0.1320468E+00
        -11   -1    0    0    0    0  0.00000000000E+00  0.00000000000E+00  0.45593999997E+02  0.45594000000E+02  0.51100000000E-03 0.  1.
         11   -1    0    0    0    0 -0.00000000000E+00 -0.00000000000E+00 -0.45593999997E+02  0.45594000000E+02  0.51100000000E-03 0. -1.
    9900012    2    1    2    0    0  0.28164261987E+02  0.12132287858E+02  0.32995387224E+02  0.46142316078E+02  0.99999846530E+01 0.  0.
         12    1    1    2    0    0 -0.28164261987E+02 -0.12132287858E+02 -0.32995387224E+02  0.45045683922E+02  0.00000000000E+00 0. -1.
         11    1    3    3    0    0  0.22873313261E+01 -0.43496514827E+00  0.29811102137E+01  0.37826046110E+01  0.51100000000E-03 0. -1.
        -11    1    3    3    0    0  0.44255230435E+01  0.53717963834E+01  0.46509396677E+01  0.83709432352E+01  0.51100000000E-03 0.  1.
        -12    1    3    3    0    0  0.21451407617E+02  0.71954566232E+01  0.25363337342E+02  0.33988768232E+02  0.00000000000E+00 0.  1.
</event>
<event>
 7    1  0.2395003E-008  0.4614232E+02  0.7816164E-02  0.1320468E+00
        -11   -1    0    0    0    0  0.00000000000E+00  0.00000000000E+00  0.45593999997E+02  0.45594000000E+02  0.51100000000E-03 0.  1.
         11   -1    0    0    0    0 -0.00000000000E+00 -0.00000000000E+00 -0.45593999997E+02  0.45594000000E+02  0.51100000000E-03 0. -1.
    9900012    2    1    2    0    0  0.48471052418E+00 -0.27842803787E+02  0.35407017209E+02  0.46142317247E+02  0.99999953139E+01 0.  0.
         12    1    1    2    0    0 -0.48471052418E+00  0.27842803787E+02 -0.35407017209E+02  0.45045682753E+02  0.00000000000E+00 0. -1.
         11    1    3    3    0    0  0.27400119027E+01 -0.53222348104E+01  0.33029993179E+01  0.68369330375E+01  0.51100000000E-03 0. -1.
        -11    1    3    3    0    0 -0.36866405117E-01 -0.68556322415E+01  0.96961850360E+01  0.11875060298E+02  0.51100000000E-03 0.  1.
         12    1    3    3    0    0 -0.22184349734E+01 -0.15664936735E+02  0.22407832855E+02  0.27430323912E+02  0.00000000000E+00 0. -1.
</event>
<event>
 7    1  0.2395003E-008  0.4614232E+02  0.7816164E-02  0.1320468E+00
        -11   -1    0    0    0    0  0.00000000000E+00  0.00000000000E+00  0.45593999997E+02  0.45594000000E+02  0.51100000000E-03 0.  1.
         11   -1    0    0    0    0 -0.00000000000E+00 -0.00000000000E+00 -0.45593999997E+02  0.45594000000E+02  0.51100000000E-03 0. -1.
    9900012    2    1    2    0    0 -0.46046514849E+01  0.55216203760E+01  0.44468215542E+02  0.46142319847E+02  0.10000019025E+02 0.  0.
         12    1    1    2    0    0  0.46046514849E+01 -0.55216203760E+01 -0.44468215542E+02  0.45045680153E+02  0.00000000000E+00 0. -1.
         11    1    3    3    0    0 -0.28494424273E+00 -0.70003922105E+00  0.18923378158E+02  0.18938465865E+02  0.51100000000E-03 0. -1.
        -11    1    3    3    0    0 -0.59119758950E+00  0.54542169650E+01  0.13513643374E+02  0.14584805614E+02  0.51100000000E-03 0.  1.
        -12    1    3    3    0    0 -0.37285096527E+01  0.76744263207E+00  0.12031194010E+02  0.12619048369E+02  0.00000000000E+00 0.  1.
</event>
<event>
 7    1  0.2395003E-008  0.4614232E+02  0.7816164E-02  0.1320468E+00
        -11   -1    0    0    0    0  0.00000000000E+00  0.00000000000E+00  0.45593999997E+02  0.45594000000E+02  0.51100000000E-03 0. -1.
         11   -1    0    0    0    0 -0.00000000000E+00 -0.00000000000E+00 -0.45593999997E+02  0.45594000000E+02  0.51100000000E-03 0.  1.
    9900012    2    1    2    0    0 -0.15153812676E+02  0.37867092342E+02 -0.19119587701E+02  0.46142319243E+02  0.10000013510E+02 0.  0.
         12    1    1    2    0    0  0.15153812676E+02 -0.37867092342E+02  0.19119587701E+02  0.45045680757E+02  0.00000000000E+00 0. -1.
         11    1    3    3    0    0 -0.32751164799E+01  0.54351610851E+01 -0.39698897415E+00  0.63580629507E+01  0.51100000000E-03 0. -1.
        -11    1    3    3    0    0 -0.37951704653E+01  0.95154926049E+01 -0.24334501250E+01  0.10529463336E+02  0.51100000000E-03 0.  1.
        -12    1    3    3    0    0 -0.80835257312E+01  0.22916438652E+02 -0.16289148602E+02  0.29254792956E+02  0.00000000000E+00 0.  1.
</event>
<event>
 7    1  0.2395003E-008  0.4614232E+02  0.7816164E-02  0.1320468E+00
        -11   -1    0    0    0    0  0.00000000000E+00  0.00000000000E+00  0.45593999997E+02  0.45594000000E+02  0.51100000000E-03 0.  1.
         11   -1    0    0    0    0 -0.00000000000E+00 -0.00000000000E+00 -0.45593999997E+02  0.45594000000E+02  0.51100000000E-03 0. -1.
    9900012    2    1    2    0    0 -0.42587382376E+02  0.14646347019E+02 -0.95543273260E+00  0.46142317962E+02  0.10000001828E+02 0.  0.
         12    1    1    2    0    0  0.42587382376E+02 -0.14646347019E+02  0.95543273260E+00  0.45045682038E+02  0.00000000000E+00 0. -1.
         11    1    3    3    0    0 -0.12689995865E+02  0.29390084725E+01 -0.31050558132E+00  0.13029588629E+02  0.51100000000E-03 0. -1.
        -11    1    3    3    0    0 -0.21073257134E+02  0.99838541469E+01  0.27964858361E+01  0.23485737015E+02  0.51100000000E-03 0.  1.
         12    1    3    3    0    0 -0.88241293762E+01  0.17234843994E+01 -0.34414129874E+01  0.96269923171E+01  0.00000000000E+00 0. -1.
</event>
<event>
 7    1  0.2395003E-008  0.4614232E+02  0.7816164E-02  0.1320468E+00
        -11   -1    0    0    0    0  0.00000000000E+00  0.00000000000E+00  0.45593999997E+02  0.45594000000E+02  0.51100000000E-03 0. -1.
         11   -1    0    0    0    0 -0.00000000000E+00 -0.00000000000E+00 -0.45593999997E+02  0.45594000000E+02  0.51100000000E-03 0.  1.
    9900012    2    1    2    0    0  0.43301321250E+02  0.37022726149E+01 -0.11849121349E+02  0.46142324056E+02  0.10000057401E+02 0.  0.
         12    1    1    2    0    0 -0.43301321250E+02 -0.37022726149E+01  0.11849121349E+02  0.45045675944E+02  0.00000000000E+00 0. -1.
         11    1    3    3    0    0  0.91063474019E+01  0.17199343946E+01 -0.28273743171E+01  0.96890548102E+01  0.51100000000E-03 0. -1.
        -11    1    3    3    0    0  0.34439014227E+02  0.15217991055E+01 -0.81267796176E+01  0.35417596201E+02  0.51100000000E-03 0.  1.
         12    1    3    3    0    0 -0.24404037875E+00  0.46053911488E+00 -0.89496741461E+00  0.10356730449E+01  0.00000000000E+00 0. -1.
</event>
<event>
 7    1  0.2395003E-008  0.4614232E+02  0.7816164E-02  0.1320468E+00
        -11   -1    0    0    0    0  0.00000000000E+00  0.00000000000E+00  0.45593999997E+02  0.45594000000E+02  0.51100000000E-03 0.  1.
         11   -1    0    0    0    0 -0.00000000000E+00 -0.00000000000E+00 -0.45593999997E+02  0.45594000000E+02  0.51100000000E-03 0. -1.
    9900012    2    1    2    0    0 -0.26301503433E+02 -0.27544904896E+01  0.36465836023E+02  0.46142317659E+02  0.99999990696E+01 0.  0.
         12    1    1    2    0    0  0.26301503433E+02  0.27544904896E+01 -0.36465836023E+02  0.45045682341E+02  0.00000000000E+00 0. -1.
         11    1    3    3    0    0 -0.79270845321E+01  0.59048848825E-01  0.11032130667E+02  0.13584920436E+02  0.51100000000E-03 0. -1.
        -11    1    3    3    0    0 -0.18809962026E+02 -0.30210799573E+01  0.25711743569E+02  0.32000552388E+02  0.51100000000E-03 0.  1.
         12    1    3    3    0    0  0.43554312519E+00  0.20754061881E+00 -0.27803821261E+00  0.55684483479E+00  0.00000000000E+00 0. -1.
</event>
<event>
 7    1  0.2395003E-008  0.4614232E+02  0.7816164E-02  0.1320468E+00
        -11   -1    0    0    0    0  0.00000000000E+00  0.00000000000E+00  0.45593999997E+02  0.45594000000E+02  0.51100000000E-03 0.  1.
         11   -1    0    0    0    0 -0.00000000000E+00 -0.00000000000E+00 -0.45593999997E+02  0.45594000000E+02  0.51100000000E-03 0. -1.
    9900012    2    1    2    0    0  0.43882523525E+01 -0.40858004919E+02  0.18452104004E+02  0.46142318000E+02  0.10000002175E+02 0.  0.
         12    1    1    2    0    0 -0.43882523525E+01  0.40858004919E+02 -0.18452104004E+02  0.45045682000E+02  0.00000000000E+00 0. -1.
         11    1    3    3    0    0  0.13551961375E+00 -0.55073424831E+00 -0.67164568147E+00  0.87908017867E+00  0.51100000000E-03 0. -1.
        -11    1    3    3    0    0  0.20354498635E+01 -0.35876932864E+01  0.29886451344E+01  0.50937804492E+01  0.51100000000E-03 0.  1.
        -12    1    3    3    0    0  0.22172828752E+01 -0.36719577385E+02  0.16135104551E+02  0.40169457372E+02  0.00000000000E+00 0.  1.
</event>
<event>
 7    1  0.2395003E-008  0.4614232E+02  0.7816164E-02  0.1320468E+00
        -11   -1    0    0    0    0  0.00000000000E+00  0.00000000000E+00  0.45593999997E+02  0.45594000000E+02  0.51100000000E-03 0.  1.
         11   -1    0    0    0    0 -0.00000000000E+00 -0.00000000000E+00 -0.45593999997E+02  0.45594000000E+02  0.51100000000E-03 0. -1.
    9900012    2    1    2    0    0  0.19609748775E+02  0.60648506602E+00  0.40548778019E+02  0.46142317965E+02  0.10000001858E+02 0.  0.
         12    1    1    2    0    0 -0.19609748775E+02 -0.60648506602E+00 -0.40548778019E+02  0.45045682035E+02  0.00000000000E+00 0. -1.
         11    1    3    3    0    0  0.87271041879E+01  0.26163809276E+01  0.21427432812E+02  0.23283957435E+02  0.51100000000E-03 0. -1.
        -11    1    3    3    0    0  0.78001563213E+01 -0.99949444219E+00  0.17596925036E+02  0.19274158834E+02  0.51100000000E-03 0.  1.
         12    1    3    3    0    0  0.30824882661E+01 -0.10104014194E+01  0.15244201717E+01  0.35842016962E+01  0.00000000000E+00 0. -1.
</event>
<event>
 7    1  0.2395003E-008  0.4614232E+02  0.7816164E-02  0.1320468E+00
        -11   -1    0    0    0    0  0.00000000000E+00  0.00000000000E+00  0.45593999997E+02  0.45594000000E+02  0.51100000000E-03 0.  1.
         11   -1    0    0    0    0 -0.00000000000E+00 -0.00000000000E+00 -0.45593999997E+02  0.45594000000E+02  0.51100000000E-03 0. -1.
    9900012    2    1    2    0    0  0.20375765695E+01 -0.29360941318E+02  0.34101272511E+02  0.46142318961E+02  0.10000010945E+02 0.  0.
         12    1    1    2    0    0 -0.20375765695E+01  0.29360941318E+02 -0.34101272511E+02  0.45045681039E+02  0.00000000000E+00 0. -1.
         11    1    3    3    0    0 -0.78499358781E+00 -0.93922027493E+01  0.12652354590E+02  0.15776937737E+02  0.51100000000E-03 0. -1.
        -11    1    3    3    0    0  0.29114743116E+01 -0.18590696458E+02  0.21935907242E+02  0.28901119429E+02  0.51100000000E-03 0.  1.
         12    1    3    3    0    0 -0.88904154248E-01 -0.13780421108E+01 -0.48698932076E+00  0.14642617957E+01  0.00000000000E+00 0. -1.
</event>
<event>
 7    1  0.2395003E-008  0.4614232E+02  0.7816164E-02  0.1320468E+00
        -11   -1    0    0    0    0  0.00000000000E+00  0.00000000000E+00  0.45593999997E+02  0.45594000000E+02  0.51100000000E-03 0.  1.
         11   -1    0    0    0    0 -0.00000000000E+00 -0.00000000000E+00 -0.45593999997E+02  0.45594000000E+02  0.51100000000E-03 0. -1.
    9900012    2    1    2    0    0 -0.16196837193E+02 -0.39848903706E+02  0.13373137107E+02  0.46142318101E+02  0.10000003098E+02 0.  0.
         12    1    1    2    0    0  0.16196837193E+02  0.39848903706E+02 -0.13373137107E+02  0.45045681899E+02  0.00000000000E+00 0. -1.
         11    1    3    3    0    0 -0.31009893922E+00 -0.32416061867E+01  0.35538957656E+01  0.48202020078E+01  0.51100000000E-03 0. -1.
        -11    1    3    3    0    0 -0.97534276403E+01 -0.23277473894E+02  0.83118302115E+01  0.26571726767E+02  0.51100000000E-03 0.  1.
         12    1    3    3    0    0 -0.61333106137E+01 -0.13329823625E+02  0.15074111302E+01  0.14750389326E+02  0.00000000000E+00 0. -1.
</event>
<event>
 7    1  0.2395003E-008  0.4614232E+02  0.7816164E-02  0.1320468E+00
        -11   -1    0    0    0    0  0.00000000000E+00  0.00000000000E+00  0.45593999997E+02  0.45594000000E+02  0.51100000000E-03 0. -1.
         11   -1    0    0    0    0 -0.00000000000E+00 -0.00000000000E+00 -0.45593999997E+02  0.45594000000E+02  0.51100000000E-03 0.  1.
    9900012    2    1    2    0    0 -0.24585600618E+02  0.36448672137E+02 -0.98059076231E+01  0.46142320045E+02  0.10000020823E+02 0.  0.
         12    1    1    2    0    0  0.24585600618E+02 -0.36448672137E+02  0.98059076231E+01  0.45045679955E+02  0.00000000000E+00 0. -1.
         11    1    3    3    0    0 -0.23190195778E+01  0.87439997569E+00 -0.11087280952E+01  0.27150884645E+01  0.51100000000E-03 0.  1.
        -11    1    3    3    0    0 -0.77408092990E+01  0.18821224663E+02 -0.48767347145E+01  0.20927043942E+02  0.51100000000E-03 0. -1.
        -12    1    3    3    0    0 -0.14525771742E+02  0.16753047499E+02 -0.38204448133E+01  0.22500187638E+02  0.00000000000E+00 0.  1.
</event>
<event>
 7    1  0.2395003E-008  0.4614232E+02  0.7816164E-02  0.1320468E+00
        -11   -1    0    0    0    0  0.00000000000E+00  0.00000000000E+00  0.45593999997E+02  0.45594000000E+02  0.51100000000E-03 0. -1.
         11   -1    0    0    0    0 -0.00000000000E+00 -0.00000000000E+00 -0.45593999997E+02  0.45594000000E+02  0.51100000000E-03 0.  1.
    9900012    2    1    2    0    0  0.16561277044E+02  0.23359855728E+02 -0.34772903021E+02  0.46142317171E+02  0.99999946218E+01 0.  0.
         12    1    1    2    0    0 -0.16561277044E+02 -0.23359855728E+02  0.34772903021E+02  0.45045682829E+02  0.00000000000E+00 0. -1.
         11    1    3    3    0    0 -0.48033173465E-01  0.41688839275E+00 -0.22093037257E+01  0.22488055343E+01  0.51100000000E-03 0. -1.
        -11    1    3    3    0    0  0.38116253577E+01  0.10946210384E+02 -0.16083678433E+02  0.19825052884E+02  0.51100000000E-03 0.  1.
         12    1    3    3    0    0  0.12797684860E+02  0.11996756951E+02 -0.16479920862E+02  0.24068458753E+02  0.00000000000E+00 0. -1.
</event>
<event>
 7    1  0.2395003E-008  0.4614232E+02  0.7816164E-02  0.1320468E+00
        -11   -1    0    0    0    0  0.00000000000E+00  0.00000000000E+00  0.45593999997E+02  0.45594000000E+02  0.51100000000E-03 0.  1.
         11   -1    0    0    0    0 -0.00000000000E+00 -0.00000000000E+00 -0.45593999997E+02  0.45594000000E+02  0.51100000000E-03 0. -1.
    9900012    2    1    2    0    0 -0.19408196713E+02 -0.30001251062E+02  0.27429185565E+02  0.46142318900E+02  0.10000010388E+02 0.  0.
         12    1    1    2    0    0  0.19408196713E+02  0.30001251062E+02 -0.27429185565E+02  0.45045681100E+02  0.00000000000E+00 0. -1.
         11    1    3    3    0    0  0.45717998241E+00 -0.43628922036E+01  0.25566708885E+01  0.50774411084E+01  0.51100000000E-03 0.  1.
        -11    1    3    3    0    0 -0.62290159348E+01 -0.10971523272E+02  0.87296720094E+01  0.15342168558E+02  0.51100000000E-03 0. -1.
        -12    1    3    3    0    0 -0.13636360761E+02 -0.14666835587E+02  0.16142842667E+02  0.25722709234E+02  0.00000000000E+00 0.  1.
</event>
<event>
 7    1  0.2395003E-008  0.4614232E+02  0.7816164E-02  0.1320468E+00
        -11   -1    0    0    0    0  0.00000000000E+00  0.00000000000E+00  0.45593999997E+02  0.45594000000E+02  0.51100000000E-03 0.  1.
         11   -1    0    0    0    0 -0.00000000000E+00 -0.00000000000E+00 -0.45593999997E+02  0.45594000000E+02  0.51100000000E-03 0. -1.
    9900012    2    1    2    0    0 -0.87588744972E+01  0.23201018534E+02  0.37604632000E+02  0.46142317728E+02  0.99999996974E+01 0.  0.
         12    1    1    2    0    0  0.87588744972E+01 -0.23201018534E+02 -0.37604632000E+02  0.45045682272E+02  0.00000000000E+00 0. -1.
         11    1    3    3    0    0 -0.12071828119E+01 -0.45487188220E+00  0.11554252122E+01  0.17318217150E+01  0.51100000000E-03 0. -1.
        -11    1    3    3    0    0 -0.41085385251E+01  0.19395451554E+02  0.27157842277E+02  0.33624574752E+02  0.51100000000E-03 0.  1.
        -12    1    3    3    0    0 -0.34431531602E+01  0.42604388620E+01  0.92913645108E+01  0.10785921261E+02  0.00000000000E+00 0.  1.
</event>
<event>
 7    1  0.2395003E-008  0.4614232E+02  0.7816164E-02  0.1320468E+00
        -11   -1    0    0    0    0  0.00000000000E+00  0.00000000000E+00  0.45593999997E+02  0.45594000000E+02  0.51100000000E-03 0. -1.
         11   -1    0    0    0    0 -0.00000000000E+00 -0.00000000000E+00 -0.45593999997E+02  0.45594000000E+02  0.51100000000E-03 0.  1.
    9900012    2    1    2    0    0 -0.12259105794E+02 -0.43257375574E+02 -0.27617683630E+01  0.46142316734E+02  0.99999906304E+01 0.  0.
         12    1    1    2    0    0  0.12259105794E+02  0.43257375574E+02  0.27617683630E+01  0.45045683266E+02  0.00000000000E+00 0. -1.
         11    1    3    3    0    0 -0.29855929141E+01 -0.14771037449E+02  0.33294183321E+01  0.15433157132E+02  0.51100000000E-03 0. -1.
        -11    1    3    3    0    0 -0.29698189190E+01 -0.11755234660E+02 -0.36629496566E+01  0.12665803045E+02  0.51100000000E-03 0.  1.
         12    1    3    3    0    0 -0.63036939611E+01 -0.16731103465E+02 -0.24282370384E+01  0.18043356556E+02  0.00000000000E+00 0. -1.
</event>
<event>
 7    1  0.2395003E-008  0.4614232E+02  0.7816164E-02  0.1320468E+00
        -11   -1    0    0    0    0  0.00000000000E+00  0.00000000000E+00  0.45593999997E+02  0.45594000000E+02  0.51100000000E-03 0.  1.
         11   -1    0    0    0    0 -0.00000000000E+00 -0.00000000000E+00 -0.45593999997E+02  0.45594000000E+02  0.51100000000E-03 0. -1.
    9900012    2    1    2    0    0  0.72017413999E+01  0.43997838855E+02  0.64372803986E+01  0.46142317832E+02  0.10000000644E+02 0.  0.
         12    1    1    2    0    0 -0.72017413999E+01 -0.43997838855E+02 -0.64372803986E+01  0.45045682168E+02  0.00000000000E+00 0. -1.
         11    1    3    3    0    0  0.65767509271E+01  0.19424880078E+02  0.21551154376E+01  0.20620963644E+02  0.51100000000E-03 0. -1.
        -11    1    3    3    0    0  0.55481269135E+00  0.11539264668E+02  0.47212190291E+01  0.12480078349E+02  0.51100000000E-03 0.  1.
        -12    1    3    3    0    0  0.70177781491E-01  0.13033694108E+02 -0.43905406812E+00  0.13041275839E+02  0.00000000000E+00 0.  1.
</event>
<event>
 7    1  0.2395003E-008  0.4614232E+02  0.7816164E-02  0.1320468E+00
        -11   -1    0    0    0    0  0.00000000000E+00  0.00000000000E+00  0.45593999997E+02  0.45594000000E+02  0.51100000000E-03 0. -1.
         11   -1    0    0    0    0 -0.00000000000E+00 -0.00000000000E+00 -0.45593999997E+02  0.45594000000E+02  0.51100000000E-03 0.  1.
    9900012    2    1    2    0    0 -0.23104829034E+01  0.28492445541E+02 -0.34813154059E+02  0.46142317857E+02  0.10000000876E+02 0.  0.
         12    1    1    2    0    0  0.23104829034E+01 -0.28492445541E+02  0.34813154059E+02  0.45045682143E+02  0.00000000000E+00 0. -1.
         11    1    3    3    0    0 -0.85160036724E+00  0.74282078896E+00 -0.22412295651E+00  0.11520578418E+01  0.51100000000E-03 0. -1.
        -11    1    3    3    0    0  0.30875052887E+00  0.12343815482E+01  0.11816103702E+00  0.12778837926E+01  0.51100000000E-03 0.  1.
        -12    1    3    3    0    0 -0.17676330650E+01  0.26515243204E+02 -0.34707192140E+02  0.43712376223E+02  0.00000000000E+00 0.  1.
</event>
<event>
 7    1  0.2395003E-008  0.4614232E+02  0.7816164E-02  0.1320468E+00
        -11   -1    0    0    0    0  0.00000000000E+00  0.00000000000E+00  0.45593999997E+02  0.45594000000E+02  0.51100000000E-03 0.  1.
         11   -1    0    0    0    0 -0.00000000000E+00 -0.00000000000E+00 -0.45593999997E+02  0.45594000000E+02  0.51100000000E-03 0. -1.
    9900012    2    1    2    0    0  0.65060873304E+01 -0.29059740927E+01  0.44478528594E+02  0.46142319146E+02  0.10000012626E+02 0.  0.
         12    1    1    2    0    0 -0.65060873304E+01  0.29059740927E+01 -0.44478528594E+02  0.45045680854E+02  0.00000000000E+00 0. -1.
         11    1    3    3    0    0  0.17321774951E+01 -0.23850467503E+00  0.17384904837E+01  0.24656992472E+01  0.51100000000E-03 0. -1.
        -11    1    3    3    0    0  0.83279238906E-01 -0.37450531881E+01  0.25640221308E+02  0.25912416093E+02  0.51100000000E-03 0.  1.
        -12    1    3    3    0    0  0.46906305964E+01  0.10775837705E+01  0.17099816802E+02  0.17764203805E+02  0.00000000000E+00 0.  1.
</event>
<event>
 7    1  0.2395003E-008  0.4614232E+02  0.7816164E-02  0.1320468E+00
        -11   -1    0    0    0    0  0.00000000000E+00  0.00000000000E+00  0.45593999997E+02  0.45594000000E+02  0.51100000000E-03 0. -1.
         11   -1    0    0    0    0 -0.00000000000E+00 -0.00000000000E+00 -0.45593999997E+02  0.45594000000E+02  0.51100000000E-03 0.  1.
    9900012    2    1    2    0    0 -0.21307516679E+02 -0.24535572153E+02  0.31194693018E+02  0.46142318294E+02  0.10000004857E+02 0.  0.
         12    1    1    2    0    0  0.21307516679E+02  0.24535572153E+02 -0.31194693018E+02  0.45045681706E+02  0.00000000000E+00 0. -1.
         11    1    3    3    0    0 -0.12527295540E+01 -0.57364675257E+01  0.69339990971E+01  0.90860736707E+01  0.51100000000E-03 0. -1.
        -11    1    3    3    0    0 -0.18991373577E+02 -0.18581720808E+02  0.21806005880E+02  0.34372292784E+02  0.51100000000E-03 0.  1.
        -12    1    3    3    0    0 -0.10634135482E+01 -0.21738381981E+00  0.24546880404E+01  0.26839518393E+01  0.00000000000E+00 0.  1.
</event>
<event>
 7    1  0.2395003E-008  0.4614232E+02  0.7816164E-02  0.1320468E+00
        -11   -1    0    0    0    0  0.00000000000E+00  0.00000000000E+00  0.45593999997E+02  0.45594000000E+02  0.51100000000E-03 0.  1.
         11   -1    0    0    0    0 -0.00000000000E+00 -0.00000000000E+00 -0.45593999997E+02  0.45594000000E+02  0.51100000000E-03 0. -1.
    9900012    2    1    2    0    0  0.29283211731E+02 -0.16552685333E+02  0.29960233962E+02  0.46142317631E+02  0.99999988178E+01 0.  0.
         12    1    1    2    0    0 -0.29283211731E+02  0.16552685333E+02 -0.29960233962E+02  0.45045682369E+02  0.00000000000E+00 0. -1.
         11    1    3    3    0    0  0.27905031457E+01 -0.40428562136E+01  0.41232987752E+01  0.64135159796E+01  0.51100000000E-03 0. -1.
        -11    1    3    3    0    0  0.23477349962E+01 -0.23760315495E+01  0.60400049926E+01  0.69021044695E+01  0.51100000000E-03 0.  1.
        -12    1    3    3    0    0  0.24144973589E+02 -0.10133797570E+02  0.19796930194E+02  0.32826697182E+02  0.00000000000E+00 0.  1.
</event>
<event>
 7    1  0.2395003E-008  0.4614232E+02  0.7816164E-02  0.1320468E+00
        -11   -1    0    0    0    0  0.00000000000E+00  0.00000000000E+00  0.45593999997E+02  0.45594000000E+02  0.51100000000E-03 0.  1.
         11   -1    0    0    0    0 -0.00000000000E+00 -0.00000000000E+00 -0.45593999997E+02  0.45594000000E+02  0.51100000000E-03 0. -1.
    9900012    2    1    2    0    0  0.72743056880E+01 -0.24946884204E+02  0.36794712282E+02  0.46142318668E+02  0.10000008271E+02 0.  0.
         12    1    1    2    0    0 -0.72743056880E+01  0.24946884204E+02 -0.36794712282E+02  0.45045681332E+02  0.00000000000E+00 0. -1.
         11    1    3    3    0    0  0.32433415002E+01 -0.10146968759E+02  0.15933771173E+02  0.19166776024E+02  0.51100000000E-03 0. -1.
        -11    1    3    3    0    0  0.55874713850E+01 -0.12452486696E+02  0.19613562311E+02  0.23895105946E+02  0.51100000000E-03 0.  1.
         12    1    3    3    0    0 -0.15565071972E+01 -0.23474287488E+01  0.12473787978E+01  0.30804366980E+01  0.00000000000E+00 0. -1.
</event>
<event>
 7    1  0.2395003E-008  0.4614232E+02  0.7816164E-02  0.1320468E+00
        -11   -1    0    0    0    0  0.00000000000E+00  0.00000000000E+00  0.45593999997E+02  0.45594000000E+02  0.51100000000E-03 0. -1.
         11   -1    0    0    0    0 -0.00000000000E+00 -0.00000000000E+00 -0.45593999997E+02  0.45594000000E+02  0.51100000000E-03 0.  1.
    9900012    2    1    2    0    0 -0.38909558808E+02 -0.25250659212E+01 -0.22556235670E+02  0.46142317719E+02  0.99999996183E+01 0.  0.
         12    1    1    2    0    0  0.38909558808E+02  0.25250659212E+01  0.22556235670E+02  0.45045682281E+02  0.00000000000E+00 0. -1.
         11    1    3    3    0    0 -0.99092192440E+01 -0.22237900918E+01 -0.83404218201E+01  0.13141556407E+02  0.51100000000E-03 0. -1.
        -11    1    3    3    0    0 -0.23211410133E+02  0.16301111242E+01 -0.13379860066E+02  0.26841152700E+02  0.51100000000E-03 0.  1.
         12    1    3    3    0    0 -0.57889294314E+01 -0.19313869535E+01 -0.83595378350E+00  0.61596086121E+01  0.00000000000E+00 0. -1.
</event>
<event>
 7    1  0.2395003E-008  0.4614232E+02  0.7816164E-02  0.1320468E+00
        -11   -1    0    0    0    0  0.00000000000E+00  0.00000000000E+00  0.45593999997E+02  0.45594000000E+02  0.51100000000E-03 0.  1.
         11   -1    0    0    0    0 -0.00000000000E+00 -0.00000000000E+00 -0.45593999997E+02  0.45594000000E+02  0.51100000000E-03 0. -1.
    9900012    2    1    2    0    0 -0.15707035962E+02 -0.11151459972E+02  0.40719129369E+02  0.46142317246E+02  0.99999953008E+01 0.  0.
         12    1    1    2    0    0  0.15707035962E+02  0.11151459972E+02 -0.40719129369E+02  0.45045682754E+02  0.00000000000E+00 0. -1.
         11    1    3    3    0    0 -0.39112926447E+00 -0.68089936066E+00 -0.18208366013E+00  0.80607739162E+00  0.51100000000E-03 0. -1.
        -11    1    3    3    0    0  0.10886406504E+00 -0.10161237456E+01  0.53464707266E+01  0.54432626560E+01  0.51100000000E-03 0.  1.
         12    1    3    3    0    0 -0.15424770763E+02 -0.94544368657E+01  0.35554742303E+02  0.39892977198E+02  0.00000000000E+00 0. -1.
</event>
<event>
 7    1  0.2395003E-008  0.4614232E+02  0.7816164E-02  0.1320468E+00
        -11   -1    0    0    0    0  0.00000000000E+00  0.00000000000E+00  0.45593999997E+02  0.45594000000E+02  0.51100000000E-03 0.  1.
         11   -1    0    0    0    0 -0.00000000000E+00 -0.00000000000E+00 -0.45593999997E+02  0.45594000000E+02  0.51100000000E-03 0. -1.
    9900012    2    1    2    0    0  0.19698102890E+02 -0.39505975131E+02 -0.89652745666E+01  0.46142317892E+02  0.10000001197E+02 0.  0.
         12    1    1    2    0    0 -0.19698102890E+02  0.39505975131E+02  0.89652745666E+01  0.45045682108E+02  0.00000000000E+00 0. -1.
         11    1    3    3    0    0  0.15892732632E+01 -0.61800877432E+01  0.50198645263E+00  0.64008799925E+01  0.51100000000E-03 0. -1.
        -11    1    3    3    0    0  0.30678086323E+01 -0.10772912377E+02 -0.59109843897E+00  0.11216794930E+02  0.51100000000E-03 0.  1.
        -12    1    3    3    0    0  0.15041020994E+02 -0.22552975011E+02 -0.88761625803E+01  0.28524642969E+02  0.00000000000E+00 0.  1.
</event>
<event>
 7    1  0.2395003E-008  0.4614232E+02  0.7816164E-02  0.1320468E+00
        -11   -1    0    0    0    0  0.00000000000E+00  0.00000000000E+00  0.45593999997E+02  0.45594000000E+02  0.51100000000E-03 0.  1.
         11   -1    0    0    0    0 -0.00000000000E+00 -0.00000000000E+00 -0.45593999997E+02  0.45594000000E+02  0.51100000000E-03 0. -1.
    9900012    2    1    2    0    0 -0.42205000252E+02 -0.13609144729E+02  0.79147100056E+01  0.46142317621E+02  0.99999987255E+01 0.  0.
         12    1    1    2    0    0  0.42205000252E+02  0.13609144729E+02 -0.79147100056E+01  0.45045682379E+02  0.00000000000E+00 0. -1.
         11    1    3    3    0    0 -0.78140347500E+01 -0.40079580067E+01  0.59342357524E+00  0.88019894489E+01  0.51100000000E-03 0. -1.
        -11    1    3    3    0    0 -0.16726569031E+02 -0.82425064685E+01  0.59381821092E+01  0.19569850062E+02  0.51100000000E-03 0.  1.
        -12    1    3    3    0    0 -0.17664396471E+02 -0.13586802534E+01  0.13831043211E+01  0.17770478111E+02  0.00000000000E+00 0.  1.
</event>
<event>
 7    1  0.2395003E-008  0.4614232E+02  0.7816164E-02  0.1320468E+00
        -11   -1    0    0    0    0  0.00000000000E+00  0.00000000000E+00  0.45593999997E+02  0.45594000000E+02  0.51100000000E-03 0.  1.
         11   -1    0    0    0    0 -0.00000000000E+00 -0.00000000000E+00 -0.45593999997E+02  0.45594000000E+02  0.51100000000E-03 0. -1.
    9900012    2    1    2    0    0 -0.39143770821E+02  0.22232483204E+02 -0.16110242903E+01  0.46142317601E+02  0.99999985427E+01 0.  0.
         12    1    1    2    0    0  0.39143770821E+02 -0.22232483204E+02  0.16110242903E+01  0.45045682399E+02  0.00000000000E+00 0. -1.
         11    1    3    3    0    0 -0.27062399742E+02  0.15849533898E+02 -0.53133161528E+01  0.31809000823E+02  0.51100000000E-03 0. -1.
        -11    1    3    3    0    0 -0.30093620527E+01  0.14143174785E+01  0.19130124963E+01  0.38361661808E+01  0.51100000000E-03 0.  1.
        -12    1    3    3    0    0 -0.90720090257E+01  0.49686318282E+01  0.17892793662E+01  0.10497150597E+02  0.00000000000E+00 0.  1.
</event>
<event>
 7    1  0.2395003E-008  0.4614232E+02  0.7816164E-02  0.1320468E+00
        -11   -1    0    0    0    0  0.00000000000E+00  0.00000000000E+00  0.45593999997E+02  0.45594000000E+02  0.51100000000E-03 0.  1.
         11   -1    0    0    0    0 -0.00000000000E+00 -0.00000000000E+00 -0.45593999997E+02  0.45594000000E+02  0.51100000000E-03 0. -1.
    9900012    2    1    2    0    0 -0.38981533786E+02  0.37044863311E+01  0.22267249713E+02  0.46142316466E+02  0.99999881941E+01 0.  0.
         12    1    1    2    0    0  0.38981533786E+02 -0.37044863311E+01 -0.22267249713E+02  0.45045683534E+02  0.00000000000E+00 0. -1.
         11    1    3    3    0    0 -0.63930198435E+01 -0.48229570148E+00  0.36179822346E+01  0.73615968087E+01  0.51100000000E-03 0. -1.
        -11    1    3    3    0    0 -0.32575371304E+02  0.36278292999E+01  0.19207986136E+02  0.37990297349E+02  0.51100000000E-03 0.  1.
        -12    1    3    3    0    0 -0.13142638043E-01  0.55895273264E+00 -0.55871865842E+00  0.79042230834E+00  0.00000000000E+00 0.  1.
</event>
<event>
 7    1  0.2395003E-008  0.4614232E+02  0.7816164E-02  0.1320468E+00
        -11   -1    0    0    0    0  0.00000000000E+00  0.00000000000E+00  0.45593999997E+02  0.45594000000E+02  0.51100000000E-03 0.  1.
         11   -1    0    0    0    0 -0.00000000000E+00 -0.00000000000E+00 -0.45593999997E+02  0.45594000000E+02  0.51100000000E-03 0. -1.
    9900012    2    1    2    0    0  0.10532407926E+02 -0.87795152471E+00  0.43788251631E+02  0.46142318781E+02  0.10000009298E+02 0.  0.
         12    1    1    2    0    0 -0.10532407926E+02  0.87795152471E+00 -0.43788251631E+02  0.45045681219E+02  0.00000000000E+00 0. -1.
         11    1    3    3    0    0 -0.29535512064E+00 -0.22297849175E+00  0.66453130904E+01  0.66556096930E+01  0.51100000000E-03 0. -1.
        -11    1    3    3    0    0  0.45941896585E+01 -0.37113219283E+01  0.11597763949E+02  0.13014938262E+02  0.51100000000E-03 0.  1.
        -12    1    3    3    0    0  0.62335733883E+01  0.30563488953E+01  0.25545174591E+02  0.26471770826E+02  0.00000000000E+00 0.  1.
</event>
<event>
 7    1  0.2395003E-008  0.4614232E+02  0.7816164E-02  0.1320468E+00
        -11   -1    0    0    0    0  0.00000000000E+00  0.00000000000E+00  0.45593999997E+02  0.45594000000E+02  0.51100000000E-03 0.  1.
         11   -1    0    0    0    0 -0.00000000000E+00 -0.00000000000E+00 -0.45593999997E+02  0.45594000000E+02  0.51100000000E-03 0. -1.
    9900012    2    1    2    0    0  0.43789539862E+00  0.29283022319E+01  0.44948267770E+02  0.46142317833E+02  0.10000000658E+02 0.  0.
         12    1    1    2    0    0 -0.43789539862E+00 -0.29283022319E+01 -0.44948267770E+02  0.45045682167E+02  0.00000000000E+00 0. -1.
         11    1    3    3    0    0 -0.70684620345E+00  0.23156368360E+01  0.22727430449E+02  0.22856025476E+02  0.51100000000E-03 0. -1.
        -11    1    3    3    0    0  0.19698673295E+01 -0.15730578781E+01  0.19655672794E+02  0.19816668783E+02  0.51100000000E-03 0.  1.
         12    1    3    3    0    0 -0.82512572742E+00  0.21857232741E+01  0.25651645269E+01  0.34696235743E+01  0.00000000000E+00 0. -1.
</event>
<event>
 7    1  0.2395003E-008  0.4614232E+02  0.7816164E-02  0.1320468E+00
        -11   -1    0    0    0    0  0.00000000000E+00  0.00000000000E+00  0.45593999997E+02  0.45594000000E+02  0.51100000000E-03 0.  1.
         11   -1    0    0    0    0 -0.00000000000E+00 -0.00000000000E+00 -0.45593999997E+02  0.45594000000E+02  0.51100000000E-03 0. -1.
    9900012    2    1    2    0    0  0.87456075997E+01  0.51278028706E+01  0.43890016013E+02  0.46142317408E+02  0.99999967813E+01 0.  0.
         12    1    1    2    0    0 -0.87456075997E+01 -0.51278028706E+01 -0.43890016013E+02  0.45045682592E+02  0.00000000000E+00 0. -1.
         11    1    3    3    0    0  0.11132051577E+01  0.76626649709E+00  0.49533008467E+00  0.14393547935E+01  0.51100000000E-03 0. -1.
        -11    1    3    3    0    0  0.24131963124E+01  0.18662513835E+01  0.48717349617E+01  0.57480616269E+01  0.51100000000E-03 0.  1.
        -12    1    3    3    0    0  0.52192061296E+01  0.24952849901E+01  0.38522950966E+02  0.38954900988E+02  0.00000000000E+00 0.  1.
</event>
<event>
 7    1  0.2395003E-008  0.4614232E+02  0.7816164E-02  0.1320468E+00
        -11   -1    0    0    0    0  0.00000000000E+00  0.00000000000E+00  0.45593999997E+02  0.45594000000E+02  0.51100000000E-03 0. -1.
         11   -1    0    0    0    0 -0.00000000000E+00 -0.00000000000E+00 -0.45593999997E+02  0.45594000000E+02  0.51100000000E-03 0.  1.
    9900012    2    1    2    0    0 -0.42271753353E+02 -0.15112341186E+02 -0.37187995257E+01  0.46142318103E+02  0.10000003117E+02 0.  0.
         12    1    1    2    0    0  0.42271753353E+02  0.15112341186E+02  0.37187995257E+01  0.45045681897E+02  0.00000000000E+00 0. -1.
         11    1    3    3    0    0 -0.10452155095E+02 -0.27041411540E+01  0.61626682443E+00  0.10813866588E+02  0.51100000000E-03 0. -1.
        -11    1    3    3    0    0 -0.15118580645E+01 -0.21945515921E+01 -0.18610858171E+01  0.32504479964E+01  0.51100000000E-03 0.  1.
         12    1    3    3    0    0 -0.30307740193E+02 -0.10213648440E+02 -0.24739805331E+01  0.32078003519E+02  0.00000000000E+00 0. -1.
</event>
<event>
 7    1  0.2395003E-008  0.4614232E+02  0.7816164E-02  0.1320468E+00
        -11   -1    0    0    0    0  0.00000000000E+00  0.00000000000E+00  0.45593999997E+02  0.45594000000E+02  0.51100000000E-03 0.  1.
         11   -1    0    0    0    0 -0.00000000000E+00 -0.00000000000E+00 -0.45593999997E+02  0.45594000000E+02  0.51100000000E-03 0. -1.
    9900012    2    1    2    0    0  0.69116553626E+01  0.28623496640E+02  0.34088678626E+02  0.46142317075E+02  0.99999937398E+01 0.  0.
         12    1    1    2    0    0 -0.69116553626E+01 -0.28623496640E+02 -0.34088678626E+02  0.45045682925E+02  0.00000000000E+00 0. -1.
         11    1    3    3    0    0 -0.24231617067E+01  0.71631258296E+01  0.86840178550E+01  0.11514957693E+02  0.51100000000E-03 0. -1.
        -11    1    3    3    0    0  0.17828613018E+01  0.58401042156E+01  0.78541076377E+01  0.99484882628E+01  0.51100000000E-03 0.  1.
        -12    1    3    3    0    0  0.75519557675E+01  0.15620266595E+02  0.17550553133E+02  0.24678871119E+02  0.00000000000E+00 0.  1.
</event>
<event>
 7    1  0.2395003E-008  0.4614232E+02  0.7816164E-02  0.1320468E+00
        -11   -1    0    0    0    0  0.00000000000E+00  0.00000000000E+00  0.45593999997E+02  0.45594000000E+02  0.51100000000E-03 0.  1.
         11   -1    0    0    0    0 -0.00000000000E+00 -0.00000000000E+00 -0.45593999997E+02  0.45594000000E+02  0.51100000000E-03 0. -1.
    9900012    2    1    2    0    0 -0.54205444750E+01  0.31529523839E+02  0.31711517198E+02  0.46142317644E+02  0.99999989338E+01 0.  0.
         12    1    1    2    0    0  0.54205444750E+01 -0.31529523839E+02 -0.31711517198E+02  0.45045682356E+02  0.00000000000E+00 0. -1.
         11    1    3    3    0    0  0.56532172197E+00  0.10950452980E+02  0.10483273496E+02  0.15170070289E+02  0.51100000000E-03 0. -1.
        -11    1    3    3    0    0 -0.44471905938E+01  0.17698352276E+02  0.13868409596E+02  0.22920339492E+02  0.51100000000E-03 0.  1.
         12    1    3    3    0    0 -0.15386756031E+01  0.28807185827E+01  0.73598341060E+01  0.80519078629E+01  0.00000000000E+00 0. -1.
</event>
<event>
 7    1  0.2395003E-008  0.4614232E+02  0.7816164E-02  0.1320468E+00
        -11   -1    0    0    0    0  0.00000000000E+00  0.00000000000E+00  0.45593999997E+02  0.45594000000E+02  0.51100000000E-03 0. -1.
         11   -1    0    0    0    0 -0.00000000000E+00 -0.00000000000E+00 -0.45593999997E+02  0.45594000000E+02  0.51100000000E-03 0.  1.
    9900012    2    1    2    0    0 -0.22740646996E+02  0.25443442638E+02 -0.29404212265E+02  0.46142317654E+02  0.99999990263E+01 0.  0.
         12    1    1    2    0    0  0.22740646996E+02 -0.25443442638E+02  0.29404212265E+02  0.45045682346E+02  0.00000000000E+00 0. -1.
         11    1    3    3    0    0 -0.10440813424E+02  0.64110744015E+01 -0.12914794498E+02  0.17801808254E+02  0.51100000000E-03 0. -1.
        -11    1    3    3    0    0 -0.93529138998E+01  0.12680980301E+02 -0.13412556449E+02  0.20692533208E+02  0.51100000000E-03 0.  1.
        -12    1    3    3    0    0 -0.29469196724E+01  0.63513879356E+01 -0.30768613176E+01  0.76479761919E+01  0.00000000000E+00 0.  1.
</event>
<event>
 7    1  0.2395003E-008  0.4614232E+02  0.7816164E-02  0.1320468E+00
        -11   -1    0    0    0    0  0.00000000000E+00  0.00000000000E+00  0.45593999997E+02  0.45594000000E+02  0.51100000000E-03 0.  1.
         11   -1    0    0    0    0 -0.00000000000E+00 -0.00000000000E+00 -0.45593999997E+02  0.45594000000E+02  0.51100000000E-03 0. -1.
    9900012    2    1    2    0    0  0.41209212958E+02 -0.69206055515E+01  0.16823183469E+02  0.46142317456E+02  0.99999972198E+01 0.  0.
         12    1    1    2    0    0 -0.41209212958E+02  0.69206055515E+01 -0.16823183469E+02  0.45045682544E+02  0.00000000000E+00 0. -1.
         11    1    3    3    0    0  0.73521569636E+01  0.78002575233E+00  0.39097916200E+01  0.83635592283E+01  0.51100000000E-03 0. -1.
        -11    1    3    3    0    0  0.26412727237E+02 -0.47686595452E+01  0.12897569785E+02  0.29777837070E+02  0.51100000000E-03 0.  1.
        -12    1    3    3    0    0  0.74443287575E+01 -0.29319717587E+01  0.15822064502E-01  0.80009211583E+01  0.00000000000E+00 0.  1.
</event>
<event>
 7    1  0.2395003E-008  0.4614232E+02  0.7816164E-02  0.1320468E+00
        -11   -1    0    0    0    0  0.00000000000E+00  0.00000000000E+00  0.45593999997E+02  0.45594000000E+02  0.51100000000E-03 0.  1.
         11   -1    0    0    0    0 -0.00000000000E+00 -0.00000000000E+00 -0.45593999997E+02  0.45594000000E+02  0.51100000000E-03 0. -1.
    9900012    2    1    2    0    0 -0.63288647247E+01  0.34118345133E+02 -0.28722770443E+02  0.46142317130E+02  0.99999942438E+01 0.  0.
         12    1    1    2    0    0  0.63288647247E+01 -0.34118345133E+02  0.28722770443E+02  0.45045682870E+02  0.00000000000E+00 0. -1.
         11    1    3    3    0    0  0.52329577131E+00  0.21462587102E+01 -0.14918254005E+01  0.26656721858E+01  0.51100000000E-03 0. -1.
        -11    1    3    3    0    0 -0.75910763215E+01  0.32130701815E+02 -0.27092258734E+02  0.42708276978E+02  0.51100000000E-03 0.  1.
        -12    1    3    3    0    0  0.73891582550E+00 -0.15861539200E+00 -0.13868630862E+00  0.76836796651E+00  0.00000000000E+00 0.  1.
</event>
<event>
 7    1  0.2395003E-008  0.4614232E+02  0.7816164E-02  0.1320468E+00
        -11   -1    0    0    0    0  0.00000000000E+00  0.00000000000E+00  0.45593999997E+02  0.45594000000E+02  0.51100000000E-03 0. -1.
         11   -1    0    0    0    0 -0.00000000000E+00 -0.00000000000E+00 -0.45593999997E+02  0.45594000000E+02  0.51100000000E-03 0.  1.
    9900012    2    1    2    0    0 -0.71082664025E+01  0.74742687296E+01 -0.43848846548E+02  0.46142317767E+02  0.10000000053E+02 0.  0.
         12    1    1    2    0    0  0.71082664025E+01 -0.74742687296E+01  0.43848846548E+02  0.45045682233E+02  0.00000000000E+00 0. -1.
         11    1    3    3    0    0 -0.48447937449E+01  0.56321906095E+01 -0.16910998976E+02  0.18470936201E+02  0.51100000000E-03 0.  1.
        -11    1    3    3    0    0 -0.41423717511E+01  0.10495707906E+01 -0.19149034366E+02  0.19620049949E+02  0.51100000000E-03 0. -1.
        -12    1    3    3    0    0  0.18788990936E+01  0.79250732951E+00 -0.77888132048E+01  0.80513316172E+01  0.00000000000E+00 0.  1.
</event>
<event>
 7    1  0.2395003E-008  0.4614231E+02  0.7816164E-02  0.1320468E+00
        -11   -1    0    0    0    0  0.00000000000E+00  0.00000000000E+00  0.45593999997E+02  0.45594000000E+02  0.51100000000E-03 0.  1.
         11   -1    0    0    0    0 -0.00000000000E+00 -0.00000000000E+00 -0.45593999997E+02  0.45594000000E+02  0.51100000000E-03 0. -1.
    9900012    2    1    2    0    0 -0.19110504367E+02  0.33294530495E+02  0.23566433367E+02  0.46142312974E+02  0.99999563456E+01 0.  0.
         12    1    1    2    0    0  0.19110504367E+02 -0.33294530495E+02 -0.23566433367E+02  0.45045687026E+02  0.00000000000E+00 0. -1.
         11    1    3    3    0    0  0.42686068119E+00 -0.16474221604E+00  0.12894571070E+01  0.13682287567E+01  0.51100000000E-03 0. -1.
        -11    1    3    3    0    0 -0.35844651976E+01  0.66738887165E+01  0.55755809034E+01  0.94061832868E+01  0.51100000000E-03 0.  1.
         12    1    3    3    0    0 -0.15952899850E+02  0.26785383994E+02  0.16701395357E+02  0.35367900930E+02  0.00000000000E+00 0. -1.
</event>
<event>
 7    1  0.2395003E-008  0.4614232E+02  0.7816164E-02  0.1320468E+00
        -11   -1    0    0    0    0  0.00000000000E+00  0.00000000000E+00  0.45593999997E+02  0.45594000000E+02  0.51100000000E-03 0. -1.
         11   -1    0    0    0    0 -0.00000000000E+00 -0.00000000000E+00 -0.45593999997E+02  0.45594000000E+02  0.51100000000E-03 0.  1.
    9900012    2    1    2    0    0  0.29255105356E+02  0.12943839063E+02 -0.31712920218E+02  0.46142317989E+02  0.10000002075E+02 0.  0.
         12    1    1    2    0    0 -0.29255105356E+02 -0.12943839063E+02  0.31712920218E+02  0.45045682011E+02  0.00000000000E+00 0. -1.
         11    1    3    3    0    0  0.15592724296E+02  0.10073492853E+02 -0.17437535143E+02  0.25469117404E+02  0.51100000000E-03 0.  1.
        -11    1    3    3    0    0  0.59695565304E+01  0.22357430639E+01 -0.30925877433E+01  0.70850724364E+01  0.51100000000E-03 0. -1.
         12    1    3    3    0    0  0.76928245300E+01  0.63460314626E+00 -0.11182797332E+02  0.13588128148E+02  0.00000000000E+00 0. -1.
</event>
<event>
 7    1  0.2395003E-008  0.4614232E+02  0.7816164E-02  0.1320468E+00
        -11   -1    0    0    0    0  0.00000000000E+00  0.00000000000E+00  0.45593999997E+02  0.45594000000E+02  0.51100000000E-03 0. -1.
         11   -1    0    0    0    0 -0.00000000000E+00 -0.00000000000E+00 -0.45593999997E+02  0.45594000000E+02  0.51100000000E-03 0.  1.
    9900012    2    1    2    0    0  0.17653172489E+02  0.32883460562E+02  0.25222148551E+02  0.46142320352E+02  0.10000023622E+02 0.  0.
         12    1    1    2    0    0 -0.17653172489E+02 -0.32883460562E+02 -0.25222148551E+02  0.45045679648E+02  0.00000000000E+00 0. -1.
         11    1    3    3    0    0  0.17615493441E+01  0.16548318515E+01  0.57766663044E+00  0.24849997073E+01  0.51100000000E-03 0. -1.
        -11    1    3    3    0    0  0.70689716350E+01  0.22654719855E+02  0.16024003652E+02  0.28635212327E+02  0.51100000000E-03 0.  1.
         12    1    3    3    0    0  0.88226515098E+01  0.85739088553E+01  0.86204782687E+01  0.15022108317E+02  0.00000000000E+00 0. -1.
</event>
<event>
 7    1  0.2395003E-008  0.4614232E+02  0.7816164E-02  0.1320468E+00
        -11   -1    0    0    0    0  0.00000000000E+00  0.00000000000E+00  0.45593999997E+02  0.45594000000E+02  0.51100000000E-03 0. -1.
         11   -1    0    0    0    0 -0.00000000000E+00 -0.00000000000E+00 -0.45593999997E+02  0.45594000000E+02  0.51100000000E-03 0.  1.
    9900012    2    1    2    0    0  0.21064476520E+02  0.26948405521E+02 -0.29311852651E+02  0.46142318331E+02  0.10000005193E+02 0.  0.
         12    1    1    2    0    0 -0.21064476520E+02 -0.26948405521E+02  0.29311852651E+02  0.45045681669E+02  0.00000000000E+00 0. -1.
         11    1    3    3    0    0  0.32484210188E+01  0.89838125150E+01 -0.54970489565E+01  0.11021736429E+02  0.51100000000E-03 0. -1.
        -11    1    3    3    0    0  0.89789130780E+01  0.12307267712E+02 -0.15492214566E+02  0.21727826192E+02  0.51100000000E-03 0.  1.
         12    1    3    3    0    0  0.88371424235E+01  0.56573252945E+01 -0.83225891288E+01  0.13392755710E+02  0.00000000000E+00 0. -1.
</event>
<event>
 7    1  0.2395003E-008  0.4614232E+02  0.7816164E-02  0.1320468E+00
        -11   -1    0    0    0    0  0.00000000000E+00  0.00000000000E+00  0.45593999997E+02  0.45594000000E+02  0.51100000000E-03 0. -1.
         11   -1    0    0    0    0 -0.00000000000E+00 -0.00000000000E+00 -0.45593999997E+02  0.45594000000E+02  0.51100000000E-03 0.  1.
    9900012    2    1    2    0    0 -0.44208347172E+02 -0.60753656173E+01  0.61502500786E+01  0.46142316487E+02  0.99999883838E+01 0.  0.
         12    1    1    2    0    0  0.44208347172E+02  0.60753656173E+01 -0.61502500786E+01  0.45045683513E+02  0.00000000000E+00 0. -1.
         11    1    3    3    0    0 -0.11670489761E+01 -0.71208524350E+00 -0.51112685552E+00  0.14595614513E+01  0.51100000000E-03 0. -1.
        -11    1    3    3    0    0 -0.39509497495E+02 -0.25938683073E+01  0.50555474725E+01  0.39916000621E+02  0.51100000000E-03 0.  1.
         12    1    3    3    0    0 -0.35318007013E+01 -0.27694120664E+01  0.16058294617E+01  0.47667544144E+01  0.00000000000E+00 0. -1.
</event>
<event>
 7    1  0.2395003E-008  0.4614232E+02  0.7816164E-02  0.1320468E+00
        -11   -1    0    0    0    0  0.00000000000E+00  0.00000000000E+00  0.45593999997E+02  0.45594000000E+02  0.51100000000E-03 0.  1.
         11   -1    0    0    0    0 -0.00000000000E+00 -0.00000000000E+00 -0.45593999997E+02  0.45594000000E+02  0.51100000000E-03 0. -1.
    9900012    2    1    2    0    0 -0.98897351989E+01  0.56395205756E+01  0.43583281437E+02  0.46142317905E+02  0.10000001312E+02 0.  0.
         12    1    1    2    0    0  0.98897351989E+01 -0.56395205756E+01 -0.43583281437E+02  0.45045682095E+02  0.00000000000E+00 0. -1.
         11    1    3    3    0    0 -0.64469792889E+01  0.68372370695E+01  0.26508867065E+02  0.28125280195E+02  0.51100000000E-03 0. -1.
        -11    1    3    3    0    0 -0.28741081678E+01  0.12179154367E-02  0.16140472995E+02  0.16394370010E+02  0.51100000000E-03 0.  1.
        -12    1    3    3    0    0 -0.56864774219E+00 -0.11989344093E+01  0.93394137643E+00  0.16226677008E+01  0.00000000000E+00 0.  1.
</event>
<event>
 7    1  0.2395003E-008  0.4614232E+02  0.7816164E-02  0.1320468E+00
        -11   -1    0    0    0    0  0.00000000000E+00  0.00000000000E+00  0.45593999997E+02  0.45594000000E+02  0.51100000000E-03 0. -1.
         11   -1    0    0    0    0 -0.00000000000E+00 -0.00000000000E+00 -0.45593999997E+02  0.45594000000E+02  0.51100000000E-03 0.  1.
    9900012    2    1    2    0    0 -0.54764044043E+01  0.37584726015E+02 -0.24217986981E+02  0.46142317319E+02  0.99999959682E+01 0.  0.
         12    1    1    2    0    0  0.54764044043E+01 -0.37584726015E+02  0.24217986981E+02  0.45045682681E+02  0.00000000000E+00 0. -1.
         11    1    3    3    0    0  0.19727961038E+00  0.67874488425E+01 -0.91543426025E+00  0.68517443895E+01  0.51100000000E-03 0. -1.
        -11    1    3    3    0    0 -0.52114541178E+01  0.16317630718E+02 -0.13281062306E+02  0.21675122664E+02  0.51100000000E-03 0.  1.
        -12    1    3    3    0    0 -0.46222989689E+00  0.14479646455E+02 -0.10021490414E+02  0.17615450265E+02  0.00000000000E+00 0.  1.
</event>
<event>
 7    1  0.2395003E-008  0.4614232E+02  0.7816164E-02  0.1320468E+00
        -11   -1    0    0    0    0  0.00000000000E+00  0.00000000000E+00  0.45593999997E+02  0.45594000000E+02  0.51100000000E-03 0.  1.
         11   -1    0    0    0    0 -0.00000000000E+00 -0.00000000000E+00 -0.45593999997E+02  0.45594000000E+02  0.51100000000E-03 0. -1.
    9900012    2    1    2    0    0  0.32860448301E+02 -0.26331760816E+02  0.15998216009E+02  0.46142316459E+02  0.99999881226E+01 0.  0.
         12    1    1    2    0    0 -0.32860448301E+02  0.26331760816E+02 -0.15998216009E+02  0.45045683541E+02  0.00000000000E+00 0. -1.
         11    1    3    3    0    0  0.84392211541E+01 -0.67382787239E+01  0.13228105415E+01  0.10880012952E+02  0.51100000000E-03 0.  1.
        -11    1    3    3    0    0  0.19571472027E+02 -0.11804709524E+02  0.11180235731E+02  0.25443886407E+02  0.51100000000E-03 0. -1.
         12    1    3    3    0    0  0.48497551201E+01 -0.77887725678E+01  0.34951697375E+01  0.98184170991E+01  0.00000000000E+00 0. -1.
</event>
<event>
 7    1  0.2395003E-008  0.4614232E+02  0.7816164E-02  0.1320468E+00
        -11   -1    0    0    0    0  0.00000000000E+00  0.00000000000E+00  0.45593999997E+02  0.45594000000E+02  0.51100000000E-03 0.  1.
         11   -1    0    0    0    0 -0.00000000000E+00 -0.00000000000E+00 -0.45593999997E+02  0.45594000000E+02  0.51100000000E-03 0. -1.
    9900012    2    1    2    0    0  0.23937090193E+01  0.22201262881E+02  0.39121444127E+02  0.46142319775E+02  0.10000018362E+02 0.  0.
         12    1    1    2    0    0 -0.23937090193E+01 -0.22201262881E+02 -0.39121444127E+02  0.45045680225E+02  0.00000000000E+00 0. -1.
         11    1    3    3    0    0  0.13493533747E+01  0.91858275537E+01  0.12699660534E+02  0.15731546660E+02  0.51100000000E-03 0. -1.
        -11    1    3    3    0    0 -0.20997113002E+01  0.82699179884E+01  0.10670212631E+02  0.13662129005E+02  0.51100000000E-03 0.  1.
         12    1    3    3    0    0  0.31440669448E+01  0.47455173387E+01  0.15751570962E+02  0.16748644110E+02  0.00000000000E+00 0. -1.
</event>
<event>
 7    1  0.2395003E-008  0.4614232E+02  0.7816164E-02  0.1320468E+00
        -11   -1    0    0    0    0  0.00000000000E+00  0.00000000000E+00  0.45593999997E+02  0.45594000000E+02  0.51100000000E-03 0. -1.
         11   -1    0    0    0    0 -0.00000000000E+00 -0.00000000000E+00 -0.45593999997E+02  0.45594000000E+02  0.51100000000E-03 0.  1.
    9900012    2    1    2    0    0  0.30697754217E+02  0.26670974054E+02 -0.19375769032E+02  0.46142318780E+02  0.10000009292E+02 0.  0.
         12    1    1    2    0    0 -0.30697754217E+02 -0.26670974054E+02  0.19375769032E+02  0.45045681220E+02  0.00000000000E+00 0. -1.
         11    1    3    3    0    0  0.10984780897E+02  0.14772667538E+02 -0.10072798430E+02  0.20984717916E+02  0.51100000000E-03 0. -1.
        -11    1    3    3    0    0  0.35864563812E+01  0.15863134217E+01 -0.32154085739E+01  0.50712830925E+01  0.51100000000E-03 0.  1.
        -12    1    3    3    0    0  0.16126516940E+02  0.10311993094E+02 -0.60875620280E+01  0.20086317772E+02  0.00000000000E+00 0.  1.
</event>
<event>
 7    1  0.2395003E-008  0.4614231E+02  0.7816164E-02  0.1320468E+00
        -11   -1    0    0    0    0  0.00000000000E+00  0.00000000000E+00  0.45593999997E+02  0.45594000000E+02  0.51100000000E-03 0.  1.
         11   -1    0    0    0    0 -0.00000000000E+00 -0.00000000000E+00 -0.45593999997E+02  0.45594000000E+02  0.51100000000E-03 0. -1.
    9900012    2    1    2    0    0  0.33850405074E+02  0.94686688812E+01  0.28171053565E+02  0.46142313491E+02  0.99999610611E+01 0.  0.
         12    1    1    2    0    0 -0.33850405074E+02 -0.94686688812E+01 -0.28171053565E+02  0.45045686509E+02  0.00000000000E+00 0. -1.
         11    1    3    3    0    0  0.22132316648E+02  0.76757424457E+01  0.17405530118E+02  0.29184052859E+02  0.51100000000E-03 0. -1.
        -11    1    3    3    0    0  0.10363759769E+02  0.29226691726E+01  0.10719510092E+02  0.15193992514E+02  0.51100000000E-03 0.  1.
         12    1    3    3    0    0  0.13543286570E+01 -0.11297427371E+01  0.46013355411E-01  0.17642681180E+01  0.00000000000E+00 0. -1.
</event>
<event>
 7    1  0.2395003E-008  0.4614231E+02  0.7816164E-02  0.1320468E+00
        -11   -1    0    0    0    0  0.00000000000E+00  0.00000000000E+00  0.45593999997E+02  0.45594000000E+02  0.51100000000E-03 0.  1.
         11   -1    0    0    0    0 -0.00000000000E+00 -0.00000000000E+00 -0.45593999997E+02  0.45594000000E+02  0.51100000000E-03 0. -1.
    9900012    2    1    2    0    0 -0.90114515225E+01  0.41615892515E+02  0.14697789202E+02  0.46142314571E+02  0.99999709068E+01 0.  0.
         12    1    1    2    0    0  0.90114515225E+01 -0.41615892515E+02 -0.14697789202E+02  0.45045685429E+02  0.00000000000E+00 0. -1.
         11    1    3    3    0    0 -0.33994272018E+01  0.22799559971E+02  0.86944954734E+01  0.24636767076E+02  0.51100000000E-03 0.  1.
        -11    1    3    3    0    0 -0.60336441225E+01  0.91843614884E+01  0.36751376253E+01  0.11587234104E+02  0.51100000000E-03 0. -1.
         12    1    3    3    0    0  0.42161980177E+00  0.96319710556E+01  0.23281561032E+01  0.99183133906E+01  0.00000000000E+00 0. -1.
</event>
<event>
 7    1  0.2395003E-008  0.4614232E+02  0.7816164E-02  0.1320468E+00
        -11   -1    0    0    0    0  0.00000000000E+00  0.00000000000E+00  0.45593999997E+02  0.45594000000E+02  0.51100000000E-03 0.  1.
         11   -1    0    0    0    0 -0.00000000000E+00 -0.00000000000E+00 -0.45593999997E+02  0.45594000000E+02  0.51100000000E-03 0. -1.
    9900012    2    1    2    0    0 -0.32311684225E+02 -0.27634388383E+02  0.14879822450E+02  0.46142317911E+02  0.10000001365E+02 0.  0.
         12    1    1    2    0    0  0.32311684225E+02  0.27634388383E+02 -0.14879822450E+02  0.45045682089E+02  0.00000000000E+00 0. -1.
         11    1    3    3    0    0 -0.18306194798E+01 -0.39470287701E+01  0.90311775981E+00  0.44436275430E+01  0.51100000000E-03 0. -1.
        -11    1    3    3    0    0 -0.12515246791E+02 -0.11432003847E+02  0.97152854146E+01  0.19537371500E+02  0.51100000000E-03 0.  1.
         12    1    3    3    0    0 -0.17965817954E+02 -0.12255355766E+02  0.42614192757E+01  0.22161318867E+02  0.00000000000E+00 0. -1.
</event>
<event>
 7    1  0.2395003E-008  0.4614232E+02  0.7816164E-02  0.1320468E+00
        -11   -1    0    0    0    0  0.00000000000E+00  0.00000000000E+00  0.45593999997E+02  0.45594000000E+02  0.51100000000E-03 0.  1.
         11   -1    0    0    0    0 -0.00000000000E+00 -0.00000000000E+00 -0.45593999997E+02  0.45594000000E+02  0.51100000000E-03 0. -1.
    9900012    2    1    2    0    0 -0.37675917823E+02 -0.24509775471E+02  0.29848988769E+01  0.46142317646E+02  0.99999989497E+01 0.  0.
         12    1    1    2    0    0  0.37675917823E+02  0.24509775471E+02 -0.29848988769E+01  0.45045682354E+02  0.00000000000E+00 0. -1.
         11    1    3    3    0    0 -0.29636047298E+01  0.15488531463E-01 -0.43430271552E+00  0.29952983155E+01  0.51100000000E-03 0. -1.
        -11    1    3    3    0    0 -0.12406628140E+02 -0.10448328798E+02 -0.15953569570E+01  0.16298379077E+02  0.51100000000E-03 0.  1.
        -12    1    3    3    0    0 -0.22305684953E+02 -0.14076935205E+02  0.50145585495E+01  0.26848640253E+02  0.00000000000E+00 0.  1.
</event>
<event>
 7    1  0.2395003E-008  0.4614232E+02  0.7816164E-02  0.1320468E+00
        -11   -1    0    0    0    0  0.00000000000E+00  0.00000000000E+00  0.45593999997E+02  0.45594000000E+02  0.51100000000E-03 0.  1.
         11   -1    0    0    0    0 -0.00000000000E+00 -0.00000000000E+00 -0.45593999997E+02  0.45594000000E+02  0.51100000000E-03 0. -1.
    9900012    2    1    2    0    0  0.28778875304E+02 -0.17179764106E+02  0.30095605322E+02  0.46142318540E+02  0.10000007105E+02 0.  0.
         12    1    1    2    0    0 -0.28778875304E+02  0.17179764106E+02 -0.30095605322E+02  0.45045681460E+02  0.00000000000E+00 0. -1.
         11    1    3    3    0    0  0.22352239492E+01 -0.77264473808E+00  0.11138994131E+01  0.26141878582E+01  0.51100000000E-03 0. -1.
        -11    1    3    3    0    0  0.12796182575E+02 -0.11231061614E+02  0.10835262168E+02  0.20181227415E+02  0.51100000000E-03 0.  1.
         12    1    3    3    0    0  0.13747468780E+02 -0.51760577534E+01  0.18146443740E+02  0.23346903267E+02  0.00000000000E+00 0. -1.
</event>
<event>
 7    1  0.2395003E-008  0.4614232E+02  0.7816164E-02  0.1320468E+00
        -11   -1    0    0    0    0  0.00000000000E+00  0.00000000000E+00  0.45593999997E+02  0.45594000000E+02  0.51100000000E-03 0.  1.
         11   -1    0    0    0    0 -0.00000000000E+00 -0.00000000000E+00 -0.45593999997E+02  0.45594000000E+02  0.51100000000E-03 0. -1.
    9900012    2    1    2    0    0  0.14098934645E+02 -0.41470000879E+02  0.10515350875E+02  0.46142317243E+02  0.99999952763E+01 0.  0.
         12    1    1    2    0    0 -0.14098934645E+02  0.41470000879E+02 -0.10515350875E+02  0.45045682757E+02  0.00000000000E+00 0. -1.
         11    1    3    3    0    0  0.37985615789E+01 -0.13003749147E+02  0.13029727786E+01  0.13609713453E+02  0.51100000000E-03 0. -1.
        -11    1    3    3    0    0 -0.15283434480E+00 -0.49591544340E+00 -0.87297515650E+00  0.10155670086E+01  0.51100000000E-03 0.  1.
        -12    1    3    3    0    0  0.10453207411E+02 -0.27970336289E+02  0.10085353252E+02  0.31517036782E+02  0.00000000000E+00 0.  1.
</event>
<event>
 7    1  0.2395003E-008  0.4614232E+02  0.7816164E-02  0.1320468E+00
        -11   -1    0    0    0    0  0.00000000000E+00  0.00000000000E+00  0.45593999997E+02  0.45594000000E+02  0.51100000000E-03 0. -1.
         11   -1    0    0    0    0 -0.00000000000E+00 -0.00000000000E+00 -0.45593999997E+02  0.45594000000E+02  0.51100000000E-03 0.  1.
    9900012    2    1    2    0    0  0.29139356512E+02 -0.12404713262E+02 -0.32033332122E+02  0.46142319009E+02  0.10000011382E+02 0.  0.
         12    1    1    2    0    0 -0.29139356512E+02  0.12404713262E+02  0.32033332122E+02  0.45045680991E+02  0.00000000000E+00 0. -1.
         11    1    3    3    0    0  0.19914873775E+02 -0.58396996330E+01 -0.16580992854E+02  0.26563765048E+02  0.51100000000E-03 0. -1.
        -11    1    3    3    0    0  0.95024656884E+00 -0.51821510704E-02 -0.11398203332E+00  0.95707239084E+00  0.51100000000E-03 0.  1.
        -12    1    3    3    0    0  0.82742361688E+01 -0.65598314784E+01 -0.15338357235E+02  0.18621481570E+02  0.00000000000E+00 0.  1.
</event>
<event>
 7    1  0.2395003E-008  0.4614232E+02  0.7816164E-02  0.1320468E+00
        -11   -1    0    0    0    0  0.00000000000E+00  0.00000000000E+00  0.45593999997E+02  0.45594000000E+02  0.51100000000E-03 0. -1.
         11   -1    0    0    0    0 -0.00000000000E+00 -0.00000000000E+00 -0.45593999997E+02  0.45594000000E+02  0.51100000000E-03 0.  1.
    9900012    2    1    2    0    0 -0.29151668686E+02  0.12971299412E+02 -0.31796840921E+02  0.46142317763E+02  0.10000000019E+02 0.  0.
         12    1    1    2    0    0  0.29151668686E+02 -0.12971299412E+02  0.31796840921E+02  0.45045682237E+02  0.00000000000E+00 0. -1.
         11    1    3    3    0    0 -0.49250491230E+01  0.40839636783E+01 -0.96953353326E+01  0.11616126534E+02  0.51100000000E-03 0. -1.
        -11    1    3    3    0    0 -0.91415888535E+01  0.30531087333E+01 -0.12254648773E+02  0.15590591282E+02  0.51100000000E-03 0.  1.
        -12    1    3    3    0    0 -0.15085030710E+02  0.58342270003E+01 -0.98468568148E+01  0.18935599947E+02  0.00000000000E+00 0.  1.
</event>
<event>
 7    1  0.2395003E-008  0.4614232E+02  0.7816164E-02  0.1320468E+00
        -11   -1    0    0    0    0  0.00000000000E+00  0.00000000000E+00  0.45593999997E+02  0.45594000000E+02  0.51100000000E-03 0. -1.
         11   -1    0    0    0    0 -0.00000000000E+00 -0.00000000000E+00 -0.45593999997E+02  0.45594000000E+02  0.51100000000E-03 0.  1.
    9900012    2    1    2    0    0 -0.38167346284E+02  0.23876644417E+02 -0.15076424938E+01  0.46142318111E+02  0.10000003190E+02 0.  0.
         12    1    1    2    0    0  0.38167346284E+02 -0.23876644417E+02  0.15076424938E+01  0.45045681889E+02  0.00000000000E+00 0. -1.
         11    1    3    3    0    0  0.51888079251E+00  0.69754685196E+00 -0.13158688998E+00  0.87927484795E+00  0.51100000000E-03 0. -1.
        -11    1    3    3    0    0 -0.96046706676E+01  0.52549263128E+01  0.11485148544E+01  0.11008316666E+02  0.51100000000E-03 0.  1.
         12    1    3    3    0    0 -0.29081556409E+02  0.17924171252E+02 -0.25245704582E+01  0.34254726597E+02  0.00000000000E+00 0. -1.
</event>
<event>
 7    1  0.2395003E-008  0.4614232E+02  0.7816164E-02  0.1320468E+00
        -11   -1    0    0    0    0  0.00000000000E+00  0.00000000000E+00  0.45593999997E+02  0.45594000000E+02  0.51100000000E-03 0. -1.
         11   -1    0    0    0    0 -0.00000000000E+00 -0.00000000000E+00 -0.45593999997E+02  0.45594000000E+02  0.51100000000E-03 0.  1.
    9900012    2    1    2    0    0  0.29374403386E+02 -0.22518288792E+02 -0.25674590828E+02  0.46142317426E+02  0.99999969401E+01 0.  0.
         12    1    1    2    0    0 -0.29374403386E+02  0.22518288792E+02  0.25674590828E+02  0.45045682574E+02  0.00000000000E+00 0. -1.
         11    1    3    3    0    0  0.59469428380E+01 -0.44956154088E+00 -0.41284787688E+01  0.72534524127E+01  0.51100000000E-03 0. -1.
        -11    1    3    3    0    0  0.23683000996E+00 -0.67188680825E+00 -0.10283257940E+01  0.12509894230E+01  0.51100000000E-03 0.  1.
         12    1    3    3    0    0  0.23190630538E+02 -0.21396840443E+02 -0.20517786265E+02  0.37637875590E+02  0.00000000000E+00 0. -1.
</event>
<event>
 7    1  0.3054863E-008  0.4614232E+02  0.7816164E-02  0.1320468E+00
        -11   -1    0    0    0    0  0.00000000000E+00  0.00000000000E+00  0.45593999997E+02  0.45594000000E+02  0.51100000000E-03 0. -1.
         11   -1    0    0    0    0 -0.00000000000E+00 -0.00000000000E+00 -0.45593999997E+02  0.45594000000E+02  0.51100000000E-03 0.  1.
    9900012    2    1    2    0    0  0.39261318509E+02  0.66707410206E+01 -0.21051451329E+02  0.46142317412E+02  0.99999968133E+01 0.  0.
         12    1    1    2    0    0 -0.39261318509E+02 -0.66707410206E+01  0.21051451329E+02  0.45045682588E+02  0.00000000000E+00 0. -1.
         11    1    3    3    0    0  0.89685985093E+00  0.15790180196E+01 -0.13608390522E+01  0.22692595016E+01  0.51100000000E-03 0. -1.
        -11    1    3    3    0    0  0.79123268563E+00 -0.53358056397E+00 -0.14331581292E+01  0.17218303824E+01  0.51100000000E-03 0.  1.
        -12    1    3    3    0    0  0.37573225972E+02  0.56253035650E+01 -0.18257454147E+02  0.42151227528E+02  0.00000000000E+00 0.  1.
</event>
<event>
 7    1  0.2395003E-008  0.4614232E+02  0.7816164E-02  0.1320468E+00
        -11   -1    0    0    0    0  0.00000000000E+00  0.00000000000E+00  0.45593999997E+02  0.45594000000E+02  0.51100000000E-03 0. -1.
         11   -1    0    0    0    0 -0.00000000000E+00 -0.00000000000E+00 -0.45593999997E+02  0.45594000000E+02  0.51100000000E-03 0.  1.
    9900012    2    1    2    0    0  0.26232796399E+02  0.36579198512E+02 -0.17076496055E+01  0.46142318322E+02  0.10000005117E+02 0.  0.
         12    1    1    2    0    0 -0.26232796399E+02 -0.36579198512E+02  0.17076496055E+01  0.45045681678E+02  0.00000000000E+00 0. -1.
         11    1    3    3    0    0  0.82228094974E+00  0.34762668115E+01 -0.23157432849E+01  0.42571403697E+01  0.51100000000E-03 0.  1.
        -11    1    3    3    0    0  0.19373450921E+01  0.43349288120E+01 -0.97171033257E-01  0.47491426891E+01  0.51100000000E-03 0. -1.
        -12    1    3    3    0    0  0.23473170357E+02  0.28768002888E+02  0.70526471262E+00  0.37136035263E+02  0.00000000000E+00 0.  1.
</event>
<event>
 7    1  0.2395003E-008  0.4614232E+02  0.7816164E-02  0.1320468E+00
        -11   -1    0    0    0    0  0.00000000000E+00  0.00000000000E+00  0.45593999997E+02  0.45594000000E+02  0.51100000000E-03 0. -1.
         11   -1    0    0    0    0 -0.00000000000E+00 -0.00000000000E+00 -0.45593999997E+02  0.45594000000E+02  0.51100000000E-03 0.  1.
    9900012    2    1    2    0    0  0.13128384010E+02 -0.43029604073E+02 -0.22830163128E+01  0.46142318111E+02  0.10000003190E+02 0.  0.
         12    1    1    2    0    0 -0.13128384010E+02  0.43029604073E+02  0.22830163128E+01  0.45045681889E+02  0.00000000000E+00 0. -1.
         11    1    3    3    0    0 -0.79534445836E+00 -0.13606639760E+01 -0.21395538359E+00  0.15905208047E+01  0.51100000000E-03 0. -1.
        -11    1    3    3    0    0  0.23664627312E+01 -0.14185862013E+02  0.17739360220E+01  0.14490882519E+02  0.51100000000E-03 0.  1.
        -12    1    3    3    0    0  0.11557265738E+02 -0.27483078083E+02 -0.38429969512E+01  0.30060914787E+02  0.00000000000E+00 0.  1.
</event>
<event>
 7    1  0.2395003E-008  0.4614232E+02  0.7816164E-02  0.1320468E+00
        -11   -1    0    0    0    0  0.00000000000E+00  0.00000000000E+00  0.45593999997E+02  0.45594000000E+02  0.51100000000E-03 0.  1.
         11   -1    0    0    0    0 -0.00000000000E+00 -0.00000000000E+00 -0.45593999997E+02  0.45594000000E+02  0.51100000000E-03 0. -1.
    9900012    2    1    2    0    0 -0.33793861035E+02 -0.16596612118E+02  0.24731374802E+02  0.46142317887E+02  0.10000001144E+02 0.  0.
         12    1    1    2    0    0  0.33793861035E+02  0.16596612118E+02 -0.24731374802E+02  0.45045682113E+02  0.00000000000E+00 0. -1.
         11    1    3    3    0    0 -0.90137211888E+00  0.10031768203E+01  0.19293266816E+01  0.23539620080E+01  0.51100000000E-03 0. -1.
        -11    1    3    3    0    0 -0.74965993584E+01 -0.31276593382E+01  0.42442711684E+01  0.91648836811E+01  0.51100000000E-03 0.  1.
        -12    1    3    3    0    0 -0.25395889558E+02 -0.14472129600E+02  0.18557776952E+02  0.34623472197E+02  0.00000000000E+00 0.  1.
</event>
<event>
 7    1  0.2395003E-008  0.4614232E+02  0.7816164E-02  0.1320468E+00
        -11   -1    0    0    0    0  0.00000000000E+00  0.00000000000E+00  0.45593999997E+02  0.45594000000E+02  0.51100000000E-03 0. -1.
         11   -1    0    0    0    0 -0.00000000000E+00 -0.00000000000E+00 -0.45593999997E+02  0.45594000000E+02  0.51100000000E-03 0.  1.
    9900012    2    1    2    0    0  0.15657012404E+02  0.41681404908E+02 -0.68287575146E+01  0.46142317835E+02  0.10000000671E+02 0.  0.
         12    1    1    2    0    0 -0.15657012404E+02 -0.41681404908E+02  0.68287575146E+01  0.45045682165E+02  0.00000000000E+00 0. -1.
         11    1    3    3    0    0  0.32160551797E+01  0.80722955764E+01 -0.44870382628E+01  0.97794928000E+01  0.51100000000E-03 0. -1.
        -11    1    3    3    0    0  0.11865498731E+02  0.33351105400E+02 -0.29040482343E+01  0.35517879834E+02  0.51100000000E-03 0.  1.
        -12    1    3    3    0    0  0.57545849389E+00  0.25800393190E+00  0.56232898246E+00  0.84494520035E+00  0.00000000000E+00 0.  1.
</event>
<event>
 7    1  0.2395003E-008  0.4614232E+02  0.7816164E-02  0.1320468E+00
        -11   -1    0    0    0    0  0.00000000000E+00  0.00000000000E+00  0.45593999997E+02  0.45594000000E+02  0.51100000000E-03 0.  1.
         11   -1    0    0    0    0 -0.00000000000E+00 -0.00000000000E+00 -0.45593999997E+02  0.45594000000E+02  0.51100000000E-03 0. -1.
    9900012    2    1    2    0    0  0.42295622577E+02 -0.11819314511E+02  0.10024845084E+02  0.46142318702E+02  0.10000008579E+02 0.  0.
         12    1    1    2    0    0 -0.42295622577E+02  0.11819314511E+02 -0.10024845084E+02  0.45045681298E+02  0.00000000000E+00 0. -1.
         11    1    3    3    0    0  0.11777131655E+02 -0.44456553389E+01  0.85962723340E+00  0.12617592506E+02  0.51100000000E-03 0. -1.
        -11    1    3    3    0    0  0.85403189962E+01 -0.55431442644E+01  0.33171862628E+01  0.10708278193E+02  0.51100000000E-03 0.  1.
         12    1    3    3    0    0  0.21978171925E+02 -0.18305149072E+01  0.58480315881E+01  0.22816448003E+02  0.00000000000E+00 0. -1.
</event>
<event>
 7    1  0.2395003E-008  0.4614232E+02  0.7816164E-02  0.1320468E+00
        -11   -1    0    0    0    0  0.00000000000E+00  0.00000000000E+00  0.45593999997E+02  0.45594000000E+02  0.51100000000E-03 0.  1.
         11   -1    0    0    0    0 -0.00000000000E+00 -0.00000000000E+00 -0.45593999997E+02  0.45594000000E+02  0.51100000000E-03 0. -1.
    9900012    2    1    2    0    0 -0.12995585024E+02 -0.86841375292E+01  0.42247058941E+02  0.46142318032E+02  0.10000002475E+02 0.  0.
         12    1    1    2    0    0  0.12995585024E+02  0.86841375292E+01 -0.42247058941E+02  0.45045681968E+02  0.00000000000E+00 0. -1.
         11    1    3    3    0    0 -0.17314493505E+01  0.29760802340E+00  0.76258873564E+00  0.19152099701E+01  0.51100000000E-03 0. -1.
        -11    1    3    3    0    0  0.20096985407E-01 -0.34689950128E+00 -0.29585492959E-01  0.34873874939E+00  0.51100000000E-03 0.  1.
        -12    1    3    3    0    0 -0.11284232659E+02 -0.86348460514E+01  0.41514055698E+02  0.43878369313E+02  0.00000000000E+00 0.  1.
</event>
<event>
 7    1  0.2395003E-008  0.4614232E+02  0.7816164E-02  0.1320468E+00
        -11   -1    0    0    0    0  0.00000000000E+00  0.00000000000E+00  0.45593999997E+02  0.45594000000E+02  0.51100000000E-03 0. -1.
         11   -1    0    0    0    0 -0.00000000000E+00 -0.00000000000E+00 -0.45593999997E+02  0.45594000000E+02  0.51100000000E-03 0.  1.
    9900012    2    1    2    0    0  0.29131377228E+02  0.44839505015E+01 -0.34064211911E+02  0.46142317805E+02  0.10000000400E+02 0.  0.
         12    1    1    2    0    0 -0.29131377228E+02 -0.44839505015E+01  0.34064211911E+02  0.45045682195E+02  0.00000000000E+00 0. -1.
         11    1    3    3    0    0  0.82260815415E+01 -0.19194294233E+01 -0.82782291021E+01  0.11827159598E+02  0.51100000000E-03 0. -1.
        -11    1    3    3    0    0  0.12518923783E+02  0.67769990999E+01 -0.15707664924E+02  0.21198629840E+02  0.51100000000E-03 0.  1.
        -12    1    3    3    0    0  0.83863719038E+01 -0.37361917514E+00 -0.10078317885E+02  0.13116528367E+02  0.00000000000E+00 0.  1.
</event>
<event>
 7    1  0.2395003E-008  0.4614232E+02  0.7816164E-02  0.1320468E+00
        -11   -1    0    0    0    0  0.00000000000E+00  0.00000000000E+00  0.45593999997E+02  0.45594000000E+02  0.51100000000E-03 0.  1.
         11   -1    0    0    0    0 -0.00000000000E+00 -0.00000000000E+00 -0.45593999997E+02  0.45594000000E+02  0.51100000000E-03 0. -1.
    9900012    2    1    2    0    0 -0.73892047250E+00 -0.23333968613E+02  0.38523932640E+02  0.46142317845E+02  0.10000000769E+02 0.  0.
         12    1    1    2    0    0  0.73892047250E+00  0.23333968613E+02 -0.38523932640E+02  0.45045682155E+02  0.00000000000E+00 0. -1.
         11    1    3    3    0    0  0.31804910708E+00 -0.10680172504E+00  0.75730405770E+00  0.82829435584E+00  0.51100000000E-03 0. -1.
        -11    1    3    3    0    0  0.30236041922E+01 -0.75986098952E+01  0.79614009941E+01  0.11413367632E+02  0.51100000000E-03 0.  1.
         12    1    3    3    0    0 -0.40805737718E+01 -0.15628556993E+02  0.29805227588E+02  0.33900655858E+02  0.00000000000E+00 0. -1.
</event>
<event>
 7    1  0.2395003E-008  0.4614231E+02  0.7816164E-02  0.1320468E+00
        -11   -1    0    0    0    0  0.00000000000E+00  0.00000000000E+00  0.45593999997E+02  0.45594000000E+02  0.51100000000E-03 0.  1.
         11   -1    0    0    0    0 -0.00000000000E+00 -0.00000000000E+00 -0.45593999997E+02  0.45594000000E+02  0.51100000000E-03 0. -1.
    9900012    2    1    2    0    0 -0.43222051701E+02  0.11812202186E+02 -0.46303602074E+01  0.46142310868E+02  0.99999371446E+01 0.  0.
         12    1    1    2    0    0  0.43222051701E+02 -0.11812202186E+02  0.46303602074E+01  0.45045689132E+02  0.00000000000E+00 0. -1.
         11    1    3    3    0    0 -0.10796133864E+02  0.26790551600E+01  0.14719123423E+01  0.11220533372E+02  0.51100000000E-03 0. -1.
        -11    1    3    3    0    0 -0.32413694109E+02  0.82609774887E+01 -0.62730496101E+01  0.34032961471E+02  0.51100000000E-03 0.  1.
        -12    1    3    3    0    0 -0.12223728639E-01  0.87216953746E+00  0.17077706043E+00  0.88881602482E+00  0.00000000000E+00 0.  1.
</event>
<event>
 7    1  0.2395003E-008  0.4614230E+02  0.7816164E-02  0.1320468E+00
        -11   -1    0    0    0    0  0.00000000000E+00  0.00000000000E+00  0.45593999997E+02  0.45594000000E+02  0.51100000000E-03 0.  1.
         11   -1    0    0    0    0 -0.00000000000E+00 -0.00000000000E+00 -0.45593999997E+02  0.45594000000E+02  0.51100000000E-03 0. -1.
    9900012    2    1    2    0    0 -0.31751939279E+02 -0.24718097122E+02  0.20247093413E+02  0.46142303591E+02  0.99998707850E+01 0.  0.
         12    1    1    2    0    0  0.31751939279E+02  0.24718097122E+02 -0.20247093413E+02  0.45045696409E+02  0.00000000000E+00 0. -1.
         11    1    3    3    0    0 -0.23343481071E+01 -0.65317418917E+00  0.40512661705E+01  0.47210777850E+01  0.51100000000E-03 0. -1.
        -11    1    3    3    0    0 -0.16084186100E+02 -0.11233230932E+02  0.82653712831E+01  0.21288562243E+02  0.51100000000E-03 0.  1.
         12    1    3    3    0    0 -0.13333405071E+02 -0.12831692001E+02  0.79304559592E+01  0.20132663563E+02  0.00000000000E+00 0. -1.
</event>
<event>
 7    1  0.2395003E-008  0.4614232E+02  0.7816164E-02  0.1320468E+00
        -11   -1    0    0    0    0  0.00000000000E+00  0.00000000000E+00  0.45593999997E+02  0.45594000000E+02  0.51100000000E-03 0.  1.
         11   -1    0    0    0    0 -0.00000000000E+00 -0.00000000000E+00 -0.45593999997E+02  0.45594000000E+02  0.51100000000E-03 0. -1.
    9900012    2    1    2    0    0  0.32980601163E+02  0.16681260528E+02  0.25751290468E+02  0.46142318002E+02  0.10000002198E+02 0.  0.
         12    1    1    2    0    0 -0.32980601163E+02 -0.16681260528E+02 -0.25751290468E+02  0.45045681998E+02  0.00000000000E+00 0. -1.
         11    1    3    3    0    0  0.18034969961E+02  0.53120347933E+01  0.10908570509E+02  0.21736484673E+02  0.51100000000E-03 0. -1.
        -11    1    3    3    0    0  0.33076948853E+01  0.33100369228E+01  0.14007491072E+01  0.48845970363E+01  0.51100000000E-03 0.  1.
        -12    1    3    3    0    0  0.11637936317E+02  0.80591888116E+01  0.13441970851E+02  0.19521236293E+02  0.00000000000E+00 0.  1.
</event>
<event>
 7    1  0.2395003E-008  0.4614232E+02  0.7816164E-02  0.1320468E+00
        -11   -1    0    0    0    0  0.00000000000E+00  0.00000000000E+00  0.45593999997E+02  0.45594000000E+02  0.51100000000E-03 0. -1.
         11   -1    0    0    0    0 -0.00000000000E+00 -0.00000000000E+00 -0.45593999997E+02  0.45594000000E+02  0.51100000000E-03 0.  1.
    9900012    2    1    2    0    0 -0.34517998178E+02 -0.23830022261E+02 -0.16424108069E+02  0.46142317798E+02  0.10000000339E+02 0.  0.
         12    1    1    2    0    0  0.34517998178E+02  0.23830022261E+02  0.16424108069E+02  0.45045682202E+02  0.00000000000E+00 0. -1.
         11    1    3    3    0    0 -0.23574666647E+01  0.72786233341E+00 -0.84089086859E+00  0.26066319966E+01  0.51100000000E-03 0. -1.
        -11    1    3    3    0    0 -0.11589678524E+02 -0.10728464430E+02 -0.73228573579E+01  0.17408183060E+02  0.51100000000E-03 0.  1.
         12    1    3    3    0    0 -0.20570852989E+02 -0.13829420164E+02 -0.82603598427E+01  0.26127502741E+02  0.00000000000E+00 0. -1.
</event>
<event>
 7    1  0.2395003E-008  0.4614232E+02  0.7816164E-02  0.1320468E+00
        -11   -1    0    0    0    0  0.00000000000E+00  0.00000000000E+00  0.45593999997E+02  0.45594000000E+02  0.51100000000E-03 0.  1.
         11   -1    0    0    0    0 -0.00000000000E+00 -0.00000000000E+00 -0.45593999997E+02  0.45594000000E+02  0.51100000000E-03 0. -1.
    9900012    2    1    2    0    0 -0.85057917108E+00 -0.20555754445E+02  0.40073068258E+02  0.46142319571E+02  0.10000016500E+02 0.  0.
         12    1    1    2    0    0  0.85057917108E+00  0.20555754445E+02 -0.40073068258E+02  0.45045680429E+02  0.00000000000E+00 0. -1.
         11    1    3    3    0    0  0.20189665540E+01 -0.97292321195E+00  0.30290373837E+01  0.37680065360E+01  0.51100000000E-03 0. -1.
        -11    1    3    3    0    0 -0.33981215098E+01 -0.77950605971E+01  0.18981100457E+02  0.20798855121E+02  0.51100000000E-03 0.  1.
        -12    1    3    3    0    0  0.52857578468E+00 -0.11787770636E+02  0.18062930417E+02  0.21575457914E+02  0.00000000000E+00 0.  1.
</event>
<event>
 7    1  0.2395003E-008  0.4614232E+02  0.7816164E-02  0.1320468E+00
        -11   -1    0    0    0    0  0.00000000000E+00  0.00000000000E+00  0.45593999997E+02  0.45594000000E+02  0.51100000000E-03 0.  1.
         11   -1    0    0    0    0 -0.00000000000E+00 -0.00000000000E+00 -0.45593999997E+02  0.45594000000E+02  0.51100000000E-03 0. -1.
    9900012    2    1    2    0    0  0.77476031328E+01  0.15284705085E+02  0.41658924197E+02  0.46142317309E+02  0.99999958750E+01 0.  0.
         12    1    1    2    0    0 -0.77476031328E+01 -0.15284705085E+02 -0.41658924197E+02  0.45045682691E+02  0.00000000000E+00 0. -1.
         11    1    3    3    0    0  0.79190162668E+00 -0.53193080758E+00  0.15232189146E+01  0.17972909317E+01  0.51100000000E-03 0. -1.
        -11    1    3    3    0    0  0.44065549181E+00 -0.40956728568E+00  0.56291642193E+01  0.56612200711E+01  0.51100000000E-03 0.  1.
         12    1    3    3    0    0  0.65150460144E+01  0.16226203178E+02  0.34506541063E+02  0.38683806306E+02  0.00000000000E+00 0. -1.
</event>
<event>
 7    1  0.2395003E-008  0.4614232E+02  0.7816164E-02  0.1320468E+00
        -11   -1    0    0    0    0  0.00000000000E+00  0.00000000000E+00  0.45593999997E+02  0.45594000000E+02  0.51100000000E-03 0.  1.
         11   -1    0    0    0    0 -0.00000000000E+00 -0.00000000000E+00 -0.45593999997E+02  0.45594000000E+02  0.51100000000E-03 0. -1.
    9900012    2    1    2    0    0 -0.17747328414E+02 -0.30231475385E+02  0.28287872711E+02  0.46142317496E+02  0.99999975816E+01 0.  0.
         12    1    1    2    0    0  0.17747328414E+02  0.30231475385E+02 -0.28287872711E+02  0.45045682504E+02  0.00000000000E+00 0. -1.
         11    1    3    3    0    0 -0.71556638497E+01 -0.17604868640E+02  0.17958473486E+02  0.26146542700E+02  0.51100000000E-03 0. -1.
        -11    1    3    3    0    0 -0.61484206865E+01 -0.10270266552E+02  0.83315460237E+01  0.14584104751E+02  0.51100000000E-03 0.  1.
         12    1    3    3    0    0 -0.44432438774E+01 -0.23563401926E+01  0.19978532011E+01  0.54116700445E+01  0.00000000000E+00 0. -1.
</event>
<event>
 7    1  0.2395003E-008  0.4614232E+02  0.7816164E-02  0.1320468E+00
        -11   -1    0    0    0    0  0.00000000000E+00  0.00000000000E+00  0.45593999997E+02  0.45594000000E+02  0.51100000000E-03 0.  1.
         11   -1    0    0    0    0 -0.00000000000E+00 -0.00000000000E+00 -0.45593999997E+02  0.45594000000E+02  0.51100000000E-03 0. -1.
    9900012    2    1    2    0    0  0.25477724802E+02  0.37680543634E+01  0.36956742488E+02  0.46142317520E+02  0.99999978047E+01 0.  0.
         12    1    1    2    0    0 -0.25477724802E+02 -0.37680543634E+01 -0.36956742488E+02  0.45045682480E+02  0.00000000000E+00 0. -1.
         11    1    3    3    0    0  0.11039061098E+02  0.10353841946E+01  0.98495866855E+01  0.14830618615E+02  0.51100000000E-03 0.  1.
        -11    1    3    3    0    0  0.92759171633E+01 -0.94908515262E+00  0.15673313567E+02  0.18237219094E+02  0.51100000000E-03 0. -1.
        -12    1    3    3    0    0  0.51627465397E+01  0.36817553214E+01  0.11433842235E+02  0.13074479811E+02  0.00000000000E+00 0.  1.
</event>
<event>
 7    1  0.2395003E-008  0.4614232E+02  0.7816164E-02  0.1320468E+00
        -11   -1    0    0    0    0  0.00000000000E+00  0.00000000000E+00  0.45593999997E+02  0.45594000000E+02  0.51100000000E-03 0.  1.
         11   -1    0    0    0    0 -0.00000000000E+00 -0.00000000000E+00 -0.45593999997E+02  0.45594000000E+02  0.51100000000E-03 0. -1.
    9900012    2    1    2    0    0  0.23788544351E+02 -0.45612422867E+01  0.37979122271E+02  0.46142317610E+02  0.99999986180E+01 0.  0.
         12    1    1    2    0    0 -0.23788544351E+02  0.45612422867E+01 -0.37979122271E+02  0.45045682390E+02  0.00000000000E+00 0. -1.
         11    1    3    3    0    0  0.56157562574E+01  0.28449917663E+01  0.10701326559E+02  0.12415679074E+02  0.51100000000E-03 0. -1.
        -11    1    3    3    0    0  0.38721450213E+01 -0.20053682832E+01  0.42668643093E+01  0.61009130720E+01  0.51100000000E-03 0.  1.
        -12    1    3    3    0    0  0.14300643073E+02 -0.54008657697E+01  0.23010931402E+02  0.27625725463E+02  0.00000000000E+00 0.  1.
</event>
<event>
 7    1  0.2395003E-008  0.4614232E+02  0.7816164E-02  0.1320468E+00
        -11   -1    0    0    0    0  0.00000000000E+00  0.00000000000E+00  0.45593999997E+02  0.45594000000E+02  0.51100000000E-03 0. -1.
         11   -1    0    0    0    0 -0.00000000000E+00 -0.00000000000E+00 -0.45593999997E+02  0.45594000000E+02  0.51100000000E-03 0.  1.
    9900012    2    1    2    0    0  0.19277733820E+02 -0.16746535985E+02 -0.37108435003E+02  0.46142318330E+02  0.10000005189E+02 0.  0.
         12    1    1    2    0    0 -0.19277733820E+02  0.16746535985E+02  0.37108435003E+02  0.45045681670E+02  0.00000000000E+00 0. -1.
         11    1    3    3    0    0  0.38802182557E+01 -0.12424749302E+01 -0.15526207363E+01  0.43600996636E+01  0.51100000000E-03 0. -1.
        -11    1    3    3    0    0  0.88689555876E+01 -0.83077798458E+01 -0.18026063202E+02  0.21739745491E+02  0.51100000000E-03 0.  1.
         12    1    3    3    0    0  0.65285599764E+01 -0.71962812090E+01 -0.17529751065E+02  0.20042473176E+02  0.00000000000E+00 0. -1.
</event>
<event>
 7    1  0.2395003E-008  0.4614232E+02  0.7816164E-02  0.1320468E+00
        -11   -1    0    0    0    0  0.00000000000E+00  0.00000000000E+00  0.45593999997E+02  0.45594000000E+02  0.51100000000E-03 0.  1.
         11   -1    0    0    0    0 -0.00000000000E+00 -0.00000000000E+00 -0.45593999997E+02  0.45594000000E+02  0.51100000000E-03 0. -1.
    9900012    2    1    2    0    0 -0.26183124116E+02 -0.20796800943E+02  0.30183613930E+02  0.46142317989E+02  0.10000002081E+02 0.  0.
         12    1    1    2    0    0  0.26183124116E+02  0.20796800943E+02 -0.30183613930E+02  0.45045682011E+02  0.00000000000E+00 0. -1.
         11    1    3    3    0    0 -0.29751618791E+01  0.25648341927E+00  0.52256010112E+01  0.60186608262E+01  0.51100000000E-03 0. -1.
        -11    1    3    3    0    0 -0.15490158408E+02 -0.12687274274E+02  0.16435114476E+02  0.25904148782E+02  0.51100000000E-03 0.  1.
         12    1    3    3    0    0 -0.77178038284E+01 -0.83660100884E+01  0.85228984431E+01  0.14219508381E+02  0.00000000000E+00 0. -1.
</event>
<event>
 7    1  0.2395003E-008  0.4614232E+02  0.7816164E-02  0.1320468E+00
        -11   -1    0    0    0    0  0.00000000000E+00  0.00000000000E+00  0.45593999997E+02  0.45594000000E+02  0.51100000000E-03 0. -1.
         11   -1    0    0    0    0 -0.00000000000E+00 -0.00000000000E+00 -0.45593999997E+02  0.45594000000E+02  0.51100000000E-03 0.  1.
    9900012    2    1    2    0    0  0.98572033959E+01  0.34288068075E+01 -0.43819999253E+02  0.46142317527E+02  0.99999978633E+01 0.  0.
         12    1    1    2    0    0 -0.98572033959E+01 -0.34288068075E+01  0.43819999253E+02  0.45045682473E+02  0.00000000000E+00 0. -1.
         11    1    3    3    0    0  0.11828075029E+01 -0.76048587868E+00 -0.23269539865E+02  0.23311989579E+02  0.51100000000E-03 0. -1.
        -11    1    3    3    0    0  0.19579776841E+01  0.17414339589E+01 -0.75831734497E+01  0.80231408235E+01  0.51100000000E-03 0.  1.
         12    1    3    3    0    0  0.67164182090E+01  0.24478587273E+01 -0.12967285939E+02  0.14807187124E+02  0.00000000000E+00 0. -1.
</event>
<event>
 7    1  0.2395003E-008  0.4614232E+02  0.7816164E-02  0.1320468E+00
        -11   -1    0    0    0    0  0.00000000000E+00  0.00000000000E+00  0.45593999997E+02  0.45594000000E+02  0.51100000000E-03 0.  1.
         11   -1    0    0    0    0 -0.00000000000E+00 -0.00000000000E+00 -0.45593999997E+02  0.45594000000E+02  0.51100000000E-03 0. -1.
    9900012    2    1    2    0    0  0.14902398478E+02 -0.31772172101E+02  0.28241121569E+02  0.46142319321E+02  0.10000014222E+02 0.  0.
         12    1    1    2    0    0 -0.14902398478E+02  0.31772172101E+02 -0.28241121569E+02  0.45045680679E+02  0.00000000000E+00 0. -1.
         11    1    3    3    0    0  0.86721880815E+01 -0.17908316492E+02  0.16131032262E+02  0.25614934078E+02  0.51100000000E-03 0. -1.
        -11    1    3    3    0    0  0.75869816003E+01 -0.11587273183E+02  0.94128288148E+01  0.16746000602E+02  0.51100000000E-03 0.  1.
         12    1    3    3    0    0 -0.13567712037E+01 -0.22765824255E+01  0.26972604915E+01  0.37813846403E+01  0.00000000000E+00 0. -1.
</event>
<event>
 7    1  0.2395003E-008  0.4614232E+02  0.7816164E-02  0.1320468E+00
        -11   -1    0    0    0    0  0.00000000000E+00  0.00000000000E+00  0.45593999997E+02  0.45594000000E+02  0.51100000000E-03 0. -1.
         11   -1    0    0    0    0 -0.00000000000E+00 -0.00000000000E+00 -0.45593999997E+02  0.45594000000E+02  0.51100000000E-03 0.  1.
    9900012    2    1    2    0    0  0.17703730947E+02  0.13535543963E+02 -0.39146908253E+02  0.46142318014E+02  0.10000002306E+02 0.  0.
         12    1    1    2    0    0 -0.17703730947E+02 -0.13535543963E+02  0.39146908253E+02  0.45045681986E+02  0.00000000000E+00 0. -1.
         11    1    3    3    0    0  0.48814575431E+01  0.25541929768E+01 -0.99513800962E+01  0.11374642658E+02  0.51100000000E-03 0. -1.
        -11    1    3    3    0    0  0.47207191832E+01  0.43470740774E+01 -0.19381287526E+02  0.20416085547E+02  0.51100000000E-03 0.  1.
         12    1    3    3    0    0  0.81015542205E+01  0.66342769087E+01 -0.98142406307E+01  0.14351589809E+02  0.00000000000E+00 0. -1.
</event>
<event>
 7    1  0.2395003E-008  0.4614232E+02  0.7816164E-02  0.1320468E+00
        -11   -1    0    0    0    0  0.00000000000E+00  0.00000000000E+00  0.45593999997E+02  0.45594000000E+02  0.51100000000E-03 0.  1.
         11   -1    0    0    0    0 -0.00000000000E+00 -0.00000000000E+00 -0.45593999997E+02  0.45594000000E+02  0.51100000000E-03 0. -1.
    9900012    2    1    2    0    0  0.14030845175E+02  0.27496519379E+02  0.32805339374E+02  0.46142317790E+02  0.10000000267E+02 0.  0.
         12    1    1    2    0    0 -0.14030845175E+02 -0.27496519379E+02 -0.32805339374E+02  0.45045682210E+02  0.00000000000E+00 0. -1.
         11    1    3    3    0    0  0.82751511016E+00  0.59297739962E+01  0.10069255767E+02  0.11714815955E+02  0.51100000000E-03 0. -1.
        -11    1    3    3    0    0  0.67491573637E+01  0.61189166971E+01  0.80353284638E+01  0.12147377102E+02  0.51100000000E-03 0.  1.
        -12    1    3    3    0    0  0.64541727010E+01  0.15447828686E+02  0.14700755143E+02  0.22280124734E+02  0.00000000000E+00 0.  1.
</event>
<event>
 7    1  0.2395003E-008  0.4614232E+02  0.7816164E-02  0.1320468E+00
        -11   -1    0    0    0    0  0.00000000000E+00  0.00000000000E+00  0.45593999997E+02  0.45594000000E+02  0.51100000000E-03 0.  1.
         11   -1    0    0    0    0 -0.00000000000E+00 -0.00000000000E+00 -0.45593999997E+02  0.45594000000E+02  0.51100000000E-03 0. -1.
    9900012    2    1    2    0    0  0.42339272072E+02  0.15371262766E+02 -0.47277488363E+00  0.46142321021E+02  0.10000029724E+02 0.  0.
         12    1    1    2    0    0 -0.42339272072E+02 -0.15371262766E+02  0.47277488363E+00  0.45045678979E+02  0.00000000000E+00 0. -1.
         11    1    3    3    0    0  0.21167183751E+01 -0.25921827933E+00 -0.30778939754E+00  0.21546288242E+01  0.51100000000E-03 0. -1.
        -11    1    3    3    0    0  0.25695687680E+02  0.65196307120E+01  0.25273976268E+01  0.26630089917E+02  0.51100000000E-03 0.  1.
        -12    1    3    3    0    0  0.14526866017E+02  0.91108503330E+01 -0.26923831129E+01  0.17357602280E+02  0.00000000000E+00 0.  1.
</event>
<event>
 7    1  0.2395003E-008  0.4614232E+02  0.7816164E-02  0.1320468E+00
        -11   -1    0    0    0    0  0.00000000000E+00  0.00000000000E+00  0.45593999997E+02  0.45594000000E+02  0.51100000000E-03 0.  1.
         11   -1    0    0    0    0 -0.00000000000E+00 -0.00000000000E+00 -0.45593999997E+02  0.45594000000E+02  0.51100000000E-03 0. -1.
    9900012    2    1    2    0    0 -0.26596649445E+01 -0.24561012326E+02  0.37666913426E+02  0.46142317508E+02  0.99999976945E+01 0.  0.
         12    1    1    2    0    0  0.26596649445E+01  0.24561012326E+02 -0.37666913426E+02  0.45045682492E+02  0.00000000000E+00 0. -1.
         11    1    3    3    0    0 -0.27104143768E+01 -0.19966991843E+02  0.23451550028E+02  0.30919286996E+02  0.51100000000E-03 0. -1.
        -11    1    3    3    0    0 -0.63715521627E+00 -0.46876472312E+01  0.11901189397E+02  0.12806963444E+02  0.51100000000E-03 0.  1.
        -12    1    3    3    0    0  0.68790464857E+00  0.93626747602E-01  0.23141740006E+01  0.24160670683E+01  0.00000000000E+00 0.  1.
</event>
<event>
 7    1  0.2395003E-008  0.4614232E+02  0.7816164E-02  0.1320468E+00
        -11   -1    0    0    0    0  0.00000000000E+00  0.00000000000E+00  0.45593999997E+02  0.45594000000E+02  0.51100000000E-03 0.  1.
         11   -1    0    0    0    0 -0.00000000000E+00 -0.00000000000E+00 -0.45593999997E+02  0.45594000000E+02  0.51100000000E-03 0. -1.
    9900012    2    1    2    0    0 -0.98626738365E+01 -0.33199052367E+02  0.28803890155E+02  0.46142317617E+02  0.99999986900E+01 0.  0.
         12    1    1    2    0    0  0.98626738365E+01  0.33199052367E+02 -0.28803890155E+02  0.45045682383E+02  0.00000000000E+00 0. -1.
         11    1    3    3    0    0 -0.10263846430E+01 -0.59451645592E+01  0.43962542901E+01  0.74649513807E+01  0.51100000000E-03 0. -1.
        -11    1    3    3    0    0 -0.52186332597E+01 -0.20488662901E+02  0.12650011926E+02  0.24638227261E+02  0.51100000000E-03 0.  1.
        -12    1    3    3    0    0 -0.36176559338E+01 -0.67652249062E+01  0.11757623939E+02  0.14039138976E+02  0.00000000000E+00 0.  1.
</event>
<event>
 7    1  0.2395003E-008  0.4614232E+02  0.7816164E-02  0.1320468E+00
        -11   -1    0    0    0    0  0.00000000000E+00  0.00000000000E+00  0.45593999997E+02  0.45594000000E+02  0.51100000000E-03 0.  1.
         11   -1    0    0    0    0 -0.00000000000E+00 -0.00000000000E+00 -0.45593999997E+02  0.45594000000E+02  0.51100000000E-03 0. -1.
    9900012    2    1    2    0    0 -0.29713805089E+02 -0.17280747902E+02  0.29113210514E+02  0.46142317772E+02  0.10000000103E+02 0.  0.
         12    1    1    2    0    0  0.29713805089E+02  0.17280747902E+02 -0.29113210514E+02  0.45045682228E+02  0.00000000000E+00 0. -1.
         11    1    3    3    0    0 -0.24799679957E+01 -0.40664739590E+00  0.32693609391E+01  0.41236300241E+01  0.51100000000E-03 0. -1.
        -11    1    3    3    0    0 -0.18939597610E+02 -0.15947954319E+02  0.20034620431E+02  0.31850143181E+02  0.51100000000E-03 0.  1.
         12    1    3    3    0    0 -0.82942394832E+01 -0.92614618715E+00  0.58092291440E+01  0.10168544567E+02  0.00000000000E+00 0. -1.
</event>
<event>
 7    1  0.2395003E-008  0.4614232E+02  0.7816164E-02  0.1320468E+00
        -11   -1    0    0    0    0  0.00000000000E+00  0.00000000000E+00  0.45593999997E+02  0.45594000000E+02  0.51100000000E-03 0.  1.
         11   -1    0    0    0    0 -0.00000000000E+00 -0.00000000000E+00 -0.45593999997E+02  0.45594000000E+02  0.51100000000E-03 0. -1.
    9900012    2    1    2    0    0  0.27208029126E+02  0.24273347584E+02  0.26450733548E+02  0.46142316998E+02  0.99999930389E+01 0.  0.
         12    1    1    2    0    0 -0.27208029126E+02 -0.24273347584E+02 -0.26450733548E+02  0.45045683002E+02  0.00000000000E+00 0. -1.
         11    1    3    3    0    0  0.83031008279E+00  0.20940813420E+00 -0.24296495263E+00  0.89011169500E+00  0.51100000000E-03 0. -1.
        -11    1    3    3    0    0  0.47285506650E+01  0.71904741911E+01  0.34034738660E+01  0.92544986413E+01  0.51100000000E-03 0.  1.
        -12    1    3    3    0    0  0.21649168379E+02  0.16873465259E+02  0.23290224635E+02  0.35997706661E+02  0.00000000000E+00 0.  1.
</event>
<event>
 7    1  0.2395003E-008  0.4614232E+02  0.7816164E-02  0.1320468E+00
        -11   -1    0    0    0    0  0.00000000000E+00  0.00000000000E+00  0.45593999997E+02  0.45594000000E+02  0.51100000000E-03 0. -1.
         11   -1    0    0    0    0 -0.00000000000E+00 -0.00000000000E+00 -0.45593999997E+02  0.45594000000E+02  0.51100000000E-03 0.  1.
    9900012    2    1    2    0    0 -0.12011840269E+02 -0.19255436371E+02 -0.38910890723E+02  0.46142317040E+02  0.99999934259E+01 0.  0.
         12    1    1    2    0    0  0.12011840269E+02  0.19255436371E+02  0.38910890723E+02  0.45045682960E+02  0.00000000000E+00 0. -1.
         11    1    3    3    0    0 -0.54148654644E+01 -0.41545918763E+01 -0.79591840612E+01  0.10484751444E+02  0.51100000000E-03 0. -1.
        -11    1    3    3    0    0 -0.61801925570E+01 -0.13541185847E+02 -0.30566168873E+02  0.33997781898E+02  0.51100000000E-03 0.  1.
        -12    1    3    3    0    0 -0.41678224769E+00 -0.15596586472E+01 -0.38553778890E+00  0.16597836981E+01  0.00000000000E+00 0.  1.
</event>
<event>
 7    1  0.2395003E-008  0.4614232E+02  0.7816164E-02  0.1320468E+00
        -11   -1    0    0    0    0  0.00000000000E+00  0.00000000000E+00  0.45593999997E+02  0.45594000000E+02  0.51100000000E-03 0. -1.
         11   -1    0    0    0    0 -0.00000000000E+00 -0.00000000000E+00 -0.45593999997E+02  0.45594000000E+02  0.51100000000E-03 0.  1.
    9900012    2    1    2    0    0 -0.44561562608E+01 -0.14236160232E+02 -0.42503975410E+02  0.46142317494E+02  0.99999975628E+01 0.  0.
         12    1    1    2    0    0  0.44561562608E+01  0.14236160232E+02  0.42503975410E+02  0.45045682506E+02  0.00000000000E+00 0. -1.
         11    1    3    3    0    0 -0.29221543162E+01 -0.90073331273E+00 -0.32773209533E+01  0.44823140497E+01  0.51100000000E-03 0. -1.
        -11    1    3    3    0    0  0.53824468752E-01 -0.64767230590E+01 -0.13281164869E+02  0.14776338491E+02  0.51100000000E-03 0.  1.
        -12    1    3    3    0    0 -0.15878264133E+01 -0.68587038602E+01 -0.25945489588E+02  0.26883664953E+02  0.00000000000E+00 0.  1.
</event>
<event>
 7    1  0.2395003E-008  0.4614232E+02  0.7816164E-02  0.1320468E+00
        -11   -1    0    0    0    0  0.00000000000E+00  0.00000000000E+00  0.45593999997E+02  0.45594000000E+02  0.51100000000E-03 0.  1.
         11   -1    0    0    0    0 -0.00000000000E+00 -0.00000000000E+00 -0.45593999997E+02  0.45594000000E+02  0.51100000000E-03 0. -1.
    9900012    2    1    2    0    0 -0.25389220452E+01 -0.95443256546E+01  0.43949667284E+02  0.46142317280E+02  0.99999956153E+01 0.  0.
         12    1    1    2    0    0  0.25389220452E+01  0.95443256546E+01 -0.43949667284E+02  0.45045682720E+02  0.00000000000E+00 0. -1.
         11    1    3    3    0    0 -0.30176451188E+00  0.32140702830E-01  0.16522548737E+00  0.34553519098E+00  0.51100000000E-03 0. -1.
        -11    1    3    3    0    0  0.11023613457E+01 -0.96340593066E+01  0.36779301360E+02  0.38036131612E+02  0.51100000000E-03 0.  1.
        -12    1    3    3    0    0 -0.33395188790E+01  0.57592949189E-01  0.70051404365E+01  0.77606504770E+01  0.00000000000E+00 0.  1.
</event>
<event>
 7    1  0.2395003E-008  0.4614232E+02  0.7816164E-02  0.1320468E+00
        -11   -1    0    0    0    0  0.00000000000E+00  0.00000000000E+00  0.45593999997E+02  0.45594000000E+02  0.51100000000E-03 0. -1.
         11   -1    0    0    0    0 -0.00000000000E+00 -0.00000000000E+00 -0.45593999997E+02  0.45594000000E+02  0.51100000000E-03 0.  1.
    9900012    2    1    2    0    0 -0.52840553021E+01 -0.28584392824E+02 -0.34411114825E+02  0.46142316777E+02  0.99999910242E+01 0.  0.
         12    1    1    2    0    0  0.52840553021E+01  0.28584392824E+02  0.34411114825E+02  0.45045683223E+02  0.00000000000E+00 0. -1.
         11    1    3    3    0    0  0.16668610474E+01 -0.11408122799E+02 -0.10657812600E+02  0.15700721679E+02  0.51100000000E-03 0. -1.
        -11    1    3    3    0    0 -0.51247123595E+01 -0.16084190188E+02 -0.21605044119E+02  0.27417909885E+02  0.51100000000E-03 0.  1.
         12    1    3    3    0    0 -0.18262039900E+01 -0.10920798367E+01 -0.21482581055E+01  0.30236852135E+01  0.00000000000E+00 0. -1.
</event>
<event>
 7    1  0.2395003E-008  0.4614232E+02  0.7816164E-02  0.1320468E+00
        -11   -1    0    0    0    0  0.00000000000E+00  0.00000000000E+00  0.45593999997E+02  0.45594000000E+02  0.51100000000E-03 0. -1.
         11   -1    0    0    0    0 -0.00000000000E+00 -0.00000000000E+00 -0.45593999997E+02  0.45594000000E+02  0.51100000000E-03 0.  1.
    9900012    2    1    2    0    0 -0.29221369717E+02 -0.16825401905E+02 -0.29868559409E+02  0.46142318313E+02  0.10000005037E+02 0.  0.
         12    1    1    2    0    0  0.29221369717E+02  0.16825401905E+02  0.29868559409E+02  0.45045681687E+02  0.00000000000E+00 0. -1.
         11    1    3    3    0    0 -0.42693283262E+01 -0.55935949446E+01 -0.59088829076E+01  0.91885997975E+01  0.51100000000E-03 0. -1.
        -11    1    3    3    0    0 -0.14826634639E+02 -0.50409297748E+01 -0.97815379287E+01  0.18463979858E+02  0.51100000000E-03 0.  1.
        -12    1    3    3    0    0 -0.10125406752E+02 -0.61908771857E+01 -0.14178138573E+02  0.18489738658E+02  0.00000000000E+00 0.  1.
</event>
<event>
 7    1  0.2395003E-008  0.4614232E+02  0.7816164E-02  0.1320468E+00
        -11   -1    0    0    0    0  0.00000000000E+00  0.00000000000E+00  0.45593999997E+02  0.45594000000E+02  0.51100000000E-03 0. -1.
         11   -1    0    0    0    0 -0.00000000000E+00 -0.00000000000E+00 -0.45593999997E+02  0.45594000000E+02  0.51100000000E-03 0.  1.
    9900012    2    1    2    0    0  0.24381225955E+02  0.13352092857E+02 -0.35445606442E+02  0.46142316758E+02  0.99999908527E+01 0.  0.
         12    1    1    2    0    0 -0.24381225955E+02 -0.13352092857E+02  0.35445606442E+02  0.45045683242E+02  0.00000000000E+00 0. -1.
         11    1    3    3    0    0  0.12930807722E+02  0.11828845965E+02 -0.23321603743E+02  0.29172325698E+02  0.51100000000E-03 0. -1.
        -11    1    3    3    0    0  0.42515880263E+01 -0.64400523298E+00 -0.36359181696E+01  0.56312205322E+01  0.51100000000E-03 0.  1.
         12    1    3    3    0    0  0.71988302063E+01  0.21672521246E+01 -0.84880845296E+01  0.11338770528E+02  0.00000000000E+00 0. -1.
</event>
<event>
 7    1  0.2395003E-008  0.4614232E+02  0.7816164E-02  0.1320468E+00
        -11   -1    0    0    0    0  0.00000000000E+00  0.00000000000E+00  0.45593999997E+02  0.45594000000E+02  0.51100000000E-03 0.  1.
         11   -1    0    0    0    0 -0.00000000000E+00 -0.00000000000E+00 -0.45593999997E+02  0.45594000000E+02  0.51100000000E-03 0. -1.
    9900012    2    1    2    0    0  0.27035929409E+02 -0.28812939858E+02  0.21632997804E+02  0.46142316785E+02  0.99999911021E+01 0.  0.
         12    1    1    2    0    0 -0.27035929409E+02  0.28812939858E+02 -0.21632997804E+02  0.45045683215E+02  0.00000000000E+00 0. -1.
         11    1    3    3    0    0  0.22059165151E+01 -0.22935715741E+01  0.81674905348E+00  0.32853641372E+01  0.51100000000E-03 0. -1.
        -11    1    3    3    0    0  0.15812239531E+02 -0.12687831009E+02  0.15469622367E+02  0.25501317439E+02  0.51100000000E-03 0.  1.
        -12    1    3    3    0    0  0.90177733631E+01 -0.13831537275E+02  0.53466263842E+01  0.17355635209E+02  0.00000000000E+00 0.  1.
</event>
<event>
 7    1  0.2395003E-008  0.4614232E+02  0.7816164E-02  0.1320468E+00
        -11   -1    0    0    0    0  0.00000000000E+00  0.00000000000E+00  0.45593999997E+02  0.45594000000E+02  0.51100000000E-03 0.  1.
         11   -1    0    0    0    0 -0.00000000000E+00 -0.00000000000E+00 -0.45593999997E+02  0.45594000000E+02  0.51100000000E-03 0. -1.
    9900012    2    1    2    0    0 -0.37441356538E+02 -0.93118870854E+01  0.23249667033E+02  0.46142318324E+02  0.10000005130E+02 0.  0.
         12    1    1    2    0    0  0.37441356538E+02  0.93118870854E+01 -0.23249667033E+02  0.45045681676E+02  0.00000000000E+00 0. -1.
         11    1    3    3    0    0 -0.24544246331E+02 -0.93163066559E+01  0.13687592939E+02  0.29606820133E+02  0.51100000000E-03 0. -1.
        -11    1    3    3    0    0 -0.46427886681E+01  0.82006750154E+00  0.56675300015E+01  0.73721702302E+01  0.51100000000E-03 0.  1.
         12    1    3    3    0    0 -0.82543215391E+01 -0.81564793102E+00  0.38945440931E+01  0.91633279604E+01  0.00000000000E+00 0. -1.
</event>
<event>
 7    1  0.2395003E-008  0.4614232E+02  0.7816164E-02  0.1320468E+00
        -11   -1    0    0    0    0  0.00000000000E+00  0.00000000000E+00  0.45593999997E+02  0.45594000000E+02  0.51100000000E-03 0.  1.
         11   -1    0    0    0    0 -0.00000000000E+00 -0.00000000000E+00 -0.45593999997E+02  0.45594000000E+02  0.51100000000E-03 0. -1.
    9900012    2    1    2    0    0  0.35991469330E+02  0.49224762751E+01  0.26636374356E+02  0.46142322338E+02  0.10000041733E+02 0.  0.
         12    1    1    2    0    0 -0.35991469330E+02 -0.49224762751E+01 -0.26636374356E+02  0.45045677662E+02  0.00000000000E+00 0. -1.
         11    1    3    3    0    0 -0.11655699640E+00 -0.82060185973E-01  0.94179539833E-01  0.17084921532E+00  0.51100000000E-03 0. -1.
        -11    1    3    3    0    0  0.16801804567E+02  0.66832319254E+01  0.11372813754E+02  0.21361346367E+02  0.51100000000E-03 0.  1.
        -12    1    3    3    0    0  0.19306221760E+02 -0.16786954644E+01  0.15169381062E+02  0.24610126755E+02  0.00000000000E+00 0.  1.
</event>
<event>
 7    1  0.2395003E-008  0.4614232E+02  0.7816164E-02  0.1320468E+00
        -11   -1    0    0    0    0  0.00000000000E+00  0.00000000000E+00  0.45593999997E+02  0.45594000000E+02  0.51100000000E-03 0.  1.
         11   -1    0    0    0    0 -0.00000000000E+00 -0.00000000000E+00 -0.45593999997E+02  0.45594000000E+02  0.51100000000E-03 0. -1.
    9900012    2    1    2    0    0 -0.13381017476E+01  0.30042263410E+02  0.33537820536E+02  0.46142317483E+02  0.99999974662E+01 0.  0.
         12    1    1    2    0    0  0.13381017476E+01 -0.30042263410E+02 -0.33537820536E+02  0.45045682517E+02  0.00000000000E+00 0. -1.
         11    1    3    3    0    0 -0.39690649324E+01  0.96409482311E+01  0.12421301458E+02  0.16216969180E+02  0.51100000000E-03 0. -1.
        -11    1    3    3    0    0 -0.87107971236E+00  0.12554903719E+02  0.13280628316E+02  0.18296433423E+02  0.51100000000E-03 0.  1.
         12    1    3    3    0    0  0.35020428971E+01  0.78464114601E+01  0.78358907621E+01  0.11628914880E+02  0.00000000000E+00 0. -1.
</event>
<event>
 7    1  0.2395003E-008  0.4614232E+02  0.7816164E-02  0.1320468E+00
        -11   -1    0    0    0    0  0.00000000000E+00  0.00000000000E+00  0.45593999997E+02  0.45594000000E+02  0.51100000000E-03 0.  1.
         11   -1    0    0    0    0 -0.00000000000E+00 -0.00000000000E+00 -0.45593999997E+02  0.45594000000E+02  0.51100000000E-03 0. -1.
    9900012    2    1    2    0    0  0.17556286865E+02  0.16261628540E+02  0.38163459991E+02  0.46142318189E+02  0.10000003905E+02 0.  0.
         12    1    1    2    0    0 -0.17556286865E+02 -0.16261628540E+02 -0.38163459991E+02  0.45045681811E+02  0.00000000000E+00 0. -1.
         11    1    3    3    0    0  0.27047245109E+01  0.67101090405E+00  0.24328783678E+01  0.36992820556E+01  0.51100000000E-03 0. -1.
        -11    1    3    3    0    0  0.12739204196E+00  0.42734869061E+01  0.55380656080E+01  0.69963626270E+01  0.51100000000E-03 0.  1.
        -12    1    3    3    0    0  0.14724170312E+02  0.11317130730E+02  0.30192516016E+02  0.35446673507E+02  0.00000000000E+00 0.  1.
</event>
<event>
 7    1  0.2395003E-008  0.4614232E+02  0.7816164E-02  0.1320468E+00
        -11   -1    0    0    0    0  0.00000000000E+00  0.00000000000E+00  0.45593999997E+02  0.45594000000E+02  0.51100000000E-03 0.  1.
         11   -1    0    0    0    0 -0.00000000000E+00 -0.00000000000E+00 -0.45593999997E+02  0.45594000000E+02  0.51100000000E-03 0. -1.
    9900012    2    1    2    0    0 -0.38102496055E+02  0.36284104998E+01  0.23751797647E+02  0.46142318078E+02  0.10000002889E+02 0.  0.
         12    1    1    2    0    0  0.38102496055E+02 -0.36284104998E+01 -0.23751797647E+02  0.45045681922E+02  0.00000000000E+00 0. -1.
         11    1    3    3    0    0 -0.51284922480E+01  0.23142110233E+01  0.64718895694E+01  0.85756842443E+01  0.51100000000E-03 0. -1.
        -11    1    3    3    0    0 -0.69007146018E+01  0.22283560593E+01  0.32886074501E+01  0.79624350524E+01  0.51100000000E-03 0.  1.
        -12    1    3    3    0    0 -0.26073289205E+02 -0.91415658281E+00  0.13991300628E+02  0.29604198781E+02  0.00000000000E+00 0.  1.
</event>
<event>
 7    1  0.2395003E-008  0.4614232E+02  0.7816164E-02  0.1320468E+00
        -11   -1    0    0    0    0  0.00000000000E+00  0.00000000000E+00  0.45593999997E+02  0.45594000000E+02  0.51100000000E-03 0.  1.
         11   -1    0    0    0    0 -0.00000000000E+00 -0.00000000000E+00 -0.45593999997E+02  0.45594000000E+02  0.51100000000E-03 0. -1.
    9900012    2    1    2    0    0 -0.40965086820E+02  0.13728663624E+02  0.12747507648E+02  0.46142317695E+02  0.99999993991E+01 0.  0.
         12    1    1    2    0    0  0.40965086820E+02 -0.13728663624E+02 -0.12747507648E+02  0.45045682305E+02  0.00000000000E+00 0. -1.
         11    1    3    3    0    0 -0.13979973580E+02  0.81874509924E+01  0.51191694787E+01  0.16990583023E+02  0.51100000000E-03 0. -1.
        -11    1    3    3    0    0 -0.17372108221E+02  0.30010858243E+01  0.76276488762E+01  0.19208791941E+02  0.51100000000E-03 0.  1.
        -12    1    3    3    0    0 -0.96130050185E+01  0.25401268077E+01  0.68929263369E-03  0.99429427314E+01  0.00000000000E+00 0.  1.
</event>
<event>
 7    1  0.2395003E-008  0.4614232E+02  0.7816164E-02  0.1320468E+00
        -11   -1    0    0    0    0  0.00000000000E+00  0.00000000000E+00  0.45593999997E+02  0.45594000000E+02  0.51100000000E-03 0.  1.
         11   -1    0    0    0    0 -0.00000000000E+00 -0.00000000000E+00 -0.45593999997E+02  0.45594000000E+02  0.51100000000E-03 0. -1.
    9900012    2    1    2    0    0 -0.39557795411E+02 -0.11587348790E+02  0.18166664389E+02  0.46142317357E+02  0.99999963159E+01 0.  0.
         12    1    1    2    0    0  0.39557795411E+02  0.11587348790E+02 -0.18166664389E+02  0.45045682643E+02  0.00000000000E+00 0. -1.
         11    1    3    3    0    0 -0.42770198766E+01 -0.38231772261E+01  0.15627534189E+01  0.59457364250E+01  0.51100000000E-03 0. -1.
        -11    1    3    3    0    0 -0.27011946262E+02 -0.64409111864E+01  0.15349431871E+02  0.31729097636E+02  0.51100000000E-03 0.  1.
         12    1    3    3    0    0 -0.82688292726E+01 -0.13232603774E+01  0.12544790995E+01  0.84674832966E+01  0.00000000000E+00 0. -1.
</event>
<event>
 7    1  0.2395003E-008  0.4614232E+02  0.7816164E-02  0.1320468E+00
        -11   -1    0    0    0    0  0.00000000000E+00  0.00000000000E+00  0.45593999997E+02  0.45594000000E+02  0.51100000000E-03 0.  1.
         11   -1    0    0    0    0 -0.00000000000E+00 -0.00000000000E+00 -0.45593999997E+02  0.45594000000E+02  0.51100000000E-03 0. -1.
    9900012    2    1    2    0    0 -0.27254339269E+02 -0.11606082306E+02  0.33935430259E+02  0.46142316718E+02  0.99999904886E+01 0.  0.
         12    1    1    2    0    0  0.27254339269E+02  0.11606082306E+02 -0.33935430259E+02  0.45045683282E+02  0.00000000000E+00 0. -1.
         11    1    3    3    0    0 -0.11235246574E+02 -0.91228680702E+01  0.16509557821E+02  0.21955021911E+02  0.51100000000E-03 0. -1.
        -11    1    3    3    0    0 -0.73212156595E+00  0.82070880920E+00  0.15604566099E+01  0.19090809384E+01  0.51100000000E-03 0.  1.
        -12    1    3    3    0    0 -0.15286971129E+02 -0.33039230453E+01  0.15865415828E+02  0.22278213869E+02  0.00000000000E+00 0.  1.
</event>
<event>
 7    1  0.2395003E-008  0.4614232E+02  0.7816164E-02  0.1320468E+00
        -11   -1    0    0    0    0  0.00000000000E+00  0.00000000000E+00  0.45593999997E+02  0.45594000000E+02  0.51100000000E-03 0. -1.
         11   -1    0    0    0    0 -0.00000000000E+00 -0.00000000000E+00 -0.45593999997E+02  0.45594000000E+02  0.51100000000E-03 0.  1.
    9900012    2    1    2    0    0  0.43759643609E+02  0.98339408541E+01  0.41833895478E+01  0.46142317081E+02  0.99999937978E+01 0.  0.
         12    1    1    2    0    0 -0.43759643609E+02 -0.98339408541E+01 -0.41833895478E+01  0.45045682919E+02  0.00000000000E+00 0. -1.
         11    1    3    3    0    0  0.65084351502E+01 -0.10498569862E+01  0.26280377691E+01  0.70970776079E+01  0.51100000000E-03 0. -1.
        -11    1    3    3    0    0  0.61085452821E+01  0.16479377789E+01  0.17383600415E+01  0.65613962144E+01  0.51100000000E-03 0.  1.
        -12    1    3    3    0    0  0.31142663177E+02  0.92358600614E+01 -0.18300826289E+00  0.32483843259E+02  0.00000000000E+00 0.  1.
</event>
<event>
 7    1  0.2395003E-008  0.4614232E+02  0.7816164E-02  0.1320468E+00
        -11   -1    0    0    0    0  0.00000000000E+00  0.00000000000E+00  0.45593999997E+02  0.45594000000E+02  0.51100000000E-03 0. -1.
         11   -1    0    0    0    0 -0.00000000000E+00 -0.00000000000E+00 -0.45593999997E+02  0.45594000000E+02  0.51100000000E-03 0.  1.
    9900012    2    1    2    0    0  0.24157978270E+02  0.37904879863E+02  0.29539280138E+01  0.46142317385E+02  0.99999965708E+01 0.  0.
         12    1    1    2    0    0 -0.24157978270E+02 -0.37904879863E+02 -0.29539280138E+01  0.45045682615E+02  0.00000000000E+00 0. -1.
         11    1    3    3    0    0  0.61656701630E+01  0.16367602059E+02 -0.12985397521E+00  0.17490876137E+02  0.51100000000E-03 0. -1.
        -11    1    3    3    0    0  0.11331489879E+02  0.15737452164E+02  0.39034236235E+01  0.19781475672E+02  0.51100000000E-03 0.  1.
        -12    1    3    3    0    0  0.66608182277E+01  0.57998256398E+01 -0.81964163453E+00  0.88699655762E+01  0.00000000000E+00 0.  1.
</event>
<event>
 7    1  0.2395003E-008  0.4614232E+02  0.7816164E-02  0.1320468E+00
        -11   -1    0    0    0    0  0.00000000000E+00  0.00000000000E+00  0.45593999997E+02  0.45594000000E+02  0.51100000000E-03 0.  1.
         11   -1    0    0    0    0 -0.00000000000E+00 -0.00000000000E+00 -0.45593999997E+02  0.45594000000E+02  0.51100000000E-03 0. -1.
    9900012    2    1    2    0    0  0.21094497152E+02 -0.79351686701E+00  0.39793289685E+02  0.46142318930E+02  0.10000010659E+02 0.  0.
         12    1    1    2    0    0 -0.21094497152E+02  0.79351686701E+00 -0.39793289685E+02  0.45045681070E+02  0.00000000000E+00 0. -1.
         11    1    3    3    0    0  0.17790050752E+02  0.10630801858E+01  0.35136488923E+02  0.39397828612E+02  0.51100000000E-03 0.  1.
        -11    1    3    3    0    0 -0.34712348193E+00 -0.13892069638E+00  0.17029964403E+01  0.17435569415E+01  0.51100000000E-03 0. -1.
         12    1    3    3    0    0  0.36515698814E+01 -0.17176763565E+01  0.29538043218E+01  0.50009333764E+01  0.00000000000E+00 0. -1.
</event>
<event>
 7    1  0.2395003E-008  0.4614232E+02  0.7816164E-02  0.1320468E+00
        -11   -1    0    0    0    0  0.00000000000E+00  0.00000000000E+00  0.45593999997E+02  0.45594000000E+02  0.51100000000E-03 0. -1.
         11   -1    0    0    0    0 -0.00000000000E+00 -0.00000000000E+00 -0.45593999997E+02  0.45594000000E+02  0.51100000000E-03 0.  1.
    9900012    2    1    2    0    0 -0.15990759555E+02  0.24527577642E+02 -0.34231667003E+02  0.46142317833E+02  0.10000000652E+02 0.  0.
         12    1    1    2    0    0  0.15990759555E+02 -0.24527577642E+02  0.34231667003E+02  0.45045682167E+02  0.00000000000E+00 0. -1.
         11    1    3    3    0    0 -0.12625129400E+01  0.63084580371E+01 -0.10362003729E+02  0.12196790695E+02  0.51100000000E-03 0. -1.
        -11    1    3    3    0    0 -0.77772443659E+01  0.83560813760E+01 -0.15545078954E+02  0.19286241361E+02  0.51100000000E-03 0.  1.
        -12    1    3    3    0    0 -0.69510022493E+01  0.98630382288E+01 -0.83245843207E+01  0.14659285777E+02  0.00000000000E+00 0.  1.
</event>
<event>
 7    1  0.2395003E-008  0.4614232E+02  0.7816164E-02  0.1320468E+00
        -11   -1    0    0    0    0  0.00000000000E+00  0.00000000000E+00  0.45593999997E+02  0.45594000000E+02  0.51100000000E-03 0.  1.
         11   -1    0    0    0    0 -0.00000000000E+00 -0.00000000000E+00 -0.45593999997E+02  0.45594000000E+02  0.51100000000E-03 0. -1.
    9900012    2    1    2    0    0 -0.32705970289E+02 -0.28270088369E+02  0.12658402340E+02  0.46142317202E+02  0.99999949049E+01 0.  0.
         12    1    1    2    0    0  0.32705970289E+02  0.28270088369E+02 -0.12658402340E+02  0.45045682798E+02  0.00000000000E+00 0. -1.
         11    1    3    3    0    0 -0.96191297250E+01 -0.64145534258E+01  0.79534169957E+00  0.11589077660E+02  0.51100000000E-03 0. -1.
        -11    1    3    3    0    0 -0.38208627724E+00 -0.26558375602E+00  0.14724103153E+01  0.15441881532E+01  0.51100000000E-03 0.  1.
        -12    1    3    3    0    0 -0.22704754287E+02 -0.21589951187E+02  0.10390650325E+02  0.33009051390E+02  0.00000000000E+00 0.  1.
</event>
<event>
 7    1  0.2395003E-008  0.4614232E+02  0.7816164E-02  0.1320468E+00
        -11   -1    0    0    0    0  0.00000000000E+00  0.00000000000E+00  0.45593999997E+02  0.45594000000E+02  0.51100000000E-03 0.  1.
         11   -1    0    0    0    0 -0.00000000000E+00 -0.00000000000E+00 -0.45593999997E+02  0.45594000000E+02  0.51100000000E-03 0. -1.
    9900012    2    1    2    0    0  0.11437481083E+01  0.36787700776E+02  0.25970567004E+02  0.46142318313E+02  0.10000005031E+02 0.  0.
         12    1    1    2    0    0 -0.11437481083E+01 -0.36787700776E+02 -0.25970567004E+02  0.45045681687E+02  0.00000000000E+00 0. -1.
         11    1    3    3    0    0 -0.15528278873E+01  0.15267414268E+02  0.77662975737E+01  0.17199435780E+02  0.51100000000E-03 0. -1.
        -11    1    3    3    0    0  0.58251886294E+00  0.19682730189E+02  0.15667565160E+02  0.25163898629E+02  0.51100000000E-03 0.  1.
         12    1    3    3    0    0  0.21140571326E+01  0.18375563185E+01  0.25367042710E+01  0.37789839034E+01  0.00000000000E+00 0. -1.
</event>
<event>
 7    1  0.2395003E-008  0.4614232E+02  0.7816164E-02  0.1320468E+00
        -11   -1    0    0    0    0  0.00000000000E+00  0.00000000000E+00  0.45593999997E+02  0.45594000000E+02  0.51100000000E-03 0. -1.
         11   -1    0    0    0    0 -0.00000000000E+00 -0.00000000000E+00 -0.45593999997E+02  0.45594000000E+02  0.51100000000E-03 0.  1.
    9900012    2    1    2    0    0  0.28850785548E+02 -0.33686800477E+02 -0.78705221379E+01  0.46142317945E+02  0.10000001678E+02 0.  0.
         12    1    1    2    0    0 -0.28850785548E+02  0.33686800477E+02  0.78705221379E+01  0.45045682055E+02  0.00000000000E+00 0. -1.
         11    1    3    3    0    0  0.16391010130E+02 -0.25759739355E+02 -0.44171558431E+01  0.30850294176E+02  0.51100000000E-03 0. -1.
        -11    1    3    3    0    0  0.51514444078E+01 -0.42390603382E+01 -0.21049812197E+01  0.69955670416E+01  0.51100000000E-03 0.  1.
         12    1    3    3    0    0  0.73083310096E+01 -0.36880007837E+01 -0.13483850751E+01  0.82964567279E+01  0.00000000000E+00 0. -1.
</event>
<event>
 7    1  0.2395003E-008  0.4614232E+02  0.7816164E-02  0.1320468E+00
        -11   -1    0    0    0    0  0.00000000000E+00  0.00000000000E+00  0.45593999997E+02  0.45594000000E+02  0.51100000000E-03 0.  1.
         11   -1    0    0    0    0 -0.00000000000E+00 -0.00000000000E+00 -0.45593999997E+02  0.45594000000E+02  0.51100000000E-03 0. -1.
    9900012    2    1    2    0    0  0.33287937623E+02 -0.78583925735E+01  0.29313348848E+02  0.46142317125E+02  0.99999941963E+01 0.  0.
         12    1    1    2    0    0 -0.33287937623E+02  0.78583925735E+01 -0.29313348848E+02  0.45045682875E+02  0.00000000000E+00 0. -1.
         11    1    3    3    0    0  0.11210981550E+02 -0.57384102876E+00  0.14266772754E+02  0.18153682985E+02  0.51100000000E-03 0. -1.
        -11    1    3    3    0    0  0.35267122782E+01 -0.13305370992E+01  0.43757108439E+01  0.57753678771E+01  0.51100000000E-03 0.  1.
         12    1    3    3    0    0  0.18550243795E+02 -0.59540144455E+01  0.10670865250E+02  0.22213266263E+02  0.00000000000E+00 0. -1.
</event>
<event>
 7    1  0.2395003E-008  0.4614232E+02  0.7816164E-02  0.1320468E+00
        -11   -1    0    0    0    0  0.00000000000E+00  0.00000000000E+00  0.45593999997E+02  0.45594000000E+02  0.51100000000E-03 0.  1.
         11   -1    0    0    0    0 -0.00000000000E+00 -0.00000000000E+00 -0.45593999997E+02  0.45594000000E+02  0.51100000000E-03 0. -1.
    9900012    2    1    2    0    0 -0.31105422421E+02  0.24624264880E+02 -0.21335691773E+02  0.46142317984E+02  0.10000002036E+02 0.  0.
         12    1    1    2    0    0  0.31105422421E+02 -0.24624264880E+02  0.21335691773E+02  0.45045682016E+02  0.00000000000E+00 0. -1.
         11    1    3    3    0    0 -0.36272140489E+00  0.23731230335E+00 -0.19283845712E+01  0.19764997501E+01  0.51100000000E-03 0. -1.
        -11    1    3    3    0    0 -0.68759524848E+01  0.30106358151E+01 -0.51100713193E+01  0.90804999715E+01  0.51100000000E-03 0.  1.
         12    1    3    3    0    0 -0.23866748531E+02  0.21376316761E+02 -0.14297235883E+02  0.35085318263E+02  0.00000000000E+00 0. -1.
</event>
<event>
 7    1  0.2395003E-008  0.4614232E+02  0.7816164E-02  0.1320468E+00
        -11   -1    0    0    0    0  0.00000000000E+00  0.00000000000E+00  0.45593999997E+02  0.45594000000E+02  0.51100000000E-03 0.  1.
         11   -1    0    0    0    0 -0.00000000000E+00 -0.00000000000E+00 -0.45593999997E+02  0.45594000000E+02  0.51100000000E-03 0. -1.
    9900012    2    1    2    0    0  0.19725534216E+02 -0.13571834084E+02  0.38155237245E+02  0.46142317525E+02  0.99999978435E+01 0.  0.
         12    1    1    2    0    0 -0.19725534216E+02  0.13571834084E+02 -0.38155237245E+02  0.45045682475E+02  0.00000000000E+00 0. -1.
         11    1    3    3    0    0  0.27215973061E+01 -0.37969350155E+01  0.99137139565E+01  0.10959266950E+02  0.51100000000E-03 0. -1.
        -11    1    3    3    0    0  0.36205857061E+01 -0.45110945517E+01  0.12994240742E+02  0.14223533584E+02  0.51100000000E-03 0.  1.
         12    1    3    3    0    0  0.13383351203E+02 -0.52638045165E+01  0.15247282546E+02  0.20959516990E+02  0.00000000000E+00 0. -1.
</event>
<event>
 7    1  0.2395003E-008  0.4614232E+02  0.7816164E-02  0.1320468E+00
        -11   -1    0    0    0    0  0.00000000000E+00  0.00000000000E+00  0.45593999997E+02  0.45594000000E+02  0.51100000000E-03 0. -1.
         11   -1    0    0    0    0 -0.00000000000E+00 -0.00000000000E+00 -0.45593999997E+02  0.45594000000E+02  0.51100000000E-03 0.  1.
    9900012    2    1    2    0    0  0.40383464006E+02  0.13179441139E+02 -0.14986385259E+02  0.46142316777E+02  0.99999910298E+01 0.  0.
         12    1    1    2    0    0 -0.40383464006E+02 -0.13179441139E+02  0.14986385259E+02  0.45045683223E+02  0.00000000000E+00 0. -1.
         11    1    3    3    0    0 -0.34903474850E+00  0.44567570320E+00 -0.47820200736E+00  0.74103273143E+00  0.51100000000E-03 0. -1.
        -11    1    3    3    0    0  0.26059163404E+02  0.83277523660E+01 -0.65219449814E+01  0.28124139514E+02  0.51100000000E-03 0.  1.
        -12    1    3    3    0    0  0.14673335351E+02  0.44060130695E+01 -0.79862382702E+01  0.17277144532E+02  0.00000000000E+00 0.  1.
</event>
<event>
 7    1  0.2395003E-008  0.4614232E+02  0.7816164E-02  0.1320468E+00
        -11   -1    0    0    0    0  0.00000000000E+00  0.00000000000E+00  0.45593999997E+02  0.45594000000E+02  0.51100000000E-03 0.  1.
         11   -1    0    0    0    0 -0.00000000000E+00 -0.00000000000E+00 -0.45593999997E+02  0.45594000000E+02  0.51100000000E-03 0. -1.
    9900012    2    1    2    0    0 -0.18593742838E+02  0.95108002365E+01  0.39911540056E+02  0.46142316261E+02  0.99999863231E+01 0.  0.
         12    1    1    2    0    0  0.18593742838E+02 -0.95108002365E+01 -0.39911540056E+02  0.45045683739E+02  0.00000000000E+00 0. -1.
         11    1    3    3    0    0 -0.61912467875E+01  0.23067139786E+01  0.11511736709E+02  0.13273000733E+02  0.51100000000E-03 0. -1.
        -11    1    3    3    0    0 -0.10963206541E+02  0.28991399704E+01  0.24016707720E+02  0.26559351652E+02  0.51100000000E-03 0.  1.
         12    1    3    3    0    0 -0.14392895094E+01  0.43049462875E+01  0.43830956274E+01  0.63099638754E+01  0.00000000000E+00 0. -1.
</event>
<event>
 7    1  0.2395003E-008  0.4614232E+02  0.7816164E-02  0.1320468E+00
        -11   -1    0    0    0    0  0.00000000000E+00  0.00000000000E+00  0.45593999997E+02  0.45594000000E+02  0.51100000000E-03 0.  1.
         11   -1    0    0    0    0 -0.00000000000E+00 -0.00000000000E+00 -0.45593999997E+02  0.45594000000E+02  0.51100000000E-03 0. -1.
    9900012    2    1    2    0    0  0.43920021769E+02  0.77794087590E+01  0.62948862005E+01  0.46142322016E+02  0.10000038795E+02 0.  0.
         12    1    1    2    0    0 -0.43920021769E+02 -0.77794087590E+01 -0.62948862005E+01  0.45045677984E+02  0.00000000000E+00 0. -1.
         11    1    3    3    0    0  0.36599614677E+01  0.22688267379E+01  0.17357663874E+00  0.43096428880E+01  0.51100000000E-03 0. -1.
        -11    1    3    3    0    0  0.20045710891E+02 -0.70787469327E+00  0.10595387894E+01  0.20086170228E+02  0.51100000000E-03 0.  1.
        -12    1    3    3    0    0  0.20214349410E+02  0.62184567143E+01  0.50617707723E+01  0.21746508900E+02  0.00000000000E+00 0.  1.
</event>
<event>
 7    1  0.2395003E-008  0.4614231E+02  0.7816164E-02  0.1320468E+00
        -11   -1    0    0    0    0  0.00000000000E+00  0.00000000000E+00  0.45593999997E+02  0.45594000000E+02  0.51100000000E-03 0.  1.
         11   -1    0    0    0    0 -0.00000000000E+00 -0.00000000000E+00 -0.45593999997E+02  0.45594000000E+02  0.51100000000E-03 0. -1.
    9900012    2    1    2    0    0  0.18268517160E+02  0.25433721815E+02  0.32380564129E+02  0.46142313660E+02  0.99999626001E+01 0.  0.
         12    1    1    2    0    0 -0.18268517160E+02 -0.25433721815E+02 -0.32380564129E+02  0.45045686340E+02  0.00000000000E+00 0. -1.
         11    1    3    3    0    0  0.45658856343E+01  0.70782811027E+01  0.56268337544E+01  0.10129690684E+02  0.51100000000E-03 0. -1.
        -11    1    3    3    0    0  0.21668799552E+01  0.84887878688E+01  0.78047515572E+01  0.11733244877E+02  0.51100000000E-03 0.  1.
        -12    1    3    3    0    0  0.11535751571E+02  0.98666528432E+01  0.18948978817E+02  0.24279378098E+02  0.00000000000E+00 0.  1.
</event>
<event>
 7    1  0.2395003E-008  0.4614230E+02  0.7816164E-02  0.1320468E+00
        -11   -1    0    0    0    0  0.00000000000E+00  0.00000000000E+00  0.45593999997E+02  0.45594000000E+02  0.51100000000E-03 0.  1.
         11   -1    0    0    0    0 -0.00000000000E+00 -0.00000000000E+00 -0.45593999997E+02  0.45594000000E+02  0.51100000000E-03 0. -1.
    9900012    2    1    2    0    0  0.49112904510E+01  0.39030088414E+02  0.21946436258E+02  0.46142304979E+02  0.99998834448E+01 0.  0.
         12    1    1    2    0    0 -0.49112904510E+01 -0.39030088414E+02 -0.21946436258E+02  0.45045695021E+02  0.00000000000E+00 0. -1.
         11    1    3    3    0    0  0.73476924516E+01  0.23786907065E+02  0.13693955709E+02  0.28413552318E+02  0.51100000000E-03 0. -1.
        -11    1    3    3    0    0  0.10469450173E-01  0.85518954428E+01  0.48791628990E+01  0.98458750820E+01  0.51100000000E-03 0.  1.
        -12    1    3    3    0    0 -0.24468714508E+01  0.66912859057E+01  0.33733176499E+01  0.78828775797E+01  0.00000000000E+00 0.  1.
</event>
<event>
 7    1  0.2395003E-008  0.4614232E+02  0.7816164E-02  0.1320468E+00
        -11   -1    0    0    0    0  0.00000000000E+00  0.00000000000E+00  0.45593999997E+02  0.45594000000E+02  0.51100000000E-03 0.  1.
         11   -1    0    0    0    0 -0.00000000000E+00 -0.00000000000E+00 -0.45593999997E+02  0.45594000000E+02  0.51100000000E-03 0. -1.
    9900012    2    1    2    0    0 -0.21021503168E+02  0.25260069398E+02  0.30808094887E+02  0.46142318609E+02  0.10000007732E+02 0.  0.
         12    1    1    2    0    0  0.21021503168E+02 -0.25260069398E+02 -0.30808094887E+02  0.45045681391E+02  0.00000000000E+00 0. -1.
         11    1    3    3    0    0 -0.30329889552E+01  0.14100647796E+01  0.17739954169E+01  0.37860751029E+01  0.51100000000E-03 0. -1.
        -11    1    3    3    0    0 -0.18416537711E+02  0.23718576539E+02  0.29193677774E+02  0.41880909213E+02  0.51100000000E-03 0.  1.
        -12    1    3    3    0    0  0.42802349785E+00  0.13142807909E+00 -0.15957830437E+00  0.47533429280E+00  0.00000000000E+00 0.  1.
</event>
<event>
 7    1  0.2395003E-008  0.4614232E+02  0.7816164E-02  0.1320468E+00
        -11   -1    0    0    0    0  0.00000000000E+00  0.00000000000E+00  0.45593999997E+02  0.45594000000E+02  0.51100000000E-03 0.  1.
         11   -1    0    0    0    0 -0.00000000000E+00 -0.00000000000E+00 -0.45593999997E+02  0.45594000000E+02  0.51100000000E-03 0. -1.
    9900012    2    1    2    0    0 -0.12218858440E+02 -0.13224552985E+02  0.41290727468E+02  0.46142317876E+02  0.10000001047E+02 0.  0.
         12    1    1    2    0    0  0.12218858440E+02  0.13224552985E+02 -0.41290727468E+02  0.45045682124E+02  0.00000000000E+00 0. -1.
         11    1    3    3    0    0 -0.40657766707E+01 -0.16063483101E+01  0.11454889623E+02  0.12260725565E+02  0.51100000000E-03 0. -1.
        -11    1    3    3    0    0 -0.11208842137E+01 -0.52475362506E+01  0.17586902630E+02  0.18387282630E+02  0.51100000000E-03 0.  1.
         12    1    3    3    0    0 -0.70321975556E+01 -0.63706684238E+01  0.12248935214E+02  0.15494309682E+02  0.00000000000E+00 0. -1.
</event>
<event>
 7    1  0.2395003E-008  0.4614232E+02  0.7816164E-02  0.1320468E+00
        -11   -1    0    0    0    0  0.00000000000E+00  0.00000000000E+00  0.45593999997E+02  0.45594000000E+02  0.51100000000E-03 0.  1.
         11   -1    0    0    0    0 -0.00000000000E+00 -0.00000000000E+00 -0.45593999997E+02  0.45594000000E+02  0.51100000000E-03 0. -1.
    9900012    2    1    2    0    0 -0.10360866056E+02  0.40441470897E+02  0.16919005616E+02  0.46142324683E+02  0.10000063115E+02 0.  0.
         12    1    1    2    0    0  0.10360866056E+02 -0.40441470897E+02 -0.16919005616E+02  0.45045675317E+02  0.00000000000E+00 0. -1.
         11    1    3    3    0    0 -0.28201289910E+01  0.83548221601E+01  0.74950940106E+01  0.11572925963E+02  0.51100000000E-03 0. -1.
        -11    1    3    3    0    0 -0.18647709875E+01  0.55909561994E+01  0.34243404960E+01  0.68163238005E+01  0.51100000000E-03 0.  1.
         12    1    3    3    0    0 -0.56759660779E+01  0.26495692538E+02  0.59995711091E+01  0.27753074919E+02  0.00000000000E+00 0. -1.
</event>
<event>
 7    1  0.2395003E-008  0.4614232E+02  0.7816164E-02  0.1320468E+00
        -11   -1    0    0    0    0  0.00000000000E+00  0.00000000000E+00  0.45593999997E+02  0.45594000000E+02  0.51100000000E-03 0.  1.
         11   -1    0    0    0    0 -0.00000000000E+00 -0.00000000000E+00 -0.45593999997E+02  0.45594000000E+02  0.51100000000E-03 0. -1.
    9900012    2    1    2    0    0  0.20184216504E+02 -0.40249319191E+02  0.13050802087E+01  0.46142317348E+02  0.99999962308E+01 0.  0.
         12    1    1    2    0    0 -0.20184216504E+02  0.40249319191E+02 -0.13050802087E+01  0.45045682652E+02  0.00000000000E+00 0. -1.
         11    1    3    3    0    0  0.62288460814E+01 -0.10288062034E+02 -0.35323948092E+01  0.12534773922E+02  0.51100000000E-03 0. -1.
        -11    1    3    3    0    0  0.30900830808E+01 -0.36988503439E+01  0.10764208950E+01  0.49385007358E+01  0.51100000000E-03 0.  1.
        -12    1    3    3    0    0  0.10865287342E+02 -0.26262406813E+02  0.37610541229E+01  0.28669042690E+02  0.00000000000E+00 0.  1.
</event>
<event>
 7    1  0.2395003E-008  0.4614232E+02  0.7816164E-02  0.1320468E+00
        -11   -1    0    0    0    0  0.00000000000E+00  0.00000000000E+00  0.45593999997E+02  0.45594000000E+02  0.51100000000E-03 0. -1.
         11   -1    0    0    0    0 -0.00000000000E+00 -0.00000000000E+00 -0.45593999997E+02  0.45594000000E+02  0.51100000000E-03 0.  1.
    9900012    2    1    2    0    0  0.13490296789E+02  0.14776640256E+02 -0.40358102763E+02  0.46142315819E+02  0.99999822899E+01 0.  0.
         12    1    1    2    0    0 -0.13490296789E+02 -0.14776640256E+02  0.40358102763E+02  0.45045684181E+02  0.00000000000E+00 0. -1.
         11    1    3    3    0    0  0.11735539070E+02  0.88245926403E+01 -0.22882809799E+02  0.27188587626E+02  0.51100000000E-03 0. -1.
        -11    1    3    3    0    0  0.27281067925E+01  0.28385364685E+01 -0.11358380466E+02  0.12021341982E+02  0.51100000000E-03 0.  1.
         12    1    3    3    0    0 -0.97334907374E+00  0.31135111471E+01 -0.61169124976E+01  0.69323862115E+01  0.00000000000E+00 0. -1.
</event>
<event>
 7    1  0.2395003E-008  0.4614232E+02  0.7816164E-02  0.1320468E+00
        -11   -1    0    0    0    0  0.00000000000E+00  0.00000000000E+00  0.45593999997E+02  0.45594000000E+02  0.51100000000E-03 0. -1.
         11   -1    0    0    0    0 -0.00000000000E+00 -0.00000000000E+00 -0.45593999997E+02  0.45594000000E+02  0.51100000000E-03 0.  1.
    9900012    2    1    2    0    0  0.26525773108E+02 -0.30560462580E+02 -0.19787744134E+02  0.46142319519E+02  0.10000016028E+02 0.  0.
         12    1    1    2    0    0 -0.26525773108E+02  0.30560462580E+02  0.19787744134E+02  0.45045680481E+02  0.00000000000E+00 0. -1.
         11    1    3    3    0    0  0.17204709074E+02 -0.14132236691E+02 -0.10061544285E+02  0.24432699439E+02  0.51100000000E-03 0. -1.
        -11    1    3    3    0    0  0.92923626552E+01 -0.13262011004E+02 -0.86912053173E+01  0.18378410968E+02  0.51100000000E-03 0.  1.
         12    1    3    3    0    0  0.28701379549E-01 -0.31662148854E+01 -0.10349945316E+01  0.33312091123E+01  0.00000000000E+00 0. -1.
</event>
<event>
 7    1  0.2395003E-008  0.4614232E+02  0.7816164E-02  0.1320468E+00
        -11   -1    0    0    0    0  0.00000000000E+00  0.00000000000E+00  0.45593999997E+02  0.45594000000E+02  0.51100000000E-03 0.  1.
         11   -1    0    0    0    0 -0.00000000000E+00 -0.00000000000E+00 -0.45593999997E+02  0.45594000000E+02  0.51100000000E-03 0. -1.
    9900012    2    1    2    0    0 -0.18166113490E+02 -0.37099221122E+02  0.17965345192E+02  0.46142317465E+02  0.99999972986E+01 0.  0.
         12    1    1    2    0    0  0.18166113490E+02  0.37099221122E+02 -0.17965345192E+02  0.45045682535E+02  0.00000000000E+00 0. -1.
         11    1    3    3    0    0 -0.91130169106E+01 -0.17610247081E+02  0.45050086993E+01  0.20333789197E+02  0.51100000000E-03 0. -1.
        -11    1    3    3    0    0 -0.91704285841E+01 -0.15403162807E+02  0.11203932959E+02  0.21139590793E+02  0.51100000000E-03 0.  1.
        -12    1    3    3    0    0  0.11733200459E+00 -0.40858112343E+01  0.22564035339E+01  0.46689374754E+01  0.00000000000E+00 0.  1.
</event>
<event>
 7    1  0.2395003E-008  0.4614232E+02  0.7816164E-02  0.1320468E+00
        -11   -1    0    0    0    0  0.00000000000E+00  0.00000000000E+00  0.45593999997E+02  0.45594000000E+02  0.51100000000E-03 0.  1.
         11   -1    0    0    0    0 -0.00000000000E+00 -0.00000000000E+00 -0.45593999997E+02  0.45594000000E+02  0.51100000000E-03 0. -1.
    9900012    2    1    2    0    0  0.10425502044E+02  0.31205743877E+02  0.30767253364E+02  0.46142318483E+02  0.10000006585E+02 0.  0.
         12    1    1    2    0    0 -0.10425502044E+02 -0.31205743877E+02 -0.30767253364E+02  0.45045681517E+02  0.00000000000E+00 0. -1.
         11    1    3    3    0    0  0.45699618408E+00  0.52235548837E+01  0.26707160187E+01  0.58844791995E+01  0.51100000000E-03 0. -1.
        -11    1    3    3    0    0  0.61788327469E+01  0.13789503420E+02  0.10035596202E+02  0.18139503028E+02  0.51100000000E-03 0.  1.
         12    1    3    3    0    0  0.37896731128E+01  0.12192685572E+02  0.18060941143E+02  0.22118336256E+02  0.00000000000E+00 0. -1.
</event>
<event>
 7    1  0.2395003E-008  0.4614232E+02  0.7816164E-02  0.1320468E+00
        -11   -1    0    0    0    0  0.00000000000E+00  0.00000000000E+00  0.45593999997E+02  0.45594000000E+02  0.51100000000E-03 0.  1.
         11   -1    0    0    0    0 -0.00000000000E+00 -0.00000000000E+00 -0.45593999997E+02  0.45594000000E+02  0.51100000000E-03 0. -1.
    9900012    2    1    2    0    0  0.24184649324E+02  0.26374504637E+02  0.27360584428E+02  0.46142319430E+02  0.10000015219E+02 0.  0.
         12    1    1    2    0    0 -0.24184649324E+02 -0.26374504637E+02 -0.27360584428E+02  0.45045680570E+02  0.00000000000E+00 0. -1.
         11    1    3    3    0    0  0.55403799387E+01  0.20197316443E+01  0.25664005181E+01  0.64312936227E+01  0.51100000000E-03 0. -1.
        -11    1    3    3    0    0  0.13349721907E+02  0.17490344211E+02  0.14989886697E+02  0.26623747278E+02  0.51100000000E-03 0.  1.
        -12    1    3    3    0    0  0.52945474780E+01  0.68644287808E+01  0.98042972127E+01  0.13087278530E+02  0.00000000000E+00 0.  1.
</event>
<event>
 7    1  0.2395003E-008  0.4614231E+02  0.7816164E-02  0.1320468E+00
        -11   -1    0    0    0    0  0.00000000000E+00  0.00000000000E+00  0.45593999997E+02  0.45594000000E+02  0.51100000000E-03 0. -1.
         11   -1    0    0    0    0 -0.00000000000E+00 -0.00000000000E+00 -0.45593999997E+02  0.45594000000E+02  0.51100000000E-03 0.  1.
    9900012    2    1    2    0    0 -0.18005709351E+02  0.43970096195E+01 -0.41055752861E+02  0.46142310907E+02  0.99999375014E+01 0.  0.
         12    1    1    2    0    0  0.18005709351E+02 -0.43970096195E+01  0.41055752861E+02  0.45045689093E+02  0.00000000000E+00 0. -1.
         11    1    3    3    0    0 -0.11695118516E+01  0.38460114070E+00 -0.21865924036E+01  0.25093550185E+01  0.51100000000E-03 0. -1.
        -11    1    3    3    0    0 -0.25866828264E+01 -0.53560524728E+00 -0.84632459211E+00  0.27738180549E+01  0.51100000000E-03 0.  1.
        -12    1    3    3    0    0 -0.14249514673E+02  0.45480137261E+01 -0.38022835865E+02  0.40859137834E+02  0.00000000000E+00 0.  1.
</event>
<event>
 7    1  0.2395003E-008  0.4614232E+02  0.7816164E-02  0.1320468E+00
        -11   -1    0    0    0    0  0.00000000000E+00  0.00000000000E+00  0.45593999997E+02  0.45594000000E+02  0.51100000000E-03 0.  1.
         11   -1    0    0    0    0 -0.00000000000E+00 -0.00000000000E+00 -0.45593999997E+02  0.45594000000E+02  0.51100000000E-03 0. -1.
    9900012    2    1    2    0    0 -0.20886059588E+02 -0.37757876478E+02  0.12931696005E+02  0.46142317823E+02  0.10000000562E+02 0.  0.
         12    1    1    2    0    0  0.20886059588E+02  0.37757876478E+02 -0.12931696005E+02  0.45045682177E+02  0.00000000000E+00 0. -1.
         11    1    3    3    0    0 -0.44456312193E+01 -0.34563905890E+01  0.25533258099E+01  0.61830207661E+01  0.51100000000E-03 0. -1.
        -11    1    3    3    0    0 -0.40598617407E+01 -0.42781338607E+01  0.31593830907E+01  0.66907853395E+01  0.51100000000E-03 0.  1.
         12    1    3    3    0    0 -0.12380566628E+02 -0.30023352029E+02  0.72189871039E+01  0.33268511717E+02  0.00000000000E+00 0. -1.
</event>
<event>
 7    1  0.2395003E-008  0.4614231E+02  0.7816164E-02  0.1320468E+00
        -11   -1    0    0    0    0  0.00000000000E+00  0.00000000000E+00  0.45593999997E+02  0.45594000000E+02  0.51100000000E-03 0.  1.
         11   -1    0    0    0    0 -0.00000000000E+00 -0.00000000000E+00 -0.45593999997E+02  0.45594000000E+02  0.51100000000E-03 0. -1.
    9900012    2    1    2    0    0  0.17220194409E+02  0.41303595393E+02 -0.51567163552E+01  0.46142314175E+02  0.99999672958E+01 0.  0.
         12    1    1    2    0    0 -0.17220194409E+02 -0.41303595393E+02  0.51567163552E+01  0.45045685825E+02  0.00000000000E+00 0. -1.
         11    1    3    3    0    0  0.45362436336E+00  0.53800625332E+01  0.17038552953E+01  0.56616226519E+01  0.51100000000E-03 0. -1.
        -11    1    3    3    0    0  0.10283783478E+02  0.24495259138E+02 -0.27226521403E+01  0.26705556684E+02  0.51100000000E-03 0.  1.
        -12    1    3    3    0    0  0.64827865684E+01  0.11428273722E+02 -0.41379195102E+01  0.13775134839E+02  0.00000000000E+00 0.  1.
</event>
<event>
 7    1  0.2395003E-008  0.4614232E+02  0.7816164E-02  0.1320468E+00
        -11   -1    0    0    0    0  0.00000000000E+00  0.00000000000E+00  0.45593999997E+02  0.45594000000E+02  0.51100000000E-03 0. -1.
         11   -1    0    0    0    0 -0.00000000000E+00 -0.00000000000E+00 -0.45593999997E+02  0.45594000000E+02  0.51100000000E-03 0.  1.
    9900012    2    1    2    0    0 -0.21125476480E-01  0.26834732403E+02 -0.36180245927E+02  0.46142317579E+02  0.99999983398E+01 0.  0.
         12    1    1    2    0    0  0.21125476480E-01 -0.26834732403E+02  0.36180245927E+02  0.45045682421E+02  0.00000000000E+00 0. -1.
         11    1    3    3    0    0  0.13226706499E+01  0.44591088722E+00 -0.51029646472E+00  0.14861685336E+01  0.51100000000E-03 0. -1.
        -11    1    3    3    0    0 -0.17044305004E+01  0.16312731970E+02 -0.18319825919E+02  0.24589150649E+02  0.51100000000E-03 0.  1.
        -12    1    3    3    0    0  0.36063437411E+00  0.10076089545E+02 -0.17350123543E+02  0.20066998397E+02  0.00000000000E+00 0.  1.
</event>
<event>
 7    1  0.2395003E-008  0.4614232E+02  0.7816164E-02  0.1320468E+00
        -11   -1    0    0    0    0  0.00000000000E+00  0.00000000000E+00  0.45593999997E+02  0.45594000000E+02  0.51100000000E-03 0. -1.
         11   -1    0    0    0    0 -0.00000000000E+00 -0.00000000000E+00 -0.45593999997E+02  0.45594000000E+02  0.51100000000E-03 0.  1.
    9900012    2    1    2    0    0 -0.34575870170E+02 -0.27601017065E+02  0.84738693422E+01  0.46142318712E+02  0.10000008670E+02 0.  0.
         12    1    1    2    0    0  0.34575870170E+02  0.27601017065E+02 -0.84738693422E+01  0.45045681288E+02  0.00000000000E+00 0. -1.
         11    1    3    3    0    0 -0.64031266662E+01 -0.60172359552E+01 -0.22394464855E+01  0.90676502174E+01  0.51100000000E-03 0.  1.
        -11    1    3    3    0    0 -0.67827697254E+01 -0.51302399128E+01  0.27555201692E+01  0.89396990091E+01  0.51100000000E-03 0. -1.
        -12    1    3    3    0    0 -0.21389973779E+02 -0.16453541197E+02  0.79577956584E+01  0.28134969485E+02  0.00000000000E+00 0.  1.
</event>
<event>
 7    1  0.2395003E-008  0.4614232E+02  0.7816164E-02  0.1320468E+00
        -11   -1    0    0    0    0  0.00000000000E+00  0.00000000000E+00  0.45593999997E+02  0.45594000000E+02  0.51100000000E-03 0.  1.
         11   -1    0    0    0    0 -0.00000000000E+00 -0.00000000000E+00 -0.45593999997E+02  0.45594000000E+02  0.51100000000E-03 0. -1.
    9900012    2    1    2    0    0  0.20847012853E+02  0.30576304579E+02  0.25682779371E+02  0.46142317600E+02  0.99999985332E+01 0.  0.
         12    1    1    2    0    0 -0.20847012853E+02 -0.30576304579E+02 -0.25682779371E+02  0.45045682400E+02  0.00000000000E+00 0. -1.
         11    1    3    3    0    0  0.31697749877E+01  0.68017160151E+01  0.65786687045E+01  0.99794637334E+01  0.51100000000E-03 0. -1.
        -11    1    3    3    0    0  0.15864036492E+02  0.15327357370E+02  0.13397705042E+02  0.25808797694E+02  0.51100000000E-03 0.  1.
        -12    1    3    3    0    0  0.18132013733E+01  0.84472311941E+01  0.57064056250E+01  0.10354056173E+02  0.00000000000E+00 0.  1.
</event>
<event>
 7    1  0.2395003E-008  0.4614232E+02  0.7816164E-02  0.1320468E+00
        -11   -1    0    0    0    0  0.00000000000E+00  0.00000000000E+00  0.45593999997E+02  0.45594000000E+02  0.51100000000E-03 0. -1.
         11   -1    0    0    0    0 -0.00000000000E+00 -0.00000000000E+00 -0.45593999997E+02  0.45594000000E+02  0.51100000000E-03 0.  1.
    9900012    2    1    2    0    0 -0.30259333178E+02  0.33328520419E+02  0.16419313421E+01  0.46142318118E+02  0.10000003252E+02 0.  0.
         12    1    1    2    0    0  0.30259333178E+02 -0.33328520419E+02 -0.16419313421E+01  0.45045681882E+02  0.00000000000E+00 0. -1.
         11    1    3    3    0    0 -0.56541112585E+01  0.54668951125E+01  0.93650965963E+00  0.79204145661E+01  0.51100000000E-03 0. -1.
        -11    1    3    3    0    0 -0.22282338554E+02  0.23630848674E+02  0.34622579766E+01  0.32663540088E+02  0.51100000000E-03 0.  1.
         12    1    3    3    0    0 -0.23228833650E+01  0.42307766329E+01 -0.27568362941E+01  0.55583634640E+01  0.00000000000E+00 0. -1.
</event>
<event>
 7    1  0.2395003E-008  0.4614231E+02  0.7816164E-02  0.1320468E+00
        -11   -1    0    0    0    0  0.00000000000E+00  0.00000000000E+00  0.45593999997E+02  0.45594000000E+02  0.51100000000E-03 0. -1.
         11   -1    0    0    0    0 -0.00000000000E+00 -0.00000000000E+00 -0.45593999997E+02  0.45594000000E+02  0.51100000000E-03 0.  1.
    9900012    2    1    2    0    0  0.32962088006E+02  0.30597146722E+02 -0.25356034290E+01  0.46142312993E+02  0.99999565178E+01 0.  0.
         12    1    1    2    0    0 -0.32962088006E+02 -0.30597146722E+02  0.25356034290E+01  0.45045687007E+02  0.00000000000E+00 0. -1.
         11    1    3    3    0    0  0.67664148004E+01  0.81477455362E+01 -0.35396697232E+01  0.11166888044E+02  0.51100000000E-03 0. -1.
        -11    1    3    3    0    0  0.25008622436E+02  0.19788534708E+02 -0.89325163514E-02  0.31890709965E+02  0.51100000000E-03 0.  1.
        -12    1    3    3    0    0  0.11870507697E+01  0.26608664780E+01  0.10129988106E+01  0.30847149842E+01  0.00000000000E+00 0.  1.
</event>
<event>
 7    1  0.2395003E-008  0.4614232E+02  0.7816164E-02  0.1320468E+00
        -11   -1    0    0    0    0  0.00000000000E+00  0.00000000000E+00  0.45593999997E+02  0.45594000000E+02  0.51100000000E-03 0.  1.
         11   -1    0    0    0    0 -0.00000000000E+00 -0.00000000000E+00 -0.45593999997E+02  0.45594000000E+02  0.51100000000E-03 0. -1.
    9900012    2    1    2    0    0  0.82930404241E+01 -0.44250225201E+02  0.15021648685E+01  0.46142318197E+02  0.10000003976E+02 0.  0.
         12    1    1    2    0    0 -0.82930404241E+01  0.44250225201E+02 -0.15021648685E+01  0.45045681803E+02  0.00000000000E+00 0. -1.
         11    1    3    3    0    0  0.28491144521E+00 -0.84043699509E+01  0.35500835659E-02  0.84091986341E+01  0.51100000000E-03 0.  1.
        -11    1    3    3    0    0 -0.10859810955E+01 -0.53808527411E+01 -0.17809808942E+01  0.57710332149E+01  0.51100000000E-03 0. -1.
        -12    1    3    3    0    0  0.90941100744E+01 -0.30465002509E+02  0.32795956792E+01  0.31962086348E+02  0.00000000000E+00 0.  1.
</event>
<event>
 7    1  0.2395003E-008  0.4614232E+02  0.7816164E-02  0.1320468E+00
        -11   -1    0    0    0    0  0.00000000000E+00  0.00000000000E+00  0.45593999997E+02  0.45594000000E+02  0.51100000000E-03 0.  1.
         11   -1    0    0    0    0 -0.00000000000E+00 -0.00000000000E+00 -0.45593999997E+02  0.45594000000E+02  0.51100000000E-03 0. -1.
    9900012    2    1    2    0    0 -0.31895646559E+02 -0.19943407287E+02  0.24779859267E+02  0.46142321085E+02  0.10000030309E+02 0.  0.
         12    1    1    2    0    0  0.31895646559E+02  0.19943407287E+02 -0.24779859267E+02  0.45045678915E+02  0.00000000000E+00 0. -1.
         11    1    3    3    0    0 -0.30549025719E+01 -0.43000861383E-01  0.51606548754E+00  0.30984839271E+01  0.51100000000E-03 0. -1.
        -11    1    3    3    0    0 -0.17069197279E+02 -0.12213786361E+02  0.18009998823E+02  0.27656719453E+02  0.51100000000E-03 0.  1.
        -12    1    3    3    0    0 -0.11771546708E+02 -0.76866200644E+01  0.62537949568E+01  0.15387117705E+02  0.00000000000E+00 0.  1.
</event>
<event>
 7    1  0.2395003E-008  0.4614232E+02  0.7816164E-02  0.1320468E+00
        -11   -1    0    0    0    0  0.00000000000E+00  0.00000000000E+00  0.45593999997E+02  0.45594000000E+02  0.51100000000E-03 0. -1.
         11   -1    0    0    0    0 -0.00000000000E+00 -0.00000000000E+00 -0.45593999997E+02  0.45594000000E+02  0.51100000000E-03 0.  1.
    9900012    2    1    2    0    0  0.34134114994E+02 -0.71509863098E+01 -0.28510333256E+02  0.46142317477E+02  0.99999974074E+01 0.  0.
         12    1    1    2    0    0 -0.34134114994E+02  0.71509863098E+01  0.28510333256E+02  0.45045682523E+02  0.00000000000E+00 0. -1.
         11    1    3    3    0    0  0.76272527950E+01 -0.37183084772E+01 -0.10102596784E+02  0.13193303800E+02  0.51100000000E-03 0. -1.
        -11    1    3    3    0    0  0.14454201081E+02 -0.27812840430E+01 -0.13315804897E+02  0.19848680816E+02  0.51100000000E-03 0.  1.
         12    1    3    3    0    0  0.12052661117E+02 -0.65139378972E+00 -0.50919315750E+01  0.13100332860E+02  0.00000000000E+00 0. -1.
</event>
<event>
 7    1  0.2395003E-008  0.4614232E+02  0.7816164E-02  0.1320468E+00
        -11   -1    0    0    0    0  0.00000000000E+00  0.00000000000E+00  0.45593999997E+02  0.45594000000E+02  0.51100000000E-03 0.  1.
         11   -1    0    0    0    0 -0.00000000000E+00 -0.00000000000E+00 -0.45593999997E+02  0.45594000000E+02  0.51100000000E-03 0. -1.
    9900012    2    1    2    0    0  0.18112826664E+02 -0.37364457404E+02  0.17462425008E+02  0.46142318143E+02  0.10000003478E+02 0.  0.
         12    1    1    2    0    0 -0.18112826664E+02  0.37364457404E+02 -0.17462425008E+02  0.45045681857E+02  0.00000000000E+00 0. -1.
         11    1    3    3    0    0  0.42742568427E+01 -0.12936304107E+02  0.32373621871E+01  0.14003490625E+02  0.51100000000E-03 0. -1.
        -11    1    3    3    0    0  0.42023805425E+01 -0.64494609258E+01  0.72681021335E+01  0.10586824705E+02  0.51100000000E-03 0.  1.
         12    1    3    3    0    0  0.96361892791E+01 -0.17978692371E+02  0.69569606873E+01  0.21552002812E+02  0.00000000000E+00 0. -1.
</event>
<event>
 7    1  0.2395003E-008  0.4614232E+02  0.7816164E-02  0.1320468E+00
        -11   -1    0    0    0    0  0.00000000000E+00  0.00000000000E+00  0.45593999997E+02  0.45594000000E+02  0.51100000000E-03 0.  1.
         11   -1    0    0    0    0 -0.00000000000E+00 -0.00000000000E+00 -0.45593999997E+02  0.45594000000E+02  0.51100000000E-03 0. -1.
    9900012    2    1    2    0    0 -0.32553851179E+02 -0.22136830578E+02  0.21893393649E+02  0.46142321182E+02  0.10000031199E+02 0.  0.
         12    1    1    2    0    0  0.32553851179E+02  0.22136830578E+02 -0.21893393649E+02  0.45045678818E+02  0.00000000000E+00 0. -1.
         11    1    3    3    0    0 -0.12360729700E+02 -0.62630956773E+01  0.46286833229E+01  0.14609541941E+02  0.51100000000E-03 0. -1.
        -11    1    3    3    0    0 -0.12554801641E+02 -0.12667893089E+02  0.96385934295E+01  0.20273160659E+02  0.51100000000E-03 0.  1.
        -12    1    3    3    0    0 -0.76383198389E+01 -0.32058418114E+01  0.76261168970E+01  0.11259618582E+02  0.00000000000E+00 0.  1.
</event>
<event>
 7    1  0.2395003E-008  0.4614232E+02  0.7816164E-02  0.1320468E+00
        -11   -1    0    0    0    0  0.00000000000E+00  0.00000000000E+00  0.45593999997E+02  0.45594000000E+02  0.51100000000E-03 0.  1.
         11   -1    0    0    0    0 -0.00000000000E+00 -0.00000000000E+00 -0.45593999997E+02  0.45594000000E+02  0.51100000000E-03 0. -1.
    9900012    2    1    2    0    0 -0.14910543725E+02 -0.40053707342E+02  0.14229881918E+02  0.46142319570E+02  0.10000016493E+02 0.  0.
         12    1    1    2    0    0  0.14910543725E+02  0.40053707342E+02 -0.14229881918E+02  0.45045680430E+02  0.00000000000E+00 0. -1.
         11    1    3    3    0    0 -0.53225867452E+01 -0.25963477851E+02  0.59969020638E+01  0.27173423531E+02  0.51100000000E-03 0. -1.
        -11    1    3    3    0    0 -0.42495843581E+01 -0.55311392762E+01  0.28485069914E+01  0.75343520790E+01  0.51100000000E-03 0.  1.
         12    1    3    3    0    0 -0.53383726221E+01 -0.85590902151E+01  0.53844728627E+01  0.11434543960E+02  0.00000000000E+00 0. -1.
</event>
<event>
 7    1  0.2395003E-008  0.4614232E+02  0.7816164E-02  0.1320468E+00
        -11   -1    0    0    0    0  0.00000000000E+00  0.00000000000E+00  0.45593999997E+02  0.45594000000E+02  0.51100000000E-03 0.  1.
         11   -1    0    0    0    0 -0.00000000000E+00 -0.00000000000E+00 -0.45593999997E+02  0.45594000000E+02  0.51100000000E-03 0. -1.
    9900012    2    1    2    0    0 -0.37050023144E+02 -0.13754652587E+02  0.21615246451E+02  0.46142316945E+02  0.99999925588E+01 0.  0.
         12    1    1    2    0    0  0.37050023144E+02  0.13754652587E+02 -0.21615246451E+02  0.45045683055E+02  0.00000000000E+00 0. -1.
         11    1    3    3    0    0 -0.14393327884E+02 -0.24842363419E+01  0.96649153862E+01  0.17514277246E+02  0.51100000000E-03 0. -1.
        -11    1    3    3    0    0 -0.21569481173E+02 -0.93692514198E+01  0.12073049999E+02  0.26434521497E+02  0.51100000000E-03 0.  1.
         12    1    3    3    0    0 -0.10872140873E+01 -0.19011648251E+01 -0.12271893492E+00  0.21935182016E+01  0.00000000000E+00 0. -1.
</event>
<event>
 7    1  0.2395003E-008  0.4614232E+02  0.7816164E-02  0.1320468E+00
        -11   -1    0    0    0    0  0.00000000000E+00  0.00000000000E+00  0.45593999997E+02  0.45594000000E+02  0.51100000000E-03 0.  1.
         11   -1    0    0    0    0 -0.00000000000E+00 -0.00000000000E+00 -0.45593999997E+02  0.45594000000E+02  0.51100000000E-03 0. -1.
    9900012    2    1    2    0    0 -0.34818032432E+02 -0.13275423844E+02  0.25309704475E+02  0.46142318728E+02  0.10000008818E+02 0.  0.
         12    1    1    2    0    0  0.34818032432E+02  0.13275423844E+02 -0.25309704475E+02  0.45045681272E+02  0.00000000000E+00 0. -1.
         11    1    3    3    0    0 -0.18243877667E+02 -0.44448129769E+01  0.97968092103E+01  0.21179539789E+02  0.51100000000E-03 0. -1.
        -11    1    3    3    0    0 -0.16131678924E+02 -0.80370478753E+01  0.12810832045E+02  0.22112046975E+02  0.51100000000E-03 0.  1.
         12    1    3    3    0    0 -0.44247584119E+00 -0.79356299133E+00  0.27020632193E+01  0.28507319643E+01  0.00000000000E+00 0. -1.
</event>
<event>
 7    1  0.3853778E-008  0.4614233E+02  0.7816164E-02  0.1320468E+00
        -11   -1    0    0    0    0  0.00000000000E+00  0.00000000000E+00  0.45593999997E+02  0.45594000000E+02  0.51100000000E-03 0.  1.
         11   -1    0    0    0    0 -0.00000000000E+00 -0.00000000000E+00 -0.45593999997E+02  0.45594000000E+02  0.51100000000E-03 0. -1.
    9900012    2    1    2    0    0 -0.30927538534E+02  0.27762843158E+02  0.17373101809E+02  0.46142325774E+02  0.10000073069E+02 0.  0.
         12    1    1    2    0    0  0.30927538534E+02 -0.27762843158E+02 -0.17373101809E+02  0.45045674226E+02  0.00000000000E+00 0. -1.
         11    1    3    3    0    0 -0.11578023176E+01  0.19014240078E+01 -0.63188664829E+00  0.23141306059E+01  0.51100000000E-03 0. -1.
        -11    1    3    3    0    0 -0.37182304560E+00  0.17543032440E+01  0.77230739696E-01  0.17949365162E+01  0.51100000000E-03 0.  1.
        -12    1    3    3    0    0 -0.29397913171E+02  0.24107115907E+02  0.17927757717E+02  0.42033258652E+02  0.00000000000E+00 0.  1.
</event>
<event>
 7    1  0.2395003E-008  0.4614232E+02  0.7816164E-02  0.1320468E+00
        -11   -1    0    0    0    0  0.00000000000E+00  0.00000000000E+00  0.45593999997E+02  0.45594000000E+02  0.51100000000E-03 0.  1.
         11   -1    0    0    0    0 -0.00000000000E+00 -0.00000000000E+00 -0.45593999997E+02  0.45594000000E+02  0.51100000000E-03 0. -1.
    9900012    2    1    2    0    0  0.77334770172E+01 -0.27402299589E+02  0.34905884312E+02  0.46142318196E+02  0.10000003969E+02 0.  0.
         12    1    1    2    0    0 -0.77334770172E+01  0.27402299589E+02 -0.34905884312E+02  0.45045681804E+02  0.00000000000E+00 0. -1.
         11    1    3    3    0    0 -0.58507080506E+00 -0.36040428333E+01  0.18766426834E+01  0.41052674229E+01  0.51100000000E-03 0. -1.
        -11    1    3    3    0    0  0.78260181929E+01 -0.19890508214E+02  0.23725606896E+02  0.31934046105E+02  0.51100000000E-03 0.  1.
        -12    1    3    3    0    0  0.49252962934E+00 -0.39077485419E+01  0.93036347323E+01  0.10103004669E+02  0.00000000000E+00 0.  1.
</event>
<event>
 7    1  0.2395003E-008  0.4614232E+02  0.7816164E-02  0.1320468E+00
        -11   -1    0    0    0    0  0.00000000000E+00  0.00000000000E+00  0.45593999997E+02  0.45594000000E+02  0.51100000000E-03 0.  1.
         11   -1    0    0    0    0 -0.00000000000E+00 -0.00000000000E+00 -0.45593999997E+02  0.45594000000E+02  0.51100000000E-03 0. -1.
    9900012    2    1    2    0    0  0.75736886800E+01 -0.42288774915E+02  0.13542962118E+02  0.46142322439E+02  0.10000042657E+02 0.  0.
         12    1    1    2    0    0 -0.75736886800E+01  0.42288774915E+02 -0.13542962118E+02  0.45045677561E+02  0.00000000000E+00 0. -1.
         11    1    3    3    0    0  0.10176195884E+01 -0.21727032440E+02  0.38748551073E+01  0.22093301940E+02  0.51100000000E-03 0. -1.
        -11    1    3    3    0    0  0.15707794514E+01 -0.11246939261E+02  0.38688088023E+01  0.11997027659E+02  0.51100000000E-03 0.  1.
         12    1    3    3    0    0  0.49852896402E+01 -0.93148032136E+01  0.57992982086E+01  0.12051992840E+02  0.00000000000E+00 0. -1.
</event>
<event>
 7    1  0.2395003E-008  0.4614231E+02  0.7816164E-02  0.1320468E+00
        -11   -1    0    0    0    0  0.00000000000E+00  0.00000000000E+00  0.45593999997E+02  0.45594000000E+02  0.51100000000E-03 0.  1.
         11   -1    0    0    0    0 -0.00000000000E+00 -0.00000000000E+00 -0.45593999997E+02  0.45594000000E+02  0.51100000000E-03 0. -1.
    9900012    2    1    2    0    0 -0.13603447844E+02 -0.14637837927E+02  0.40370709528E+02  0.46142308971E+02  0.99999198454E+01 0.  0.
         12    1    1    2    0    0  0.13603447844E+02  0.14637837927E+02 -0.40370709528E+02  0.45045691029E+02  0.00000000000E+00 0. -1.
         11    1    3    3    0    0 -0.45740296760E-02 -0.42087685551E+01  0.49672745653E+01  0.65105737489E+01  0.51100000000E-03 0. -1.
        -11    1    3    3    0    0 -0.27303497525E+01 -0.37140098492E+01  0.13613036258E+02  0.14372314892E+02  0.51100000000E-03 0.  1.
        -12    1    3    3    0    0 -0.10868524062E+02 -0.67150595231E+01  0.21790398705E+02  0.25259420330E+02  0.00000000000E+00 0.  1.
</event>
<event>
 7    1  0.2395003E-008  0.4614232E+02  0.7816164E-02  0.1320468E+00
        -11   -1    0    0    0    0  0.00000000000E+00  0.00000000000E+00  0.45593999997E+02  0.45594000000E+02  0.51100000000E-03 0.  1.
         11   -1    0    0    0    0 -0.00000000000E+00 -0.00000000000E+00 -0.45593999997E+02  0.45594000000E+02  0.51100000000E-03 0. -1.
    9900012    2    1    2    0    0  0.41463445467E+02 -0.17531913943E+02  0.15900121908E+01  0.46142318129E+02  0.10000003351E+02 0.  0.
         12    1    1    2    0    0 -0.41463445467E+02  0.17531913943E+02 -0.15900121908E+01  0.45045681871E+02  0.00000000000E+00 0. -1.
         11    1    3    3    0    0  0.14670924261E+02 -0.68309160622E+01 -0.26157543394E+01  0.16393279231E+02  0.51100000000E-03 0. -1.
        -11    1    3    3    0    0  0.12963441092E+01 -0.19469193975E+01  0.11881723637E+01  0.26235009085E+01  0.51100000000E-03 0.  1.
         12    1    3    3    0    0  0.25496177097E+02 -0.87540784830E+01  0.30175941666E+01  0.27125537989E+02  0.00000000000E+00 0. -1.
</event>
<event>
 7    1  0.2395003E-008  0.4614232E+02  0.7816164E-02  0.1320468E+00
        -11   -1    0    0    0    0  0.00000000000E+00  0.00000000000E+00  0.45593999997E+02  0.45594000000E+02  0.51100000000E-03 0.  1.
         11   -1    0    0    0    0 -0.00000000000E+00 -0.00000000000E+00 -0.45593999997E+02  0.45594000000E+02  0.51100000000E-03 0. -1.
    9900012    2    1    2    0    0  0.40304547934E+02 -0.77165028279E+01  0.18577203361E+02  0.46142317801E+02  0.10000000363E+02 0.  0.
         12    1    1    2    0    0 -0.40304547934E+02  0.77165028279E+01 -0.18577203361E+02  0.45045682199E+02  0.00000000000E+00 0. -1.
         11    1    3    3    0    0  0.97025776845E+01 -0.53818190253E+01  0.40234217758E+01  0.11802199490E+02  0.51100000000E-03 0. -1.
        -11    1    3    3    0    0  0.14103341478E+02 -0.53276268464E+00  0.39896658976E+01  0.14666475758E+02  0.51100000000E-03 0.  1.
         12    1    3    3    0    0  0.16498628772E+02 -0.18019211179E+01  0.10564115688E+02  0.19673642553E+02  0.00000000000E+00 0. -1.
</event>
<event>
 7    1  0.2395003E-008  0.4614232E+02  0.7816164E-02  0.1320468E+00
        -11   -1    0    0    0    0  0.00000000000E+00  0.00000000000E+00  0.45593999997E+02  0.45594000000E+02  0.51100000000E-03 0.  1.
         11   -1    0    0    0    0 -0.00000000000E+00 -0.00000000000E+00 -0.45593999997E+02  0.45594000000E+02  0.51100000000E-03 0. -1.
    9900012    2    1    2    0    0  0.12908248585E+02  0.26102737690E+02  0.34367685028E+02  0.46142316848E+02  0.99999916721E+01 0.  0.
         12    1    1    2    0    0 -0.12908248585E+02 -0.26102737690E+02 -0.34367685028E+02  0.45045683152E+02  0.00000000000E+00 0. -1.
         11    1    3    3    0    0  0.10512573169E+01  0.51613922389E+01  0.36436375967E+01  0.64047800108E+01  0.51100000000E-03 0. -1.
        -11    1    3    3    0    0  0.39646976056E+00  0.73061121060E+01  0.10352557023E+02  0.12677219709E+02  0.51100000000E-03 0.  1.
        -12    1    3    3    0    0  0.11460521507E+02  0.13635233345E+02  0.20371490408E+02  0.27060317128E+02  0.00000000000E+00 0.  1.
</event>
<event>
 7    1  0.2395003E-008  0.4614232E+02  0.7816164E-02  0.1320468E+00
        -11   -1    0    0    0    0  0.00000000000E+00  0.00000000000E+00  0.45593999997E+02  0.45594000000E+02  0.51100000000E-03 0.  1.
         11   -1    0    0    0    0 -0.00000000000E+00 -0.00000000000E+00 -0.45593999997E+02  0.45594000000E+02  0.51100000000E-03 0. -1.
    9900012    2    1    2    0    0 -0.13387224996E+02 -0.11168846937E+02  0.41534953215E+02  0.46142320146E+02  0.10000021746E+02 0.  0.
         12    1    1    2    0    0  0.13387224996E+02  0.11168846937E+02 -0.41534953215E+02  0.45045679854E+02  0.00000000000E+00 0. -1.
         11    1    3    3    0    0 -0.78453996216E+01 -0.60745510839E+01  0.18536391844E+02  0.21024944446E+02  0.51100000000E-03 0.  1.
        -11    1    3    3    0    0  0.13765767513E+01 -0.67198326114E+00  0.16868732512E+01  0.22786106912E+01  0.51100000000E-03 0. -1.
         12    1    3    3    0    0 -0.69184021252E+01 -0.44223125918E+01  0.21311688119E+02  0.22838765008E+02  0.00000000000E+00 0. -1.
</event>
<event>
 7    1  0.2395003E-008  0.4614232E+02  0.7816164E-02  0.1320468E+00
        -11   -1    0    0    0    0  0.00000000000E+00  0.00000000000E+00  0.45593999997E+02  0.45594000000E+02  0.51100000000E-03 0.  1.
         11   -1    0    0    0    0 -0.00000000000E+00 -0.00000000000E+00 -0.45593999997E+02  0.45594000000E+02  0.51100000000E-03 0. -1.
    9900012    2    1    2    0    0  0.21940465149E+02  0.32051051107E+01  0.39210416242E+02  0.46142318170E+02  0.10000003724E+02 0.  0.
         12    1    1    2    0    0 -0.21940465149E+02 -0.32051051107E+01 -0.39210416242E+02  0.45045681830E+02  0.00000000000E+00 0. -1.
         11    1    3    3    0    0  0.94388644173E+01 -0.41171827109E+00  0.12356573798E+02  0.15554632420E+02  0.51100000000E-03 0. -1.
        -11    1    3    3    0    0  0.88417160168E+01 -0.81213017657E+00  0.17088860161E+02  0.19257846178E+02  0.51100000000E-03 0.  1.
         12    1    3    3    0    0  0.36598847151E+01  0.44289535583E+01  0.97649822827E+01  0.11329839572E+02  0.00000000000E+00 0. -1.
</event>
<event>
 7    1  0.2395003E-008  0.4614232E+02  0.7816164E-02  0.1320468E+00
        -11   -1    0    0    0    0  0.00000000000E+00  0.00000000000E+00  0.45593999997E+02  0.45594000000E+02  0.51100000000E-03 0.  1.
         11   -1    0    0    0    0 -0.00000000000E+00 -0.00000000000E+00 -0.45593999997E+02  0.45594000000E+02  0.51100000000E-03 0. -1.
    9900012    2    1    2    0    0  0.10770376519E+02 -0.38621561667E+02  0.20530159308E+02  0.46142317885E+02  0.10000001130E+02 0.  0.
         12    1    1    2    0    0 -0.10770376519E+02  0.38621561667E+02 -0.20530159308E+02  0.45045682115E+02  0.00000000000E+00 0. -1.
         11    1    3    3    0    0  0.52787384180E+01 -0.24483972351E+02  0.16077992303E+02  0.29762926908E+02  0.51100000000E-03 0. -1.
        -11    1    3    3    0    0  0.39019246804E+01 -0.11636011327E+02  0.51898208770E+01  0.13325014702E+02  0.51100000000E-03 0.  1.
         12    1    3    3    0    0  0.15897134202E+01 -0.25015779898E+01 -0.73765387164E+00  0.30543762754E+01  0.00000000000E+00 0. -1.
</event>
<event>
 7    1  0.2395003E-008  0.4614232E+02  0.7816164E-02  0.1320468E+00
        -11   -1    0    0    0    0  0.00000000000E+00  0.00000000000E+00  0.45593999997E+02  0.45594000000E+02  0.51100000000E-03 0.  1.
         11   -1    0    0    0    0 -0.00000000000E+00 -0.00000000000E+00 -0.45593999997E+02  0.45594000000E+02  0.51100000000E-03 0. -1.
    9900012    2    1    2    0    0 -0.26976355550E+02  0.33212438916E+02  0.14082741048E+02  0.46142318155E+02  0.10000003590E+02 0.  0.
         12    1    1    2    0    0  0.26976355550E+02 -0.33212438916E+02 -0.14082741048E+02  0.45045681845E+02  0.00000000000E+00 0. -1.
         11    1    3    3    0    0 -0.90971471330E+01  0.10451287321E+02  0.48606433086E+01  0.14683778338E+02  0.51100000000E-03 0. -1.
        -11    1    3    3    0    0 -0.39943008417E+01  0.10874460617E+02  0.17676501421E+01  0.11718912927E+02  0.51100000000E-03 0.  1.
         12    1    3    3    0    0 -0.13884907575E+02  0.11886690978E+02  0.74544475968E+01  0.19739626890E+02  0.00000000000E+00 0. -1.
</event>
<event>
 7    1  0.2395003E-008  0.4614232E+02  0.7816164E-02  0.1320468E+00
        -11   -1    0    0    0    0  0.00000000000E+00  0.00000000000E+00  0.45593999997E+02  0.45594000000E+02  0.51100000000E-03 0.  1.
         11   -1    0    0    0    0 -0.00000000000E+00 -0.00000000000E+00 -0.45593999997E+02  0.45594000000E+02  0.51100000000E-03 0. -1.
    9900012    2    1    2    0    0 -0.27028578491E+01  0.54621189164E+01  0.44631526001E+02  0.46142319887E+02  0.10000019387E+02 0.  0.
         12    1    1    2    0    0  0.27028578491E+01 -0.54621189164E+01 -0.44631526001E+02  0.45045680113E+02  0.00000000000E+00 0. -1.
         11    1    3    3    0    0 -0.25215875826E+01  0.20306085424E+01  0.78473533384E+01  0.84889769506E+01  0.51100000000E-03 0. -1.
        -11    1    3    3    0    0 -0.17144057933E+01  0.53278202696E+01  0.24826912956E+02  0.25449959985E+02  0.51100000000E-03 0.  1.
        -12    1    3    3    0    0  0.15331355267E+01 -0.18963098956E+01  0.11957259707E+02  0.12203382951E+02  0.00000000000E+00 0.  1.
</event>
<event>
 7    1  0.2395003E-008  0.4614232E+02  0.7816164E-02  0.1320468E+00
        -11   -1    0    0    0    0  0.00000000000E+00  0.00000000000E+00  0.45593999997E+02  0.45594000000E+02  0.51100000000E-03 0.  1.
         11   -1    0    0    0    0 -0.00000000000E+00 -0.00000000000E+00 -0.45593999997E+02  0.45594000000E+02  0.51100000000E-03 0. -1.
    9900012    2    1    2    0    0  0.50697811582E+00  0.39673130425E+02  0.21328365585E+02  0.46142317821E+02  0.10000000542E+02 0.  0.
         12    1    1    2    0    0 -0.50697811582E+00 -0.39673130425E+02 -0.21328365585E+02  0.45045682179E+02  0.00000000000E+00 0. -1.
         11    1    3    3    0    0 -0.15279081967E+01  0.33985503187E+01  0.17170218320E+01  0.41027810031E+01  0.51100000000E-03 0. -1.
        -11    1    3    3    0    0 -0.28057363504E+01  0.17011909381E+02  0.10504740488E+02  0.20189769445E+02  0.51100000000E-03 0.  1.
         12    1    3    3    0    0  0.48406226629E+01  0.19262670725E+02  0.91066032645E+01  0.21849767372E+02  0.00000000000E+00 0. -1.
</event>
<event>
 7    1  0.2395003E-008  0.4614232E+02  0.7816164E-02  0.1320468E+00
        -11   -1    0    0    0    0  0.00000000000E+00  0.00000000000E+00  0.45593999997E+02  0.45594000000E+02  0.51100000000E-03 0.  1.
         11   -1    0    0    0    0 -0.00000000000E+00 -0.00000000000E+00 -0.45593999997E+02  0.45594000000E+02  0.51100000000E-03 0. -1.
    9900012    2    1    2    0    0  0.41258605757E+02  0.10391914477E+01 -0.18048851942E+02  0.46142317362E+02  0.99999963619E+01 0.  0.
         12    1    1    2    0    0 -0.41258605757E+02 -0.10391914477E+01  0.18048851942E+02  0.45045682638E+02  0.00000000000E+00 0. -1.
         11    1    3    3    0    0  0.28279873329E+02  0.82440047197E+00 -0.16618577873E+02  0.32811705265E+02  0.51100000000E-03 0. -1.
        -11    1    3    3    0    0  0.10940510544E+02  0.71638479868E+00 -0.20240627569E+01  0.11149206629E+02  0.51100000000E-03 0.  1.
         12    1    3    3    0    0  0.20382218839E+01 -0.50159382297E+00  0.59378868733E+00  0.21814054682E+01  0.00000000000E+00 0. -1.
</event>
<event>
 7    1  0.2395003E-008  0.4614232E+02  0.7816164E-02  0.1320468E+00
        -11   -1    0    0    0    0  0.00000000000E+00  0.00000000000E+00  0.45593999997E+02  0.45594000000E+02  0.51100000000E-03 0.  1.
         11   -1    0    0    0    0 -0.00000000000E+00 -0.00000000000E+00 -0.45593999997E+02  0.45594000000E+02  0.51100000000E-03 0. -1.
    9900012    2    1    2    0    0  0.33951491870E+02  0.15443657900E+02  0.25256744345E+02  0.46142317583E+02  0.99999983759E+01 0.  0.
         12    1    1    2    0    0 -0.33951491870E+02 -0.15443657900E+02 -0.25256744345E+02  0.45045682417E+02  0.00000000000E+00 0. -1.
         11    1    3    3    0    0  0.16495523373E+02  0.10301166121E+02  0.84083555876E+01  0.21187655811E+02  0.51100000000E-03 0. -1.
        -11    1    3    3    0    0  0.10411379331E+02  0.40635625666E+01  0.89666403440E+01  0.14328642630E+02  0.51100000000E-03 0.  1.
         12    1    3    3    0    0  0.70445891665E+01  0.10789292124E+01  0.78817484130E+01  0.10626019142E+02  0.00000000000E+00 0. -1.
</event>
<event>
 7    1  0.2395003E-008  0.4614231E+02  0.7816164E-02  0.1320468E+00
        -11   -1    0    0    0    0  0.00000000000E+00  0.00000000000E+00  0.45593999997E+02  0.45594000000E+02  0.51100000000E-03 0. -1.
         11   -1    0    0    0    0 -0.00000000000E+00 -0.00000000000E+00 -0.45593999997E+02  0.45594000000E+02  0.51100000000E-03 0.  1.
    9900012    2    1    2    0    0  0.33703442173E+02  0.29813673673E+02  0.20824637721E+01  0.46142314218E+02  0.99999676945E+01 0.  0.
         12    1    1    2    0    0 -0.33703442173E+02 -0.29813673673E+02 -0.20824637721E+01  0.45045685782E+02  0.00000000000E+00 0. -1.
         11    1    3    3    0    0  0.11933751371E+01 -0.32497485932E+00 -0.56933639641E+00  0.13615788888E+01  0.51100000000E-03 0. -1.
        -11    1    3    3    0    0  0.11382274619E+02  0.10720246595E+02 -0.18089276587E+01  0.15740142379E+02  0.51100000000E-03 0.  1.
         12    1    3    3    0    0  0.21127792417E+02  0.19418401936E+02  0.44607278273E+01  0.29040592950E+02  0.00000000000E+00 0. -1.
</event>
<event>
 7    1  0.2395003E-008  0.4614232E+02  0.7816164E-02  0.1320468E+00
        -11   -1    0    0    0    0  0.00000000000E+00  0.00000000000E+00  0.45593999997E+02  0.45594000000E+02  0.51100000000E-03 0.  1.
         11   -1    0    0    0    0 -0.00000000000E+00 -0.00000000000E+00 -0.45593999997E+02  0.45594000000E+02  0.51100000000E-03 0. -1.
    9900012    2    1    2    0    0 -0.55170490554E+01 -0.38764199687E+02  0.22271336134E+02  0.46142318511E+02  0.10000006839E+02 0.  0.
         12    1    1    2    0    0  0.55170490554E+01  0.38764199687E+02 -0.22271336134E+02  0.45045681489E+02  0.00000000000E+00 0. -1.
         11    1    3    3    0    0 -0.19737192191E+00 -0.56253251310E+00  0.28162576933E+01  0.28786639540E+01  0.51100000000E-03 0. -1.
        -11    1    3    3    0    0 -0.33706975104E+01 -0.19326298960E+02  0.10975126437E+02  0.22479342378E+02  0.51100000000E-03 0.  1.
        -12    1    3    3    0    0 -0.19489796230E+01 -0.18875368214E+02  0.84799520037E+01  0.20784312179E+02  0.00000000000E+00 0.  1.
</event>
<event>
 7    1  0.2395003E-008  0.4614232E+02  0.7816164E-02  0.1320468E+00
        -11   -1    0    0    0    0  0.00000000000E+00  0.00000000000E+00  0.45593999997E+02  0.45594000000E+02  0.51100000000E-03 0.  1.
         11   -1    0    0    0    0 -0.00000000000E+00 -0.00000000000E+00 -0.45593999997E+02  0.45594000000E+02  0.51100000000E-03 0. -1.
    9900012    2    1    2    0    0  0.15902514891E+01  0.21341949753E+01  0.44966985814E+02  0.46142317619E+02  0.99999987005E+01 0.  0.
         12    1    1    2    0    0 -0.15902514891E+01 -0.21341949753E+01 -0.44966985814E+02  0.45045682381E+02  0.00000000000E+00 0. -1.
         11    1    3    3    0    0 -0.35980362906E+01 -0.68494865416E+00  0.16437785695E+02  0.16840897204E+02  0.51100000000E-03 0. -1.
        -11    1    3    3    0    0  0.28420037047E+01  0.90108140744E+00  0.77733372481E+01  0.83254852708E+01  0.51100000000E-03 0.  1.
         12    1    3    3    0    0  0.23462840750E+01  0.19180622221E+01  0.20755862871E+02  0.20975935144E+02  0.00000000000E+00 0. -1.
</event>
<event>
 7    1  0.2395003E-008  0.4614232E+02  0.7816164E-02  0.1320468E+00
        -11   -1    0    0    0    0  0.00000000000E+00  0.00000000000E+00  0.45593999997E+02  0.45594000000E+02  0.51100000000E-03 0. -1.
         11   -1    0    0    0    0 -0.00000000000E+00 -0.00000000000E+00 -0.45593999997E+02  0.45594000000E+02  0.51100000000E-03 0.  1.
    9900012    2    1    2    0    0  0.34048344131E+02 -0.24310207298E+02 -0.16698427096E+02  0.46142318915E+02  0.10000010519E+02 0.  0.
         12    1    1    2    0    0 -0.34048344131E+02  0.24310207298E+02  0.16698427096E+02  0.45045681085E+02  0.00000000000E+00 0. -1.
         11    1    3    3    0    0  0.16229636304E+01 -0.10708397748E+00 -0.29535440336E+00  0.16530917726E+01  0.51100000000E-03 0. -1.
        -11    1    3    3    0    0  0.20732542007E+02 -0.10724151520E+02 -0.11279136619E+02  0.25924209671E+02  0.51100000000E-03 0.  1.
         12    1    3    3    0    0  0.11692838494E+02 -0.13478971800E+02 -0.51239360733E+01  0.18565017471E+02  0.00000000000E+00 0. -1.
</event>
<event>
 7    1  0.2395003E-008  0.4614232E+02  0.7816164E-02  0.1320468E+00
        -11   -1    0    0    0    0  0.00000000000E+00  0.00000000000E+00  0.45593999997E+02  0.45594000000E+02  0.51100000000E-03 0.  1.
         11   -1    0    0    0    0 -0.00000000000E+00 -0.00000000000E+00 -0.45593999997E+02  0.45594000000E+02  0.51100000000E-03 0. -1.
    9900012    2    1    2    0    0  0.39923912862E+02 -0.19635164755E+02  0.70466301378E+01  0.46142317527E+02  0.99999978653E+01 0.  0.
         12    1    1    2    0    0 -0.39923912862E+02  0.19635164755E+02 -0.70466301378E+01  0.45045682473E+02  0.00000000000E+00 0. -1.
         11    1    3    3    0    0  0.14056315462E+02 -0.10904032966E+02  0.12678995406E+01  0.17834951886E+02  0.51100000000E-03 0. -1.
        -11    1    3    3    0    0  0.87091500287E+01 -0.19740705290E+01 -0.16675889053E+00  0.89316324076E+01  0.51100000000E-03 0.  1.
         12    1    3    3    0    0  0.17158447372E+02 -0.67570612598E+01  0.59454894877E+01  0.19375733233E+02  0.00000000000E+00 0. -1.
</event>
<event>
 7    1  0.2395003E-008  0.4614232E+02  0.7816164E-02  0.1320468E+00
        -11   -1    0    0    0    0  0.00000000000E+00  0.00000000000E+00  0.45593999997E+02  0.45594000000E+02  0.51100000000E-03 0. -1.
         11   -1    0    0    0    0 -0.00000000000E+00 -0.00000000000E+00 -0.45593999997E+02  0.45594000000E+02  0.51100000000E-03 0.  1.
    9900012    2    1    2    0    0  0.15508548373E+02  0.13401339845E+02 -0.40112374319E+02  0.46142317013E+02  0.99999931765E+01 0.  0.
         12    1    1    2    0    0 -0.15508548373E+02 -0.13401339845E+02  0.40112374319E+02  0.45045682987E+02  0.00000000000E+00 0. -1.
         11    1    3    3    0    0  0.40830310430E+01 -0.17541501135E+00 -0.91608494287E+01  0.10031105395E+02  0.51100000000E-03 0. -1.
        -11    1    3    3    0    0  0.11575332709E+02  0.12290401744E+02 -0.26058941823E+02  0.31050132875E+02  0.51100000000E-03 0.  1.
        -12    1    3    3    0    0 -0.14981537837E+00  0.12863531124E+01 -0.48925830668E+01  0.50610787430E+01  0.00000000000E+00 0.  1.
</event>
<event>
 7    1  0.2395003E-008  0.4614232E+02  0.7816164E-02  0.1320468E+00
        -11   -1    0    0    0    0  0.00000000000E+00  0.00000000000E+00  0.45593999997E+02  0.45594000000E+02  0.51100000000E-03 0. -1.
         11   -1    0    0    0    0 -0.00000000000E+00 -0.00000000000E+00 -0.45593999997E+02  0.45594000000E+02  0.51100000000E-03 0.  1.
    9900012    2    1    2    0    0  0.25897829313E+02  0.36854652869E+02 -0.38796725037E+00  0.46142317412E+02  0.99999968193E+01 0.  0.
         12    1    1    2    0    0 -0.25897829313E+02 -0.36854652869E+02  0.38796725037E+00  0.45045682588E+02  0.00000000000E+00 0. -1.
         11    1    3    3    0    0  0.60247759890E+01  0.82563604013E+01 -0.92497449455E+00  0.10262601564E+02  0.51100000000E-03 0. -1.
        -11    1    3    3    0    0  0.13565374804E+02  0.24385748315E+02 -0.17434146598E+01  0.27959320617E+02  0.51100000000E-03 0.  1.
         12    1    3    3    0    0  0.63076785198E+01  0.42125441531E+01  0.22804219040E+01  0.79203952308E+01  0.00000000000E+00 0. -1.
</event>
<event>
 7    1  0.2395003E-008  0.4614232E+02  0.7816164E-02  0.1320468E+00
        -11   -1    0    0    0    0  0.00000000000E+00  0.00000000000E+00  0.45593999997E+02  0.45594000000E+02  0.51100000000E-03 0. -1.
         11   -1    0    0    0    0 -0.00000000000E+00 -0.00000000000E+00 -0.45593999997E+02  0.45594000000E+02  0.51100000000E-03 0.  1.
    9900012    2    1    2    0    0 -0.33923908335E+02 -0.29557723939E+02  0.21500793573E+01  0.46142318271E+02  0.10000004646E+02 0.  0.
         12    1    1    2    0    0  0.33923908335E+02  0.29557723939E+02 -0.21500793573E+01  0.45045681729E+02  0.00000000000E+00 0. -1.
         11    1    3    3    0    0 -0.15007283675E+01 -0.40435501329E+01 -0.41405729747E+00  0.43328889920E+01  0.51100000000E-03 0.  1.
        -11    1    3    3    0    0 -0.82278628562E+01 -0.60377993742E+01  0.33437572242E+01  0.10739341744E+02  0.51100000000E-03 0. -1.
        -12    1    3    3    0    0 -0.24195317112E+02 -0.19476374432E+02 -0.77962056937E+00  0.31070087534E+02  0.00000000000E+00 0.  1.
</event>
<event>
 7    1  0.2395003E-008  0.4614232E+02  0.7816164E-02  0.1320468E+00
        -11   -1    0    0    0    0  0.00000000000E+00  0.00000000000E+00  0.45593999997E+02  0.45594000000E+02  0.51100000000E-03 0. -1.
         11   -1    0    0    0    0 -0.00000000000E+00 -0.00000000000E+00 -0.45593999997E+02  0.45594000000E+02  0.51100000000E-03 0.  1.
    9900012    2    1    2    0    0  0.64082459452E+00  0.24560372286E+02 -0.37755674021E+02  0.46142318034E+02  0.10000002491E+02 0.  0.
         12    1    1    2    0    0 -0.64082459452E+00 -0.24560372286E+02  0.37755674021E+02  0.45045681966E+02  0.00000000000E+00 0. -1.
         11    1    3    3    0    0 -0.22473109284E+01  0.40026669249E+01 -0.55323516776E+01  0.71887873988E+01  0.51100000000E-03 0. -1.
        -11    1    3    3    0    0 -0.26053013911E+00  0.16854113901E+02 -0.22848961560E+02  0.28393733040E+02  0.51100000000E-03 0.  1.
         12    1    3    3    0    0  0.31486656620E+01  0.37035914603E+01 -0.93743607833E+01  0.10559797595E+02  0.00000000000E+00 0. -1.
</event>
<event>
 7    1  0.2395003E-008  0.4614232E+02  0.7816164E-02  0.1320468E+00
        -11   -1    0    0    0    0  0.00000000000E+00  0.00000000000E+00  0.45593999997E+02  0.45594000000E+02  0.51100000000E-03 0. -1.
         11   -1    0    0    0    0 -0.00000000000E+00 -0.00000000000E+00 -0.45593999997E+02  0.45594000000E+02  0.51100000000E-03 0.  1.
    9900012    2    1    2    0    0  0.29512899010E+01 -0.34102175976E+02 -0.29282160706E+02  0.46142318143E+02  0.10000003480E+02 0.  0.
         12    1    1    2    0    0 -0.29512899010E+01  0.34102175976E+02  0.29282160706E+02  0.45045681857E+02  0.00000000000E+00 0. -1.
         11    1    3    3    0    0  0.33231963002E+01 -0.11318203385E+02 -0.11175618802E+02  0.16249302058E+02  0.51100000000E-03 0. -1.
        -11    1    3    3    0    0  0.24347812980E+01 -0.33282942580E+01 -0.33628764727E+01  0.53211503520E+01  0.51100000000E-03 0.  1.
        -12    1    3    3    0    0 -0.28066876973E+01 -0.19455678333E+02 -0.14743665431E+02  0.24571865732E+02  0.00000000000E+00 0.  1.
</event>
<event>
 7    1  0.2395003E-008  0.4614232E+02  0.7816164E-02  0.1320468E+00
        -11   -1    0    0    0    0  0.00000000000E+00  0.00000000000E+00  0.45593999997E+02  0.45594000000E+02  0.51100000000E-03 0. -1.
         11   -1    0    0    0    0 -0.00000000000E+00 -0.00000000000E+00 -0.45593999997E+02  0.45594000000E+02  0.51100000000E-03 0.  1.
    9900012    2    1    2    0    0 -0.20180349047E+02 -0.37522296740E+02 -0.14626841052E+02  0.46142315196E+02  0.99999766113E+01 0.  0.
         12    1    1    2    0    0  0.20180349047E+02  0.37522296740E+02  0.14626841052E+02  0.45045684804E+02  0.00000000000E+00 0. -1.
         11    1    3    3    0    0 -0.15294382997E+02 -0.30041717155E+02 -0.15154475547E+02  0.36960533684E+02  0.51100000000E-03 0. -1.
        -11    1    3    3    0    0 -0.29528622090E+01 -0.41859788888E+01 -0.69823611106E+00  0.51700433664E+01  0.51100000000E-03 0.  1.
         12    1    3    3    0    0 -0.19331038414E+01 -0.32946006962E+01  0.12258706057E+01  0.40117381459E+01  0.00000000000E+00 0. -1.
</event>
<event>
 7    1  0.2395003E-008  0.4614232E+02  0.7816164E-02  0.1320468E+00
        -11   -1    0    0    0    0  0.00000000000E+00  0.00000000000E+00  0.45593999997E+02  0.45594000000E+02  0.51100000000E-03 0.  1.
         11   -1    0    0    0    0 -0.00000000000E+00 -0.00000000000E+00 -0.45593999997E+02  0.45594000000E+02  0.51100000000E-03 0. -1.
    9900012    2    1    2    0    0 -0.16318769704E+02  0.31040200958E+02  0.28272197572E+02  0.46142317901E+02  0.10000001278E+02 0.  0.
         12    1    1    2    0    0  0.16318769704E+02 -0.31040200958E+02 -0.28272197572E+02  0.45045682099E+02  0.00000000000E+00 0. -1.
         11    1    3    3    0    0 -0.11999797723E+01  0.60914654470E+01  0.38738158969E+01  0.73179472948E+01  0.51100000000E-03 0. -1.
        -11    1    3    3    0    0 -0.88572789211E+00  0.34873552863E+01  0.39410709569E+00  0.36195968637E+01  0.51100000000E-03 0.  1.
        -12    1    3    3    0    0 -0.14233062039E+02  0.21461380225E+02  0.24004274580E+02  0.35204773743E+02  0.00000000000E+00 0.  1.
</event>
<event>
 7    1  0.2395003E-008  0.4614232E+02  0.7816164E-02  0.1320468E+00
        -11   -1    0    0    0    0  0.00000000000E+00  0.00000000000E+00  0.45593999997E+02  0.45594000000E+02  0.51100000000E-03 0.  1.
         11   -1    0    0    0    0 -0.00000000000E+00 -0.00000000000E+00 -0.45593999997E+02  0.45594000000E+02  0.51100000000E-03 0. -1.
    9900012    2    1    2    0    0  0.28589850166E+02 -0.33110614221E+02  0.10743430808E+02  0.46142316388E+02  0.99999874767E+01 0.  0.
         12    1    1    2    0    0 -0.28589850166E+02  0.33110614221E+02 -0.10743430808E+02  0.45045683612E+02  0.00000000000E+00 0. -1.
         11    1    3    3    0    0  0.10191955371E+02 -0.11007958641E+02  0.14800584461E+01  0.15074537505E+02  0.51100000000E-03 0. -1.
        -11    1    3    3    0    0  0.10132863555E+02 -0.74964925926E+01  0.60468416531E+01  0.13979864780E+02  0.51100000000E-03 0.  1.
        -12    1    3    3    0    0  0.82650312397E+01 -0.14606162987E+02  0.32165307088E+01  0.17087914103E+02  0.00000000000E+00 0.  1.
</event>
<event>
 7    1  0.2395003E-008  0.4614232E+02  0.7816164E-02  0.1320468E+00
        -11   -1    0    0    0    0  0.00000000000E+00  0.00000000000E+00  0.45593999997E+02  0.45594000000E+02  0.51100000000E-03 0.  1.
         11   -1    0    0    0    0 -0.00000000000E+00 -0.00000000000E+00 -0.45593999997E+02  0.45594000000E+02  0.51100000000E-03 0. -1.
    9900012    2    1    2    0    0  0.40586297426E+02  0.13699253243E+02  0.13935438153E+02  0.46142317469E+02  0.99999973372E+01 0.  0.
         12    1    1    2    0    0 -0.40586297426E+02 -0.13699253243E+02 -0.13935438153E+02  0.45045682531E+02  0.00000000000E+00 0. -1.
         11    1    3    3    0    0  0.24718107760E+02  0.69902100884E+01  0.42092463069E+01  0.26030091108E+02  0.51100000000E-03 0. -1.
        -11    1    3    3    0    0  0.13407193381E+02  0.47586159156E+01  0.66063215451E+01  0.15685685972E+02  0.51100000000E-03 0.  1.
         12    1    3    3    0    0  0.24609962846E+01  0.19504272389E+01  0.31198703011E+01  0.44265403898E+01  0.00000000000E+00 0. -1.
</event>
<event>
 7    1  0.2395003E-008  0.4614232E+02  0.7816164E-02  0.1320468E+00
        -11   -1    0    0    0    0  0.00000000000E+00  0.00000000000E+00  0.45593999997E+02  0.45594000000E+02  0.51100000000E-03 0.  1.
         11   -1    0    0    0    0 -0.00000000000E+00 -0.00000000000E+00 -0.45593999997E+02  0.45594000000E+02  0.51100000000E-03 0. -1.
    9900012    2    1    2    0    0  0.12316175455E+02  0.29343936148E+02  0.31880380899E+02  0.46142318157E+02  0.10000003606E+02 0.  0.
         12    1    1    2    0    0 -0.12316175455E+02 -0.29343936148E+02 -0.31880380899E+02  0.45045681843E+02  0.00000000000E+00 0. -1.
         11    1    3    3    0    0 -0.11604992654E+01  0.20236159981E+01  0.13941864113E+01  0.27176343137E+01  0.51100000000E-03 0. -1.
        -11    1    3    3    0    0  0.73961043472E+01  0.10041621305E+02  0.10382552392E+02  0.16227566435E+02  0.51100000000E-03 0.  1.
         12    1    3    3    0    0  0.60805703730E+01  0.17278698844E+02  0.20103642095E+02  0.27197117408E+02  0.00000000000E+00 0. -1.
</event>
<event>
 7    1  0.2395003E-008  0.4614232E+02  0.7816164E-02  0.1320468E+00
        -11   -1    0    0    0    0  0.00000000000E+00  0.00000000000E+00  0.45593999997E+02  0.45594000000E+02  0.51100000000E-03 0. -1.
         11   -1    0    0    0    0 -0.00000000000E+00 -0.00000000000E+00 -0.45593999997E+02  0.45594000000E+02  0.51100000000E-03 0.  1.
    9900012    2    1    2    0    0  0.28839008980E+02  0.24717775859E+02 -0.24216867356E+02  0.46142317111E+02  0.99999940742E+01 0.  0.
         12    1    1    2    0    0 -0.28839008980E+02 -0.24717775859E+02  0.24216867356E+02  0.45045682889E+02  0.00000000000E+00 0. -1.
         11    1    3    3    0    0  0.13777372382E+02  0.64025013094E+01 -0.11278880162E+02  0.18921446846E+02  0.51100000000E-03 0. -1.
        -11    1    3    3    0    0  0.99727199371E+01  0.10761539777E+02 -0.63882819816E+01  0.16002375707E+02  0.51100000000E-03 0.  1.
         12    1    3    3    0    0  0.50889166609E+01  0.75537347726E+01 -0.65497052129E+01  0.11218494559E+02  0.00000000000E+00 0. -1.
</event>
<event>
 7    1  0.2395003E-008  0.4614232E+02  0.7816164E-02  0.1320468E+00
        -11   -1    0    0    0    0  0.00000000000E+00  0.00000000000E+00  0.45593999997E+02  0.45594000000E+02  0.51100000000E-03 0.  1.
         11   -1    0    0    0    0 -0.00000000000E+00 -0.00000000000E+00 -0.45593999997E+02  0.45594000000E+02  0.51100000000E-03 0. -1.
    9900012    2    1    2    0    0  0.19004152478E+02 -0.12355413620E+02  0.38926847057E+02  0.46142317866E+02  0.10000000952E+02 0.  0.
         12    1    1    2    0    0 -0.19004152478E+02  0.12355413620E+02 -0.38926847057E+02  0.45045682134E+02  0.00000000000E+00 0. -1.
         11    1    3    3    0    0  0.42734837832E+01 -0.54959880798E+01  0.10569374339E+02  0.12656232567E+02  0.51100000000E-03 0. -1.
        -11    1    3    3    0    0  0.14834661833E+02 -0.77803745149E+01  0.27615473697E+02  0.32298851482E+02  0.51100000000E-03 0.  1.
         12    1    3    3    0    0 -0.10399313763E+00  0.92094897494E+00  0.74199902210E+00  0.11872338169E+01  0.00000000000E+00 0. -1.
</event>
<event>
 7    1  0.2395003E-008  0.4614232E+02  0.7816164E-02  0.1320468E+00
        -11   -1    0    0    0    0  0.00000000000E+00  0.00000000000E+00  0.45593999997E+02  0.45594000000E+02  0.51100000000E-03 0.  1.
         11   -1    0    0    0    0 -0.00000000000E+00 -0.00000000000E+00 -0.45593999997E+02  0.45594000000E+02  0.51100000000E-03 0. -1.
    9900012    2    1    2    0    0 -0.42864149972E+02  0.10838339566E+01 -0.13805919338E+02  0.46142318102E+02  0.10000003107E+02 0.  0.
         12    1    1    2    0    0  0.42864149972E+02 -0.10838339566E+01  0.13805919338E+02  0.45045681898E+02  0.00000000000E+00 0. -1.
         11    1    3    3    0    0 -0.28980545904E+01 -0.17907281956E+01 -0.69073368689E-01  0.34073742487E+01  0.51100000000E-03 0. -1.
        -11    1    3    3    0    0 -0.11206636828E+02 -0.70873968960E+00 -0.17174900273E+01  0.11359612370E+02  0.51100000000E-03 0.  1.
         12    1    3    3    0    0 -0.28759458554E+02  0.35833018418E+01 -0.12019355942E+02  0.31375331483E+02  0.00000000000E+00 0. -1.
</event>
<event>
 7    1  0.2395003E-008  0.4614232E+02  0.7816164E-02  0.1320468E+00
        -11   -1    0    0    0    0  0.00000000000E+00  0.00000000000E+00  0.45593999997E+02  0.45594000000E+02  0.51100000000E-03 0.  1.
         11   -1    0    0    0    0 -0.00000000000E+00 -0.00000000000E+00 -0.45593999997E+02  0.45594000000E+02  0.51100000000E-03 0. -1.
    9900012    2    1    2    0    0 -0.99196737963E+01 -0.78742029273E+01  0.43228577592E+02  0.46142324064E+02  0.10000057471E+02 0.  0.
         12    1    1    2    0    0  0.99196737963E+01  0.78742029273E+01 -0.43228577592E+02  0.45045675936E+02  0.00000000000E+00 0. -1.
         11    1    3    3    0    0 -0.68758142061E+01  0.21322967288E+00  0.16171562782E+02  0.17573893449E+02  0.51100000000E-03 0. -1.
        -11    1    3    3    0    0  0.24840491603E+00 -0.15518260570E+01  0.80361416577E+01  0.81883723729E+01  0.51100000000E-03 0.  1.
        -12    1    3    3    0    0 -0.32922645062E+01 -0.65356065432E+01  0.19020873152E+02  0.20380058241E+02  0.00000000000E+00 0.  1.
</event>
<event>
 7    1  0.2395003E-008  0.4614232E+02  0.7816164E-02  0.1320468E+00
        -11   -1    0    0    0    0  0.00000000000E+00  0.00000000000E+00  0.45593999997E+02  0.45594000000E+02  0.51100000000E-03 0. -1.
         11   -1    0    0    0    0 -0.00000000000E+00 -0.00000000000E+00 -0.45593999997E+02  0.45594000000E+02  0.51100000000E-03 0.  1.
    9900012    2    1    2    0    0 -0.22013183510E+02 -0.33684033527E+02 -0.20246458419E+02  0.46142318282E+02  0.10000004754E+02 0.  0.
         12    1    1    2    0    0  0.22013183510E+02  0.33684033527E+02  0.20246458419E+02  0.45045681718E+02  0.00000000000E+00 0. -1.
         11    1    3    3    0    0  0.18893861936E+00 -0.54654333851E-01  0.55864639970E+00  0.59225919926E+00  0.51100000000E-03 0. -1.
        -11    1    3    3    0    0 -0.48591141607E+01 -0.10716262028E+02 -0.66647518520E+01  0.13522876166E+02  0.51100000000E-03 0.  1.
        -12    1    3    3    0    0 -0.17343007969E+02 -0.22913117165E+02 -0.14140352967E+02  0.32027182917E+02  0.00000000000E+00 0.  1.
</event>
<event>
 7    1  0.2395003E-008  0.4614232E+02  0.7816164E-02  0.1320468E+00
        -11   -1    0    0    0    0  0.00000000000E+00  0.00000000000E+00  0.45593999997E+02  0.45594000000E+02  0.51100000000E-03 0. -1.
         11   -1    0    0    0    0 -0.00000000000E+00 -0.00000000000E+00 -0.45593999997E+02  0.45594000000E+02  0.51100000000E-03 0.  1.
    9900012    2    1    2    0    0 -0.42369360436E+02 -0.50109553065E+01 -0.14451339537E+02  0.46142316619E+02  0.99999895883E+01 0.  0.
         12    1    1    2    0    0  0.42369360436E+02  0.50109553065E+01  0.14451339537E+02  0.45045683381E+02  0.00000000000E+00 0. -1.
         11    1    3    3    0    0 -0.27902944076E+02 -0.40684084397E+01 -0.14265439780E+02  0.31601091876E+02  0.51100000000E-03 0. -1.
        -11    1    3    3    0    0 -0.46003976837E+01 -0.70749124887E-01 -0.52609763723E+00  0.46309225077E+01  0.51100000000E-03 0.  1.
         12    1    3    3    0    0 -0.98660186757E+01 -0.87179774194E+00  0.34019787989E+00  0.99103022360E+01  0.00000000000E+00 0. -1.
</event>
<event>
 7    1  0.2395003E-008  0.4614232E+02  0.7816164E-02  0.1320468E+00
        -11   -1    0    0    0    0  0.00000000000E+00  0.00000000000E+00  0.45593999997E+02  0.45594000000E+02  0.51100000000E-03 0.  1.
         11   -1    0    0    0    0 -0.00000000000E+00 -0.00000000000E+00 -0.45593999997E+02  0.45594000000E+02  0.51100000000E-03 0. -1.
    9900012    2    1    2    0    0 -0.69980457340E+01  0.12324826741E+02  0.42757914937E+02  0.46142319985E+02  0.10000020278E+02 0.  0.
         12    1    1    2    0    0  0.69980457340E+01 -0.12324826741E+02 -0.42757914937E+02  0.45045680015E+02  0.00000000000E+00 0. -1.
         11    1    3    3    0    0 -0.31889087015E+01  0.29854070253E+01  0.80835440635E+01  0.91883338370E+01  0.51100000000E-03 0. -1.
        -11    1    3    3    0    0 -0.33997702533E+01  0.17885874091E+00  0.12575682531E+02  0.13028362123E+02  0.51100000000E-03 0.  1.
        -12    1    3    3    0    0 -0.40936677916E+00  0.91605609751E+01  0.22098688343E+02  0.23925624025E+02  0.00000000000E+00 0.  1.
</event>
<event>
 7    1  0.2395003E-008  0.4614231E+02  0.7816164E-02  0.1320468E+00
        -11   -1    0    0    0    0  0.00000000000E+00  0.00000000000E+00  0.45593999997E+02  0.45594000000E+02  0.51100000000E-03 0.  1.
         11   -1    0    0    0    0 -0.00000000000E+00 -0.00000000000E+00 -0.45593999997E+02  0.45594000000E+02  0.51100000000E-03 0. -1.
    9900012    2    1    2    0    0 -0.58554358077E+00 -0.30818291127E+02  0.32848197256E+02  0.46142312168E+02  0.99999489984E+01 0.  0.
         12    1    1    2    0    0  0.58554358077E+00  0.30818291127E+02 -0.32848197256E+02  0.45045687832E+02  0.00000000000E+00 0. -1.
         11    1    3    3    0    0 -0.29438542332E+01 -0.81321048047E+01  0.13293996606E+02  0.15859626488E+02  0.51100000000E-03 0. -1.
        -11    1    3    3    0    0 -0.76558167386E+00 -0.17708854835E+01  0.11341401429E+01  0.22379510316E+01  0.51100000000E-03 0.  1.
         12    1    3    3    0    0  0.31238923263E+01 -0.20915300839E+02  0.18420060507E+02  0.28044734649E+02  0.00000000000E+00 0. -1.
</event>
<event>
 7    1  0.2395003E-008  0.4614232E+02  0.7816164E-02  0.1320468E+00
        -11   -1    0    0    0    0  0.00000000000E+00  0.00000000000E+00  0.45593999997E+02  0.45594000000E+02  0.51100000000E-03 0.  1.
         11   -1    0    0    0    0 -0.00000000000E+00 -0.00000000000E+00 -0.45593999997E+02  0.45594000000E+02  0.51100000000E-03 0. -1.
    9900012    2    1    2    0    0 -0.27067375202E+02 -0.68009025495E+01  0.35358427022E+02  0.46142318329E+02  0.10000005176E+02 0.  0.
         12    1    1    2    0    0  0.27067375202E+02  0.68009025495E+01 -0.35358427022E+02  0.45045681671E+02  0.00000000000E+00 0. -1.
         11    1    3    3    0    0 -0.20732407322E+01  0.31899228152E+00  0.54889780200E+00  0.21682648056E+01  0.51100000000E-03 0. -1.
        -11    1    3    3    0    0 -0.36058201023E+01  0.83468165524E+00  0.76660633950E+01  0.85127645517E+01  0.51100000000E-03 0.  1.
        -12    1    3    3    0    0 -0.21388314367E+02 -0.79545764862E+01  0.27143465825E+02  0.35461288971E+02  0.00000000000E+00 0.  1.
</event>
<event>
 7    1  0.2395003E-008  0.4614232E+02  0.7816164E-02  0.1320468E+00
        -11   -1    0    0    0    0  0.00000000000E+00  0.00000000000E+00  0.45593999997E+02  0.45594000000E+02  0.51100000000E-03 0.  1.
         11   -1    0    0    0    0 -0.00000000000E+00 -0.00000000000E+00 -0.45593999997E+02  0.45594000000E+02  0.51100000000E-03 0. -1.
    9900012    2    1    2    0    0 -0.11047209217E+02 -0.15745398256E+02  0.40732729658E+02  0.46142315822E+02  0.99999823146E+01 0.  0.
         12    1    1    2    0    0  0.11047209217E+02  0.15745398256E+02 -0.40732729658E+02  0.45045684178E+02  0.00000000000E+00 0. -1.
         11    1    3    3    0    0 -0.12940243384E+01  0.36839371394E+00  0.72640800549E+00  0.15290133316E+01  0.51100000000E-03 0. -1.
        -11    1    3    3    0    0 -0.25835874760E+01 -0.76075462037E+00  0.72446787878E+01  0.77291036245E+01  0.51100000000E-03 0.  1.
        -12    1    3    3    0    0 -0.71695974023E+01 -0.15353037350E+02  0.32761642864E+02  0.36884198866E+02  0.00000000000E+00 0.  1.
</event>
<event>
 7    1  0.2395003E-008  0.4614232E+02  0.7816164E-02  0.1320468E+00
        -11   -1    0    0    0    0  0.00000000000E+00  0.00000000000E+00  0.45593999997E+02  0.45594000000E+02  0.51100000000E-03 0.  1.
         11   -1    0    0    0    0 -0.00000000000E+00 -0.00000000000E+00 -0.45593999997E+02  0.45594000000E+02  0.51100000000E-03 0. -1.
    9900012    2    1    2    0    0 -0.14283427125E+01 -0.11938819110E+02  0.43411263951E+02  0.46142318714E+02  0.10000008694E+02 0.  0.
         12    1    1    2    0    0  0.14283427125E+01  0.11938819110E+02 -0.43411263951E+02  0.45045681286E+02  0.00000000000E+00 0. -1.
         11    1    3    3    0    0  0.25117839124E+01 -0.64692091947E+00  0.29034196050E+01  0.38932519521E+01  0.51100000000E-03 0. -1.
        -11    1    3    3    0    0 -0.25493957637E+01 -0.74086995148E+01  0.28215465415E+02  0.29283113497E+02  0.51100000000E-03 0.  1.
         12    1    3    3    0    0 -0.13907308611E+01 -0.38831986761E+01  0.12292378931E+02  0.12965953265E+02  0.00000000000E+00 0. -1.
</event>
<event>
 7    1  0.2395003E-008  0.4614232E+02  0.7816164E-02  0.1320468E+00
        -11   -1    0    0    0    0  0.00000000000E+00  0.00000000000E+00  0.45593999997E+02  0.45594000000E+02  0.51100000000E-03 0. -1.
         11   -1    0    0    0    0 -0.00000000000E+00 -0.00000000000E+00 -0.45593999997E+02  0.45594000000E+02  0.51100000000E-03 0.  1.
    9900012    2    1    2    0    0 -0.41833653173E+02 -0.42636328126E-01  0.16705003378E+02  0.46142317704E+02  0.99999994800E+01 0.  0.
         12    1    1    2    0    0  0.41833653173E+02  0.42636328126E-01 -0.16705003378E+02  0.45045682296E+02  0.00000000000E+00 0. -1.
         11    1    3    3    0    0 -0.76230196368E+01 -0.71109893124E+00  0.70049584324E+01  0.10377164014E+02  0.51100000000E-03 0. -1.
        -11    1    3    3    0    0 -0.90919088087E+01  0.14820533024E+00  0.43395895351E+01  0.10075554982E+02  0.51100000000E-03 0.  1.
        -12    1    3    3    0    0 -0.25118724727E+02  0.52025727287E+00  0.53604554102E+01  0.25689598708E+02  0.00000000000E+00 0.  1.
</event>
<event>
 7    1  0.2395003E-008  0.4614232E+02  0.7816164E-02  0.1320468E+00
        -11   -1    0    0    0    0  0.00000000000E+00  0.00000000000E+00  0.45593999997E+02  0.45594000000E+02  0.51100000000E-03 0.  1.
         11   -1    0    0    0    0 -0.00000000000E+00 -0.00000000000E+00 -0.45593999997E+02  0.45594000000E+02  0.51100000000E-03 0. -1.
    9900012    2    1    2    0    0 -0.17322216585E+01  0.74561404393E+01  0.44390527504E+02  0.46142317030E+02  0.99999933363E+01 0.  0.
         12    1    1    2    0    0  0.17322216585E+01 -0.74561404393E+01 -0.44390527504E+02  0.45045682970E+02  0.00000000000E+00 0. -1.
         11    1    3    3    0    0  0.87798432740E+00 -0.23425051852E+00  0.14031523036E+00  0.91946637219E+00  0.51100000000E-03 0. -1.
        -11    1    3    3    0    0 -0.18529747682E+01  0.31392692608E+00  0.10598505059E+02  0.10763845751E+02  0.51100000000E-03 0.  1.
         12    1    3    3    0    0 -0.75723121775E+00  0.73764640318E+01  0.33651707214E+02  0.34459004907E+02  0.00000000000E+00 0. -1.
</event>
<event>
 7    1  0.2395003E-008  0.4614232E+02  0.7816164E-02  0.1320468E+00
        -11   -1    0    0    0    0  0.00000000000E+00  0.00000000000E+00  0.45593999997E+02  0.45594000000E+02  0.51100000000E-03 0.  1.
         11   -1    0    0    0    0 -0.00000000000E+00 -0.00000000000E+00 -0.45593999997E+02  0.45594000000E+02  0.51100000000E-03 0. -1.
    9900012    2    1    2    0    0  0.20022588200E+02  0.28688251347E+02  0.28375934019E+02  0.46142318353E+02  0.10000005397E+02 0.  0.
         12    1    1    2    0    0 -0.20022588200E+02 -0.28688251347E+02 -0.28375934019E+02  0.45045681647E+02  0.00000000000E+00 0. -1.
         11    1    3    3    0    0  0.42486710344E+01  0.30928280061E+01  0.58826366003E+01  0.78881052393E+01  0.51100000000E-03 0. -1.
        -11    1    3    3    0    0 -0.47111994447E+00 -0.14697097737E+00  0.48350868278E+00  0.69089462128E+00  0.51100000000E-03 0.  1.
        -12    1    3    3    0    0  0.16245037110E+02  0.25742394319E+02  0.22009788736E+02  0.37563318492E+02  0.00000000000E+00 0.  1.
</event>
<event>
 7    1  0.2395003E-008  0.4614232E+02  0.7816164E-02  0.1320468E+00
        -11   -1    0    0    0    0  0.00000000000E+00  0.00000000000E+00  0.45593999997E+02  0.45594000000E+02  0.51100000000E-03 0. -1.
         11   -1    0    0    0    0 -0.00000000000E+00 -0.00000000000E+00 -0.45593999997E+02  0.45594000000E+02  0.51100000000E-03 0.  1.
    9900012    2    1    2    0    0 -0.13823667882E+02  0.37279442397E+02 -0.21172219078E+02  0.46142317856E+02  0.10000000863E+02 0.  0.
         12    1    1    2    0    0  0.13823667882E+02 -0.37279442397E+02  0.21172219078E+02  0.45045682144E+02  0.00000000000E+00 0. -1.
         11    1    3    3    0    0  0.45329220828E+00  0.93066420436E+01 -0.37696601579E+01  0.10051338116E+02  0.51100000000E-03 0. -1.
        -11    1    3    3    0    0 -0.11822295737E+02  0.25406734955E+02 -0.16032197137E+02  0.32284674427E+02  0.51100000000E-03 0.  1.
         12    1    3    3    0    0 -0.24546643535E+01  0.25660653981E+01 -0.13703617833E+01  0.38063053126E+01  0.00000000000E+00 0. -1.
</event>
<event>
 7    1  0.2395003E-008  0.4614233E+02  0.7816164E-02  0.1320468E+00
        -11   -1    0    0    0    0  0.00000000000E+00  0.00000000000E+00  0.45593999997E+02  0.45594000000E+02  0.51100000000E-03 0.  1.
         11   -1    0    0    0    0 -0.00000000000E+00 -0.00000000000E+00 -0.45593999997E+02  0.45594000000E+02  0.51100000000E-03 0. -1.
    9900012    2    1    2    0    0  0.27539089999E+02 -0.56447711676E+01  0.35197260291E+02  0.46142333710E+02  0.10000145436E+02 0.  0.
         12    1    1    2    0    0 -0.27539089999E+02  0.56447711676E+01 -0.35197260291E+02  0.45045666290E+02  0.00000000000E+00 0. -1.
         11    1    3    3    0    0  0.12596664321E+02 -0.65604224423E+00  0.13921556780E+02  0.18786060973E+02  0.51100000000E-03 0. -1.
        -11    1    3    3    0    0  0.15479282856E+02 -0.46740059207E+01  0.21289486291E+02  0.26733812969E+02  0.51100000000E-03 0.  1.
         12    1    3    3    0    0 -0.53685717780E+00 -0.31472300267E+00 -0.13782780326E-01  0.62245976801E+00  0.00000000000E+00 0. -1.
</event>
<event>
 7    1  0.2395003E-008  0.4614232E+02  0.7816164E-02  0.1320468E+00
        -11   -1    0    0    0    0  0.00000000000E+00  0.00000000000E+00  0.45593999997E+02  0.45594000000E+02  0.51100000000E-03 0.  1.
         11   -1    0    0    0    0 -0.00000000000E+00 -0.00000000000E+00 -0.45593999997E+02  0.45594000000E+02  0.51100000000E-03 0. -1.
    9900012    2    1    2    0    0  0.22080744262E+02  0.82164716793E+01  0.38393278953E+02  0.46142317157E+02  0.99999944892E+01 0.  0.
         12    1    1    2    0    0 -0.22080744262E+02 -0.82164716793E+01 -0.38393278953E+02  0.45045682843E+02  0.00000000000E+00 0. -1.
         11    1    3    3    0    0  0.26762952812E+01 -0.11577892807E+01  0.30654406090E+01  0.42308342959E+01  0.51100000000E-03 0. -1.
        -11    1    3    3    0    0  0.16298869752E+02  0.50434035135E+01  0.24662480484E+02  0.29988781537E+02  0.51100000000E-03 0.  1.
        -12    1    3    3    0    0  0.31055792289E+01  0.43308574465E+01  0.10665357860E+02  0.11922701323E+02  0.00000000000E+00 0.  1.
</event>
<event>
 7    1  0.2395003E-008  0.4614232E+02  0.7816164E-02  0.1320468E+00
        -11   -1    0    0    0    0  0.00000000000E+00  0.00000000000E+00  0.45593999997E+02  0.45594000000E+02  0.51100000000E-03 0. -1.
         11   -1    0    0    0    0 -0.00000000000E+00 -0.00000000000E+00 -0.45593999997E+02  0.45594000000E+02  0.51100000000E-03 0.  1.
    9900012    2    1    2    0    0  0.44326288738E+02  0.69481783449E+01 -0.40020509312E+01  0.46142317995E+02  0.10000002137E+02 0.  0.
         12    1    1    2    0    0 -0.44326288738E+02 -0.69481783449E+01  0.40020509312E+01  0.45045682005E+02  0.00000000000E+00 0. -1.
         11    1    3    3    0    0  0.57120784834E+01  0.29093581876E+01 -0.14035291779E+01  0.65621719026E+01  0.51100000000E-03 0. -1.
        -11    1    3    3    0    0  0.22788651427E+02  0.46646136204E+01 -0.42855042402E+01  0.23652627781E+02  0.51100000000E-03 0.  1.
        -12    1    3    3    0    0  0.15825558827E+02 -0.62579346320E+00  0.16869824869E+01  0.15927518311E+02  0.00000000000E+00 0.  1.
</event>
<event>
 7    1  0.2410497E-008  0.4614232E+02  0.7816164E-02  0.1320468E+00
        -11   -1    0    0    0    0  0.00000000000E+00  0.00000000000E+00  0.45593999997E+02  0.45594000000E+02  0.51100000000E-03 0.  1.
         11   -1    0    0    0    0 -0.00000000000E+00 -0.00000000000E+00 -0.45593999997E+02  0.45594000000E+02  0.51100000000E-03 0. -1.
    9900012    2    1    2    0    0 -0.32377468166E+01 -0.38895180083E+02  0.22489895976E+02  0.46142318085E+02  0.10000002954E+02 0.  0.
         12    1    1    2    0    0  0.32377468166E+01  0.38895180083E+02 -0.22489895976E+02  0.45045681915E+02  0.00000000000E+00 0. -1.
         11    1    3    3    0    0  0.99895470804E+00 -0.28405411131E+01  0.33208413355E+01  0.44826969293E+01  0.51100000000E-03 0. -1.
        -11    1    3    3    0    0 -0.96443444107E+00 -0.13801826638E+02  0.11189535396E+02  0.17793994913E+02  0.51100000000E-03 0.  1.
        -12    1    3    3    0    0 -0.32722670835E+01 -0.22252812332E+02  0.79795192444E+01  0.23865626242E+02  0.00000000000E+00 0.  1.
</event>
<event>
 7    1  0.2395003E-008  0.4614232E+02  0.7816164E-02  0.1320468E+00
        -11   -1    0    0    0    0  0.00000000000E+00  0.00000000000E+00  0.45593999997E+02  0.45594000000E+02  0.51100000000E-03 0.  1.
         11   -1    0    0    0    0 -0.00000000000E+00 -0.00000000000E+00 -0.45593999997E+02  0.45594000000E+02  0.51100000000E-03 0. -1.
    9900012    2    1    2    0    0 -0.25667817059E+02 -0.37010568915E+02  0.70315482874E+00  0.46142317957E+02  0.10000001789E+02 0.  0.
         12    1    1    2    0    0  0.25667817059E+02  0.37010568915E+02 -0.70315482874E+00  0.45045682043E+02  0.00000000000E+00 0. -1.
         11    1    3    3    0    0 -0.88579838524E+01 -0.58911412240E+01 -0.11155601279E+01  0.10696443218E+02  0.51100000000E-03 0. -1.
        -11    1    3    3    0    0 -0.78947134126E+01 -0.13380608591E+02  0.37827879509E+00  0.15540601058E+02  0.51100000000E-03 0.  1.
         12    1    3    3    0    0 -0.89151197936E+01 -0.17738819100E+02  0.14404361616E+01  0.19905273682E+02  0.00000000000E+00 0. -1.
</event>
<event>
 7    1  0.2395003E-008  0.4614232E+02  0.7816164E-02  0.1320468E+00
        -11   -1    0    0    0    0  0.00000000000E+00  0.00000000000E+00  0.45593999997E+02  0.45594000000E+02  0.51100000000E-03 0.  1.
         11   -1    0    0    0    0 -0.00000000000E+00 -0.00000000000E+00 -0.45593999997E+02  0.45594000000E+02  0.51100000000E-03 0. -1.
    9900012    2    1    2    0    0  0.14612452383E+02  0.79003029348E+01  0.41870931552E+02  0.46142318074E+02  0.10000002855E+02 0.  0.
         12    1    1    2    0    0 -0.14612452383E+02 -0.79003029348E+01 -0.41870931552E+02  0.45045681926E+02  0.00000000000E+00 0. -1.
         11    1    3    3    0    0  0.21835608139E+01  0.41802018439E+01  0.98439210641E+01  0.10915347336E+02  0.51100000000E-03 0.  1.
        -11    1    3    3    0    0  0.66695676089E+01  0.41120426011E+01  0.11587528818E+02  0.13987953775E+02  0.51100000000E-03 0. -1.
         12    1    3    3    0    0  0.57593239602E+01 -0.39194151023E+00  0.20439481670E+02  0.21239016963E+02  0.00000000000E+00 0. -1.
</event>
<event>
 7    1  0.2395003E-008  0.4614232E+02  0.7816164E-02  0.1320468E+00
        -11   -1    0    0    0    0  0.00000000000E+00  0.00000000000E+00  0.45593999997E+02  0.45594000000E+02  0.51100000000E-03 0. -1.
         11   -1    0    0    0    0 -0.00000000000E+00 -0.00000000000E+00 -0.45593999997E+02  0.45594000000E+02  0.51100000000E-03 0.  1.
    9900012    2    1    2    0    0  0.33272764475E+02 -0.27769308524E+02 -0.12284224020E+02  0.46142317504E+02  0.99999976558E+01 0.  0.
         12    1    1    2    0    0 -0.33272764475E+02  0.27769308524E+02  0.12284224020E+02  0.45045682496E+02  0.00000000000E+00 0. -1.
         11    1    3    3    0    0  0.55517696683E-01  0.27629086364E+00  0.60659488428E+00  0.66886207153E+00  0.51100000000E-03 0. -1.
        -11    1    3    3    0    0  0.17191224889E+02 -0.12960918497E+02 -0.50889358673E+01  0.22122858992E+02  0.51100000000E-03 0.  1.
        -12    1    3    3    0    0  0.16026021890E+02 -0.15084680891E+02 -0.78018830370E+01  0.23350596440E+02  0.00000000000E+00 0.  1.
</event>
<event>
 7    1  0.2395003E-008  0.4614232E+02  0.7816164E-02  0.1320468E+00
        -11   -1    0    0    0    0  0.00000000000E+00  0.00000000000E+00  0.45593999997E+02  0.45594000000E+02  0.51100000000E-03 0.  1.
         11   -1    0    0    0    0 -0.00000000000E+00 -0.00000000000E+00 -0.45593999997E+02  0.45594000000E+02  0.51100000000E-03 0. -1.
    9900012    2    1    2    0    0 -0.21175064607E+02 -0.30369384374E+02  0.25659901960E+02  0.46142318332E+02  0.10000005202E+02 0.  0.
         12    1    1    2    0    0  0.21175064607E+02  0.30369384374E+02 -0.25659901960E+02  0.45045681668E+02  0.00000000000E+00 0. -1.
         11    1    3    3    0    0 -0.72348586671E+01 -0.54766662699E+01  0.82957072018E+01  0.12294543977E+02  0.51100000000E-03 0. -1.
        -11    1    3    3    0    0 -0.91676961825E+00 -0.11191790489E+01 -0.32083276503E+00  0.14818779304E+01  0.51100000000E-03 0.  1.
        -12    1    3    3    0    0 -0.13023436321E+02 -0.23773539055E+02  0.17685027524E+02  0.32365896424E+02  0.00000000000E+00 0.  1.
</event>
<event>
 7    1  0.2395003E-008  0.4614232E+02  0.7816164E-02  0.1320468E+00
        -11   -1    0    0    0    0  0.00000000000E+00  0.00000000000E+00  0.45593999997E+02  0.45594000000E+02  0.51100000000E-03 0.  1.
         11   -1    0    0    0    0 -0.00000000000E+00 -0.00000000000E+00 -0.45593999997E+02  0.45594000000E+02  0.51100000000E-03 0. -1.
    9900012    2    1    2    0    0  0.18738598448E+02 -0.40959874224E+02  0.51676267983E+00  0.46142318610E+02  0.10000007743E+02 0.  0.
         12    1    1    2    0    0 -0.18738598448E+02  0.40959874224E+02 -0.51676267983E+00  0.45045681390E+02  0.00000000000E+00 0. -1.
         11    1    3    3    0    0 -0.17884188353E+00 -0.25964267726E+01  0.12720680249E+00  0.26056857517E+01  0.51100000000E-03 0. -1.
        -11    1    3    3    0    0  0.14704588871E+02 -0.23314353189E+02  0.28706537007E+01  0.27713257683E+02  0.51100000000E-03 0.  1.
         12    1    3    3    0    0  0.42128514608E+01 -0.15049094262E+02 -0.24810978234E+01  0.15823375175E+02  0.00000000000E+00 0. -1.
</event>
<event>
 7    1  0.2395003E-008  0.4614232E+02  0.7816164E-02  0.1320468E+00
        -11   -1    0    0    0    0  0.00000000000E+00  0.00000000000E+00  0.45593999997E+02  0.45594000000E+02  0.51100000000E-03 0.  1.
         11   -1    0    0    0    0 -0.00000000000E+00 -0.00000000000E+00 -0.45593999997E+02  0.45594000000E+02  0.51100000000E-03 0. -1.
    9900012    2    1    2    0    0 -0.35607794997E+02 -0.27589299372E+02  0.17043828963E+00  0.46142317037E+02  0.99999933963E+01 0.  0.
         12    1    1    2    0    0  0.35607794997E+02  0.27589299372E+02 -0.17043828963E+00  0.45045682963E+02  0.00000000000E+00 0. -1.
         11    1    3    3    0    0 -0.65731228301E+01 -0.87326735774E+01  0.27254689541E+01  0.11264710952E+02  0.51100000000E-03 0. -1.
        -11    1    3    3    0    0 -0.99271790883E+01 -0.71570715767E+01  0.59401713533E+00  0.12252567683E+02  0.51100000000E-03 0.  1.
         12    1    3    3    0    0 -0.19107493079E+02 -0.11699554218E+02 -0.31490477998E+01  0.22625038402E+02  0.00000000000E+00 0. -1.
</event>
<event>
 7    1  0.2395003E-008  0.4614232E+02  0.7816164E-02  0.1320468E+00
        -11   -1    0    0    0    0  0.00000000000E+00  0.00000000000E+00  0.45593999997E+02  0.45594000000E+02  0.51100000000E-03 0. -1.
         11   -1    0    0    0    0 -0.00000000000E+00 -0.00000000000E+00 -0.45593999997E+02  0.45594000000E+02  0.51100000000E-03 0.  1.
    9900012    2    1    2    0    0  0.26230437769E+02  0.36419547760E+02 -0.38332982899E+01  0.46142317628E+02  0.99999987854E+01 0.  0.
         12    1    1    2    0    0 -0.26230437769E+02 -0.36419547760E+02  0.38332982899E+01  0.45045682372E+02  0.00000000000E+00 0. -1.
         11    1    3    3    0    0  0.71674269694E+00  0.71649197780E+00 -0.79566039334E+00  0.12884706324E+01  0.51100000000E-03 0. -1.
        -11    1    3    3    0    0  0.17173820011E+02  0.23778957188E+02 -0.61584414597E+01  0.29971741694E+02  0.51100000000E-03 0.  1.
        -12    1    3    3    0    0  0.83398750615E+01  0.11924098594E+02  0.31208035632E+01  0.14882105302E+02  0.00000000000E+00 0.  1.
</event>
<event>
 7    1  0.2395003E-008  0.4614232E+02  0.7816164E-02  0.1320468E+00
        -11   -1    0    0    0    0  0.00000000000E+00  0.00000000000E+00  0.45593999997E+02  0.45594000000E+02  0.51100000000E-03 0.  1.
         11   -1    0    0    0    0 -0.00000000000E+00 -0.00000000000E+00 -0.45593999997E+02  0.45594000000E+02  0.51100000000E-03 0. -1.
    9900012    2    1    2    0    0  0.21802346406E+01 -0.43862353669E+02  0.10022673725E+02  0.46142317842E+02  0.10000000742E+02 0.  0.
         12    1    1    2    0    0 -0.21802346406E+01  0.43862353669E+02 -0.10022673725E+02  0.45045682158E+02  0.00000000000E+00 0. -1.
         11    1    3    3    0    0 -0.12339071863E+00 -0.40719720310E+01 -0.84836077591E+00  0.41612375273E+01  0.51100000000E-03 0. -1.
        -11    1    3    3    0    0  0.13061669642E+01 -0.38787741119E+01 -0.87282456392E+00  0.41848278018E+01  0.51100000000E-03 0.  1.
        -12    1    3    3    0    0  0.99745839505E+00 -0.35911607526E+02  0.11743859064E+02  0.37796252513E+02  0.00000000000E+00 0.  1.
</event>
<event>
 7    1  0.2395003E-008  0.4614232E+02  0.7816164E-02  0.1320468E+00
        -11   -1    0    0    0    0  0.00000000000E+00  0.00000000000E+00  0.45593999997E+02  0.45594000000E+02  0.51100000000E-03 0.  1.
         11   -1    0    0    0    0 -0.00000000000E+00 -0.00000000000E+00 -0.45593999997E+02  0.45594000000E+02  0.51100000000E-03 0. -1.
    9900012    2    1    2    0    0  0.23881302017E+02  0.33844145597E+02  0.17702282202E+02  0.46142316829E+02  0.99999914984E+01 0.  0.
         12    1    1    2    0    0 -0.23881302017E+02 -0.33844145597E+02 -0.17702282202E+02  0.45045683171E+02  0.00000000000E+00 0. -1.
         11    1    3    3    0    0  0.89327008699E+01  0.16879744407E+02  0.11718284022E+02  0.22406184341E+02  0.51100000000E-03 0. -1.
        -11    1    3    3    0    0  0.80730099501E+01  0.92932523221E+01  0.53284840684E+01  0.13413827608E+02  0.51100000000E-03 0.  1.
         12    1    3    3    0    0  0.68755911970E+01  0.76711488681E+01  0.65551411134E+00  0.10322304879E+02  0.00000000000E+00 0. -1.
</event>
<event>
 7    1  0.2395003E-008  0.4614231E+02  0.7816164E-02  0.1320468E+00
        -11   -1    0    0    0    0  0.00000000000E+00  0.00000000000E+00  0.45593999997E+02  0.45594000000E+02  0.51100000000E-03 0.  1.
         11   -1    0    0    0    0 -0.00000000000E+00 -0.00000000000E+00 -0.45593999997E+02  0.45594000000E+02  0.51100000000E-03 0. -1.
    9900012    2    1    2    0    0 -0.10895340427E+02 -0.15997667149E+02  0.40675300027E+02  0.46142313974E+02  0.99999654636E+01 0.  0.
         12    1    1    2    0    0  0.10895340427E+02  0.15997667149E+02 -0.40675300027E+02  0.45045686026E+02  0.00000000000E+00 0. -1.
         11    1    3    3    0    0 -0.22120865370E+01  0.20479447215E+00  0.87360385508E+01  0.90140799556E+01  0.51100000000E-03 0. -1.
        -11    1    3    3    0    0 -0.21250417133E+01 -0.95760428816E+00  0.42106533395E+01  0.48127341567E+01  0.51100000000E-03 0.  1.
        -12    1    3    3    0    0 -0.65582121772E+01 -0.15244857333E+02  0.27728608137E+02  0.32315499861E+02  0.00000000000E+00 0.  1.
</event>
<event>
 7    1  0.2395003E-008  0.4614231E+02  0.7816164E-02  0.1320468E+00
        -11   -1    0    0    0    0  0.00000000000E+00  0.00000000000E+00  0.45593999997E+02  0.45594000000E+02  0.51100000000E-03 0.  1.
         11   -1    0    0    0    0 -0.00000000000E+00 -0.00000000000E+00 -0.45593999997E+02  0.45594000000E+02  0.51100000000E-03 0. -1.
    9900012    2    1    2    0    0  0.84998014661E+01 -0.83835132315E+01  0.43434826177E+02  0.46142311592E+02  0.99999437478E+01 0.  0.
         12    1    1    2    0    0 -0.84998014661E+01  0.83835132315E+01 -0.43434826177E+02  0.45045688408E+02  0.00000000000E+00 0. -1.
         11    1    3    3    0    0  0.15532530759E+01 -0.55441983485E+01  0.78923158159E+01  0.97693080433E+01  0.51100000000E-03 0. -1.
        -11    1    3    3    0    0  0.39179420893E+01 -0.25618152789E+01  0.20852444401E+02  0.21371420297E+02  0.51100000000E-03 0.  1.
        -12    1    3    3    0    0  0.30286063009E+01 -0.27749960406E+00  0.14690065960E+02  0.15001583252E+02  0.00000000000E+00 0.  1.
</event>
<event>
 7    1  0.2395003E-008  0.4614232E+02  0.7816164E-02  0.1320468E+00
        -11   -1    0    0    0    0  0.00000000000E+00  0.00000000000E+00  0.45593999997E+02  0.45594000000E+02  0.51100000000E-03 0. -1.
         11   -1    0    0    0    0 -0.00000000000E+00 -0.00000000000E+00 -0.45593999997E+02  0.45594000000E+02  0.51100000000E-03 0.  1.
    9900012    2    1    2    0    0  0.37093558834E+02 -0.18660018091E+02 -0.17463821498E+02  0.46142318260E+02  0.10000004546E+02 0.  0.
         12    1    1    2    0    0 -0.37093558834E+02  0.18660018091E+02  0.17463821498E+02  0.45045681740E+02  0.00000000000E+00 0. -1.
         11    1    3    3    0    0  0.69949785762E+01 -0.55684488580E+01 -0.14747340042E+01  0.90615776005E+01  0.51100000000E-03 0. -1.
        -11    1    3    3    0    0  0.18382420465E+02 -0.49380734091E+01 -0.74012873586E+01  0.20422463269E+02  0.51100000000E-03 0.  1.
        -12    1    3    3    0    0  0.11716159792E+02 -0.81534958240E+01 -0.85878001354E+01  0.16658277390E+02  0.00000000000E+00 0.  1.
</event>
<event>
 7    1  0.2395003E-008  0.4614232E+02  0.7816164E-02  0.1320468E+00
        -11   -1    0    0    0    0  0.00000000000E+00  0.00000000000E+00  0.45593999997E+02  0.45594000000E+02  0.51100000000E-03 0.  1.
         11   -1    0    0    0    0 -0.00000000000E+00 -0.00000000000E+00 -0.45593999997E+02  0.45594000000E+02  0.51100000000E-03 0. -1.
    9900012    2    1    2    0    0  0.28042097960E+02  0.17618162499E+01  0.35208667344E+02  0.46142317514E+02  0.99999977468E+01 0.  0.
         12    1    1    2    0    0 -0.28042097960E+02 -0.17618162499E+01 -0.35208667344E+02  0.45045682486E+02  0.00000000000E+00 0. -1.
         11    1    3    3    0    0  0.10862833499E+02  0.55272593050E+01  0.14131554107E+02  0.18661526433E+02  0.51100000000E-03 0. -1.
        -11    1    3    3    0    0  0.80045539037E+01 -0.11925246074E+01  0.91717527413E+01  0.12231763844E+02  0.51100000000E-03 0.  1.
         12    1    3    3    0    0  0.91747105569E+01 -0.25729184477E+01  0.11905360495E+02  0.15249027237E+02  0.00000000000E+00 0. -1.
</event>
<event>
 7    1  0.2395003E-008  0.4614232E+02  0.7816164E-02  0.1320468E+00
        -11   -1    0    0    0    0  0.00000000000E+00  0.00000000000E+00  0.45593999997E+02  0.45594000000E+02  0.51100000000E-03 0. -1.
         11   -1    0    0    0    0 -0.00000000000E+00 -0.00000000000E+00 -0.45593999997E+02  0.45594000000E+02  0.51100000000E-03 0.  1.
    9900012    2    1    2    0    0 -0.26753376418E+02  0.22388576704E+02  0.28497753896E+02  0.46142317701E+02  0.99999994537E+01 0.  0.
         12    1    1    2    0    0  0.26753376418E+02 -0.22388576704E+02 -0.28497753896E+02  0.45045682299E+02  0.00000000000E+00 0. -1.
         11    1    3    3    0    0 -0.35933658991E+01  0.73321093810E+01  0.89478674606E+01  0.12113481697E+02  0.51100000000E-03 0. -1.
        -11    1    3    3    0    0 -0.15764300486E+02  0.82355863918E+01  0.12152591188E+02  0.21541205302E+02  0.51100000000E-03 0.  1.
        -12    1    3    3    0    0 -0.73957100338E+01  0.68208809314E+01  0.73972952478E+01  0.12487630703E+02  0.00000000000E+00 0.  1.
</event>
<event>
 7    1  0.2395003E-008  0.4614232E+02  0.7816164E-02  0.1320468E+00
        -11   -1    0    0    0    0  0.00000000000E+00  0.00000000000E+00  0.45593999997E+02  0.45594000000E+02  0.51100000000E-03 0.  1.
         11   -1    0    0    0    0 -0.00000000000E+00 -0.00000000000E+00 -0.45593999997E+02  0.45594000000E+02  0.51100000000E-03 0. -1.
    9900012    2    1    2    0    0  0.17633819795E+02 -0.35448942845E+02  0.21483350586E+02  0.46142317612E+02  0.99999986400E+01 0.  0.
         12    1    1    2    0    0 -0.17633819795E+02  0.35448942845E+02 -0.21483350586E+02  0.45045682388E+02  0.00000000000E+00 0. -1.
         11    1    3    3    0    0 -0.12127101515E+01 -0.11906100789E+01  0.86781249263E+00  0.19082235338E+01  0.51100000000E-03 0. -1.
        -11    1    3    3    0    0  0.10415524731E+02 -0.17869466827E+02  0.11652549692E+02  0.23739901320E+02  0.51100000000E-03 0.  1.
        -12    1    3    3    0    0  0.84310052161E+01 -0.16388865939E+02  0.89629884008E+01  0.20494192758E+02  0.00000000000E+00 0.  1.
</event>
<event>
 7    1  0.2395003E-008  0.4614232E+02  0.7816164E-02  0.1320468E+00
        -11   -1    0    0    0    0  0.00000000000E+00  0.00000000000E+00  0.45593999997E+02  0.45594000000E+02  0.51100000000E-03 0. -1.
         11   -1    0    0    0    0 -0.00000000000E+00 -0.00000000000E+00 -0.45593999997E+02  0.45594000000E+02  0.51100000000E-03 0.  1.
    9900012    2    1    2    0    0 -0.28937665425E+02 -0.29259928280E+02  0.18318882918E+02  0.46142319246E+02  0.10000013542E+02 0.  0.
         12    1    1    2    0    0  0.28937665425E+02  0.29259928280E+02 -0.18318882918E+02  0.45045680754E+02  0.00000000000E+00 0. -1.
         11    1    3    3    0    0 -0.10189046100E+02 -0.11477075080E+02  0.37268367152E+01  0.15793328496E+02  0.51100000000E-03 0. -1.
        -11    1    3    3    0    0 -0.49185341689E+01 -0.23821099677E+01  0.91937253840E+00  0.55418112918E+01  0.51100000000E-03 0.  1.
         12    1    3    3    0    0 -0.13830085157E+02 -0.15400743232E+02  0.13672673665E+02  0.24807179458E+02  0.00000000000E+00 0. -1.
</event>
<event>
 7    1  0.2395003E-008  0.4614232E+02  0.7816164E-02  0.1320468E+00
        -11   -1    0    0    0    0  0.00000000000E+00  0.00000000000E+00  0.45593999997E+02  0.45594000000E+02  0.51100000000E-03 0.  1.
         11   -1    0    0    0    0 -0.00000000000E+00 -0.00000000000E+00 -0.45593999997E+02  0.45594000000E+02  0.51100000000E-03 0. -1.
    9900012    2    1    2    0    0 -0.19513876630E+02  0.24851233411E+02  0.32105113101E+02  0.46142317961E+02  0.10000001820E+02 0.  0.
         12    1    1    2    0    0  0.19513876630E+02 -0.24851233411E+02 -0.32105113101E+02  0.45045682039E+02  0.00000000000E+00 0. -1.
         11    1    3    3    0    0  0.30850937755E-01  0.37597154791E+00  0.18200766848E+01  0.18587592057E+01  0.51100000000E-03 0. -1.
        -11    1    3    3    0    0 -0.76479142761E+01  0.53963044010E+01  0.12497902298E+02  0.15614360572E+02  0.51100000000E-03 0.  1.
         12    1    3    3    0    0 -0.11896813292E+02  0.19078957462E+02  0.17787134118E+02  0.28669198183E+02  0.00000000000E+00 0. -1.
</event>
<event>
 7    1  0.2395003E-008  0.4614232E+02  0.7816164E-02  0.1320468E+00
        -11   -1    0    0    0    0  0.00000000000E+00  0.00000000000E+00  0.45593999997E+02  0.45594000000E+02  0.51100000000E-03 0.  1.
         11   -1    0    0    0    0 -0.00000000000E+00 -0.00000000000E+00 -0.45593999997E+02  0.45594000000E+02  0.51100000000E-03 0. -1.
    9900012    2    1    2    0    0  0.21843926868E+02  0.36157165610E+02  0.15640195832E+02  0.46142317725E+02  0.99999996699E+01 0.  0.
         12    1    1    2    0    0 -0.21843926868E+02 -0.36157165610E+02 -0.15640195832E+02  0.45045682275E+02  0.00000000000E+00 0. -1.
         11    1    3    3    0    0  0.66681495703E+00  0.56914028365E+01  0.40815928650E+01  0.70353471138E+01  0.51100000000E-03 0. -1.
        -11    1    3    3    0    0  0.10527999989E+02  0.18785095477E+02  0.60441202347E+01  0.22366268922E+02  0.51100000000E-03 0.  1.
         12    1    3    3    0    0  0.10649111922E+02  0.11680667297E+02  0.55144827326E+01  0.16740701689E+02  0.00000000000E+00 0. -1.
</event>
<event>
 7    1  0.2395003E-008  0.4614232E+02  0.7816164E-02  0.1320468E+00
        -11   -1    0    0    0    0  0.00000000000E+00  0.00000000000E+00  0.45593999997E+02  0.45594000000E+02  0.51100000000E-03 0. -1.
         11   -1    0    0    0    0 -0.00000000000E+00 -0.00000000000E+00 -0.45593999997E+02  0.45594000000E+02  0.51100000000E-03 0.  1.
    9900012    2    1    2    0    0 -0.99851135739E+01 -0.34597119962E+02 -0.27063820565E+02  0.46142316674E+02  0.99999900898E+01 0.  0.
         12    1    1    2    0    0  0.99851135739E+01  0.34597119962E+02  0.27063820565E+02  0.45045683326E+02  0.00000000000E+00 0. -1.
         11    1    3    3    0    0 -0.65989882096E-01 -0.47789725336E+01 -0.32851096238E+00  0.47907048390E+01  0.51100000000E-03 0. -1.
        -11    1    3    3    0    0 -0.53810093163E+01 -0.12818593288E+02 -0.12953767495E+02  0.19001886426E+02  0.51100000000E-03 0.  1.
        -12    1    3    3    0    0 -0.45381143755E+01 -0.16999554140E+02 -0.13781542107E+02  0.22349725410E+02  0.00000000000E+00 0.  1.
</event>
<event>
 7    1  0.2395003E-008  0.4614232E+02  0.7816164E-02  0.1320468E+00
        -11   -1    0    0    0    0  0.00000000000E+00  0.00000000000E+00  0.45593999997E+02  0.45594000000E+02  0.51100000000E-03 0.  1.
         11   -1    0    0    0    0 -0.00000000000E+00 -0.00000000000E+00 -0.45593999997E+02  0.45594000000E+02  0.51100000000E-03 0. -1.
    9900012    2    1    2    0    0 -0.17626600735E+02  0.29205832055E+02  0.29418290682E+02  0.46142317564E+02  0.99999982002E+01 0.  0.
         12    1    1    2    0    0  0.17626600735E+02 -0.29205832055E+02 -0.29418290682E+02  0.45045682436E+02  0.00000000000E+00 0. -1.
         11    1    3    3    0    0  0.26185910189E+00  0.24552079755E+01  0.33704568409E+01  0.41781091380E+01  0.51100000000E-03 0. -1.
        -11    1    3    3    0    0 -0.12503249278E+02  0.23405354648E+02  0.21671877652E+02  0.34260942047E+02  0.51100000000E-03 0.  1.
         12    1    3    3    0    0 -0.53852105591E+01  0.33452694316E+01  0.43759561883E+01  0.77032663785E+01  0.00000000000E+00 0. -1.
</event>
<event>
 7    1  0.2395003E-008  0.4614232E+02  0.7816164E-02  0.1320468E+00
        -11   -1    0    0    0    0  0.00000000000E+00  0.00000000000E+00  0.45593999997E+02  0.45594000000E+02  0.51100000000E-03 0. -1.
         11   -1    0    0    0    0 -0.00000000000E+00 -0.00000000000E+00 -0.45593999997E+02  0.45594000000E+02  0.51100000000E-03 0.  1.
    9900012    2    1    2    0    0  0.29984009497E+02 -0.23693354897E+02 -0.23847381618E+02  0.46142317612E+02  0.99999986388E+01 0.  0.
         12    1    1    2    0    0 -0.29984009497E+02  0.23693354897E+02  0.23847381618E+02  0.45045682388E+02  0.00000000000E+00 0. -1.
         11    1    3    3    0    0  0.69201605255E-01  0.12260106089E+00 -0.34486428487E+00  0.37249364880E+00  0.51100000000E-03 0. -1.
        -11    1    3    3    0    0  0.22384619366E+02 -0.21686940938E+02 -0.20887454945E+02  0.37519066696E+02  0.51100000000E-03 0.  1.
        -12    1    3    3    0    0  0.75301885252E+01 -0.21290150199E+01 -0.26150623881E+01  0.82507572667E+01  0.00000000000E+00 0.  1.
</event>
<event>
 7    1  0.2395003E-008  0.4614232E+02  0.7816164E-02  0.1320468E+00
        -11   -1    0    0    0    0  0.00000000000E+00  0.00000000000E+00  0.45593999997E+02  0.45594000000E+02  0.51100000000E-03 0.  1.
         11   -1    0    0    0    0 -0.00000000000E+00 -0.00000000000E+00 -0.45593999997E+02  0.45594000000E+02  0.51100000000E-03 0. -1.
    9900012    2    1    2    0    0  0.10125756985E+02 -0.15870403431E+02  0.40923254975E+02  0.46142318106E+02  0.10000003141E+02 0.  0.
         12    1    1    2    0    0 -0.10125756985E+02  0.15870403431E+02 -0.40923254975E+02  0.45045681894E+02  0.00000000000E+00 0. -1.
         11    1    3    3    0    0  0.46343841100E+01 -0.72944772657E+01  0.11785366692E+02  0.14614437485E+02  0.51100000000E-03 0. -1.
        -11    1    3    3    0    0  0.36063294085E+01 -0.72792931800E+01  0.13747249019E+02  0.15968111249E+02  0.51100000000E-03 0.  1.
         12    1    3    3    0    0  0.18850434667E+01 -0.12966329858E+01  0.15390639263E+02  0.15559769372E+02  0.00000000000E+00 0. -1.
</event>
<event>
 7    1  0.2395003E-008  0.4614232E+02  0.7816164E-02  0.1320468E+00
        -11   -1    0    0    0    0  0.00000000000E+00  0.00000000000E+00  0.45593999997E+02  0.45594000000E+02  0.51100000000E-03 0.  1.
         11   -1    0    0    0    0 -0.00000000000E+00 -0.00000000000E+00 -0.45593999997E+02  0.45594000000E+02  0.51100000000E-03 0. -1.
    9900012    2    1    2    0    0 -0.14319555534E+02 -0.95150734371E+01  0.41635646825E+02  0.46142318967E+02  0.10000010995E+02 0.  0.
         12    1    1    2    0    0  0.14319555534E+02  0.95150734371E+01 -0.41635646825E+02  0.45045681033E+02  0.00000000000E+00 0. -1.
         11    1    3    3    0    0 -0.13067724494E+02 -0.97693954722E+01  0.32067641186E+02  0.35979718215E+02  0.51100000000E-03 0. -1.
        -11    1    3    3    0    0  0.15588789849E-02  0.62701254483E-02  0.84924998665E+01  0.84925023396E+01  0.51100000000E-03 0.  1.
         12    1    3    3    0    0 -0.12533899193E+01  0.24805190967E+00  0.10755057724E+01  0.16700984121E+01  0.00000000000E+00 0. -1.
</event>
<event>
 7    1  0.2395003E-008  0.4614232E+02  0.7816164E-02  0.1320468E+00
        -11   -1    0    0    0    0  0.00000000000E+00  0.00000000000E+00  0.45593999997E+02  0.45594000000E+02  0.51100000000E-03 0.  1.
         11   -1    0    0    0    0 -0.00000000000E+00 -0.00000000000E+00 -0.45593999997E+02  0.45594000000E+02  0.51100000000E-03 0. -1.
    9900012    2    1    2    0    0  0.27812213502E+02 -0.22943965229E+02  0.27003122305E+02  0.46142319025E+02  0.10000011522E+02 0.  0.
         12    1    1    2    0    0 -0.27812213502E+02  0.22943965229E+02 -0.27003122305E+02  0.45045680975E+02  0.00000000000E+00 0. -1.
         11    1    3    3    0    0  0.86131706719E+01 -0.79067123935E+01  0.47332124344E+01  0.12613727051E+02  0.51100000000E-03 0. -1.
        -11    1    3    3    0    0  0.96631577558E+01 -0.45830281029E+01  0.74216257321E+01  0.13017729955E+02  0.51100000000E-03 0.  1.
        -12    1    3    3    0    0  0.95358850739E+01 -0.10454224733E+02  0.14848284139E+02  0.20510862019E+02  0.00000000000E+00 0.  1.
</event>
<event>
 7    1  0.2395003E-008  0.4614232E+02  0.7816164E-02  0.1320468E+00
        -11   -1    0    0    0    0  0.00000000000E+00  0.00000000000E+00  0.45593999997E+02  0.45594000000E+02  0.51100000000E-03 0. -1.
         11   -1    0    0    0    0 -0.00000000000E+00 -0.00000000000E+00 -0.45593999997E+02  0.45594000000E+02  0.51100000000E-03 0.  1.
    9900012    2    1    2    0    0 -0.14156086545E+02  0.27264116295E+02 -0.32945207352E+02  0.46142317509E+02  0.99999977005E+01 0.  0.
         12    1    1    2    0    0  0.14156086545E+02 -0.27264116295E+02  0.32945207352E+02  0.45045682491E+02  0.00000000000E+00 0. -1.
         11    1    3    3    0    0 -0.32566413689E+01  0.74887764629E+01 -0.53640311519E+01  0.97703795411E+01  0.51100000000E-03 0. -1.
        -11    1    3    3    0    0 -0.65961729965E+01  0.74312065896E+01 -0.76678957035E+01  0.12551053914E+02  0.51100000000E-03 0.  1.
        -12    1    3    3    0    0 -0.43032721793E+01  0.12344133243E+02 -0.19913280496E+02  0.23820884054E+02  0.00000000000E+00 0.  1.
</event>
<event>
 7    1  0.2395003E-008  0.4614232E+02  0.7816164E-02  0.1320468E+00
        -11   -1    0    0    0    0  0.00000000000E+00  0.00000000000E+00  0.45593999997E+02  0.45594000000E+02  0.51100000000E-03 0.  1.
         11   -1    0    0    0    0 -0.00000000000E+00 -0.00000000000E+00 -0.45593999997E+02  0.45594000000E+02  0.51100000000E-03 0. -1.
    9900012    2    1    2    0    0 -0.14723985418E+02 -0.16067362471E+02  0.39422805397E+02  0.46142317979E+02  0.10000001982E+02 0.  0.
         12    1    1    2    0    0  0.14723985418E+02  0.16067362471E+02 -0.39422805397E+02  0.45045682021E+02  0.00000000000E+00 0. -1.
         11    1    3    3    0    0 -0.14031091612E+01 -0.10364855784E+01  0.85853046728E+01  0.87607348012E+01  0.51100000000E-03 0. -1.
        -11    1    3    3    0    0 -0.59383536289E+01 -0.61605987686E+01  0.19059028809E+02  0.20891711285E+02  0.51100000000E-03 0.  1.
         12    1    3    3    0    0 -0.73825226281E+01 -0.88702781243E+01  0.11778471916E+02  0.16489871892E+02  0.00000000000E+00 0. -1.
</event>
<event>
 7    1  0.2395003E-008  0.4614232E+02  0.7816164E-02  0.1320468E+00
        -11   -1    0    0    0    0  0.00000000000E+00  0.00000000000E+00  0.45593999997E+02  0.45594000000E+02  0.51100000000E-03 0.  1.
         11   -1    0    0    0    0 -0.00000000000E+00 -0.00000000000E+00 -0.45593999997E+02  0.45594000000E+02  0.51100000000E-03 0. -1.
    9900012    2    1    2    0    0 -0.42229613327E+02  0.15596648802E+02  0.15867727748E+01  0.46142317150E+02  0.99999944249E+01 0.  0.
         12    1    1    2    0    0  0.42229613327E+02 -0.15596648802E+02 -0.15867727748E+01  0.45045682850E+02  0.00000000000E+00 0. -1.
         11    1    3    3    0    0 -0.13028046374E+01 -0.85579516556E+00 -0.92353883851E-01  0.15614783987E+01  0.51100000000E-03 0. -1.
        -11    1    3    3    0    0 -0.86292077282E+01  0.29092448978E+01 -0.21297281875E+01  0.93521481119E+01  0.51100000000E-03 0.  1.
         12    1    3    3    0    0 -0.32297600961E+02  0.13543199070E+02  0.38088548462E+01  0.35228690639E+02  0.00000000000E+00 0. -1.
</event>
<event>
 7    1  0.2395003E-008  0.4614232E+02  0.7816164E-02  0.1320468E+00
        -11   -1    0    0    0    0  0.00000000000E+00  0.00000000000E+00  0.45593999997E+02  0.45594000000E+02  0.51100000000E-03 0.  1.
         11   -1    0    0    0    0 -0.00000000000E+00 -0.00000000000E+00 -0.45593999997E+02  0.45594000000E+02  0.51100000000E-03 0. -1.
    9900012    2    1    2    0    0  0.13258950977E+02  0.97419647660E+01  0.41933373421E+02  0.46142318021E+02  0.10000002367E+02 0.  0.
         12    1    1    2    0    0 -0.13258950977E+02 -0.97419647660E+01 -0.41933373421E+02  0.45045681979E+02  0.00000000000E+00 0. -1.
         11    1    3    3    0    0  0.10801256667E+01  0.45536311067E+01  0.52565964081E+01  0.70380418989E+01  0.51100000000E-03 0. -1.
        -11    1    3    3    0    0  0.61406726781E+01  0.31965877616E+01  0.15122511791E+02  0.16631788761E+02  0.51100000000E-03 0.  1.
        -12    1    3    3    0    0  0.60381526324E+01  0.19917458977E+01  0.21554265222E+02  0.22472487361E+02  0.00000000000E+00 0.  1.
</event>
<event>
 7    1  0.2395003E-008  0.4614232E+02  0.7816164E-02  0.1320468E+00
        -11   -1    0    0    0    0  0.00000000000E+00  0.00000000000E+00  0.45593999997E+02  0.45594000000E+02  0.51100000000E-03 0.  1.
         11   -1    0    0    0    0 -0.00000000000E+00 -0.00000000000E+00 -0.45593999997E+02  0.45594000000E+02  0.51100000000E-03 0. -1.
    9900012    2    1    2    0    0  0.28881995607E+02 -0.28598171636E+02  0.19418764457E+02  0.46142317586E+02  0.99999984010E+01 0.  0.
         12    1    1    2    0    0 -0.28881995607E+02  0.28598171636E+02 -0.19418764457E+02  0.45045682414E+02  0.00000000000E+00 0. -1.
         11    1    3    3    0    0  0.79551669326E+01 -0.93464397432E+01  0.57683132974E+01  0.13561491635E+02  0.51100000000E-03 0. -1.
        -11    1    3    3    0    0  0.13454236819E+02 -0.15042899655E+02  0.59135407555E+01  0.21030341960E+02  0.51100000000E-03 0.  1.
        -12    1    3    3    0    0  0.74725918550E+01 -0.42088322375E+01  0.77369104041E+01  0.11550483991E+02  0.00000000000E+00 0.  1.
</event>
<event>
 7    1  0.2395003E-008  0.4614232E+02  0.7816164E-02  0.1320468E+00
        -11   -1    0    0    0    0  0.00000000000E+00  0.00000000000E+00  0.45593999997E+02  0.45594000000E+02  0.51100000000E-03 0. -1.
         11   -1    0    0    0    0 -0.00000000000E+00 -0.00000000000E+00 -0.45593999997E+02  0.45594000000E+02  0.51100000000E-03 0.  1.
    9900012    2    1    2    0    0 -0.15306524190E+02  0.22121250947E+02 -0.36131345310E+02  0.46142317186E+02  0.99999947600E+01 0.  0.
         12    1    1    2    0    0  0.15306524190E+02 -0.22121250947E+02  0.36131345310E+02  0.45045682814E+02  0.00000000000E+00 0. -1.
         11    1    3    3    0    0 -0.80525265626E+00  0.84493341083E+01 -0.12694410837E+02  0.15270486092E+02  0.51100000000E-03 0. -1.
        -11    1    3    3    0    0 -0.29938004097E+01  0.40122025869E+01 -0.48288253495E+01  0.69554413957E+01  0.51100000000E-03 0.  1.
         12    1    3    3    0    0 -0.11507471124E+02  0.96597142513E+01 -0.18608109123E+02  0.23916389699E+02  0.00000000000E+00 0. -1.
</event>
<event>
 7    1  0.2395003E-008  0.4614231E+02  0.7816164E-02  0.1320468E+00
        -11   -1    0    0    0    0  0.00000000000E+00  0.00000000000E+00  0.45593999997E+02  0.45594000000E+02  0.51100000000E-03 0.  1.
         11   -1    0    0    0    0 -0.00000000000E+00 -0.00000000000E+00 -0.45593999997E+02  0.45594000000E+02  0.51100000000E-03 0. -1.
    9900012    2    1    2    0    0  0.60149878909E+00 -0.20935981042E+02  0.39880281294E+02  0.46142312758E+02  0.99999543804E+01 0.  0.
         12    1    1    2    0    0 -0.60149878909E+00  0.20935981042E+02 -0.39880281294E+02  0.45045687242E+02  0.00000000000E+00 0. -1.
         11    1    3    3    0    0 -0.13674186980E+01 -0.15230636928E+02  0.24235139571E+02  0.28656310394E+02  0.51100000000E-03 0.  1.
        -11    1    3    3    0    0  0.14600256853E+01  0.16788908767E+00  0.12458718005E+01  0.19266703277E+01  0.51100000000E-03 0. -1.
         12    1    3    3    0    0  0.50889180181E+00 -0.58732332009E+01  0.14399269923E+02  0.15559332036E+02  0.00000000000E+00 0. -1.
</event>
<event>
 7    1  0.2395003E-008  0.4614232E+02  0.7816164E-02  0.1320468E+00
        -11   -1    0    0    0    0  0.00000000000E+00  0.00000000000E+00  0.45593999997E+02  0.45594000000E+02  0.51100000000E-03 0. -1.
         11   -1    0    0    0    0 -0.00000000000E+00 -0.00000000000E+00 -0.45593999997E+02  0.45594000000E+02  0.51100000000E-03 0.  1.
    9900012    2    1    2    0    0  0.30070726508E+01 -0.44776716382E+02 -0.38880096553E+01  0.46142318354E+02  0.10000005404E+02 0.  0.
         12    1    1    2    0    0 -0.30070726508E+01  0.44776716382E+02  0.38880096553E+01  0.45045681646E+02  0.00000000000E+00 0. -1.
         11    1    3    3    0    0  0.10569508017E+01 -0.34167693205E+00  0.29995929239E+00  0.11505928738E+01  0.51100000000E-03 0. -1.
        -11    1    3    3    0    0  0.12834903902E+01 -0.20009788034E+02 -0.45245497986E+01  0.20555060590E+02  0.51100000000E-03 0.  1.
        -12    1    3    3    0    0  0.66663145899E+00 -0.24425251416E+02  0.33658085091E+00  0.24436664890E+02  0.00000000000E+00 0.  1.
</event>
<event>
 7    1  0.2395003E-008  0.4614232E+02  0.7816164E-02  0.1320468E+00
        -11   -1    0    0    0    0  0.00000000000E+00  0.00000000000E+00  0.45593999997E+02  0.45594000000E+02  0.51100000000E-03 0.  1.
         11   -1    0    0    0    0 -0.00000000000E+00 -0.00000000000E+00 -0.45593999997E+02  0.45594000000E+02  0.51100000000E-03 0. -1.
    9900012    2    1    2    0    0  0.28176898397E+02  0.35121381687E+02  0.12901395861E+01  0.46142317466E+02  0.99999973044E+01 0.  0.
         12    1    1    2    0    0 -0.28176898397E+02 -0.35121381687E+02 -0.12901395861E+01  0.45045682534E+02  0.00000000000E+00 0. -1.
         11    1    3    3    0    0 -0.49649843282E-01  0.23124530791E+01  0.51911788375E+00  0.23705248340E+01  0.51100000000E-03 0. -1.
        -11    1    3    3    0    0  0.13523132973E+02  0.20640056440E+02  0.16192013987E+00  0.24676168131E+02  0.51100000000E-03 0.  1.
         12    1    3    3    0    0  0.14703415267E+02  0.12168872168E+02  0.60910156243E+00  0.19095624501E+02  0.00000000000E+00 0. -1.
</event>
<event>
 7    1  0.2395003E-008  0.4614232E+02  0.7816164E-02  0.1320468E+00
        -11   -1    0    0    0    0  0.00000000000E+00  0.00000000000E+00  0.45593999997E+02  0.45594000000E+02  0.51100000000E-03 0.  1.
         11   -1    0    0    0    0 -0.00000000000E+00 -0.00000000000E+00 -0.45593999997E+02  0.45594000000E+02  0.51100000000E-03 0. -1.
    9900012    2    1    2    0    0  0.13559570490E+02 -0.19578657343E+02  0.38235163419E+02  0.46142317667E+02  0.99999991387E+01 0.  0.
         12    1    1    2    0    0 -0.13559570490E+02  0.19578657343E+02 -0.38235163419E+02  0.45045682333E+02  0.00000000000E+00 0. -1.
         11    1    3    3    0    0  0.48557136897E+01 -0.61458823237E+01  0.67012882724E+01  0.10308107961E+02  0.51100000000E-03 0. -1.
        -11    1    3    3    0    0  0.10239128645E+00 -0.43541361998E+01  0.10432713969E+02  0.11305330912E+02  0.51100000000E-03 0.  1.
        -12    1    3    3    0    0  0.86014655143E+01 -0.90786388193E+01  0.21101161178E+02  0.24528878793E+02  0.00000000000E+00 0.  1.
</event>
<event>
 7    1  0.2395003E-008  0.4614232E+02  0.7816164E-02  0.1320468E+00
        -11   -1    0    0    0    0  0.00000000000E+00  0.00000000000E+00  0.45593999997E+02  0.45594000000E+02  0.51100000000E-03 0.  1.
         11   -1    0    0    0    0 -0.00000000000E+00 -0.00000000000E+00 -0.45593999997E+02  0.45594000000E+02  0.51100000000E-03 0. -1.
    9900012    2    1    2    0    0  0.12428399219E+02 -0.42389280125E+02  0.88202729388E+01  0.46142318838E+02  0.10000009817E+02 0.  0.
         12    1    1    2    0    0 -0.12428399219E+02  0.42389280125E+02 -0.88202729388E+01  0.45045681162E+02  0.00000000000E+00 0. -1.
         11    1    3    3    0    0  0.38657275150E+00  0.26951795269E+00  0.36939053050E+00  0.59877211372E+00  0.51100000000E-03 0. -1.
        -11    1    3    3    0    0  0.38618423363E+01 -0.61233197525E+01  0.41767435044E+00  0.72514359368E+01  0.51100000000E-03 0.  1.
        -12    1    3    3    0    0  0.81799841314E+01 -0.36535478325E+02  0.80332080578E+01  0.38292110787E+02  0.00000000000E+00 0.  1.
</event>
<event>
 7    1  0.2395003E-008  0.4614232E+02  0.7816164E-02  0.1320468E+00
        -11   -1    0    0    0    0  0.00000000000E+00  0.00000000000E+00  0.45593999997E+02  0.45594000000E+02  0.51100000000E-03 0. -1.
         11   -1    0    0    0    0 -0.00000000000E+00 -0.00000000000E+00 -0.45593999997E+02  0.45594000000E+02  0.51100000000E-03 0.  1.
    9900012    2    1    2    0    0  0.16306949135E+01  0.44452318184E+02 -0.71025218538E+01  0.46142316805E+02  0.99999912840E+01 0.  0.
         12    1    1    2    0    0 -0.16306949135E+01 -0.44452318184E+02  0.71025218538E+01  0.45045683195E+02  0.00000000000E+00 0. -1.
         11    1    3    3    0    0 -0.52954565728E+00  0.16665428534E+01 -0.50393423495E+00  0.18198169303E+01  0.51100000000E-03 0. -1.
        -11    1    3    3    0    0  0.14574870361E+01  0.36655003700E+02 -0.88798486263E+01  0.37743413685E+02  0.51100000000E-03 0.  1.
        -12    1    3    3    0    0  0.70275353473E+00  0.61307716299E+01  0.22812610075E+01  0.65790861898E+01  0.00000000000E+00 0.  1.
</event>
<event>
 7    1  0.2395003E-008  0.4614232E+02  0.7816164E-02  0.1320468E+00
        -11   -1    0    0    0    0  0.00000000000E+00  0.00000000000E+00  0.45593999997E+02  0.45594000000E+02  0.51100000000E-03 0.  1.
         11   -1    0    0    0    0 -0.00000000000E+00 -0.00000000000E+00 -0.45593999997E+02  0.45594000000E+02  0.51100000000E-03 0. -1.
    9900012    2    1    2    0    0 -0.10664157040E+02 -0.16882547172E+02  0.40377827053E+02  0.46142316945E+02  0.99999925584E+01 0.  0.
         12    1    1    2    0    0  0.10664157040E+02  0.16882547172E+02 -0.40377827053E+02  0.45045683055E+02  0.00000000000E+00 0. -1.
         11    1    3    3    0    0 -0.49476330119E+01 -0.94127131658E+00  0.87137094363E+01  0.10064481930E+02  0.51100000000E-03 0. -1.
        -11    1    3    3    0    0 -0.36273367251E+01 -0.62683226212E+01  0.11055884403E+02  0.13216732591E+02  0.51100000000E-03 0.  1.
         12    1    3    3    0    0 -0.20891873034E+01 -0.96729532344E+01  0.20608233213E+02  0.22861102424E+02  0.00000000000E+00 0. -1.
</event>
<event>
 7    1  0.2395003E-008  0.4614232E+02  0.7816164E-02  0.1320468E+00
        -11   -1    0    0    0    0  0.00000000000E+00  0.00000000000E+00  0.45593999997E+02  0.45594000000E+02  0.51100000000E-03 0.  1.
         11   -1    0    0    0    0 -0.00000000000E+00 -0.00000000000E+00 -0.45593999997E+02  0.45594000000E+02  0.51100000000E-03 0. -1.
    9900012    2    1    2    0    0  0.98359751727E+01  0.30961794914E+02  0.31204715585E+02  0.46142318447E+02  0.10000006251E+02 0.  0.
         12    1    1    2    0    0 -0.98359751727E+01 -0.30961794914E+02 -0.31204715585E+02  0.45045681553E+02  0.00000000000E+00 0. -1.
         11    1    3    3    0    0  0.83061890408E+00  0.11094461449E+01 -0.23131690294E+00  0.14051000971E+01  0.51100000000E-03 0. -1.
        -11    1    3    3    0    0  0.36351938495E+01  0.21854123624E+02  0.20829905225E+02  0.30408918193E+02  0.51100000000E-03 0.  1.
         12    1    3    3    0    0  0.53701624190E+01  0.79982251447E+01  0.10606127263E+02  0.14328300157E+02  0.00000000000E+00 0. -1.
</event>
<event>
 7    1  0.2395003E-008  0.4614232E+02  0.7816164E-02  0.1320468E+00
        -11   -1    0    0    0    0  0.00000000000E+00  0.00000000000E+00  0.45593999997E+02  0.45594000000E+02  0.51100000000E-03 0.  1.
         11   -1    0    0    0    0 -0.00000000000E+00 -0.00000000000E+00 -0.45593999997E+02  0.45594000000E+02  0.51100000000E-03 0. -1.
    9900012    2    1    2    0    0 -0.37611782841E+01 -0.32083589084E+02  0.31394431260E+02  0.46142318024E+02  0.10000002393E+02 0.  0.
         12    1    1    2    0    0  0.37611782841E+01  0.32083589084E+02 -0.31394431260E+02  0.45045681976E+02  0.00000000000E+00 0. -1.
         11    1    3    3    0    0 -0.28891800301E+01 -0.52425532121E+01  0.71531664369E+01  0.93273530952E+01  0.51100000000E-03 0.  1.
        -11    1    3    3    0    0  0.23406003388E+01 -0.70189131346E+01  0.45242613575E+01  0.86725136281E+01  0.51100000000E-03 0. -1.
        -12    1    3    3    0    0 -0.32125985928E+01 -0.19822122737E+02  0.19717003465E+02  0.28142451300E+02  0.00000000000E+00 0.  1.
</event>
<event>
 7    1  0.2395003E-008  0.4614232E+02  0.7816164E-02  0.1320468E+00
        -11   -1    0    0    0    0  0.00000000000E+00  0.00000000000E+00  0.45593999997E+02  0.45594000000E+02  0.51100000000E-03 0.  1.
         11   -1    0    0    0    0 -0.00000000000E+00 -0.00000000000E+00 -0.45593999997E+02  0.45594000000E+02  0.51100000000E-03 0. -1.
    9900012    2    1    2    0    0 -0.21714265886E+02  0.39464495074E+02 -0.39700302556E+00  0.46142319565E+02  0.10000016450E+02 0.  0.
         12    1    1    2    0    0  0.21714265886E+02 -0.39464495074E+02  0.39700302556E+00  0.45045680435E+02  0.00000000000E+00 0. -1.
         11    1    3    3    0    0 -0.11015252813E+00  0.27023232647E+01  0.12993527059E+01  0.30005003452E+01  0.51100000000E-03 0. -1.
        -11    1    3    3    0    0 -0.38437561912E+01  0.12008354250E+02  0.28078380784E+00  0.12611656246E+02  0.51100000000E-03 0.  1.
         12    1    3    3    0    0 -0.17760357167E+02  0.24753817560E+02 -0.19771395393E+01  0.30530162974E+02  0.00000000000E+00 0. -1.
</event>
<event>
 7    1  0.2395003E-008  0.4614232E+02  0.7816164E-02  0.1320468E+00
        -11   -1    0    0    0    0  0.00000000000E+00  0.00000000000E+00  0.45593999997E+02  0.45594000000E+02  0.51100000000E-03 0. -1.
         11   -1    0    0    0    0 -0.00000000000E+00 -0.00000000000E+00 -0.45593999997E+02  0.45594000000E+02  0.51100000000E-03 0.  1.
    9900012    2    1    2    0    0 -0.22351137491E+02  0.39094732386E+02 -0.10686526496E+01  0.46142318010E+02  0.10000002267E+02 0.  0.
         12    1    1    2    0    0  0.22351137491E+02 -0.39094732386E+02  0.10686526496E+01  0.45045681990E+02  0.00000000000E+00 0. -1.
         11    1    3    3    0    0 -0.94288575836E+00  0.62402172282E+01  0.61248808564E+00  0.63407007913E+01  0.51100000000E-03 0. -1.
        -11    1    3    3    0    0 -0.80879371618E+01  0.13729633423E+02  0.24798967313E+01  0.16126606882E+02  0.51100000000E-03 0.  1.
         12    1    3    3    0    0 -0.13320314571E+02  0.19124881735E+02 -0.41610374666E+01  0.23675010337E+02  0.00000000000E+00 0. -1.
</event>
<event>
 7    1  0.2395003E-008  0.4614232E+02  0.7816164E-02  0.1320468E+00
        -11   -1    0    0    0    0  0.00000000000E+00  0.00000000000E+00  0.45593999997E+02  0.45594000000E+02  0.51100000000E-03 0.  1.
         11   -1    0    0    0    0 -0.00000000000E+00 -0.00000000000E+00 -0.45593999997E+02  0.45594000000E+02  0.51100000000E-03 0. -1.
    9900012    2    1    2    0    0 -0.37816379610E+01 -0.32244504201E+02  0.31226666426E+02  0.46142317267E+02  0.99999954934E+01 0.  0.
         12    1    1    2    0    0  0.37816379610E+01  0.32244504201E+02 -0.31226666426E+02  0.45045682733E+02  0.00000000000E+00 0. -1.
         11    1    3    3    0    0 -0.17616462139E+01 -0.15909178345E+02  0.20960558047E+02  0.26373288511E+02  0.51100000000E-03 0. -1.
        -11    1    3    3    0    0 -0.12537421148E+01 -0.12784254572E+02  0.96906744210E+01  0.16090935500E+02  0.51100000000E-03 0.  1.
         12    1    3    3    0    0 -0.76624963225E+00 -0.35510712834E+01  0.57543395763E+00  0.36780932558E+01  0.00000000000E+00 0. -1.
</event>
<event>
 7    1  0.2395003E-008  0.4614232E+02  0.7816164E-02  0.1320468E+00
        -11   -1    0    0    0    0  0.00000000000E+00  0.00000000000E+00  0.45593999997E+02  0.45594000000E+02  0.51100000000E-03 0.  1.
         11   -1    0    0    0    0 -0.00000000000E+00 -0.00000000000E+00 -0.45593999997E+02  0.45594000000E+02  0.51100000000E-03 0. -1.
    9900012    2    1    2    0    0  0.41041776669E+02 -0.17378746198E+02  0.65318441309E+01  0.46142320526E+02  0.10000025212E+02 0.  0.
         12    1    1    2    0    0 -0.41041776669E+02  0.17378746198E+02 -0.65318441309E+01  0.45045679474E+02  0.00000000000E+00 0. -1.
         11    1    3    3    0    0  0.54365586302E+01 -0.54411740119E+01 -0.57736082913E+00  0.77133579040E+01  0.51100000000E-03 0. -1.
        -11    1    3    3    0    0  0.63936028364E+01 -0.56567376250E+00  0.11996003513E+01  0.65297155604E+01  0.51100000000E-03 0.  1.
        -12    1    3    3    0    0  0.29211615202E+02 -0.11371898424E+02  0.59096046087E+01  0.31899247062E+02  0.00000000000E+00 0.  1.
</event>
<event>
 7    1  0.2395003E-008  0.4614232E+02  0.7816164E-02  0.1320468E+00
        -11   -1    0    0    0    0  0.00000000000E+00  0.00000000000E+00  0.45593999997E+02  0.45594000000E+02  0.51100000000E-03 0.  1.
         11   -1    0    0    0    0 -0.00000000000E+00 -0.00000000000E+00 -0.45593999997E+02  0.45594000000E+02  0.51100000000E-03 0. -1.
    9900012    2    1    2    0    0  0.14155831626E+02  0.17422512355E+02  0.39053579085E+02  0.46142317131E+02  0.99999942563E+01 0.  0.
         12    1    1    2    0    0 -0.14155831626E+02 -0.17422512355E+02 -0.39053579085E+02  0.45045682869E+02  0.00000000000E+00 0. -1.
         11    1    3    3    0    0  0.19983914171E+01  0.31666320870E+00  0.88871180759E+01  0.91145329995E+01  0.51100000000E-03 0. -1.
        -11    1    3    3    0    0  0.52655114489E+00  0.11998072447E+01  0.47714429300E+00  0.13944391238E+01  0.51100000000E-03 0.  1.
        -12    1    3    3    0    0  0.11630889064E+02  0.15906041902E+02  0.29689316716E+02  0.35633345008E+02  0.00000000000E+00 0.  1.
</event>
<event>
 7    1  0.2395003E-008  0.4614232E+02  0.7816164E-02  0.1320468E+00
        -11   -1    0    0    0    0  0.00000000000E+00  0.00000000000E+00  0.45593999997E+02  0.45594000000E+02  0.51100000000E-03 0. -1.
         11   -1    0    0    0    0 -0.00000000000E+00 -0.00000000000E+00 -0.45593999997E+02  0.45594000000E+02  0.51100000000E-03 0.  1.
    9900012    2    1    2    0    0 -0.21807741176E+02 -0.23924102739E+01 -0.39342246349E+02  0.46142317077E+02  0.99999937653E+01 0.  0.
         12    1    1    2    0    0  0.21807741176E+02  0.23924102739E+01  0.39342246349E+02  0.45045682923E+02  0.00000000000E+00 0. -1.
         11    1    3    3    0    0 -0.67586808774E+01 -0.56325907561E+00 -0.14719170285E+02  0.16206511103E+02  0.51100000000E-03 0. -1.
        -11    1    3    3    0    0 -0.13092147211E+02 -0.26281474016E+01 -0.24394000170E+02  0.27809687555E+02  0.51100000000E-03 0.  1.
         12    1    3    3    0    0 -0.19569130884E+01  0.79899620333E+00 -0.22907589455E+00  0.21261184195E+01  0.00000000000E+00 0. -1.
</event>
<event>
 7    1  0.2395003E-008  0.4614232E+02  0.7816164E-02  0.1320468E+00
        -11   -1    0    0    0    0  0.00000000000E+00  0.00000000000E+00  0.45593999997E+02  0.45594000000E+02  0.51100000000E-03 0. -1.
         11   -1    0    0    0    0 -0.00000000000E+00 -0.00000000000E+00 -0.45593999997E+02  0.45594000000E+02  0.51100000000E-03 0.  1.
    9900012    2    1    2    0    0  0.14765762728E+01 -0.26589369070E+02 -0.36330959490E+02  0.46142318270E+02  0.10000004644E+02 0.  0.
         12    1    1    2    0    0 -0.14765762728E+01  0.26589369070E+02  0.36330959490E+02  0.45045681730E+02  0.00000000000E+00 0. -1.
         11    1    3    3    0    0  0.98766161382E+00 -0.18495407570E+00 -0.28059084362E+01  0.29804036449E+01  0.51100000000E-03 0. -1.
        -11    1    3    3    0    0 -0.14921884966E+01 -0.23912419593E+02 -0.30330834283E+02  0.38652166121E+02  0.51100000000E-03 0.  1.
         12    1    3    3    0    0  0.19811031555E+01 -0.24919954013E+01 -0.31942167705E+01  0.45097485041E+01  0.00000000000E+00 0. -1.
</event>
<event>
 7    1  0.2395003E-008  0.4614232E+02  0.7816164E-02  0.1320468E+00
        -11   -1    0    0    0    0  0.00000000000E+00  0.00000000000E+00  0.45593999997E+02  0.45594000000E+02  0.51100000000E-03 0.  1.
         11   -1    0    0    0    0 -0.00000000000E+00 -0.00000000000E+00 -0.45593999997E+02  0.45594000000E+02  0.51100000000E-03 0. -1.
    9900012    2    1    2    0    0  0.32382996019E+02  0.28327996449E+02  0.13340903041E+02  0.46142317543E+02  0.99999980148E+01 0.  0.
         12    1    1    2    0    0 -0.32382996019E+02 -0.28327996449E+02 -0.13340903041E+02  0.45045682457E+02  0.00000000000E+00 0. -1.
         11    1    3    3    0    0  0.91556847030E+01  0.75000813899E+01  0.30302653681E+01  0.12217212927E+02  0.51100000000E-03 0.  1.
        -11    1    3    3    0    0  0.19251773792E+02  0.20799955603E+02  0.91853917713E+01  0.29793294036E+02  0.51100000000E-03 0. -1.
         12    1    3    3    0    0  0.39755375240E+01  0.27959456139E-01  0.11252459020E+01  0.41318105808E+01  0.00000000000E+00 0. -1.
</event>
<event>
 7    1  0.2395003E-008  0.4614232E+02  0.7816164E-02  0.1320468E+00
        -11   -1    0    0    0    0  0.00000000000E+00  0.00000000000E+00  0.45593999997E+02  0.45594000000E+02  0.51100000000E-03 0. -1.
         11   -1    0    0    0    0 -0.00000000000E+00 -0.00000000000E+00 -0.45593999997E+02  0.45594000000E+02  0.51100000000E-03 0.  1.
    9900012    2    1    2    0    0 -0.80389361657E+00 -0.42154280369E+02 -0.15858243972E+02  0.46142317629E+02  0.99999987980E+01 0.  0.
         12    1    1    2    0    0  0.80389361657E+00  0.42154280369E+02  0.15858243972E+02  0.45045682371E+02  0.00000000000E+00 0. -1.
         11    1    3    3    0    0  0.19089127245E+01 -0.26928151827E+01 -0.25316520844E+01  0.41598634515E+01  0.51100000000E-03 0. -1.
        -11    1    3    3    0    0 -0.18113572016E+01 -0.52863418223E+01 -0.12593205271E+01  0.57282033156E+01  0.51100000000E-03 0.  1.
         12    1    3    3    0    0 -0.90144913946E+00 -0.34175123364E+02 -0.12067271361E+02  0.36254250862E+02  0.00000000000E+00 0. -1.
</event>
<event>
 7    1  0.2395003E-008  0.4614232E+02  0.7816164E-02  0.1320468E+00
        -11   -1    0    0    0    0  0.00000000000E+00  0.00000000000E+00  0.45593999997E+02  0.45594000000E+02  0.51100000000E-03 0.  1.
         11   -1    0    0    0    0 -0.00000000000E+00 -0.00000000000E+00 -0.45593999997E+02  0.45594000000E+02  0.51100000000E-03 0. -1.
    9900012    2    1    2    0    0 -0.32492685898E+02  0.19324514646E+02  0.24492897495E+02  0.46142317289E+02  0.99999956966E+01 0.  0.
         12    1    1    2    0    0  0.32492685898E+02 -0.19324514646E+02 -0.24492897495E+02  0.45045682711E+02  0.00000000000E+00 0. -1.
         11    1    3    3    0    0 -0.12381567541E+00 -0.18262780242E+00 -0.11088818530E+00  0.24694065371E+00  0.51100000000E-03 0. -1.
        -11    1    3    3    0    0 -0.11866595541E+01  0.34742633288E+01  0.26323616185E+01  0.45175208385E+01  0.51100000000E-03 0.  1.
        -12    1    3    3    0    0 -0.31182210668E+02  0.16032879120E+02  0.21971424062E+02  0.41377855797E+02  0.00000000000E+00 0.  1.
</event>
<event>
 7    1  0.2395003E-008  0.4614232E+02  0.7816164E-02  0.1320468E+00
        -11   -1    0    0    0    0  0.00000000000E+00  0.00000000000E+00  0.45593999997E+02  0.45594000000E+02  0.51100000000E-03 0.  1.
         11   -1    0    0    0    0 -0.00000000000E+00 -0.00000000000E+00 -0.45593999997E+02  0.45594000000E+02  0.51100000000E-03 0. -1.
    9900012    2    1    2    0    0  0.32600233553E+02  0.21400097966E+02  0.22547150275E+02  0.46142318674E+02  0.10000008321E+02 0.  0.
         12    1    1    2    0    0 -0.32600233553E+02 -0.21400097966E+02 -0.22547150275E+02  0.45045681326E+02  0.00000000000E+00 0. -1.
         11    1    3    3    0    0  0.16001212958E+01 -0.16167685650E+00  0.19608140181E+01  0.25360046218E+01  0.51100000000E-03 0. -1.
        -11    1    3    3    0    0  0.69492411139E+01  0.59833039612E+01  0.85089072700E+01  0.12509731474E+02  0.51100000000E-03 0.  1.
        -12    1    3    3    0    0  0.24050871143E+02  0.15578470861E+02  0.12077428987E+02  0.31096582578E+02  0.00000000000E+00 0.  1.
</event>
<event>
 7    1  0.2395003E-008  0.4614232E+02  0.7816164E-02  0.1320468E+00
        -11   -1    0    0    0    0  0.00000000000E+00  0.00000000000E+00  0.45593999997E+02  0.45594000000E+02  0.51100000000E-03 0.  1.
         11   -1    0    0    0    0 -0.00000000000E+00 -0.00000000000E+00 -0.45593999997E+02  0.45594000000E+02  0.51100000000E-03 0. -1.
    9900012    2    1    2    0    0 -0.42628429426E+02 -0.10366390922E+02  0.10220982274E+02  0.46142317247E+02  0.99999953120E+01 0.  0.
         12    1    1    2    0    0  0.42628429426E+02  0.10366390922E+02 -0.10220982274E+02  0.45045682753E+02  0.00000000000E+00 0. -1.
         11    1    3    3    0    0 -0.44561214559E+01 -0.20444698608E+01  0.21292227627E+01  0.53451347294E+01  0.51100000000E-03 0. -1.
        -11    1    3    3    0    0 -0.30247101589E+02 -0.94405607361E+01  0.84230339067E+01  0.32786564962E+02  0.51100000000E-03 0.  1.
         12    1    3    3    0    0 -0.79252063810E+01  0.11186396750E+01 -0.33127439514E+00  0.80106175561E+01  0.00000000000E+00 0. -1.
</event>
<event>
 7    1  0.2395003E-008  0.4614232E+02  0.7816164E-02  0.1320468E+00
        -11   -1    0    0    0    0  0.00000000000E+00  0.00000000000E+00  0.45593999997E+02  0.45594000000E+02  0.51100000000E-03 0. -1.
         11   -1    0    0    0    0 -0.00000000000E+00 -0.00000000000E+00 -0.45593999997E+02  0.45594000000E+02  0.51100000000E-03 0.  1.
    9900012    2    1    2    0    0  0.17553254212E+02  0.21461584637E+02 -0.35502072303E+02  0.46142317783E+02  0.10000000202E+02 0.  0.
         12    1    1    2    0    0 -0.17553254212E+02 -0.21461584637E+02  0.35502072303E+02  0.45045682217E+02  0.00000000000E+00 0. -1.
         11    1    3    3    0    0  0.93370235918E+01  0.77638143899E+01 -0.11224009090E+02  0.16535876262E+02  0.51100000000E-03 0. -1.
        -11    1    3    3    0    0  0.19497657782E+01  0.21781532192E+01 -0.14111160881E+01  0.32461033427E+01  0.51100000000E-03 0.  1.
        -12    1    3    3    0    0  0.62664648422E+01  0.11519617028E+02 -0.22866947124E+02  0.26360338178E+02  0.00000000000E+00 0.  1.
</event>
<event>
 7    1  0.2395003E-008  0.4614232E+02  0.7816164E-02  0.1320468E+00
        -11   -1    0    0    0    0  0.00000000000E+00  0.00000000000E+00  0.45593999997E+02  0.45594000000E+02  0.51100000000E-03 0.  1.
         11   -1    0    0    0    0 -0.00000000000E+00 -0.00000000000E+00 -0.45593999997E+02  0.45594000000E+02  0.51100000000E-03 0. -1.
    9900012    2    1    2    0    0 -0.24732593932E+02  0.30527372298E+02  0.22033876472E+02  0.46142319026E+02  0.10000011535E+02 0.  0.
         12    1    1    2    0    0  0.24732593932E+02 -0.30527372298E+02 -0.22033876472E+02  0.45045680974E+02  0.00000000000E+00 0. -1.
         11    1    3    3    0    0 -0.72738336423E+01  0.58580916884E+01  0.49657857584E+01  0.10577566948E+02  0.51100000000E-03 0. -1.
        -11    1    3    3    0    0 -0.16894511300E+02  0.20109736889E+02  0.12505331137E+02  0.29089677497E+02  0.51100000000E-03 0.  1.
        -12    1    3    3    0    0 -0.56424898945E+00  0.45595437206E+01  0.45627595771E+01  0.64750745803E+01  0.00000000000E+00 0.  1.
</event>
<event>
 7    1  0.2395003E-008  0.4614232E+02  0.7816164E-02  0.1320468E+00
        -11   -1    0    0    0    0  0.00000000000E+00  0.00000000000E+00  0.45593999997E+02  0.45594000000E+02  0.51100000000E-03 0.  1.
         11   -1    0    0    0    0 -0.00000000000E+00 -0.00000000000E+00 -0.45593999997E+02  0.45594000000E+02  0.51100000000E-03 0. -1.
    9900012    2    1    2    0    0  0.26185810645E+02 -0.15151209196E+02  0.33374507372E+02  0.46142316948E+02  0.99999925887E+01 0.  0.
         12    1    1    2    0    0 -0.26185810645E+02  0.15151209196E+02 -0.33374507372E+02  0.45045683052E+02  0.00000000000E+00 0. -1.
         11    1    3    3    0    0  0.65947468388E+01 -0.36767357625E+01  0.90860662893E+01  0.11813791627E+02  0.51100000000E-03 0. -1.
        -11    1    3    3    0    0  0.20433962615E+02 -0.10897821706E+02  0.23758507813E+02  0.33177945082E+02  0.51100000000E-03 0.  1.
         12    1    3    3    0    0 -0.84289880868E+00 -0.57665172773E+00  0.52993326983E+00  0.11505802394E+01  0.00000000000E+00 0. -1.
</event>
<event>
 7    1  0.2395003E-008  0.4614232E+02  0.7816164E-02  0.1320468E+00
        -11   -1    0    0    0    0  0.00000000000E+00  0.00000000000E+00  0.45593999997E+02  0.45594000000E+02  0.51100000000E-03 0.  1.
         11   -1    0    0    0    0 -0.00000000000E+00 -0.00000000000E+00 -0.45593999997E+02  0.45594000000E+02  0.51100000000E-03 0. -1.
    9900012    2    1    2    0    0  0.15974184792E+02 -0.15148809504E+02  0.39299522699E+02  0.46142317704E+02  0.99999994791E+01 0.  0.
         12    1    1    2    0    0 -0.15974184792E+02  0.15148809504E+02 -0.39299522699E+02  0.45045682296E+02  0.00000000000E+00 0. -1.
         11    1    3    3    0    0  0.11067143338E+00 -0.29312664592E+01  0.55199744014E+01  0.62509750339E+01  0.51100000000E-03 0. -1.
        -11    1    3    3    0    0  0.11813478374E+02 -0.11824963808E+02  0.29976934328E+02  0.34322072086E+02  0.51100000000E-03 0.  1.
        -12    1    3    3    0    0  0.40500349842E+01 -0.39257923661E+00  0.38026139700E+01  0.55692705837E+01  0.00000000000E+00 0.  1.
</event>
<event>
 7    1  0.2395003E-008  0.4614232E+02  0.7816164E-02  0.1320468E+00
        -11   -1    0    0    0    0  0.00000000000E+00  0.00000000000E+00  0.45593999997E+02  0.45594000000E+02  0.51100000000E-03 0. -1.
         11   -1    0    0    0    0 -0.00000000000E+00 -0.00000000000E+00 -0.45593999997E+02  0.45594000000E+02  0.51100000000E-03 0.  1.
    9900012    2    1    2    0    0  0.45949457526E+01 -0.44809859064E+02  0.27655604747E+00  0.46142317865E+02  0.10000000944E+02 0.  0.
         12    1    1    2    0    0 -0.45949457526E+01  0.44809859064E+02 -0.27655604747E+00  0.45045682135E+02  0.00000000000E+00 0. -1.
         11    1    3    3    0    0  0.82433193495E+00 -0.11400173491E+02 -0.37603910906E+01  0.12032623163E+02  0.51100000000E-03 0. -1.
        -11    1    3    3    0    0  0.18771258892E+01 -0.26184982425E+02  0.18028904887E+01  0.26314013768E+02  0.51100000000E-03 0.  1.
         12    1    3    3    0    0  0.18934879284E+01 -0.72247031475E+01  0.22340566494E+01  0.77956809335E+01  0.00000000000E+00 0. -1.
</event>
<event>
 7    1  0.2395003E-008  0.4614232E+02  0.7816164E-02  0.1320468E+00
        -11   -1    0    0    0    0  0.00000000000E+00  0.00000000000E+00  0.45593999997E+02  0.45594000000E+02  0.51100000000E-03 0.  1.
         11   -1    0    0    0    0 -0.00000000000E+00 -0.00000000000E+00 -0.45593999997E+02  0.45594000000E+02  0.51100000000E-03 0. -1.
    9900012    2    1    2    0    0 -0.69906154047E+01  0.33450522251E+02  0.29348040248E+02  0.46142316422E+02  0.99999877907E+01 0.  0.
         12    1    1    2    0    0  0.69906154047E+01 -0.33450522251E+02 -0.29348040248E+02  0.45045683578E+02  0.00000000000E+00 0. -1.
         11    1    3    3    0    0 -0.12883785527E+01  0.11125485295E+01  0.16156342025E+01  0.23469038461E+01  0.51100000000E-03 0. -1.
        -11    1    3    3    0    0 -0.40348667508E+01  0.18199548479E+02  0.20896077692E+02  0.28002674474E+02  0.51100000000E-03 0.  1.
         12    1    3    3    0    0 -0.16673701012E+01  0.14138425243E+02  0.68363283529E+01  0.15792738102E+02  0.00000000000E+00 0. -1.
</event>
<event>
 7    1  0.2395003E-008  0.4614232E+02  0.7816164E-02  0.1320468E+00
        -11   -1    0    0    0    0  0.00000000000E+00  0.00000000000E+00  0.45593999997E+02  0.45594000000E+02  0.51100000000E-03 0.  1.
         11   -1    0    0    0    0 -0.00000000000E+00 -0.00000000000E+00 -0.45593999997E+02  0.45594000000E+02  0.51100000000E-03 0. -1.
    9900012    2    1    2    0    0  0.23490657555E+02  0.83211687236E+01  0.37524131082E+02  0.46142320355E+02  0.10000023650E+02 0.  0.
         12    1    1    2    0    0 -0.23490657555E+02 -0.83211687236E+01 -0.37524131082E+02  0.45045679645E+02  0.00000000000E+00 0. -1.
         11    1    3    3    0    0  0.29614571297E+01 -0.20032228360E+01  0.31458295857E+01  0.47622866466E+01  0.51100000000E-03 0. -1.
        -11    1    3    3    0    0  0.69513237462E+01  0.35797632660E+01  0.13033704819E+02  0.15199114067E+02  0.51100000000E-03 0.  1.
         12    1    3    3    0    0  0.13577876679E+02  0.67446282936E+01  0.21344596677E+02  0.26180919641E+02  0.00000000000E+00 0. -1.
</event>
<event>
 7    1  0.2395003E-008  0.4614232E+02  0.7816164E-02  0.1320468E+00
        -11   -1    0    0    0    0  0.00000000000E+00  0.00000000000E+00  0.45593999997E+02  0.45594000000E+02  0.51100000000E-03 0.  1.
         11   -1    0    0    0    0 -0.00000000000E+00 -0.00000000000E+00 -0.45593999997E+02  0.45594000000E+02  0.51100000000E-03 0. -1.
    9900012    2    1    2    0    0 -0.36980466731E+02 -0.88887782575E+01  0.24136036264E+02  0.46142317131E+02  0.99999942541E+01 0.  0.
         12    1    1    2    0    0  0.36980466731E+02  0.88887782575E+01 -0.24136036264E+02  0.45045682869E+02  0.00000000000E+00 0. -1.
         11    1    3    3    0    0 -0.32257153892E+01  0.95463558306E+00  0.21642973123E+01  0.40000939971E+01  0.51100000000E-03 0. -1.
        -11    1    3    3    0    0 -0.16089524798E+02 -0.22998486666E+01  0.66069957281E+01  0.17544643197E+02  0.51100000000E-03 0.  1.
        -12    1    3    3    0    0 -0.17665226544E+02 -0.75435651740E+01  0.15364743224E+02  0.24597579936E+02  0.00000000000E+00 0.  1.
</event>
<event>
 7    1  0.2395003E-008  0.4614232E+02  0.7816164E-02  0.1320468E+00
        -11   -1    0    0    0    0  0.00000000000E+00  0.00000000000E+00  0.45593999997E+02  0.45594000000E+02  0.51100000000E-03 0.  1.
         11   -1    0    0    0    0 -0.00000000000E+00 -0.00000000000E+00 -0.45593999997E+02  0.45594000000E+02  0.51100000000E-03 0. -1.
    9900012    2    1    2    0    0 -0.32993292074E+02  0.14335847562E+02  0.27111616317E+02  0.46142316672E+02  0.99999900702E+01 0.  0.
         12    1    1    2    0    0  0.32993292074E+02 -0.14335847562E+02 -0.27111616317E+02  0.45045683328E+02  0.00000000000E+00 0. -1.
         11    1    3    3    0    0 -0.12816860994E+01  0.93964711488E-02 -0.16567360280E+00  0.12923836716E+01  0.51100000000E-03 0. -1.
        -11    1    3    3    0    0 -0.28519135594E+02  0.10956623346E+02  0.21128456478E+02  0.37145664129E+02  0.51100000000E-03 0.  1.
         12    1    3    3    0    0 -0.31924703806E+01  0.33698277447E+01  0.61488334413E+01  0.77042688718E+01  0.00000000000E+00 0. -1.
</event>
<event>
 7    1  0.2395003E-008  0.4614232E+02  0.7816164E-02  0.1320468E+00
        -11   -1    0    0    0    0  0.00000000000E+00  0.00000000000E+00  0.45593999997E+02  0.45594000000E+02  0.51100000000E-03 0. -1.
         11   -1    0    0    0    0 -0.00000000000E+00 -0.00000000000E+00 -0.45593999997E+02  0.45594000000E+02  0.51100000000E-03 0.  1.
    9900012    2    1    2    0    0 -0.39958978774E+02 -0.19914601765E+02  0.59835011279E+01  0.46142316146E+02  0.99999852700E+01 0.  0.
         12    1    1    2    0    0  0.39958978774E+02  0.19914601765E+02 -0.59835011279E+01  0.45045683854E+02  0.00000000000E+00 0. -1.
         11    1    3    3    0    0 -0.79715679659E+01 -0.63959013930E+01  0.29853408732E+01  0.10647333509E+02  0.51100000000E-03 0. -1.
        -11    1    3    3    0    0 -0.17551081539E+02 -0.82260598695E+01  0.49241210475E+01  0.19998887282E+02  0.51100000000E-03 0.  1.
        -12    1    3    3    0    0 -0.14436329270E+02 -0.52926405026E+01 -0.19259607929E+01  0.15496095355E+02  0.00000000000E+00 0.  1.
</event>
<event>
 7    1  0.2395003E-008  0.4614232E+02  0.7816164E-02  0.1320468E+00
        -11   -1    0    0    0    0  0.00000000000E+00  0.00000000000E+00  0.45593999997E+02  0.45594000000E+02  0.51100000000E-03 0. -1.
         11   -1    0    0    0    0 -0.00000000000E+00 -0.00000000000E+00 -0.45593999997E+02  0.45594000000E+02  0.51100000000E-03 0.  1.
    9900012    2    1    2    0    0  0.11584649710E+02  0.97034181788E+01 -0.42435280454E+02  0.46142318071E+02  0.10000002826E+02 0.  0.
         12    1    1    2    0    0 -0.11584649710E+02 -0.97034181788E+01  0.42435280454E+02  0.45045681929E+02  0.00000000000E+00 0. -1.
         11    1    3    3    0    0 -0.46642033686E-02  0.18697682496E+01 -0.12245161358E+01  0.22350604220E+01  0.51100000000E-03 0. -1.
        -11    1    3    3    0    0  0.92177070923E+00  0.17427306447E+01 -0.12851782824E+02  0.13002118803E+02  0.51100000000E-03 0.  1.
         12    1    3    3    0    0  0.10667543204E+02  0.60909192845E+01 -0.28358981494E+02  0.30905138846E+02  0.00000000000E+00 0. -1.
</event>
<event>
 7    1  0.2395003E-008  0.4614232E+02  0.7816164E-02  0.1320468E+00
        -11   -1    0    0    0    0  0.00000000000E+00  0.00000000000E+00  0.45593999997E+02  0.45594000000E+02  0.51100000000E-03 0.  1.
         11   -1    0    0    0    0 -0.00000000000E+00 -0.00000000000E+00 -0.45593999997E+02  0.45594000000E+02  0.51100000000E-03 0. -1.
    9900012    2    1    2    0    0 -0.38816718535E+02  0.22550083185E+02  0.37241941840E+01  0.46142317502E+02  0.99999976331E+01 0.  0.
         12    1    1    2    0    0  0.38816718535E+02 -0.22550083185E+02 -0.37241941840E+01  0.45045682498E+02  0.00000000000E+00 0. -1.
         11    1    3    3    0    0 -0.11548461368E+02  0.80645742742E+01 -0.16899808220E+01  0.14186625872E+02  0.51100000000E-03 0. -1.
        -11    1    3    3    0    0 -0.14201047560E+02  0.90637986920E+01  0.11193880192E+00  0.16847395321E+02  0.51100000000E-03 0.  1.
        -12    1    3    3    0    0 -0.13067209607E+02  0.54217102185E+01  0.53022362041E+01  0.15108296309E+02  0.00000000000E+00 0.  1.
</event>
<event>
 7    1  0.2395003E-008  0.4614232E+02  0.7816164E-02  0.1320468E+00
        -11   -1    0    0    0    0  0.00000000000E+00  0.00000000000E+00  0.45593999997E+02  0.45594000000E+02  0.51100000000E-03 0. -1.
         11   -1    0    0    0    0 -0.00000000000E+00 -0.00000000000E+00 -0.45593999997E+02  0.45594000000E+02  0.51100000000E-03 0.  1.
    9900012    2    1    2    0    0 -0.37196311915E+02 -0.17267877341E+02 -0.18637819814E+02  0.46142317239E+02  0.99999952382E+01 0.  0.
         12    1    1    2    0    0  0.37196311915E+02  0.17267877341E+02  0.18637819814E+02  0.45045682761E+02  0.00000000000E+00 0. -1.
         11    1    3    3    0    0 -0.23555802426E+01 -0.18114188270E+01  0.11127996490E+01  0.31730615762E+01  0.51100000000E-03 0. -1.
        -11    1    3    3    0    0 -0.22733723122E+01 -0.67858856810E+00 -0.86183862755E+00  0.25241771324E+01  0.51100000000E-03 0.  1.
        -12    1    3    3    0    0 -0.32567359360E+02 -0.14777869946E+02 -0.18888780836E+02  0.40445078530E+02  0.00000000000E+00 0.  1.
</event>
<event>
 7    1  0.2395003E-008  0.4614232E+02  0.7816164E-02  0.1320468E+00
        -11   -1    0    0    0    0  0.00000000000E+00  0.00000000000E+00  0.45593999997E+02  0.45594000000E+02  0.51100000000E-03 0.  1.
         11   -1    0    0    0    0 -0.00000000000E+00 -0.00000000000E+00 -0.45593999997E+02  0.45594000000E+02  0.51100000000E-03 0. -1.
    9900012    2    1    2    0    0 -0.41604442803E+02 -0.16717450993E+02  0.43255694963E+01  0.46142318963E+02  0.10000010957E+02 0.  0.
         12    1    1    2    0    0  0.41604442803E+02  0.16717450993E+02 -0.43255694963E+01  0.45045681037E+02  0.00000000000E+00 0. -1.
         11    1    3    3    0    0 -0.28497145909E+02 -0.85429233681E+01  0.60039526366E+00  0.29756164728E+02  0.51100000000E-03 0. -1.
        -11    1    3    3    0    0 -0.97961457411E+01 -0.50511120850E+01  0.96748464143E+00  0.11064096505E+02  0.51100000000E-03 0.  1.
         12    1    3    3    0    0 -0.33111511533E+01 -0.31234155397E+01  0.27576895912E+01  0.53220577294E+01  0.00000000000E+00 0. -1.
</event>
<event>
 7    1  0.2395003E-008  0.4614232E+02  0.7816164E-02  0.1320468E+00
        -11   -1    0    0    0    0  0.00000000000E+00  0.00000000000E+00  0.45593999997E+02  0.45594000000E+02  0.51100000000E-03 0.  1.
         11   -1    0    0    0    0 -0.00000000000E+00 -0.00000000000E+00 -0.45593999997E+02  0.45594000000E+02  0.51100000000E-03 0. -1.
    9900012    2    1    2    0    0 -0.25548651478E+02  0.20895968388E+02  0.30655152672E+02  0.46142317937E+02  0.10000001602E+02 0.  0.
         12    1    1    2    0    0  0.25548651478E+02 -0.20895968388E+02 -0.30655152672E+02  0.45045682063E+02  0.00000000000E+00 0. -1.
         11    1    3    3    0    0 -0.51643007284E+01  0.29932627382E+01  0.74104483219E+01  0.95154804622E+01  0.51100000000E-03 0. -1.
        -11    1    3    3    0    0 -0.20725017657E+02  0.15504155856E+02  0.21314914101E+02  0.33529550684E+02  0.51100000000E-03 0.  1.
        -12    1    3    3    0    0  0.34066690791E+00  0.23985497939E+01  0.19297902496E+01  0.30972867906E+01  0.00000000000E+00 0.  1.
</event>
<event>
 7    1  0.2395003E-008  0.4614232E+02  0.7816164E-02  0.1320468E+00
        -11   -1    0    0    0    0  0.00000000000E+00  0.00000000000E+00  0.45593999997E+02  0.45594000000E+02  0.51100000000E-03 0.  1.
         11   -1    0    0    0    0 -0.00000000000E+00 -0.00000000000E+00 -0.45593999997E+02  0.45594000000E+02  0.51100000000E-03 0. -1.
    9900012    2    1    2    0    0 -0.55624185289E+01  0.43830558163E+02  0.87781147068E+01  0.46142316227E+02  0.99999860133E+01 0.  0.
         12    1    1    2    0    0  0.55624185289E+01 -0.43830558163E+02 -0.87781147068E+01  0.45045683773E+02  0.00000000000E+00 0. -1.
         11    1    3    3    0    0 -0.61880838265E+00  0.24589487713E+00 -0.56889038180E+00  0.87579942491E+00  0.51100000000E-03 0. -1.
        -11    1    3    3    0    0 -0.39063337987E+00  0.23798691595E+02  0.29754180015E+01  0.23987151324E+02  0.51100000000E-03 0.  1.
         12    1    3    3    0    0 -0.45529767664E+01  0.19785971691E+02  0.63715870870E+01  0.21279365479E+02  0.00000000000E+00 0. -1.
</event>
<event>
 7    1  0.2395003E-008  0.4614232E+02  0.7816164E-02  0.1320468E+00
        -11   -1    0    0    0    0  0.00000000000E+00  0.00000000000E+00  0.45593999997E+02  0.45594000000E+02  0.51100000000E-03 0. -1.
         11   -1    0    0    0    0 -0.00000000000E+00 -0.00000000000E+00 -0.45593999997E+02  0.45594000000E+02  0.51100000000E-03 0.  1.
    9900012    2    1    2    0    0 -0.28559179289E+02  0.59926823145E+01 -0.34315806229E+02  0.46142317408E+02  0.99999967808E+01 0.  0.
         12    1    1    2    0    0  0.28559179289E+02 -0.59926823145E+01  0.34315806229E+02  0.45045682592E+02  0.00000000000E+00 0. -1.
         11    1    3    3    0    0 -0.17505333630E+02  0.35280183606E+01 -0.20365965652E+02  0.27086088242E+02  0.51100000000E-03 0. -1.
        -11    1    3    3    0    0 -0.56043638272E+01  0.34227588531E+01 -0.40507817951E+01  0.77157634416E+01  0.51100000000E-03 0.  1.
         12    1    3    3    0    0 -0.54494818319E+01 -0.95809489919E+00 -0.98990587824E+01  0.11340465725E+02  0.00000000000E+00 0. -1.
</event>
<event>
 7    1  0.2395003E-008  0.4614232E+02  0.7816164E-02  0.1320468E+00
        -11   -1    0    0    0    0  0.00000000000E+00  0.00000000000E+00  0.45593999997E+02  0.45594000000E+02  0.51100000000E-03 0.  1.
         11   -1    0    0    0    0 -0.00000000000E+00 -0.00000000000E+00 -0.45593999997E+02  0.45594000000E+02  0.51100000000E-03 0. -1.
    9900012    2    1    2    0    0 -0.11430322040E+02 -0.30427472615E+02  0.31187017888E+02  0.46142318338E+02  0.10000005261E+02 0.  0.
         12    1    1    2    0    0  0.11430322040E+02  0.30427472615E+02 -0.31187017888E+02  0.45045681662E+02  0.00000000000E+00 0. -1.
         11    1    3    3    0    0 -0.14826002335E+01 -0.31055800033E+01  0.73136960654E+00  0.35181859490E+01  0.51100000000E-03 0. -1.
        -11    1    3    3    0    0 -0.48930835506E+01 -0.54377996971E+01  0.85161546313E+01  0.11226612229E+02  0.51100000000E-03 0.  1.
        -12    1    3    3    0    0 -0.50546382564E+01 -0.21884092914E+02  0.21939493650E+02  0.31397520160E+02  0.00000000000E+00 0.  1.
</event>
<event>
 7    1  0.2395003E-008  0.4614232E+02  0.7816164E-02  0.1320468E+00
        -11   -1    0    0    0    0  0.00000000000E+00  0.00000000000E+00  0.45593999997E+02  0.45594000000E+02  0.51100000000E-03 0.  1.
         11   -1    0    0    0    0 -0.00000000000E+00 -0.00000000000E+00 -0.45593999997E+02  0.45594000000E+02  0.51100000000E-03 0. -1.
    9900012    2    1    2    0    0  0.40202475735E+02  0.74574855536E+01  0.18901332950E+02  0.46142317262E+02  0.99999954511E+01 0.  0.
         12    1    1    2    0    0 -0.40202475735E+02 -0.74574855536E+01 -0.18901332950E+02  0.45045682738E+02  0.00000000000E+00 0. -1.
         11    1    3    3    0    0  0.16275863747E+02  0.49224686752E+01  0.12089854386E+02  0.20863820789E+02  0.51100000000E-03 0. -1.
        -11    1    3    3    0    0  0.20855502249E+02  0.32592793865E+01  0.52199620094E+01  0.21744490793E+02  0.51100000000E-03 0.  1.
         12    1    3    3    0    0  0.30711097384E+01 -0.72426250811E+00  0.15915165549E+01  0.35340056806E+01  0.00000000000E+00 0. -1.
</event>
<event>
 7    1  0.2395003E-008  0.4614232E+02  0.7816164E-02  0.1320468E+00
        -11   -1    0    0    0    0  0.00000000000E+00  0.00000000000E+00  0.45593999997E+02  0.45594000000E+02  0.51100000000E-03 0.  1.
         11   -1    0    0    0    0 -0.00000000000E+00 -0.00000000000E+00 -0.45593999997E+02  0.45594000000E+02  0.51100000000E-03 0. -1.
    9900012    2    1    2    0    0  0.19403150842E+02  0.47031437080E+01  0.40379594174E+02  0.46142318198E+02  0.10000003987E+02 0.  0.
         12    1    1    2    0    0 -0.19403150842E+02 -0.47031437080E+01 -0.40379594174E+02  0.45045681802E+02  0.00000000000E+00 0. -1.
         11    1    3    3    0    0  0.31224456297E+01 -0.18712963798E+01  0.10285088976E+02  0.10910292038E+02  0.51100000000E-03 0. -1.
        -11    1    3    3    0    0  0.17448125350E+01  0.75052490176E+00  0.75328645924E+01  0.77686361505E+01  0.51100000000E-03 0.  1.
        -12    1    3    3    0    0  0.14535892677E+02  0.58239151860E+01  0.22561640605E+02  0.27463390010E+02  0.00000000000E+00 0.  1.
</event>
<event>
 7    1  0.2395003E-008  0.4614232E+02  0.7816164E-02  0.1320468E+00
        -11   -1    0    0    0    0  0.00000000000E+00  0.00000000000E+00  0.45593999997E+02  0.45594000000E+02  0.51100000000E-03 0. -1.
         11   -1    0    0    0    0 -0.00000000000E+00 -0.00000000000E+00 -0.45593999997E+02  0.45594000000E+02  0.51100000000E-03 0.  1.
    9900012    2    1    2    0    0  0.25223928820E+02  0.32795654614E+02  0.17813252867E+02  0.46142317361E+02  0.99999963526E+01 0.  0.
         12    1    1    2    0    0 -0.25223928820E+02 -0.32795654614E+02 -0.17813252867E+02  0.45045682639E+02  0.00000000000E+00 0. -1.
         11    1    3    3    0    0  0.53641735305E+01  0.10032155266E+02  0.22946439282E+01  0.11605338770E+02  0.51100000000E-03 0. -1.
        -11    1    3    3    0    0  0.47788654138E+01  0.96302103744E+01  0.40808641573E+01  0.11499215583E+02  0.51100000000E-03 0.  1.
         12    1    3    3    0    0  0.15080889876E+02  0.13133288973E+02  0.11437744781E+02  0.23037763008E+02  0.00000000000E+00 0. -1.
</event>
<event>
 7    1  0.2395003E-008  0.4614232E+02  0.7816164E-02  0.1320468E+00
        -11   -1    0    0    0    0  0.00000000000E+00  0.00000000000E+00  0.45593999997E+02  0.45594000000E+02  0.51100000000E-03 0.  1.
         11   -1    0    0    0    0 -0.00000000000E+00 -0.00000000000E+00 -0.45593999997E+02  0.45594000000E+02  0.51100000000E-03 0. -1.
    9900012    2    1    2    0    0  0.37585169413E+02  0.80009856786E+01  0.23504315019E+02  0.46142317009E+02  0.99999931381E+01 0.  0.
         12    1    1    2    0    0 -0.37585169413E+02 -0.80009856786E+01 -0.23504315019E+02  0.45045682991E+02  0.00000000000E+00 0. -1.
         11    1    3    3    0    0  0.19470930064E+00  0.55456746419E+00  0.88885365935E-01  0.59443894008E+00  0.51100000000E-03 0. -1.
        -11    1    3    3    0    0  0.28407636199E+02  0.20919960990E+01  0.15470501625E+02  0.32414605703E+02  0.51100000000E-03 0.  1.
        -12    1    3    3    0    0  0.89828239130E+01  0.53544221153E+01  0.79449280284E+01  0.13133272365E+02  0.00000000000E+00 0.  1.
</event>
<event>
 7    1  0.2395003E-008  0.4614232E+02  0.7816164E-02  0.1320468E+00
        -11   -1    0    0    0    0  0.00000000000E+00  0.00000000000E+00  0.45593999997E+02  0.45594000000E+02  0.51100000000E-03 0.  1.
         11   -1    0    0    0    0 -0.00000000000E+00 -0.00000000000E+00 -0.45593999997E+02  0.45594000000E+02  0.51100000000E-03 0. -1.
    9900012    2    1    2    0    0  0.33775888996E+02  0.91995605438E+01  0.28349088737E+02  0.46142318477E+02  0.10000006528E+02 0.  0.
         12    1    1    2    0    0 -0.33775888996E+02 -0.91995605438E+01 -0.28349088737E+02  0.45045681523E+02  0.00000000000E+00 0. -1.
         11    1    3    3    0    0  0.97555854813E+01  0.51895264246E+01  0.12200918458E+02  0.16461015888E+02  0.51100000000E-03 0.  1.
        -11    1    3    3    0    0  0.10715581900E+02  0.39691491031E+01  0.92072266003E+01  0.14674837716E+02  0.51100000000E-03 0. -1.
         12    1    3    3    0    0  0.13304721615E+02  0.40885016023E-01  0.69409436784E+01  0.15006464873E+02  0.00000000000E+00 0. -1.
</event>
<event>
 7    1  0.2395003E-008  0.4614232E+02  0.7816164E-02  0.1320468E+00
        -11   -1    0    0    0    0  0.00000000000E+00  0.00000000000E+00  0.45593999997E+02  0.45594000000E+02  0.51100000000E-03 0.  1.
         11   -1    0    0    0    0 -0.00000000000E+00 -0.00000000000E+00 -0.45593999997E+02  0.45594000000E+02  0.51100000000E-03 0. -1.
    9900012    2    1    2    0    0 -0.30690367505E+02  0.24750545139E+02  0.21785897864E+02  0.46142317765E+02  0.10000000035E+02 0.  0.
         12    1    1    2    0    0  0.30690367505E+02 -0.24750545139E+02 -0.21785897864E+02  0.45045682235E+02  0.00000000000E+00 0. -1.
         11    1    3    3    0    0 -0.25055853492E+02  0.17954509131E+02  0.17607855986E+02  0.35499250485E+02  0.51100000000E-03 0. -1.
        -11    1    3    3    0    0 -0.32135032282E+01  0.37199549202E+01  0.45662335815E+01  0.67093335726E+01  0.51100000000E-03 0.  1.
        -12    1    3    3    0    0 -0.24210107852E+01  0.30760810874E+01 -0.38819170333E+00  0.39337337069E+01  0.00000000000E+00 0.  1.
</event>
<event>
 7    1  0.2395003E-008  0.4614232E+02  0.7816164E-02  0.1320468E+00
        -11   -1    0    0    0    0  0.00000000000E+00  0.00000000000E+00  0.45593999997E+02  0.45594000000E+02  0.51100000000E-03 0.  1.
         11   -1    0    0    0    0 -0.00000000000E+00 -0.00000000000E+00 -0.45593999997E+02  0.45594000000E+02  0.51100000000E-03 0. -1.
    9900012    2    1    2    0    0 -0.41646889612E+02  0.15528901299E+01  0.17094991085E+02  0.46142316496E+02  0.99999884673E+01 0.  0.
         12    1    1    2    0    0  0.41646889612E+02 -0.15528901299E+01 -0.17094991085E+02  0.45045683504E+02  0.00000000000E+00 0. -1.
         11    1    3    3    0    0 -0.12080181958E+02  0.34085018220E+01  0.67044837449E+01  0.14230206722E+02  0.51100000000E-03 0. -1.
        -11    1    3    3    0    0 -0.16564965445E+02 -0.36206441488E+01  0.45911097198E+01  0.17566599926E+02  0.51100000000E-03 0.  1.
        -12    1    3    3    0    0 -0.13001742209E+02  0.17650324567E+01  0.57993976200E+01  0.14345509848E+02  0.00000000000E+00 0.  1.
</event>
<event>
 7    1  0.2395003E-008  0.4614232E+02  0.7816164E-02  0.1320468E+00
        -11   -1    0    0    0    0  0.00000000000E+00  0.00000000000E+00  0.45593999997E+02  0.45594000000E+02  0.51100000000E-03 0. -1.
         11   -1    0    0    0    0 -0.00000000000E+00 -0.00000000000E+00 -0.45593999997E+02  0.45594000000E+02  0.51100000000E-03 0.  1.
    9900012    2    1    2    0    0 -0.34913229946E+02  0.23345321072E+02  0.16284221643E+02  0.46142317457E+02  0.99999972284E+01 0.  0.
         12    1    1    2    0    0  0.34913229946E+02 -0.23345321072E+02 -0.16284221643E+02  0.45045682543E+02  0.00000000000E+00 0. -1.
         11    1    3    3    0    0 -0.11045868546E+02  0.89201278437E+01  0.78338941691E+01  0.16215726650E+02  0.51100000000E-03 0. -1.
        -11    1    3    3    0    0 -0.13722459175E+02  0.10280719889E+02  0.21363395652E+01  0.17278976656E+02  0.51100000000E-03 0.  1.
        -12    1    3    3    0    0 -0.10144902225E+02  0.41444733389E+01  0.63139879089E+01  0.12647614151E+02  0.00000000000E+00 0.  1.
</event>
<event>
 7    1  0.2395003E-008  0.4614232E+02  0.7816164E-02  0.1320468E+00
        -11   -1    0    0    0    0  0.00000000000E+00  0.00000000000E+00  0.45593999997E+02  0.45594000000E+02  0.51100000000E-03 0.  1.
         11   -1    0    0    0    0 -0.00000000000E+00 -0.00000000000E+00 -0.45593999997E+02  0.45594000000E+02  0.51100000000E-03 0. -1.
    9900012    2    1    2    0    0  0.14164632637E+02 -0.38687752177E+02  0.18213579767E+02  0.46142317918E+02  0.10000001433E+02 0.  0.
         12    1    1    2    0    0 -0.14164632637E+02  0.38687752177E+02 -0.18213579767E+02  0.45045682082E+02  0.00000000000E+00 0. -1.
         11    1    3    3    0    0  0.35504431273E+01 -0.49654230519E+01  0.39185562503E+01  0.72536994584E+01  0.51100000000E-03 0. -1.
        -11    1    3    3    0    0  0.72097685175E+01 -0.14399878745E+02  0.94772164685E+01  0.18685687095E+02  0.51100000000E-03 0.  1.
         12    1    3    3    0    0  0.34044209922E+01 -0.19322450380E+02  0.48178070483E+01  0.20202931365E+02  0.00000000000E+00 0. -1.
</event>
<event>
 7    1  0.2395003E-008  0.4614232E+02  0.7816164E-02  0.1320468E+00
        -11   -1    0    0    0    0  0.00000000000E+00  0.00000000000E+00  0.45593999997E+02  0.45594000000E+02  0.51100000000E-03 0.  1.
         11   -1    0    0    0    0 -0.00000000000E+00 -0.00000000000E+00 -0.45593999997E+02  0.45594000000E+02  0.51100000000E-03 0. -1.
    9900012    2    1    2    0    0 -0.34707989865E+02  0.38534464450E+01  0.28453819631E+02  0.46142318058E+02  0.10000002710E+02 0.  0.
         12    1    1    2    0    0  0.34707989865E+02 -0.38534464450E+01 -0.28453819631E+02  0.45045681942E+02  0.00000000000E+00 0. -1.
         11    1    3    3    0    0 -0.13547331127E+02 -0.25464434470E+01  0.11672025914E+02  0.18062412466E+02  0.51100000000E-03 0. -1.
        -11    1    3    3    0    0 -0.51784111257E+01  0.17046514013E+01  0.65857591690E+01  0.85495030429E+01  0.51100000000E-03 0.  1.
         12    1    3    3    0    0 -0.15982247613E+02  0.46952384907E+01  0.10196034548E+02  0.19530402550E+02  0.00000000000E+00 0. -1.
</event>
<event>
 7    1  0.2395003E-008  0.4614231E+02  0.7816164E-02  0.1320468E+00
        -11   -1    0    0    0    0  0.00000000000E+00  0.00000000000E+00  0.45593999997E+02  0.45594000000E+02  0.51100000000E-03 0. -1.
         11   -1    0    0    0    0 -0.00000000000E+00 -0.00000000000E+00 -0.45593999997E+02  0.45594000000E+02  0.51100000000E-03 0.  1.
    9900012    2    1    2    0    0  0.27911252979E+02  0.30448825731E+02  0.17970663354E+02  0.46142314606E+02  0.99999712276E+01 0.  0.
         12    1    1    2    0    0 -0.27911252979E+02 -0.30448825731E+02 -0.17970663354E+02  0.45045685394E+02  0.00000000000E+00 0. -1.
         11    1    3    3    0    0  0.16647906659E+02  0.19285455639E+02  0.10253790981E+02  0.27463099335E+02  0.51100000000E-03 0. -1.
        -11    1    3    3    0    0  0.50499308937E+01  0.84720780091E+01  0.64657152490E+01  0.11793361767E+02  0.51100000000E-03 0.  1.
         12    1    3    3    0    0  0.62134154257E+01  0.26912920829E+01  0.12511571243E+01  0.68858535040E+01  0.00000000000E+00 0. -1.
</event>
<event>
 7    1  0.2395003E-008  0.4614232E+02  0.7816164E-02  0.1320468E+00
        -11   -1    0    0    0    0  0.00000000000E+00  0.00000000000E+00  0.45593999997E+02  0.45594000000E+02  0.51100000000E-03 0.  1.
         11   -1    0    0    0    0 -0.00000000000E+00 -0.00000000000E+00 -0.45593999997E+02  0.45594000000E+02  0.51100000000E-03 0. -1.
    9900012    2    1    2    0    0 -0.95356354710E+01  0.31484923580E+01  0.43912095727E+02  0.46142317642E+02  0.99999989120E+01 0.  0.
         12    1    1    2    0    0  0.95356354710E+01 -0.31484923580E+01 -0.43912095727E+02  0.45045682358E+02  0.00000000000E+00 0. -1.
         11    1    3    3    0    0  0.15057175016E+00  0.40806911650E+01  0.96691905677E+01  0.10496092546E+02  0.51100000000E-03 0. -1.
        -11    1    3    3    0    0 -0.47681203326E+01  0.26365688777E+00  0.14567965037E+02  0.15330691180E+02  0.51100000000E-03 0.  1.
         12    1    3    3    0    0 -0.49180868885E+01 -0.11958556948E+01  0.19674940122E+02  0.20315533916E+02  0.00000000000E+00 0. -1.
</event>
<event>
 7    1  0.2395003E-008  0.4614232E+02  0.7816164E-02  0.1320468E+00
        -11   -1    0    0    0    0  0.00000000000E+00  0.00000000000E+00  0.45593999997E+02  0.45594000000E+02  0.51100000000E-03 0.  1.
         11   -1    0    0    0    0 -0.00000000000E+00 -0.00000000000E+00 -0.45593999997E+02  0.45594000000E+02  0.51100000000E-03 0. -1.
    9900012    2    1    2    0    0  0.19113392729E+02  0.10551005071E+02  0.39401371355E+02  0.46142317029E+02  0.99999933246E+01 0.  0.
         12    1    1    2    0    0 -0.19113392729E+02 -0.10551005071E+02 -0.39401371355E+02  0.45045682971E+02  0.00000000000E+00 0. -1.
         11    1    3    3    0    0  0.32859625746E+01  0.97417556148E+00  0.24892007988E+01  0.42358811296E+01  0.51100000000E-03 0. -1.
        -11    1    3    3    0    0  0.10417172758E+01 -0.11254356737E+01  0.37801064604E+01  0.40793363984E+01  0.51100000000E-03 0.  1.
        -12    1    3    3    0    0  0.14785712879E+02  0.10702265184E+02  0.33132064096E+02  0.37827099501E+02  0.00000000000E+00 0.  1.
</event>
<event>
 7    1  0.2395003E-008  0.4614232E+02  0.7816164E-02  0.1320468E+00
        -11   -1    0    0    0    0  0.00000000000E+00  0.00000000000E+00  0.45593999997E+02  0.45594000000E+02  0.51100000000E-03 0. -1.
         11   -1    0    0    0    0 -0.00000000000E+00 -0.00000000000E+00 -0.45593999997E+02  0.45594000000E+02  0.51100000000E-03 0.  1.
    9900012    2    1    2    0    0  0.55055518444E+01 -0.42657694082E+02 -0.13383703687E+02  0.46142317744E+02  0.99999998463E+01 0.  0.
         12    1    1    2    0    0 -0.55055518444E+01  0.42657694082E+02  0.13383703687E+02  0.45045682256E+02  0.00000000000E+00 0. -1.
         11    1    3    3    0    0 -0.14732028260E+01 -0.34555246432E+01  0.64257049576E+00  0.38110201035E+01  0.51100000000E-03 0. -1.
        -11    1    3    3    0    0  0.70958824863E+00 -0.10937115526E+02 -0.31496921830E+01  0.11403708722E+02  0.51100000000E-03 0.  1.
         12    1    3    3    0    0  0.62691664218E+01 -0.28265053913E+02 -0.10876582000E+02  0.30927588918E+02  0.00000000000E+00 0. -1.
</event>
<event>
 7    1  0.2395003E-008  0.4614232E+02  0.7816164E-02  0.1320468E+00
        -11   -1    0    0    0    0  0.00000000000E+00  0.00000000000E+00  0.45593999997E+02  0.45594000000E+02  0.51100000000E-03 0.  1.
         11   -1    0    0    0    0 -0.00000000000E+00 -0.00000000000E+00 -0.45593999997E+02  0.45594000000E+02  0.51100000000E-03 0. -1.
    9900012    2    1    2    0    0  0.18171564483E+02 -0.35187671916E+02  0.21464747627E+02  0.46142318728E+02  0.10000008813E+02 0.  0.
         12    1    1    2    0    0 -0.18171564483E+02  0.35187671916E+02 -0.21464747627E+02  0.45045681272E+02  0.00000000000E+00 0. -1.
         11    1    3    3    0    0  0.10825516619E+02 -0.23127263394E+02  0.85780702992E+01  0.26937806379E+02  0.51100000000E-03 0. -1.
        -11    1    3    3    0    0  0.28800599646E+01 -0.56973078018E+01  0.47994516340E+01  0.79867889565E+01  0.51100000000E-03 0.  1.
         12    1    3    3    0    0  0.44659878992E+01 -0.63631007197E+01  0.80872256942E+01  0.11217723393E+02  0.00000000000E+00 0. -1.
</event>
<event>
 7    1  0.2395003E-008  0.4614232E+02  0.7816164E-02  0.1320468E+00
        -11   -1    0    0    0    0  0.00000000000E+00  0.00000000000E+00  0.45593999997E+02  0.45594000000E+02  0.51100000000E-03 0.  1.
         11   -1    0    0    0    0 -0.00000000000E+00 -0.00000000000E+00 -0.45593999997E+02  0.45594000000E+02  0.51100000000E-03 0. -1.
    9900012    2    1    2    0    0 -0.25111356673E+02 -0.21669168402E+02  0.30479181150E+02  0.46142316780E+02  0.99999910492E+01 0.  0.
         12    1    1    2    0    0  0.25111356673E+02  0.21669168402E+02 -0.30479181150E+02  0.45045683220E+02  0.00000000000E+00 0. -1.
         11    1    3    3    0    0  0.30818428117E+00 -0.80709117017E+00  0.70013576416E+00  0.11120090186E+01  0.51100000000E-03 0. -1.
        -11    1    3    3    0    0 -0.26427178247E+01 -0.10569751133E+01  0.58743861612E+01  0.65276003955E+01  0.51100000000E-03 0.  1.
         12    1    3    3    0    0 -0.22776823130E+02 -0.19805102118E+02  0.23904659225E+02  0.38502707365E+02  0.00000000000E+00 0. -1.
</event>
<event>
 7    1  0.2395003E-008  0.4614232E+02  0.7816164E-02  0.1320468E+00
        -11   -1    0    0    0    0  0.00000000000E+00  0.00000000000E+00  0.45593999997E+02  0.45594000000E+02  0.51100000000E-03 0.  1.
         11   -1    0    0    0    0 -0.00000000000E+00 -0.00000000000E+00 -0.45593999997E+02  0.45594000000E+02  0.51100000000E-03 0. -1.
    9900012    2    1    2    0    0  0.42752327491E+02 -0.13174576042E+02 -0.52708807880E+01  0.46142321583E+02  0.10000034847E+02 0.  0.
         12    1    1    2    0    0 -0.42752327491E+02  0.13174576042E+02  0.52708807880E+01  0.45045678417E+02  0.00000000000E+00 0. -1.
         11    1    3    3    0    0  0.78809666601E+00 -0.99938836925E+00  0.42117399233E+00  0.13406197300E+01  0.51100000000E-03 0. -1.
        -11    1    3    3    0    0  0.32024872220E+02 -0.12759709035E+02 -0.40420392689E+01  0.34709374772E+02  0.51100000000E-03 0.  1.
        -12    1    3    3    0    0  0.99393586051E+01  0.58452136239E+00 -0.16500155114E+01  0.10092327080E+02  0.00000000000E+00 0.  1.
</event>
<event>
 7    1  0.2395003E-008  0.4614232E+02  0.7816164E-02  0.1320468E+00
        -11   -1    0    0    0    0  0.00000000000E+00  0.00000000000E+00  0.45593999997E+02  0.45594000000E+02  0.51100000000E-03 0.  1.
         11   -1    0    0    0    0 -0.00000000000E+00 -0.00000000000E+00 -0.45593999997E+02  0.45594000000E+02  0.51100000000E-03 0. -1.
    9900012    2    1    2    0    0 -0.41542021252E+01  0.22944757387E+01  0.44794994234E+02  0.46142317381E+02  0.99999965340E+01 0.  0.
         12    1    1    2    0    0  0.41542021252E+01 -0.22944757387E+01 -0.44794994234E+02  0.45045682619E+02  0.00000000000E+00 0. -1.
         11    1    3    3    0    0 -0.30581288817E+01 -0.48726288386E+00  0.62752230867E+01  0.69977140856E+01  0.51100000000E-03 0. -1.
        -11    1    3    3    0    0  0.25606501861E+01  0.10468622977E+01  0.11793830830E+02  0.12113929831E+02  0.51100000000E-03 0.  1.
        -12    1    3    3    0    0 -0.36567234296E+01  0.17348763249E+01  0.26725940317E+02  0.27030673465E+02  0.00000000000E+00 0.  1.
</event>
<event>
 7    1  0.2395003E-008  0.4614232E+02  0.7816164E-02  0.1320468E+00
        -11   -1    0    0    0    0  0.00000000000E+00  0.00000000000E+00  0.45593999997E+02  0.45594000000E+02  0.51100000000E-03 0. -1.
         11   -1    0    0    0    0 -0.00000000000E+00 -0.00000000000E+00 -0.45593999997E+02  0.45594000000E+02  0.51100000000E-03 0.  1.
    9900012    2    1    2    0    0  0.27129738138E+02 -0.35365755460E+02 -0.65080075245E+01  0.46142317492E+02  0.99999975467E+01 0.  0.
         12    1    1    2    0    0 -0.27129738138E+02  0.35365755460E+02  0.65080075245E+01  0.45045682508E+02  0.00000000000E+00 0. -1.
         11    1    3    3    0    0  0.13938070231E+01 -0.15241442575E+00 -0.70187780188E+00  0.15679798739E+01  0.51100000000E-03 0. -1.
        -11    1    3    3    0    0  0.12849830708E+02 -0.11811582092E+02 -0.30399478639E+01  0.17716458563E+02  0.51100000000E-03 0.  1.
         12    1    3    3    0    0  0.12886100407E+02 -0.23401758942E+02 -0.27661818587E+01  0.26857879055E+02  0.00000000000E+00 0. -1.
</event>
<event>
 7    1  0.2395003E-008  0.4614232E+02  0.7816164E-02  0.1320468E+00
        -11   -1    0    0    0    0  0.00000000000E+00  0.00000000000E+00  0.45593999997E+02  0.45594000000E+02  0.51100000000E-03 0.  1.
         11   -1    0    0    0    0 -0.00000000000E+00 -0.00000000000E+00 -0.45593999997E+02  0.45594000000E+02  0.51100000000E-03 0. -1.
    9900012    2    1    2    0    0  0.21697284154E+02 -0.39452080084E+02 -0.13692724288E+01  0.46142315750E+02  0.99999816580E+01 0.  0.
         12    1    1    2    0    0 -0.21697284154E+02  0.39452080084E+02  0.13692724288E+01  0.45045684250E+02  0.00000000000E+00 0. -1.
         11    1    3    3    0    0  0.59593809466E+01 -0.88349951298E+01  0.42458171839E+00  0.10665440924E+02  0.51100000000E-03 0.  1.
        -11    1    3    3    0    0  0.30083631239E+01 -0.20999032073E+01  0.17172785193E+01  0.40507885577E+01  0.51100000000E-03 0. -1.
         12    1    3    3    0    0  0.12729540084E+02 -0.28517181747E+02 -0.35111326665E+01  0.31426086268E+02  0.00000000000E+00 0. -1.
</event>
<event>
 7    1  0.2395003E-008  0.4614232E+02  0.7816164E-02  0.1320468E+00
        -11   -1    0    0    0    0  0.00000000000E+00  0.00000000000E+00  0.45593999997E+02  0.45594000000E+02  0.51100000000E-03 0.  1.
         11   -1    0    0    0    0 -0.00000000000E+00 -0.00000000000E+00 -0.45593999997E+02  0.45594000000E+02  0.51100000000E-03 0. -1.
    9900012    2    1    2    0    0  0.12559732304E+02 -0.38787199056E+02  0.19155150691E+02  0.46142317808E+02  0.10000000424E+02 0.  0.
         12    1    1    2    0    0 -0.12559732304E+02  0.38787199056E+02 -0.19155150691E+02  0.45045682192E+02  0.00000000000E+00 0. -1.
         11    1    3    3    0    0  0.85293828991E+00 -0.24690317421E+01 -0.31144858330E+00  0.26307075001E+01  0.51100000000E-03 0. -1.
        -11    1    3    3    0    0  0.89484153510E+01 -0.29773715098E+02  0.12335209564E+02  0.33447057319E+02  0.51100000000E-03 0.  1.
         12    1    3    3    0    0  0.27583786632E+01 -0.65444522158E+01  0.71313897109E+01  0.10064552989E+02  0.00000000000E+00 0. -1.
</event>
<event>
 7    1  0.2395003E-008  0.4614232E+02  0.7816164E-02  0.1320468E+00
        -11   -1    0    0    0    0  0.00000000000E+00  0.00000000000E+00  0.45593999997E+02  0.45594000000E+02  0.51100000000E-03 0.  1.
         11   -1    0    0    0    0 -0.00000000000E+00 -0.00000000000E+00 -0.45593999997E+02  0.45594000000E+02  0.51100000000E-03 0. -1.
    9900012    2    1    2    0    0  0.36373040940E+02  0.32667723177E+01  0.26371266044E+02  0.46142316729E+02  0.99999905864E+01 0.  0.
         12    1    1    2    0    0 -0.36373040940E+02 -0.32667723177E+01 -0.26371266044E+02  0.45045683271E+02  0.00000000000E+00 0. -1.
         11    1    3    3    0    0  0.16053897067E+01 -0.86982398152E+00  0.21267501265E+00  0.18382330623E+01  0.51100000000E-03 0. -1.
        -11    1    3    3    0    0  0.13234244799E+02  0.14816133509E+01  0.57082616181E+01  0.14488777191E+02  0.51100000000E-03 0.  1.
        -12    1    3    3    0    0  0.21533406434E+02  0.26549829483E+01  0.20450329414E+02  0.29815306476E+02  0.00000000000E+00 0.  1.
</event>
<event>
 7    1  0.2395003E-008  0.4614232E+02  0.7816164E-02  0.1320468E+00
        -11   -1    0    0    0    0  0.00000000000E+00  0.00000000000E+00  0.45593999997E+02  0.45594000000E+02  0.51100000000E-03 0.  1.
         11   -1    0    0    0    0 -0.00000000000E+00 -0.00000000000E+00 -0.45593999997E+02  0.45594000000E+02  0.51100000000E-03 0. -1.
    9900012    2    1    2    0    0 -0.32065893586E+02 -0.13320935375E+01  0.31608818603E+02  0.46142318541E+02  0.10000007113E+02 0.  0.
         12    1    1    2    0    0  0.32065893586E+02  0.13320935375E+01 -0.31608818603E+02  0.45045681459E+02  0.00000000000E+00 0. -1.
         11    1    3    3    0    0 -0.40184616789E+01  0.24549476389E+01  0.74815138131E+01  0.88401273391E+01  0.51100000000E-03 0. -1.
        -11    1    3    3    0    0 -0.21974554257E+02 -0.31799545358E+01  0.20391716972E+02  0.30146563104E+02  0.51100000000E-03 0.  1.
         12    1    3    3    0    0 -0.60728776496E+01 -0.60708664062E+00  0.37355878178E+01  0.71556280982E+01  0.00000000000E+00 0. -1.
</event>
<event>
 7    1  0.2395003E-008  0.4614231E+02  0.7816164E-02  0.1320468E+00
        -11   -1    0    0    0    0  0.00000000000E+00  0.00000000000E+00  0.45593999997E+02  0.45594000000E+02  0.51100000000E-03 0.  1.
         11   -1    0    0    0    0 -0.00000000000E+00 -0.00000000000E+00 -0.45593999997E+02  0.45594000000E+02  0.51100000000E-03 0. -1.
    9900012    2    1    2    0    0 -0.21091840779E+02 -0.36466056853E+02  0.15952269551E+02  0.46142312596E+02  0.99999528998E+01 0.  0.
         12    1    1    2    0    0  0.21091840779E+02  0.36466056853E+02 -0.15952269551E+02  0.45045687404E+02  0.00000000000E+00 0. -1.
         11    1    3    3    0    0 -0.16947194758E+01 -0.23475130357E+01  0.28319461997E+01  0.40500384064E+01  0.51100000000E-03 0. -1.
        -11    1    3    3    0    0 -0.74026641382E+01 -0.14031539391E+02  0.14030148822E+01  0.15926455508E+02  0.51100000000E-03 0.  1.
        -12    1    3    3    0    0 -0.11994457165E+02 -0.20087004426E+02  0.11717308469E+02  0.26165818681E+02  0.00000000000E+00 0.  1.
</event>
<event>
 7    1  0.2395003E-008  0.4614232E+02  0.7816164E-02  0.1320468E+00
        -11   -1    0    0    0    0  0.00000000000E+00  0.00000000000E+00  0.45593999997E+02  0.45594000000E+02  0.51100000000E-03 0. -1.
         11   -1    0    0    0    0 -0.00000000000E+00 -0.00000000000E+00 -0.45593999997E+02  0.45594000000E+02  0.51100000000E-03 0.  1.
    9900012    2    1    2    0    0  0.37729568276E+02 -0.23698658146E+02 -0.66307433992E+01  0.46142317873E+02  0.10000001023E+02 0.  0.
         12    1    1    2    0    0 -0.37729568276E+02  0.23698658146E+02  0.66307433992E+01  0.45045682127E+02  0.00000000000E+00 0. -1.
         11    1    3    3    0    0  0.31838545105E+00 -0.87345373456E+00  0.11412999597E+01  0.14720246537E+01  0.51100000000E-03 0.  1.
        -11    1    3    3    0    0  0.11192023316E+02 -0.54487261279E+01 -0.34733971127E+01  0.12923408609E+02  0.51100000000E-03 0. -1.
        -12    1    3    3    0    0  0.26219159509E+02 -0.17376478283E+02 -0.42986462463E+01  0.31746884610E+02  0.00000000000E+00 0.  1.
</event>
<event>
 7    1  0.2395003E-008  0.4614232E+02  0.7816164E-02  0.1320468E+00
        -11   -1    0    0    0    0  0.00000000000E+00  0.00000000000E+00  0.45593999997E+02  0.45594000000E+02  0.51100000000E-03 0.  1.
         11   -1    0    0    0    0 -0.00000000000E+00 -0.00000000000E+00 -0.45593999997E+02  0.45594000000E+02  0.51100000000E-03 0. -1.
    9900012    2    1    2    0    0 -0.26235555518E+01  0.11585310533E+02  0.43451249072E+02  0.46142317523E+02  0.99999978296E+01 0.  0.
         12    1    1    2    0    0  0.26235555518E+01 -0.11585310533E+02 -0.43451249072E+02  0.45045682477E+02  0.00000000000E+00 0. -1.
         11    1    3    3    0    0 -0.96110656930E+00  0.22402771104E+01  0.13284023590E+02  0.13505845045E+02  0.51100000000E-03 0. -1.
        -11    1    3    3    0    0 -0.31110504808E+01  0.10209095263E+02  0.27269089843E+02  0.29283229369E+02  0.51100000000E-03 0.  1.
         12    1    3    3    0    0  0.14486014983E+01 -0.86406184028E+00  0.28981356388E+01  0.33532431086E+01  0.00000000000E+00 0. -1.
</event>
<event>
 7    1  0.2395003E-008  0.4614232E+02  0.7816164E-02  0.1320468E+00
        -11   -1    0    0    0    0  0.00000000000E+00  0.00000000000E+00  0.45593999997E+02  0.45594000000E+02  0.51100000000E-03 0.  1.
         11   -1    0    0    0    0 -0.00000000000E+00 -0.00000000000E+00 -0.45593999997E+02  0.45594000000E+02  0.51100000000E-03 0. -1.
    9900012    2    1    2    0    0 -0.23844126951E+02 -0.14798791207E+02  0.35235874864E+02  0.46142317757E+02  0.99999999665E+01 0.  0.
         12    1    1    2    0    0  0.23844126951E+02  0.14798791207E+02 -0.35235874864E+02  0.45045682243E+02  0.00000000000E+00 0. -1.
         11    1    3    3    0    0 -0.59040553446E+01 -0.13545879282E+01  0.46118252450E+01  0.76132588501E+01  0.51100000000E-03 0. -1.
        -11    1    3    3    0    0 -0.72267041838E+01 -0.85114979378E+01  0.18544232552E+02  0.21646233199E+02  0.51100000000E-03 0.  1.
        -12    1    3    3    0    0 -0.10713367423E+02 -0.49327053407E+01  0.12079817067E+02  0.16882825708E+02  0.00000000000E+00 0.  1.
</event>
<event>
 7    1  0.2395003E-008  0.4614232E+02  0.7816164E-02  0.1320468E+00
        -11   -1    0    0    0    0  0.00000000000E+00  0.00000000000E+00  0.45593999997E+02  0.45594000000E+02  0.51100000000E-03 0.  1.
         11   -1    0    0    0    0 -0.00000000000E+00 -0.00000000000E+00 -0.45593999997E+02  0.45594000000E+02  0.51100000000E-03 0. -1.
    9900012    2    1    2    0    0  0.30094501553E+01 -0.21807786917E+02  0.39299837488E+02  0.46142316666E+02  0.99999900154E+01 0.  0.
         12    1    1    2    0    0 -0.30094501553E+01  0.21807786917E+02 -0.39299837488E+02  0.45045683334E+02  0.00000000000E+00 0. -1.
         11    1    3    3    0    0  0.11331145352E+01 -0.59954012623E+01  0.38480107445E+01  0.72135963150E+01  0.51100000000E-03 0. -1.
        -11    1    3    3    0    0  0.69231646136E+00 -0.10119693004E+01  0.30372123444E+01  0.32753691447E+01  0.51100000000E-03 0.  1.
        -12    1    3    3    0    0  0.11840191587E+01 -0.14800416354E+02  0.32414614399E+02  0.35653351206E+02  0.00000000000E+00 0.  1.
</event>
<event>
 7    1  0.2395003E-008  0.4614232E+02  0.7816164E-02  0.1320468E+00
        -11   -1    0    0    0    0  0.00000000000E+00  0.00000000000E+00  0.45593999997E+02  0.45594000000E+02  0.51100000000E-03 0.  1.
         11   -1    0    0    0    0 -0.00000000000E+00 -0.00000000000E+00 -0.45593999997E+02  0.45594000000E+02  0.51100000000E-03 0. -1.
    9900012    2    1    2    0    0  0.21461175081E+02 -0.24397435005E+02  0.31197697312E+02  0.46142321092E+02  0.10000030376E+02 0.  0.
         12    1    1    2    0    0 -0.21461175081E+02  0.24397435005E+02 -0.31197697312E+02  0.45045678908E+02  0.00000000000E+00 0. -1.
         11    1    3    3    0    0  0.91237131441E+01 -0.51907665092E+01  0.91898357491E+01  0.13951318212E+02  0.51100000000E-03 0. -1.
        -11    1    3    3    0    0  0.12092066988E+02 -0.15112704251E+02  0.18821067028E+02  0.26997119812E+02  0.51100000000E-03 0.  1.
         12    1    3    3    0    0  0.24539494895E+00 -0.40939642450E+01  0.31867945350E+01  0.51938830685E+01  0.00000000000E+00 0. -1.
</event>
<event>
 7    1  0.2395003E-008  0.4614232E+02  0.7816164E-02  0.1320468E+00
        -11   -1    0    0    0    0  0.00000000000E+00  0.00000000000E+00  0.45593999997E+02  0.45594000000E+02  0.51100000000E-03 0.  1.
         11   -1    0    0    0    0 -0.00000000000E+00 -0.00000000000E+00 -0.45593999997E+02  0.45594000000E+02  0.51100000000E-03 0. -1.
    9900012    2    1    2    0    0  0.12174697376E+02 -0.30871167529E+02  0.30460815314E+02  0.46142317517E+02  0.99999977715E+01 0.  0.
         12    1    1    2    0    0 -0.12174697376E+02  0.30871167529E+02 -0.30460815314E+02  0.45045682483E+02  0.00000000000E+00 0. -1.
         11    1    3    3    0    0  0.71490597051E+00 -0.10241964796E+01  0.24538438371E+00  0.12729032691E+01  0.51100000000E-03 0. -1.
        -11    1    3    3    0    0  0.11296752536E+02 -0.19823850382E+02  0.17965780212E+02  0.29040849174E+02  0.51100000000E-03 0.  1.
        -12    1    3    3    0    0  0.16303886884E+00 -0.10023120667E+02  0.12249650718E+02  0.15828565074E+02  0.00000000000E+00 0.  1.
</event>
<event>
 7    1  0.2395003E-008  0.4614232E+02  0.7816164E-02  0.1320468E+00
        -11   -1    0    0    0    0  0.00000000000E+00  0.00000000000E+00  0.45593999997E+02  0.45594000000E+02  0.51100000000E-03 0.  1.
         11   -1    0    0    0    0 -0.00000000000E+00 -0.00000000000E+00 -0.45593999997E+02  0.45594000000E+02  0.51100000000E-03 0. -1.
    9900012    2    1    2    0    0 -0.15359554460E+02 -0.92329938607E+01  0.41327344777E+02  0.46142317464E+02  0.99999972879E+01 0.  0.
         12    1    1    2    0    0  0.15359554460E+02  0.92329938607E+01 -0.41327344777E+02  0.45045682536E+02  0.00000000000E+00 0. -1.
         11    1    3    3    0    0 -0.12466502092E+01 -0.27147372857E+01  0.26506790168E+01  0.39937494646E+01  0.51100000000E-03 0. -1.
        -11    1    3    3    0    0 -0.13044325835E+02 -0.34358202482E+01  0.31155954243E+02  0.33950740527E+02  0.51100000000E-03 0.  1.
         12    1    3    3    0    0 -0.10685784157E+01 -0.30824363268E+01  0.75207115173E+01  0.81978274723E+01  0.00000000000E+00 0. -1.
</event>
<event>
 7    1  0.2395003E-008  0.4614232E+02  0.7816164E-02  0.1320468E+00
        -11   -1    0    0    0    0  0.00000000000E+00  0.00000000000E+00  0.45593999997E+02  0.45594000000E+02  0.51100000000E-03 0. -1.
         11   -1    0    0    0    0 -0.00000000000E+00 -0.00000000000E+00 -0.45593999997E+02  0.45594000000E+02  0.51100000000E-03 0.  1.
    9900012    2    1    2    0    0  0.42348637417E+01 -0.37455849446E+02 -0.24662498810E+02  0.46142316786E+02  0.99999911113E+01 0.  0.
         12    1    1    2    0    0 -0.42348637417E+01  0.37455849446E+02  0.24662498810E+02  0.45045683214E+02  0.00000000000E+00 0. -1.
         11    1    3    3    0    0 -0.40860490911E-01 -0.28209141597E+02 -0.20076350875E+02  0.34623939751E+02  0.51100000000E-03 0.  1.
        -11    1    3    3    0    0 -0.38464612066E+00 -0.36499082625E+00 -0.31443599770E+00  0.61647481632E+00  0.51100000000E-03 0. -1.
        -12    1    3    3    0    0  0.46603703533E+01 -0.88817170232E+01 -0.42717119377E+01  0.10901902219E+02  0.00000000000E+00 0.  1.
</event>
<event>
 7    1  0.2395003E-008  0.4614232E+02  0.7816164E-02  0.1320468E+00
        -11   -1    0    0    0    0  0.00000000000E+00  0.00000000000E+00  0.45593999997E+02  0.45594000000E+02  0.51100000000E-03 0.  1.
         11   -1    0    0    0    0 -0.00000000000E+00 -0.00000000000E+00 -0.45593999997E+02  0.45594000000E+02  0.51100000000E-03 0. -1.
    9900012    2    1    2    0    0  0.18630377263E+02  0.74612858359E+01  0.40328051878E+02  0.46142317504E+02  0.99999976547E+01 0.  0.
         12    1    1    2    0    0 -0.18630377263E+02 -0.74612858359E+01 -0.40328051878E+02  0.45045682496E+02  0.00000000000E+00 0. -1.
         11    1    3    3    0    0  0.39521272327E+01  0.23137621667E+01  0.38084741648E+01  0.59562807819E+01  0.51100000000E-03 0.  1.
        -11    1    3    3    0    0  0.62130087271E+01 -0.29219575149E+00  0.95141588307E+01  0.11366884987E+02  0.51100000000E-03 0. -1.
         12    1    3    3    0    0  0.84652413031E+01  0.54397194207E+01  0.27005418882E+02  0.28819151735E+02  0.00000000000E+00 0. -1.
</event>
<event>
 7    1  0.2395003E-008  0.4614232E+02  0.7816164E-02  0.1320468E+00
        -11   -1    0    0    0    0  0.00000000000E+00  0.00000000000E+00  0.45593999997E+02  0.45594000000E+02  0.51100000000E-03 0.  1.
         11   -1    0    0    0    0 -0.00000000000E+00 -0.00000000000E+00 -0.45593999997E+02  0.45594000000E+02  0.51100000000E-03 0. -1.
    9900012    2    1    2    0    0 -0.70974096476E+01  0.11433174035E+01  0.44468338064E+02  0.46142317758E+02  0.99999999760E+01 0.  0.
         12    1    1    2    0    0  0.70974096476E+01 -0.11433174035E+01 -0.44468338064E+02  0.45045682242E+02  0.00000000000E+00 0. -1.
         11    1    3    3    0    0  0.20037076871E+01 -0.10910700903E+01  0.95425375338E+01  0.98114882298E+01  0.51100000000E-03 0. -1.
        -11    1    3    3    0    0 -0.21202491902E+01  0.13158942208E+01  0.14800414406E+02  0.15009307149E+02  0.51100000000E-03 0.  1.
        -12    1    3    3    0    0 -0.69808681445E+01  0.91849327300E+00  0.20125386125E+02  0.21321522380E+02  0.00000000000E+00 0.  1.
</event>
<event>
 7    1  0.2395003E-008  0.4614232E+02  0.7816164E-02  0.1320468E+00
        -11   -1    0    0    0    0  0.00000000000E+00  0.00000000000E+00  0.45593999997E+02  0.45594000000E+02  0.51100000000E-03 0.  1.
         11   -1    0    0    0    0 -0.00000000000E+00 -0.00000000000E+00 -0.45593999997E+02  0.45594000000E+02  0.51100000000E-03 0. -1.
    9900012    2    1    2    0    0  0.45888172947E+01  0.35414281340E+02  0.27456966425E+02  0.46142316830E+02  0.99999915127E+01 0.  0.
         12    1    1    2    0    0 -0.45888172947E+01 -0.35414281340E+02 -0.27456966425E+02  0.45045683170E+02  0.00000000000E+00 0. -1.
         11    1    3    3    0    0 -0.11830958052E+01  0.11345037053E+02  0.45903526383E+01  0.12295565014E+02  0.51100000000E-03 0. -1.
        -11    1    3    3    0    0  0.26346972990E+01  0.68867631935E+01  0.53505673721E+01  0.91103078217E+01  0.51100000000E-03 0.  1.
        -12    1    3    3    0    0  0.31372158008E+01  0.17182481094E+02  0.17516046414E+02  0.24736443995E+02  0.00000000000E+00 0.  1.
</event>
<event>
 7    1  0.2395003E-008  0.4614232E+02  0.7816164E-02  0.1320468E+00
        -11   -1    0    0    0    0  0.00000000000E+00  0.00000000000E+00  0.45593999997E+02  0.45594000000E+02  0.51100000000E-03 0.  1.
         11   -1    0    0    0    0 -0.00000000000E+00 -0.00000000000E+00 -0.45593999997E+02  0.45594000000E+02  0.51100000000E-03 0. -1.
    9900012    2    1    2    0    0  0.36361561044E+02 -0.25137925600E+02  0.86622787008E+01  0.46142317662E+02  0.99999990960E+01 0.  0.
         12    1    1    2    0    0 -0.36361561044E+02  0.25137925600E+02 -0.86622787008E+01  0.45045682338E+02  0.00000000000E+00 0. -1.
         11    1    3    3    0    0  0.28605654124E+02 -0.20839057156E+02  0.97559096018E+01  0.36711408628E+02  0.51100000000E-03 0. -1.
        -11    1    3    3    0    0  0.53005346561E+01 -0.44188440091E+01 -0.97878532704E+00  0.69699261829E+01  0.51100000000E-03 0.  1.
         12    1    3    3    0    0  0.24553722635E+01  0.11997556502E+00 -0.11484557390E+00  0.24609828513E+01  0.00000000000E+00 0. -1.
</event>
<event>
 7    1  0.2395003E-008  0.4614232E+02  0.7816164E-02  0.1320468E+00
        -11   -1    0    0    0    0  0.00000000000E+00  0.00000000000E+00  0.45593999997E+02  0.45594000000E+02  0.51100000000E-03 0. -1.
         11   -1    0    0    0    0 -0.00000000000E+00 -0.00000000000E+00 -0.45593999997E+02  0.45594000000E+02  0.51100000000E-03 0.  1.
    9900012    2    1    2    0    0  0.30796608834E+02 -0.26966742229E+02 -0.18800989002E+02  0.46142317748E+02  0.99999998776E+01 0.  0.
         12    1    1    2    0    0 -0.30796608834E+02  0.26966742229E+02  0.18800989002E+02  0.45045682252E+02  0.00000000000E+00 0. -1.
         11    1    3    3    0    0  0.19178163534E+02 -0.21217357200E+02 -0.15056673076E+02  0.32321534733E+02  0.51100000000E-03 0.  1.
        -11    1    3    3    0    0  0.39733710599E+01 -0.33786152247E+01 -0.72384607623E+00  0.52656121980E+01  0.51100000000E-03 0. -1.
        -12    1    3    3    0    0  0.76450742397E+01 -0.23707698048E+01 -0.30204698498E+01  0.85551708172E+01  0.00000000000E+00 0.  1.
</event>
<event>
 7    1  0.2395003E-008  0.4614232E+02  0.7816164E-02  0.1320468E+00
        -11   -1    0    0    0    0  0.00000000000E+00  0.00000000000E+00  0.45593999997E+02  0.45594000000E+02  0.51100000000E-03 0. -1.
         11   -1    0    0    0    0 -0.00000000000E+00 -0.00000000000E+00 -0.45593999997E+02  0.45594000000E+02  0.51100000000E-03 0.  1.
    9900012    2    1    2    0    0 -0.17255471869E+02  0.29093274861E+02 -0.29748001728E+02  0.46142316984E+02  0.99999929142E+01 0.  0.
         12    1    1    2    0    0  0.17255471869E+02 -0.29093274861E+02  0.29748001728E+02  0.45045683016E+02  0.00000000000E+00 0. -1.
         11    1    3    3    0    0 -0.29007139222E+01  0.63578225012E+01 -0.45452805944E+01  0.83364035506E+01  0.51100000000E-03 0. -1.
        -11    1    3    3    0    0 -0.11383367847E+02  0.13544754455E+02 -0.11728846463E+02  0.21227512251E+02  0.51100000000E-03 0.  1.
        -12    1    3    3    0    0 -0.29713901003E+01  0.91906979050E+01 -0.13473874671E+02  0.16578401182E+02  0.00000000000E+00 0.  1.
</event>
<event>
 7    1  0.2395003E-008  0.4614232E+02  0.7816164E-02  0.1320468E+00
        -11   -1    0    0    0    0  0.00000000000E+00  0.00000000000E+00  0.45593999997E+02  0.45594000000E+02  0.51100000000E-03 0. -1.
         11   -1    0    0    0    0 -0.00000000000E+00 -0.00000000000E+00 -0.45593999997E+02  0.45594000000E+02  0.51100000000E-03 0.  1.
    9900012    2    1    2    0    0 -0.16109866839E+02  0.40554981113E+02 -0.11174945015E+02  0.46142315426E+02  0.99999787051E+01 0.  0.
         12    1    1    2    0    0  0.16109866839E+02 -0.40554981113E+02  0.11174945015E+02  0.45045684574E+02  0.00000000000E+00 0. -1.
         11    1    3    3    0    0 -0.27051878445E+01  0.10420618622E+02 -0.23187613840E+01  0.11012900996E+02  0.51100000000E-03 0.  1.
        -11    1    3    3    0    0 -0.12700105128E+02  0.20854778818E+02 -0.83633620610E+01  0.25810081268E+02  0.51100000000E-03 0. -1.
         12    1    3    3    0    0 -0.70457386604E+00  0.92795836733E+01 -0.49282157008E+00  0.93193331619E+01  0.00000000000E+00 0. -1.
</event>
<event>
 7    1  0.2395003E-008  0.4614232E+02  0.7816164E-02  0.1320468E+00
        -11   -1    0    0    0    0  0.00000000000E+00  0.00000000000E+00  0.45593999997E+02  0.45594000000E+02  0.51100000000E-03 0.  1.
         11   -1    0    0    0    0 -0.00000000000E+00 -0.00000000000E+00 -0.45593999997E+02  0.45594000000E+02  0.51100000000E-03 0. -1.
    9900012    2    1    2    0    0  0.23166255771E+02 -0.33323819029E+02  0.19543826604E+02  0.46142317860E+02  0.10000000903E+02 0.  0.
         12    1    1    2    0    0 -0.23166255771E+02  0.33323819029E+02 -0.19543826604E+02  0.45045682140E+02  0.00000000000E+00 0. -1.
         11    1    3    3    0    0  0.92542166550E+01 -0.12588740356E+02  0.24435817963E+01  0.15814170920E+02  0.51100000000E-03 0. -1.
        -11    1    3    3    0    0  0.10095871020E+02 -0.13474527035E+02  0.11136781593E+02  0.20187060088E+02  0.51100000000E-03 0.  1.
         12    1    3    3    0    0  0.38161680953E+01 -0.72605516381E+01  0.59634632146E+01  0.10141086852E+02  0.00000000000E+00 0. -1.
</event>
<event>
 7    1  0.2395003E-008  0.4614232E+02  0.7816164E-02  0.1320468E+00
        -11   -1    0    0    0    0  0.00000000000E+00  0.00000000000E+00  0.45593999997E+02  0.45594000000E+02  0.51100000000E-03 0.  1.
         11   -1    0    0    0    0 -0.00000000000E+00 -0.00000000000E+00 -0.45593999997E+02  0.45594000000E+02  0.51100000000E-03 0. -1.
    9900012    2    1    2    0    0 -0.26396427948E+02  0.15467814903E+02  0.33061893315E+02  0.46142317678E+02  0.99999992421E+01 0.  0.
         12    1    1    2    0    0  0.26396427948E+02 -0.15467814903E+02 -0.33061893315E+02  0.45045682322E+02  0.00000000000E+00 0. -1.
         11    1    3    3    0    0 -0.31441304056E+00  0.48477283074E+00  0.90924722353E+00  0.10773073063E+01  0.51100000000E-03 0. -1.
        -11    1    3    3    0    0 -0.23187855262E+02  0.90916200584E+01  0.26884353864E+02  0.36648365174E+02  0.51100000000E-03 0.  1.
        -12    1    3    3    0    0 -0.28941596447E+01  0.58914220138E+01  0.52682922277E+01  0.84166451981E+01  0.00000000000E+00 0.  1.
</event>
<event>
 7    1  0.2395003E-008  0.4614232E+02  0.7816164E-02  0.1320468E+00
        -11   -1    0    0    0    0  0.00000000000E+00  0.00000000000E+00  0.45593999997E+02  0.45594000000E+02  0.51100000000E-03 0. -1.
         11   -1    0    0    0    0 -0.00000000000E+00 -0.00000000000E+00 -0.45593999997E+02  0.45594000000E+02  0.51100000000E-03 0.  1.
    9900012    2    1    2    0    0  0.23448014058E+01  0.40200756088E+02 -0.20186993481E+02  0.46142316638E+02  0.99999897630E+01 0.  0.
         12    1    1    2    0    0 -0.23448014058E+01 -0.40200756088E+02  0.20186993481E+02  0.45045683362E+02  0.00000000000E+00 0. -1.
         11    1    3    3    0    0 -0.12415132634E+01  0.11675967263E+01 -0.14487150656E+00  0.17104459398E+01  0.51100000000E-03 0. -1.
        -11    1    3    3    0    0  0.40419570738E+01  0.26427374327E+02 -0.10987435739E+02  0.28904450785E+02  0.51100000000E-03 0.  1.
        -12    1    3    3    0    0 -0.45564240459E+00  0.12605785035E+02 -0.90546862353E+01  0.15527419913E+02  0.00000000000E+00 0.  1.
</event>
<event>
 7    1  0.2395003E-008  0.4614232E+02  0.7816164E-02  0.1320468E+00
        -11   -1    0    0    0    0  0.00000000000E+00  0.00000000000E+00  0.45593999997E+02  0.45594000000E+02  0.51100000000E-03 0.  1.
         11   -1    0    0    0    0 -0.00000000000E+00 -0.00000000000E+00 -0.45593999997E+02  0.45594000000E+02  0.51100000000E-03 0. -1.
    9900012    2    1    2    0    0  0.10586714612E+01 -0.36739758759E+02  0.26041944334E+02  0.46142317370E+02  0.99999964303E+01 0.  0.
         12    1    1    2    0    0 -0.10586714612E+01  0.36739758759E+02 -0.26041944334E+02  0.45045682630E+02  0.00000000000E+00 0. -1.
         11    1    3    3    0    0  0.77309343816E+00 -0.31425717666E+02  0.22681316604E+02  0.38763585069E+02  0.51100000000E-03 0. -1.
        -11    1    3    3    0    0  0.59144775146E+00 -0.52389134098E+01  0.40319372385E+01  0.66372089250E+01  0.51100000000E-03 0.  1.
         12    1    3    3    0    0 -0.30586972840E+00 -0.75127683948E-01 -0.67130950886E+00  0.74152337545E+00  0.00000000000E+00 0. -1.
</event>
<event>
 7    1  0.2395003E-008  0.4614232E+02  0.7816164E-02  0.1320468E+00
        -11   -1    0    0    0    0  0.00000000000E+00  0.00000000000E+00  0.45593999997E+02  0.45594000000E+02  0.51100000000E-03 0.  1.
         11   -1    0    0    0    0 -0.00000000000E+00 -0.00000000000E+00 -0.45593999997E+02  0.45594000000E+02  0.51100000000E-03 0. -1.
    9900012    2    1    2    0    0  0.74031117738E+01 -0.16816818698E+02  0.41127873280E+02  0.46142318569E+02  0.10000007368E+02 0.  0.
         12    1    1    2    0    0 -0.74031117738E+01  0.16816818698E+02 -0.41127873280E+02  0.45045681431E+02  0.00000000000E+00 0. -1.
         11    1    3    3    0    0  0.74780646278E+01 -0.79882922885E+01  0.19742385132E+02  0.22572018856E+02  0.51100000000E-03 0. -1.
        -11    1    3    3    0    0  0.16608519216E+01 -0.72249514309E+01  0.17730054771E+02  0.19217523117E+02  0.51100000000E-03 0.  1.
         12    1    3    3    0    0 -0.17358047756E+01 -0.16035749784E+01  0.36554333760E+01  0.43527765963E+01  0.00000000000E+00 0. -1.
</event>
<event>
 7    1  0.2395003E-008  0.4614232E+02  0.7816164E-02  0.1320468E+00
        -11   -1    0    0    0    0  0.00000000000E+00  0.00000000000E+00  0.45593999997E+02  0.45594000000E+02  0.51100000000E-03 0. -1.
         11   -1    0    0    0    0 -0.00000000000E+00 -0.00000000000E+00 -0.45593999997E+02  0.45594000000E+02  0.51100000000E-03 0.  1.
    9900012    2    1    2    0    0 -0.11411420138E+02 -0.42646975952E+02  0.89514585839E+01  0.46142315654E+02  0.99999807892E+01 0.  0.
         12    1    1    2    0    0  0.11411420138E+02  0.42646975952E+02 -0.89514585839E+01  0.45045684346E+02  0.00000000000E+00 0. -1.
         11    1    3    3    0    0 -0.96004597055E+01 -0.25839968771E+02  0.59857734386E+01  0.28208195556E+02  0.51100000000E-03 0. -1.
        -11    1    3    3    0    0 -0.27825906425E+01 -0.16371261177E+02  0.26008691711E+01  0.16808495587E+02  0.51100000000E-03 0.  1.
         12    1    3    3    0    0  0.97163020961E+00 -0.43574600423E+00  0.36481597424E+00  0.11256245109E+01  0.00000000000E+00 0. -1.
</event>
<event>
 7    1  0.2395003E-008  0.4614232E+02  0.7816164E-02  0.1320468E+00
        -11   -1    0    0    0    0  0.00000000000E+00  0.00000000000E+00  0.45593999997E+02  0.45594000000E+02  0.51100000000E-03 0.  1.
         11   -1    0    0    0    0 -0.00000000000E+00 -0.00000000000E+00 -0.45593999997E+02  0.45594000000E+02  0.51100000000E-03 0. -1.
    9900012    2    1    2    0    0  0.36298355323E+02 -0.20221372323E+02 -0.17396522433E+02  0.46142317736E+02  0.99999997745E+01 0.  0.
         12    1    1    2    0    0 -0.36298355323E+02  0.20221372323E+02  0.17396522433E+02  0.45045682264E+02  0.00000000000E+00 0. -1.
         11    1    3    3    0    0  0.44299024748E+01 -0.27660977808E+01  0.77184923819E+00  0.52793071872E+01  0.51100000000E-03 0. -1.
        -11    1    3    3    0    0  0.53893815030E+01 -0.48554592987E+01 -0.41983662055E+01  0.83813600951E+01  0.51100000000E-03 0.  1.
        -12    1    3    3    0    0  0.26479071346E+02 -0.12599815244E+02 -0.13970005466E+02  0.32481650454E+02  0.00000000000E+00 0.  1.
</event>
<event>
 7    1  0.2395003E-008  0.4614232E+02  0.7816164E-02  0.1320468E+00
        -11   -1    0    0    0    0  0.00000000000E+00  0.00000000000E+00  0.45593999997E+02  0.45594000000E+02  0.51100000000E-03 0. -1.
         11   -1    0    0    0    0 -0.00000000000E+00 -0.00000000000E+00 -0.45593999997E+02  0.45594000000E+02  0.51100000000E-03 0.  1.
    9900012    2    1    2    0    0 -0.29337017615E+02  0.31994758305E+02  0.12032802732E+02  0.46142317597E+02  0.99999985060E+01 0.  0.
         12    1    1    2    0    0  0.29337017615E+02 -0.31994758305E+02 -0.12032802732E+02  0.45045682403E+02  0.00000000000E+00 0. -1.
         11    1    3    3    0    0 -0.10082283879E+02  0.82647897923E+01  0.12371825756E+01  0.13095412155E+02  0.51100000000E-03 0. -1.
        -11    1    3    3    0    0 -0.19168982933E+02  0.21768854901E+02  0.89567299564E+01  0.30357140217E+02  0.51100000000E-03 0.  1.
         12    1    3    3    0    0 -0.85750803098E-01  0.19611136121E+01  0.18388901999E+01  0.26897652252E+01  0.00000000000E+00 0. -1.
</event>
<event>
 7    1  0.2395003E-008  0.4614232E+02  0.7816164E-02  0.1320468E+00
        -11   -1    0    0    0    0  0.00000000000E+00  0.00000000000E+00  0.45593999997E+02  0.45594000000E+02  0.51100000000E-03 0.  1.
         11   -1    0    0    0    0 -0.00000000000E+00 -0.00000000000E+00 -0.45593999997E+02  0.45594000000E+02  0.51100000000E-03 0. -1.
    9900012    2    1    2    0    0  0.43809062372E+02  0.16177669546E+01  0.10356756023E+02  0.46142317508E+02  0.99999976953E+01 0.  0.
         12    1    1    2    0    0 -0.43809062372E+02 -0.16177669546E+01 -0.10356756023E+02  0.45045682492E+02  0.00000000000E+00 0. -1.
         11    1    3    3    0    0  0.13288184042E+02  0.22109007621E+01  0.82097878158E+00  0.13495848389E+02  0.51100000000E-03 0. -1.
        -11    1    3    3    0    0  0.30513288896E+02 -0.84675341196E-01  0.98315572239E+01  0.32058189076E+02  0.51100000000E-03 0.  1.
         12    1    3    3    0    0  0.75894341435E-02 -0.50845846630E+00 -0.29577998219E+00  0.58828004328E+00  0.00000000000E+00 0. -1.
</event>
<event>
 7    1  0.2395003E-008  0.4614232E+02  0.7816164E-02  0.1320468E+00
        -11   -1    0    0    0    0  0.00000000000E+00  0.00000000000E+00  0.45593999997E+02  0.45594000000E+02  0.51100000000E-03 0.  1.
         11   -1    0    0    0    0 -0.00000000000E+00 -0.00000000000E+00 -0.45593999997E+02  0.45594000000E+02  0.51100000000E-03 0. -1.
    9900012    2    1    2    0    0 -0.73475649670E+01  0.77394080264E+01  0.43763321483E+02  0.46142318134E+02  0.10000003403E+02 0.  0.
         12    1    1    2    0    0  0.73475649670E+01 -0.77394080264E+01 -0.43763321483E+02  0.45045681866E+02  0.00000000000E+00 0. -1.
         11    1    3    3    0    0 -0.63264641737E+00  0.90510060796E+00  0.56550760216E+00  0.12406642210E+01  0.51100000000E-03 0. -1.
        -11    1    3    3    0    0 -0.62663708694E+01  0.19679133303E+01  0.32258210146E+02  0.32920088226E+02  0.51100000000E-03 0.  1.
        -12    1    3    3    0    0 -0.44854768024E+00  0.48663940881E+01  0.10939603735E+02  0.11981565687E+02  0.00000000000E+00 0.  1.
</event>
<event>
 7    1  0.2395003E-008  0.4614232E+02  0.7816164E-02  0.1320468E+00
        -11   -1    0    0    0    0  0.00000000000E+00  0.00000000000E+00  0.45593999997E+02  0.45594000000E+02  0.51100000000E-03 0.  1.
         11   -1    0    0    0    0 -0.00000000000E+00 -0.00000000000E+00 -0.45593999997E+02  0.45594000000E+02  0.51100000000E-03 0. -1.
    9900012    2    1    2    0    0  0.36181770252E+01  0.40660699675E+02  0.19045465984E+02  0.46142317880E+02  0.10000001086E+02 0.  0.
         12    1    1    2    0    0 -0.36181770252E+01 -0.40660699675E+02 -0.19045465984E+02  0.45045682120E+02  0.00000000000E+00 0. -1.
         11    1    3    3    0    0 -0.13929309147E+01  0.76790166594E+01  0.29057396777E+01  0.83277173778E+01  0.51100000000E-03 0. -1.
        -11    1    3    3    0    0  0.57359519104E+01  0.26759694222E+02  0.10272661410E+02  0.29232002188E+02  0.51100000000E-03 0.  1.
         12    1    3    3    0    0 -0.72484397051E+00  0.62219887937E+01  0.58670648968E+01  0.85825983149E+01  0.00000000000E+00 0. -1.
</event>
<event>
 7    1  0.2395003E-008  0.4614232E+02  0.7816164E-02  0.1320468E+00
        -11   -1    0    0    0    0  0.00000000000E+00  0.00000000000E+00  0.45593999997E+02  0.45594000000E+02  0.51100000000E-03 0.  1.
         11   -1    0    0    0    0 -0.00000000000E+00 -0.00000000000E+00 -0.45593999997E+02  0.45594000000E+02  0.51100000000E-03 0. -1.
    9900012    2    1    2    0    0  0.27897749543E+02 -0.26914909323E+02  0.22943772740E+02  0.46142317843E+02  0.10000000748E+02 0.  0.
         12    1    1    2    0    0 -0.27897749543E+02  0.26914909323E+02 -0.22943772740E+02  0.45045682157E+02  0.00000000000E+00 0. -1.
         11    1    3    3    0    0  0.47698097867E-01 -0.20064677006E+01  0.16570514939E+01  0.26026923861E+01  0.51100000000E-03 0. -1.
        -11    1    3    3    0    0  0.17095986958E+02 -0.12882494107E+02  0.88247765772E+01  0.23154008430E+02  0.51100000000E-03 0.  1.
        -12    1    3    3    0    0  0.10754064487E+02 -0.12025947516E+02  0.12461944669E+02  0.20385617027E+02  0.00000000000E+00 0.  1.
</event>
<event>
 7    1  0.2395003E-008  0.4614232E+02  0.7816164E-02  0.1320468E+00
        -11   -1    0    0    0    0  0.00000000000E+00  0.00000000000E+00  0.45593999997E+02  0.45594000000E+02  0.51100000000E-03 0.  1.
         11   -1    0    0    0    0 -0.00000000000E+00 -0.00000000000E+00 -0.45593999997E+02  0.45594000000E+02  0.51100000000E-03 0. -1.
    9900012    2    1    2    0    0 -0.15878945868E+02 -0.38368313433E+02  0.17459816997E+02  0.46142316442E+02  0.99999879753E+01 0.  0.
         12    1    1    2    0    0  0.15878945868E+02  0.38368313433E+02 -0.17459816997E+02  0.45045683558E+02  0.00000000000E+00 0. -1.
         11    1    3    3    0    0  0.95362143821E+00 -0.58620293594E+01  0.15484335740E+01  0.61376240397E+01  0.51100000000E-03 0. -1.
        -11    1    3    3    0    0 -0.50436382655E+01 -0.10408868609E+02  0.63604989792E+01  0.13199953796E+02  0.51100000000E-03 0.  1.
         12    1    3    3    0    0 -0.11788929041E+02 -0.22097415464E+02  0.95508844443E+01  0.26804738607E+02  0.00000000000E+00 0. -1.
</event>
<event>
 7    1  0.2395003E-008  0.4614232E+02  0.7816164E-02  0.1320468E+00
        -11   -1    0    0    0    0  0.00000000000E+00  0.00000000000E+00  0.45593999997E+02  0.45594000000E+02  0.51100000000E-03 0.  1.
         11   -1    0    0    0    0 -0.00000000000E+00 -0.00000000000E+00 -0.45593999997E+02  0.45594000000E+02  0.51100000000E-03 0. -1.
    9900012    2    1    2    0    0  0.35770656170E+02  0.27374239886E+02 -0.47396751143E+00  0.46142317661E+02  0.99999990881E+01 0.  0.
         12    1    1    2    0    0 -0.35770656170E+02 -0.27374239886E+02  0.47396751143E+00  0.45045682339E+02  0.00000000000E+00 0. -1.
         11    1    3    3    0    0  0.18883289408E+02  0.14382651140E+02  0.12359111789E+01  0.23769029205E+02  0.51100000000E-03 0.  1.
        -11    1    3    3    0    0  0.14990198946E+02  0.94756957436E+01 -0.33623390045E+01  0.18049936236E+02  0.51100000000E-03 0. -1.
        -12    1    3    3    0    0  0.18971678164E+01  0.35158930027E+01  0.16524603142E+01  0.43233522202E+01  0.00000000000E+00 0.  1.
</event>
<event>
 7    1  0.2485295E-008  0.4614232E+02  0.7816164E-02  0.1320468E+00
        -11   -1    0    0    0    0  0.00000000000E+00  0.00000000000E+00  0.45593999997E+02  0.45594000000E+02  0.51100000000E-03 0. -1.
         11   -1    0    0    0    0 -0.00000000000E+00 -0.00000000000E+00 -0.45593999997E+02  0.45594000000E+02  0.51100000000E-03 0.  1.
    9900012    2    1    2    0    0  0.35768743083E+02 -0.13029724486E+02 -0.24081879335E+02  0.46142316364E+02  0.99999872584E+01 0.  0.
         12    1    1    2    0    0 -0.35768743083E+02  0.13029724486E+02  0.24081879335E+02  0.45045683636E+02  0.00000000000E+00 0. -1.
         11    1    3    3    0    0  0.18161575364E+01 -0.21317409209E+01 -0.78405693403E+00  0.29081769354E+01  0.51100000000E-03 0.  1.
        -11    1    3    3    0    0  0.15258947582E+01 -0.12682394145E+01  0.27668154196E+00  0.20033319651E+01  0.51100000000E-03 0. -1.
        -12    1    3    3    0    0  0.32426690789E+02 -0.96297441503E+01 -0.23574503943E+02  0.41230807463E+02  0.00000000000E+00 0.  1.
</event>
<event>
 7    1  0.2395003E-008  0.4614232E+02  0.7816164E-02  0.1320468E+00
        -11   -1    0    0    0    0  0.00000000000E+00  0.00000000000E+00  0.45593999997E+02  0.45594000000E+02  0.51100000000E-03 0. -1.
         11   -1    0    0    0    0 -0.00000000000E+00 -0.00000000000E+00 -0.45593999997E+02  0.45594000000E+02  0.51100000000E-03 0.  1.
    9900012    2    1    2    0    0 -0.32670532355E+02  0.54470489568E+01 -0.30529977066E+02  0.46142317339E+02  0.99999961539E+01 0.  0.
         12    1    1    2    0    0  0.32670532355E+02 -0.54470489568E+01  0.30529977066E+02  0.45045682661E+02  0.00000000000E+00 0. -1.
         11    1    3    3    0    0 -0.49972954320E+01  0.30507652428E+01 -0.51036142392E+01  0.77670463346E+01  0.51100000000E-03 0. -1.
        -11    1    3    3    0    0 -0.28026440288E+02  0.27303267511E+01 -0.25338861057E+02  0.37881313590E+02  0.51100000000E-03 0.  1.
         12    1    3    3    0    0  0.35320336512E+00 -0.33404303703E+00 -0.87501770457E-01  0.49395741471E+00  0.00000000000E+00 0. -1.
</event>
<event>
 7    1  0.2395003E-008  0.4614232E+02  0.7816164E-02  0.1320468E+00
        -11   -1    0    0    0    0  0.00000000000E+00  0.00000000000E+00  0.45593999997E+02  0.45594000000E+02  0.51100000000E-03 0.  1.
         11   -1    0    0    0    0 -0.00000000000E+00 -0.00000000000E+00 -0.45593999997E+02  0.45594000000E+02  0.51100000000E-03 0. -1.
    9900012    2    1    2    0    0  0.30907584756E+02  0.17698122559E+02  0.27579179495E+02  0.46142317863E+02  0.10000000933E+02 0.  0.
         12    1    1    2    0    0 -0.30907584756E+02 -0.17698122559E+02 -0.27579179495E+02  0.45045682137E+02  0.00000000000E+00 0. -1.
         11    1    3    3    0    0  0.89952866348E+01  0.29376800901E+01  0.86205678880E+01  0.12800755326E+02  0.51100000000E-03 0. -1.
        -11    1    3    3    0    0  0.17880229817E+02  0.87432547588E+01  0.15918637208E+02  0.25486273421E+02  0.51100000000E-03 0.  1.
         12    1    3    3    0    0  0.40320683039E+01  0.60171877102E+01  0.30399743991E+01  0.78552891159E+01  0.00000000000E+00 0. -1.
</event>
<event>
 7    1  0.2395003E-008  0.4614231E+02  0.7816164E-02  0.1320468E+00
        -11   -1    0    0    0    0  0.00000000000E+00  0.00000000000E+00  0.45593999997E+02  0.45594000000E+02  0.51100000000E-03 0.  1.
         11   -1    0    0    0    0 -0.00000000000E+00 -0.00000000000E+00 -0.45593999997E+02  0.45594000000E+02  0.51100000000E-03 0. -1.
    9900012    2    1    2    0    0  0.17304006255E+02 -0.22811939580E+02  0.34775007448E+02  0.46142308054E+02  0.99999114849E+01 0.  0.
         12    1    1    2    0    0 -0.17304006255E+02  0.22811939580E+02 -0.34775007448E+02  0.45045691946E+02  0.00000000000E+00 0. -1.
         11    1    3    3    0    0  0.19791508052E+01 -0.18071228543E+01  0.59613788015E+01  0.65361126364E+01  0.51100000000E-03 0. -1.
        -11    1    3    3    0    0  0.14183964678E+02 -0.16507452001E+02  0.26862702508E+02  0.34572902855E+02  0.51100000000E-03 0.  1.
         12    1    3    3    0    0  0.11408907714E+01 -0.44973647253E+01  0.19509261385E+01  0.50332925628E+01  0.00000000000E+00 0. -1.
</event>
<event>
 7    1  0.2395003E-008  0.4614232E+02  0.7816164E-02  0.1320468E+00
        -11   -1    0    0    0    0  0.00000000000E+00  0.00000000000E+00  0.45593999997E+02  0.45594000000E+02  0.51100000000E-03 0.  1.
         11   -1    0    0    0    0 -0.00000000000E+00 -0.00000000000E+00 -0.45593999997E+02  0.45594000000E+02  0.51100000000E-03 0. -1.
    9900012    2    1    2    0    0  0.73676151084E+01 -0.44114221052E+02 -0.53635017412E+01  0.46142318716E+02  0.10000008711E+02 0.  0.
         12    1    1    2    0    0 -0.73676151084E+01  0.44114221052E+02  0.53635017412E+01  0.45045681284E+02  0.00000000000E+00 0. -1.
         11    1    3    3    0    0  0.47858792863E+00 -0.32389193040E+01  0.18297413836E+01  0.37506797325E+01  0.51100000000E-03 0. -1.
        -11    1    3    3    0    0  0.35501930024E+01 -0.27707632563E+02 -0.26139508123E+01  0.28056184910E+02  0.51100000000E-03 0.  1.
        -12    1    3    3    0    0  0.33388341774E+01 -0.13167669185E+02 -0.45792923125E+01  0.14335454074E+02  0.00000000000E+00 0.  1.
</event>
<event>
 7    1  0.2395003E-008  0.4614232E+02  0.7816164E-02  0.1320468E+00
        -11   -1    0    0    0    0  0.00000000000E+00  0.00000000000E+00  0.45593999997E+02  0.45594000000E+02  0.51100000000E-03 0.  1.
         11   -1    0    0    0    0 -0.00000000000E+00 -0.00000000000E+00 -0.45593999997E+02  0.45594000000E+02  0.51100000000E-03 0. -1.
    9900012    2    1    2    0    0 -0.83834322585E+01 -0.54851560854E+01  0.43917474439E+02  0.46142318355E+02  0.10000005418E+02 0.  0.
         12    1    1    2    0    0  0.83834322585E+01  0.54851560854E+01 -0.43917474439E+02  0.45045681645E+02  0.00000000000E+00 0. -1.
         11    1    3    3    0    0 -0.10392484601E+01  0.13773292730E+01  0.28386914487E+01  0.33219335770E+01  0.51100000000E-03 0. -1.
        -11    1    3    3    0    0 -0.59013022722E+01 -0.56561057342E+01  0.19288156061E+02  0.20948743759E+02  0.51100000000E-03 0.  1.
        -12    1    3    3    0    0 -0.14428815262E+01 -0.12063796242E+01  0.21790626929E+02  0.21871641019E+02  0.00000000000E+00 0.  1.
</event>
<event>
 7    1  0.2395003E-008  0.4614232E+02  0.7816164E-02  0.1320468E+00
        -11   -1    0    0    0    0  0.00000000000E+00  0.00000000000E+00  0.45593999997E+02  0.45594000000E+02  0.51100000000E-03 0.  1.
         11   -1    0    0    0    0 -0.00000000000E+00 -0.00000000000E+00 -0.45593999997E+02  0.45594000000E+02  0.51100000000E-03 0. -1.
    9900012    2    1    2    0    0 -0.21506038943E+02 -0.11947713536E+02  0.37734008952E+02  0.46142323168E+02  0.10000049300E+02 0.  0.
         12    1    1    2    0    0  0.21506038943E+02  0.11947713536E+02 -0.37734008952E+02  0.45045676832E+02  0.00000000000E+00 0. -1.
         11    1    3    3    0    0 -0.48211267503E+00  0.39059582773E+00  0.61051155106E+01  0.61365652763E+01  0.51100000000E-03 0. -1.
        -11    1    3    3    0    0 -0.97485445790E+01 -0.69912435169E+01  0.14673403797E+02  0.18953110208E+02  0.51100000000E-03 0.  1.
         12    1    3    3    0    0 -0.11275381688E+02 -0.53470658466E+01  0.16955489644E+02  0.21052647683E+02  0.00000000000E+00 0. -1.
</event>
<event>
 7    1  0.2395003E-008  0.4614232E+02  0.7816164E-02  0.1320468E+00
        -11   -1    0    0    0    0  0.00000000000E+00  0.00000000000E+00  0.45593999997E+02  0.45594000000E+02  0.51100000000E-03 0. -1.
         11   -1    0    0    0    0 -0.00000000000E+00 -0.00000000000E+00 -0.45593999997E+02  0.45594000000E+02  0.51100000000E-03 0.  1.
    9900012    2    1    2    0    0 -0.23217716058E+02 -0.21143166438E+02 -0.32295783724E+02  0.46142317940E+02  0.10000001629E+02 0.  0.
         12    1    1    2    0    0  0.23217716058E+02  0.21143166438E+02  0.32295783724E+02  0.45045682060E+02  0.00000000000E+00 0. -1.
         11    1    3    3    0    0 -0.12887605377E+02 -0.85944761886E+01 -0.11352541701E+02  0.19205092987E+02  0.51100000000E-03 0. -1.
        -11    1    3    3    0    0 -0.40992262067E+01 -0.86816371851E+01 -0.12251128114E+02  0.15564852072E+02  0.51100000000E-03 0.  1.
        -12    1    3    3    0    0 -0.62308844741E+01 -0.38670530641E+01 -0.86921139094E+01  0.11372372881E+02  0.00000000000E+00 0.  1.
</event>
<event>
 7    1  0.2395003E-008  0.4614232E+02  0.7816164E-02  0.1320468E+00
        -11   -1    0    0    0    0  0.00000000000E+00  0.00000000000E+00  0.45593999997E+02  0.45594000000E+02  0.51100000000E-03 0.  1.
         11   -1    0    0    0    0 -0.00000000000E+00 -0.00000000000E+00 -0.45593999997E+02  0.45594000000E+02  0.51100000000E-03 0. -1.
    9900012    2    1    2    0    0 -0.41706643776E+02 -0.61622257545E+01  0.15864939582E+02  0.46142317973E+02  0.10000001932E+02 0.  0.
         12    1    1    2    0    0  0.41706643776E+02  0.61622257545E+01 -0.15864939582E+02  0.45045682027E+02  0.00000000000E+00 0. -1.
         11    1    3    3    0    0 -0.11554794107E+02 -0.28324025039E+01  0.13138873147E+01  0.11969213463E+02  0.51100000000E-03 0. -1.
        -11    1    3    3    0    0 -0.14202272350E+01  0.49981118663E+00 -0.40105987153E+00  0.15581097211E+01  0.51100000000E-03 0.  1.
         12    1    3    3    0    0 -0.28731622435E+02 -0.38296344372E+01  0.14952112139E+02  0.32614994789E+02  0.00000000000E+00 0. -1.
</event>
<event>
 7    1  0.2395003E-008  0.4614232E+02  0.7816164E-02  0.1320468E+00
        -11   -1    0    0    0    0  0.00000000000E+00  0.00000000000E+00  0.45593999997E+02  0.45594000000E+02  0.51100000000E-03 0.  1.
         11   -1    0    0    0    0 -0.00000000000E+00 -0.00000000000E+00 -0.45593999997E+02  0.45594000000E+02  0.51100000000E-03 0. -1.
    9900012    2    1    2    0    0 -0.73450904205E+01  0.34244481507E+02  0.28328053316E+02  0.46142317946E+02  0.10000001690E+02 0.  0.
         12    1    1    2    0    0  0.73450904205E+01 -0.34244481507E+02 -0.28328053316E+02  0.45045682054E+02  0.00000000000E+00 0. -1.
         11    1    3    3    0    0 -0.63113938181E+01  0.26144005792E+02  0.21463838326E+02  0.34409869031E+02  0.51100000000E-03 0. -1.
        -11    1    3    3    0    0 -0.48850677100E+00  0.78429460235E+01  0.40232269281E+01  0.88281819402E+01  0.51100000000E-03 0.  1.
         12    1    3    3    0    0 -0.54518983136E+00  0.25752969159E+00  0.28409880620E+01  0.29042669751E+01  0.00000000000E+00 0. -1.
</event>
<event>
 7    1  0.2395003E-008  0.4614232E+02  0.7816164E-02  0.1320468E+00
        -11   -1    0    0    0    0  0.00000000000E+00  0.00000000000E+00  0.45593999997E+02  0.45594000000E+02  0.51100000000E-03 0.  1.
         11   -1    0    0    0    0 -0.00000000000E+00 -0.00000000000E+00 -0.45593999997E+02  0.45594000000E+02  0.51100000000E-03 0. -1.
    9900012    2    1    2    0    0 -0.16646136504E+01 -0.42248293606E+02  0.15537831902E+02  0.46142317949E+02  0.10000001713E+02 0.  0.
         12    1    1    2    0    0  0.16646136504E+01  0.42248293606E+02 -0.15537831902E+02  0.45045682051E+02  0.00000000000E+00 0. -1.
         11    1    3    3    0    0 -0.53782476855E+00 -0.22902717905E+00  0.11813466208E+01  0.13180626047E+01  0.51100000000E-03 0. -1.
        -11    1    3    3    0    0  0.18201723923E+01 -0.30406903806E+02  0.96634689803E+01  0.31957400701E+02  0.51100000000E-03 0.  1.
         12    1    3    3    0    0 -0.29469612742E+01 -0.11612362621E+02  0.46930163008E+01  0.12866854643E+02  0.00000000000E+00 0. -1.
</event>
<event>
 7    1  0.2395003E-008  0.4614232E+02  0.7816164E-02  0.1320468E+00
        -11   -1    0    0    0    0  0.00000000000E+00  0.00000000000E+00  0.45593999997E+02  0.45594000000E+02  0.51100000000E-03 0.  1.
         11   -1    0    0    0    0 -0.00000000000E+00 -0.00000000000E+00 -0.45593999997E+02  0.45594000000E+02  0.51100000000E-03 0. -1.
    9900012    2    1    2    0    0 -0.42921350209E+01  0.22527066472E+02  0.38771413210E+02  0.46142316198E+02  0.99999857471E+01 0.  0.
         12    1    1    2    0    0  0.42921350209E+01 -0.22527066472E+02 -0.38771413210E+02  0.45045683802E+02  0.00000000000E+00 0. -1.
         11    1    3    3    0    0  0.22827215072E+01  0.82751067230E+01  0.10769843285E+02  0.13772353953E+02  0.51100000000E-03 0. -1.
        -11    1    3    3    0    0 -0.30642631945E+01  0.68650440605E+01  0.17597357375E+02  0.19135974648E+02  0.51100000000E-03 0.  1.
         12    1    3    3    0    0 -0.35105933336E+01  0.73869156884E+01  0.10404212550E+02  0.13233987597E+02  0.00000000000E+00 0. -1.
</event>
<event>
 7    1  0.2395003E-008  0.4614232E+02  0.7816164E-02  0.1320468E+00
        -11   -1    0    0    0    0  0.00000000000E+00  0.00000000000E+00  0.45593999997E+02  0.45594000000E+02  0.51100000000E-03 0. -1.
         11   -1    0    0    0    0 -0.00000000000E+00 -0.00000000000E+00 -0.45593999997E+02  0.45594000000E+02  0.51100000000E-03 0.  1.
    9900012    2    1    2    0    0  0.67926253238E+01 -0.11495499316E+02 -0.43021239978E+02  0.46142319269E+02  0.10000013747E+02 0.  0.
         12    1    1    2    0    0 -0.67926253238E+01  0.11495499316E+02  0.43021239978E+02  0.45045680731E+02  0.00000000000E+00 0. -1.
         11    1    3    3    0    0  0.31365691685E+01 -0.22791920838E+01 -0.14074150108E+02  0.14598441157E+02  0.51100000000E-03 0. -1.
        -11    1    3    3    0    0  0.74474383183E+00 -0.43988150982E+01 -0.22702865875E+02  0.23137077102E+02  0.51100000000E-03 0.  1.
         12    1    3    3    0    0  0.29113123235E+01 -0.48174921340E+01 -0.62442239959E+01  0.84068010097E+01  0.00000000000E+00 0. -1.
</event>
<event>
 7    1  0.2395003E-008  0.4614232E+02  0.7816164E-02  0.1320468E+00
        -11   -1    0    0    0    0  0.00000000000E+00  0.00000000000E+00  0.45593999997E+02  0.45594000000E+02  0.51100000000E-03 0. -1.
         11   -1    0    0    0    0 -0.00000000000E+00 -0.00000000000E+00 -0.45593999997E+02  0.45594000000E+02  0.51100000000E-03 0.  1.
    9900012    2    1    2    0    0  0.73527200396E+01 -0.37265492674E+02 -0.24214335888E+02  0.46142317646E+02  0.99999989513E+01 0.  0.
         12    1    1    2    0    0 -0.73527200396E+01  0.37265492674E+02  0.24214335888E+02  0.45045682354E+02  0.00000000000E+00 0. -1.
         11    1    3    3    0    0  0.29348832588E+01 -0.14733499110E+02 -0.12029002422E+02  0.19245426348E+02  0.51100000000E-03 0. -1.
        -11    1    3    3    0    0 -0.16600501666E+01 -0.48361129799E+01 -0.39161285854E+01  0.64404827978E+01  0.51100000000E-03 0.  1.
        -12    1    3    3    0    0  0.60778869474E+01 -0.17695880584E+02 -0.82692048809E+01  0.20456408501E+02  0.00000000000E+00 0.  1.
</event>
<event>
 7    1  0.2395003E-008  0.4614232E+02  0.7816164E-02  0.1320468E+00
        -11   -1    0    0    0    0  0.00000000000E+00  0.00000000000E+00  0.45593999997E+02  0.45594000000E+02  0.51100000000E-03 0.  1.
         11   -1    0    0    0    0 -0.00000000000E+00 -0.00000000000E+00 -0.45593999997E+02  0.45594000000E+02  0.51100000000E-03 0. -1.
    9900012    2    1    2    0    0 -0.31181230182E+02  0.89492387366E+01  0.31253087698E+02  0.46142317850E+02  0.10000000815E+02 0.  0.
         12    1    1    2    0    0  0.31181230182E+02 -0.89492387366E+01 -0.31253087698E+02  0.45045682150E+02  0.00000000000E+00 0. -1.
         11    1    3    3    0    0 -0.56764095638E+01  0.14108877406E+01  0.31760283156E+01  0.66557783823E+01  0.51100000000E-03 0. -1.
        -11    1    3    3    0    0 -0.22843530699E+01 -0.15199469875E+01  0.38481187299E+01  0.47261533844E+01  0.51100000000E-03 0.  1.
         12    1    3    3    0    0 -0.23220467548E+02  0.90582979835E+01  0.24228940653E+02  0.34760386084E+02  0.00000000000E+00 0. -1.
</event>
<event>
 7    1  0.2395003E-008  0.4614232E+02  0.7816164E-02  0.1320468E+00
        -11   -1    0    0    0    0  0.00000000000E+00  0.00000000000E+00  0.45593999997E+02  0.45594000000E+02  0.51100000000E-03 0.  1.
         11   -1    0    0    0    0 -0.00000000000E+00 -0.00000000000E+00 -0.45593999997E+02  0.45594000000E+02  0.51100000000E-03 0. -1.
    9900012    2    1    2    0    0 -0.27138815198E+02  0.25368599666E+02  0.25476113217E+02  0.46142317810E+02  0.10000000443E+02 0.  0.
         12    1    1    2    0    0  0.27138815198E+02 -0.25368599666E+02 -0.25476113217E+02  0.45045682190E+02  0.00000000000E+00 0. -1.
         11    1    3    3    0    0 -0.89186686044E+01  0.65858426459E+01  0.49436621863E+01  0.12139018457E+02  0.51100000000E-03 0. -1.
        -11    1    3    3    0    0 -0.10604229135E+02  0.12996885446E+02  0.90515137867E+01  0.19060393725E+02  0.51100000000E-03 0.  1.
        -12    1    3    3    0    0 -0.76159174585E+01  0.57858715737E+01  0.11480937244E+02  0.14942905628E+02  0.00000000000E+00 0.  1.
</event>
<event>
 7    1  0.2395003E-008  0.4614232E+02  0.7816164E-02  0.1320468E+00
        -11   -1    0    0    0    0  0.00000000000E+00  0.00000000000E+00  0.45593999997E+02  0.45594000000E+02  0.51100000000E-03 0. -1.
         11   -1    0    0    0    0 -0.00000000000E+00 -0.00000000000E+00 -0.45593999997E+02  0.45594000000E+02  0.51100000000E-03 0.  1.
    9900012    2    1    2    0    0  0.17052120110E+02  0.39924993232E+02  0.12013892547E+02  0.46142317644E+02  0.99999989300E+01 0.  0.
         12    1    1    2    0    0 -0.17052120110E+02 -0.39924993232E+02 -0.12013892547E+02  0.45045682356E+02  0.00000000000E+00 0. -1.
         11    1    3    3    0    0  0.18635806152E+00  0.11047910104E+02  0.28906991462E+01  0.11421347942E+02  0.51100000000E-03 0. -1.
        -11    1    3    3    0    0  0.98013855117E+01  0.18635140514E+02  0.59743025659E+01  0.21886706270E+02  0.51100000000E-03 0.  1.
         12    1    3    3    0    0  0.70643765368E+01  0.10241942614E+02  0.31488908348E+01  0.12834263432E+02  0.00000000000E+00 0. -1.
</event>
<event>
 7    1  0.2395003E-008  0.4614232E+02  0.7816164E-02  0.1320468E+00
        -11   -1    0    0    0    0  0.00000000000E+00  0.00000000000E+00  0.45593999997E+02  0.45594000000E+02  0.51100000000E-03 0.  1.
         11   -1    0    0    0    0 -0.00000000000E+00 -0.00000000000E+00 -0.45593999997E+02  0.45594000000E+02  0.51100000000E-03 0. -1.
    9900012    2    1    2    0    0  0.25497292866E+02  0.64738843344E+01  0.36566246616E+02  0.46142317482E+02  0.99999974564E+01 0.  0.
         12    1    1    2    0    0 -0.25497292866E+02 -0.64738843344E+01 -0.36566246616E+02  0.45045682518E+02  0.00000000000E+00 0. -1.
         11    1    3    3    0    0  0.27442638806E+01  0.15213459481E+01  0.22430583315E+01  0.38570440340E+01  0.51100000000E-03 0. -1.
        -11    1    3    3    0    0  0.42123774779E+01  0.43838320226E+01  0.98781358542E+01  0.11599123908E+02  0.51100000000E-03 0.  1.
         12    1    3    3    0    0  0.18540651508E+02  0.56870636368E+00  0.24445052431E+02  0.30686149540E+02  0.00000000000E+00 0. -1.
</event>
<event>
 7    1  0.2395003E-008  0.4614232E+02  0.7816164E-02  0.1320468E+00
        -11   -1    0    0    0    0  0.00000000000E+00  0.00000000000E+00  0.45593999997E+02  0.45594000000E+02  0.51100000000E-03 0. -1.
         11   -1    0    0    0    0 -0.00000000000E+00 -0.00000000000E+00 -0.45593999997E+02  0.45594000000E+02  0.51100000000E-03 0.  1.
    9900012    2    1    2    0    0 -0.40218627092E+02 -0.66191910569E+01 -0.19177119587E+02  0.46142316843E+02  0.99999916271E+01 0.  0.
         12    1    1    2    0    0  0.40218627092E+02  0.66191910569E+01  0.19177119587E+02  0.45045683157E+02  0.00000000000E+00 0. -1.
         11    1    3    3    0    0 -0.12130526951E+02  0.70796708149E+00 -0.91727942670E+01  0.15224685758E+02  0.51100000000E-03 0. -1.
        -11    1    3    3    0    0 -0.11064439748E+02 -0.10775726841E+01 -0.35896375033E+01  0.11681972757E+02  0.51100000000E-03 0.  1.
        -12    1    3    3    0    0 -0.17023660393E+02 -0.62495854543E+01 -0.64146878164E+01  0.19235658328E+02  0.00000000000E+00 0.  1.
</event>
<event>
 7    1  0.2395003E-008  0.4614232E+02  0.7816164E-02  0.1320468E+00
        -11   -1    0    0    0    0  0.00000000000E+00  0.00000000000E+00  0.45593999997E+02  0.45594000000E+02  0.51100000000E-03 0.  1.
         11   -1    0    0    0    0 -0.00000000000E+00 -0.00000000000E+00 -0.45593999997E+02  0.45594000000E+02  0.51100000000E-03 0. -1.
    9900012    2    1    2    0    0  0.39211704429E+00  0.40342153935E+02  0.20036724557E+02  0.46142317955E+02  0.10000001767E+02 0.  0.
         12    1    1    2    0    0 -0.39211704429E+00 -0.40342153935E+02 -0.20036724557E+02  0.45045682045E+02  0.00000000000E+00 0. -1.
         11    1    3    3    0    0 -0.22575203177E+01  0.26119674855E+01  0.95122868058E+00  0.35810066175E+01  0.51100000000E-03 0. -1.
        -11    1    3    3    0    0  0.13771759646E+01  0.30485259387E+02  0.16920878848E+02  0.34893606790E+02  0.51100000000E-03 0.  1.
         12    1    3    3    0    0  0.12724613974E+01  0.72449270626E+01  0.21646170287E+01  0.76677045477E+01  0.00000000000E+00 0. -1.
</event>
<event>
 7    1  0.2395003E-008  0.4614232E+02  0.7816164E-02  0.1320468E+00
        -11   -1    0    0    0    0  0.00000000000E+00  0.00000000000E+00  0.45593999997E+02  0.45594000000E+02  0.51100000000E-03 0.  1.
         11   -1    0    0    0    0 -0.00000000000E+00 -0.00000000000E+00 -0.45593999997E+02  0.45594000000E+02  0.51100000000E-03 0. -1.
    9900012    2    1    2    0    0 -0.13884091540E+01 -0.26686457517E+02  0.36263188191E+02  0.46142317493E+02  0.99999975508E+01 0.  0.
         12    1    1    2    0    0  0.13884091540E+01  0.26686457517E+02 -0.36263188191E+02  0.45045682507E+02  0.00000000000E+00 0. -1.
         11    1    3    3    0    0 -0.28423331108E+00  0.83546730911E-01  0.12564944663E+00  0.32180223109E+00  0.51100000000E-03 0. -1.
        -11    1    3    3    0    0 -0.18998436779E+01 -0.63230104560E+01  0.39936600848E+01  0.77161640963E+01  0.51100000000E-03 0.  1.
        -12    1    3    3    0    0  0.79566783494E+00 -0.20446993792E+02  0.32143878660E+02  0.38104351165E+02  0.00000000000E+00 0.  1.
</event>
<event>
 7    1  0.2395003E-008  0.4614232E+02  0.7816164E-02  0.1320468E+00
        -11   -1    0    0    0    0  0.00000000000E+00  0.00000000000E+00  0.45593999997E+02  0.45594000000E+02  0.51100000000E-03 0.  1.
         11   -1    0    0    0    0 -0.00000000000E+00 -0.00000000000E+00 -0.45593999997E+02  0.45594000000E+02  0.51100000000E-03 0. -1.
    9900012    2    1    2    0    0  0.42799903018E+02 -0.78406530365E+01  0.11653584655E+02  0.46142316814E+02  0.99999913646E+01 0.  0.
         12    1    1    2    0    0 -0.42799903018E+02  0.78406530365E+01 -0.11653584655E+02  0.45045683186E+02  0.00000000000E+00 0. -1.
         11    1    3    3    0    0  0.15874989992E+01  0.11503995232E+01  0.83920011848E+00  0.21325640050E+01  0.51100000000E-03 0. -1.
        -11    1    3    3    0    0  0.77132516723E+01  0.57942274929E+00  0.90057292394E+00  0.77872340362E+01  0.51100000000E-03 0.  1.
         12    1    3    3    0    0  0.33499152346E+02 -0.95704753090E+01  0.99138116127E+01  0.36222518773E+02  0.00000000000E+00 0. -1.
</event>
<event>
 7    1  0.2395003E-008  0.4614232E+02  0.7816164E-02  0.1320468E+00
        -11   -1    0    0    0    0  0.00000000000E+00  0.00000000000E+00  0.45593999997E+02  0.45594000000E+02  0.51100000000E-03 0.  1.
         11   -1    0    0    0    0 -0.00000000000E+00 -0.00000000000E+00 -0.45593999997E+02  0.45594000000E+02  0.51100000000E-03 0. -1.
    9900012    2    1    2    0    0 -0.11680816386E+02  0.22682684373E+02  0.37123682898E+02  0.46142317924E+02  0.10000001484E+02 0.  0.
         12    1    1    2    0    0  0.11680816386E+02 -0.22682684373E+02 -0.37123682898E+02  0.45045682076E+02  0.00000000000E+00 0. -1.
         11    1    3    3    0    0 -0.14142998873E+01  0.74247006082E+01  0.58158887135E+01  0.95368225884E+01  0.51100000000E-03 0. -1.
        -11    1    3    3    0    0 -0.45404886096E+01  0.70556780949E+01  0.99095035337E+01  0.12984486541E+02  0.51100000000E-03 0.  1.
        -12    1    3    3    0    0 -0.57260278885E+01  0.82023056696E+01  0.21398290651E+02  0.23621008794E+02  0.00000000000E+00 0.  1.
</event>
<event>
 7    1  0.2395003E-008  0.4614232E+02  0.7816164E-02  0.1320468E+00
        -11   -1    0    0    0    0  0.00000000000E+00  0.00000000000E+00  0.45593999997E+02  0.45594000000E+02  0.51100000000E-03 0.  1.
         11   -1    0    0    0    0 -0.00000000000E+00 -0.00000000000E+00 -0.45593999997E+02  0.45594000000E+02  0.51100000000E-03 0. -1.
    9900012    2    1    2    0    0 -0.43574567280E+02  0.32469813817E+01  0.10946583413E+02  0.46142317741E+02  0.99999998196E+01 0.  0.
         12    1    1    2    0    0  0.43574567280E+02 -0.32469813817E+01 -0.10946583413E+02  0.45045682259E+02  0.00000000000E+00 0. -1.
         11    1    3    3    0    0 -0.47719315238E+01  0.12048853656E+01  0.69616123809E-01  0.49221871031E+01  0.51100000000E-03 0. -1.
        -11    1    3    3    0    0 -0.14535029512E+02  0.48565452754E+01  0.44768633529E+01  0.15965444581E+02  0.51100000000E-03 0.  1.
        -12    1    3    3    0    0 -0.24267606244E+02 -0.28144492593E+01  0.64001039360E+01  0.25254686057E+02  0.00000000000E+00 0.  1.
</event>
<event>
 7    1  0.2395003E-008  0.4614232E+02  0.7816164E-02  0.1320468E+00
        -11   -1    0    0    0    0  0.00000000000E+00  0.00000000000E+00  0.45593999997E+02  0.45594000000E+02  0.51100000000E-03 0.  1.
         11   -1    0    0    0    0 -0.00000000000E+00 -0.00000000000E+00 -0.45593999997E+02  0.45594000000E+02  0.51100000000E-03 0. -1.
    9900012    2    1    2    0    0 -0.26509344862E+02  0.10154601198E+02  0.34975023428E+02  0.46142317029E+02  0.99999933262E+01 0.  0.
         12    1    1    2    0    0  0.26509344862E+02 -0.10154601198E+02 -0.34975023428E+02  0.45045682971E+02  0.00000000000E+00 0. -1.
         11    1    3    3    0    0 -0.34903394635E+01  0.41289009718E+01  0.37646613073E+01  0.65880928822E+01  0.51100000000E-03 0.  1.
        -11    1    3    3    0    0 -0.70562046368E+00 -0.60347861953E+00  0.62775055056E+00  0.11207844118E+01  0.51100000000E-03 0. -1.
        -12    1    3    3    0    0 -0.22313384935E+02  0.66291788460E+01  0.30582611570E+02  0.38433439735E+02  0.00000000000E+00 0.  1.
</event>
<event>
 7    1  0.2395003E-008  0.4614232E+02  0.7816164E-02  0.1320468E+00
        -11   -1    0    0    0    0  0.00000000000E+00  0.00000000000E+00  0.45593999997E+02  0.45594000000E+02  0.51100000000E-03 0. -1.
         11   -1    0    0    0    0 -0.00000000000E+00 -0.00000000000E+00 -0.45593999997E+02  0.45594000000E+02  0.51100000000E-03 0.  1.
    9900012    2    1    2    0    0 -0.41036160569E+02 -0.17390012176E+02 -0.65371686641E+01  0.46142316834E+02  0.99999915474E+01 0.  0.
         12    1    1    2    0    0  0.41036160569E+02  0.17390012176E+02  0.65371686641E+01  0.45045683166E+02  0.00000000000E+00 0. -1.
         11    1    3    3    0    0 -0.14355426594E+02 -0.57781902359E+01 -0.67687150365E+01  0.16890271122E+02  0.51100000000E-03 0. -1.
        -11    1    3    3    0    0 -0.17626488445E+02 -0.76429394214E+01 -0.12636945314E+01  0.19253689050E+02  0.51100000000E-03 0.  1.
        -12    1    3    3    0    0 -0.90542455306E+01 -0.39688825190E+01  0.14952409038E+01  0.99983566619E+01  0.00000000000E+00 0.  1.
</event>
<event>
 7    1  0.2395003E-008  0.4614232E+02  0.7816164E-02  0.1320468E+00
        -11   -1    0    0    0    0  0.00000000000E+00  0.00000000000E+00  0.45593999997E+02  0.45594000000E+02  0.51100000000E-03 0. -1.
         11   -1    0    0    0    0 -0.00000000000E+00 -0.00000000000E+00 -0.45593999997E+02  0.45594000000E+02  0.51100000000E-03 0.  1.
    9900012    2    1    2    0    0  0.29201943214E+02 -0.22296092279E+02 -0.26062314294E+02  0.46142318246E+02  0.10000004417E+02 0.  0.
         12    1    1    2    0    0 -0.29201943214E+02  0.22296092279E+02  0.26062314294E+02  0.45045681754E+02  0.00000000000E+00 0. -1.
         11    1    3    3    0    0  0.98705853365E+01 -0.55198689369E+01 -0.51922733735E+01  0.12444159715E+02  0.51100000000E-03 0. -1.
        -11    1    3    3    0    0  0.17362390986E+02 -0.11554896072E+02 -0.17009626528E+02  0.26912741199E+02  0.51100000000E-03 0.  1.
        -12    1    3    3    0    0  0.19689668916E+01 -0.52213272697E+01 -0.38604143928E+01  0.67854173314E+01  0.00000000000E+00 0.  1.
</event>
<event>
 7    1  0.2395003E-008  0.4614232E+02  0.7816164E-02  0.1320468E+00
        -11   -1    0    0    0    0  0.00000000000E+00  0.00000000000E+00  0.45593999997E+02  0.45594000000E+02  0.51100000000E-03 0. -1.
         11   -1    0    0    0    0 -0.00000000000E+00 -0.00000000000E+00 -0.45593999997E+02  0.45594000000E+02  0.51100000000E-03 0.  1.
    9900012    2    1    2    0    0  0.38873548260E+02 -0.37155583725E+01 -0.22453405503E+02  0.46142317110E+02  0.99999940657E+01 0.  0.
         12    1    1    2    0    0 -0.38873548260E+02  0.37155583725E+01  0.22453405503E+02  0.45045682890E+02  0.00000000000E+00 0. -1.
         11    1    3    3    0    0  0.12444518817E+02 -0.15237621814E+01 -0.70133347381E+01  0.14365749691E+02  0.51100000000E-03 0.  1.
        -11    1    3    3    0    0  0.61012719900E+01  0.94045398369E+00 -0.19751776016E+00  0.61764866322E+01  0.51100000000E-03 0. -1.
         12    1    3    3    0    0  0.20327757453E+02 -0.31322501747E+01 -0.15242553004E+02  0.25600080787E+02  0.00000000000E+00 0. -1.
</event>
<event>
 7    1  0.2395003E-008  0.4614232E+02  0.7816164E-02  0.1320468E+00
        -11   -1    0    0    0    0  0.00000000000E+00  0.00000000000E+00  0.45593999997E+02  0.45594000000E+02  0.51100000000E-03 0. -1.
         11   -1    0    0    0    0 -0.00000000000E+00 -0.00000000000E+00 -0.45593999997E+02  0.45594000000E+02  0.51100000000E-03 0.  1.
    9900012    2    1    2    0    0  0.41132002926E+01  0.44734084447E+02 -0.33251666924E+01  0.46142318059E+02  0.10000002720E+02 0.  0.
         12    1    1    2    0    0 -0.41132002926E+01 -0.44734084447E+02  0.33251666924E+01  0.45045681941E+02  0.00000000000E+00 0. -1.
         11    1    3    3    0    0  0.13069443127E+01  0.30657761482E+01  0.14425634172E+01  0.36315391091E+01  0.51100000000E-03 0. -1.
        -11    1    3    3    0    0 -0.64107878305E+00  0.21377328985E+02 -0.48451271559E+01  0.21928894956E+02  0.51100000000E-03 0.  1.
        -12    1    3    3    0    0  0.34473347629E+01  0.20290979313E+02  0.77397046290E-01  0.20581883995E+02  0.00000000000E+00 0.  1.
</event>
<event>
 7    1  0.2395003E-008  0.4614232E+02  0.7816164E-02  0.1320468E+00
        -11   -1    0    0    0    0  0.00000000000E+00  0.00000000000E+00  0.45593999997E+02  0.45594000000E+02  0.51100000000E-03 0.  1.
         11   -1    0    0    0    0 -0.00000000000E+00 -0.00000000000E+00 -0.45593999997E+02  0.45594000000E+02  0.51100000000E-03 0. -1.
    9900012    2    1    2    0    0  0.16697874244E+02  0.25586949491E+01  0.41758202818E+02  0.46142318446E+02  0.10000006247E+02 0.  0.
         12    1    1    2    0    0 -0.16697874244E+02 -0.25586949491E+01 -0.41758202818E+02  0.45045681554E+02  0.00000000000E+00 0. -1.
         11    1    3    3    0    0  0.40752654185E+01  0.30192569572E+01  0.15329670870E+02  0.16146904039E+02  0.51100000000E-03 0. -1.
        -11    1    3    3    0    0  0.27375532355E+01 -0.72372504409E+00  0.13081007174E+02  0.13383972676E+02  0.51100000000E-03 0.  1.
         12    1    3    3    0    0  0.98850555896E+01  0.26316303602E+00  0.13347524774E+02  0.16611441731E+02  0.00000000000E+00 0. -1.
</event>
<event>
 7    1  0.2395003E-008  0.4614232E+02  0.7816164E-02  0.1320468E+00
        -11   -1    0    0    0    0  0.00000000000E+00  0.00000000000E+00  0.45593999997E+02  0.45594000000E+02  0.51100000000E-03 0.  1.
         11   -1    0    0    0    0 -0.00000000000E+00 -0.00000000000E+00 -0.45593999997E+02  0.45594000000E+02  0.51100000000E-03 0. -1.
    9900012    2    1    2    0    0  0.10975818104E+02  0.19127644432E+02  0.39278214169E+02  0.46142317933E+02  0.10000001570E+02 0.  0.
         12    1    1    2    0    0 -0.10975818104E+02 -0.19127644432E+02 -0.39278214169E+02  0.45045682067E+02  0.00000000000E+00 0. -1.
         11    1    3    3    0    0  0.85954018345E+01  0.11233431266E+02  0.15861414967E+02  0.21252185670E+02  0.51100000000E-03 0. -1.
        -11    1    3    3    0    0  0.12936339353E+01  0.26293794214E+01  0.10450931566E+02  0.10853989854E+02  0.51100000000E-03 0.  1.
         12    1    3    3    0    0  0.10867823347E+01  0.52648337443E+01  0.12965867635E+02  0.14036142409E+02  0.00000000000E+00 0. -1.
</event>
<event>
 7    1  0.2395003E-008  0.4614232E+02  0.7816164E-02  0.1320468E+00
        -11   -1    0    0    0    0  0.00000000000E+00  0.00000000000E+00  0.45593999997E+02  0.45594000000E+02  0.51100000000E-03 0. -1.
         11   -1    0    0    0    0 -0.00000000000E+00 -0.00000000000E+00 -0.45593999997E+02  0.45594000000E+02  0.51100000000E-03 0.  1.
    9900012    2    1    2    0    0 -0.11798190450E+02  0.36615178538E+02 -0.23435972066E+02  0.46142318920E+02  0.10000010568E+02 0.  0.
         12    1    1    2    0    0  0.11798190450E+02 -0.36615178538E+02  0.23435972066E+02  0.45045681080E+02  0.00000000000E+00 0. -1.
         11    1    3    3    0    0 -0.38338291454E+01  0.11946721526E+02 -0.10114200744E+02  0.16115813914E+02  0.51100000000E-03 0. -1.
        -11    1    3    3    0    0 -0.64009131937E+01  0.21470085521E+02 -0.13977504385E+02  0.26406569090E+02  0.51100000000E-03 0.  1.
         12    1    3    3    0    0 -0.15634481109E+01  0.31983714913E+01  0.65573306352E+00  0.36199359169E+01  0.00000000000E+00 0. -1.
</event>
<event>
 7    1  0.2395003E-008  0.4614232E+02  0.7816164E-02  0.1320468E+00
        -11   -1    0    0    0    0  0.00000000000E+00  0.00000000000E+00  0.45593999997E+02  0.45594000000E+02  0.51100000000E-03 0.  1.
         11   -1    0    0    0    0 -0.00000000000E+00 -0.00000000000E+00 -0.45593999997E+02  0.45594000000E+02  0.51100000000E-03 0. -1.
    9900012    2    1    2    0    0  0.22897300660E+02 -0.38628896746E+02 -0.35546324374E+01  0.46142318153E+02  0.10000003569E+02 0.  0.
         12    1    1    2    0    0 -0.22897300660E+02  0.38628896746E+02  0.35546324374E+01  0.45045681847E+02  0.00000000000E+00 0. -1.
         11    1    3    3    0    0 -0.30869180847E+00 -0.29092893491E+00  0.44681873874E+00  0.61609863187E+00  0.51100000000E-03 0. -1.
        -11    1    3    3    0    0  0.73543499552E+01 -0.12767056799E+02 -0.45982991866E+01  0.15434654458E+02  0.51100000000E-03 0.  1.
        -12    1    3    3    0    0  0.15851642513E+02 -0.25570911012E+02  0.59684801046E+00  0.30091565062E+02  0.00000000000E+00 0.  1.
</event>
<event>
 7    1  0.2395003E-008  0.4614232E+02  0.7816164E-02  0.1320468E+00
        -11   -1    0    0    0    0  0.00000000000E+00  0.00000000000E+00  0.45593999997E+02  0.45594000000E+02  0.51100000000E-03 0.  1.
         11   -1    0    0    0    0 -0.00000000000E+00 -0.00000000000E+00 -0.45593999997E+02  0.45594000000E+02  0.51100000000E-03 0. -1.
    9900012    2    1    2    0    0  0.26781205990E+02 -0.35843229119E+02  0.52099311177E+01  0.46142318185E+02  0.10000003862E+02 0.  0.
         12    1    1    2    0    0 -0.26781205990E+02  0.35843229119E+02 -0.52099311177E+01  0.45045681815E+02  0.00000000000E+00 0. -1.
         11    1    3    3    0    0  0.26747999228E+01 -0.29508365385E+01 -0.87316669828E+00  0.40773044095E+01  0.51100000000E-03 0. -1.
        -11    1    3    3    0    0 -0.38780209262E+00 -0.22105694189E+01  0.10699760122E+01  0.24863339572E+01  0.51100000000E-03 0.  1.
        -12    1    3    3    0    0  0.24494208160E+02 -0.30681823162E+02  0.50131218037E+01  0.39578679818E+02  0.00000000000E+00 0.  1.
</event>
<event>
 7    1  0.2395003E-008  0.4614232E+02  0.7816164E-02  0.1320468E+00
        -11   -1    0    0    0    0  0.00000000000E+00  0.00000000000E+00  0.45593999997E+02  0.45594000000E+02  0.51100000000E-03 0. -1.
         11   -1    0    0    0    0 -0.00000000000E+00 -0.00000000000E+00 -0.45593999997E+02  0.45594000000E+02  0.51100000000E-03 0.  1.
    9900012    2    1    2    0    0 -0.41419786474E+02  0.11420681399E+02 -0.13530811190E+02  0.46142317336E+02  0.99999961279E+01 0.  0.
         12    1    1    2    0    0  0.41419786474E+02 -0.11420681399E+02  0.13530811190E+02  0.45045682664E+02  0.00000000000E+00 0. -1.
         11    1    3    3    0    0 -0.19903650809E+02  0.81522189758E+01 -0.10649233568E+02  0.24000420113E+02  0.51100000000E-03 0. -1.
        -11    1    3    3    0    0 -0.17022228428E+01  0.71271270397E+00 -0.93632346173E+00  0.20693534959E+01  0.51100000000E-03 0.  1.
         12    1    3    3    0    0 -0.19813912822E+02  0.25557497192E+01 -0.19452541604E+01  0.20072543727E+02  0.00000000000E+00 0. -1.
</event>
<event>
 7    1  0.2395003E-008  0.4614232E+02  0.7816164E-02  0.1320468E+00
        -11   -1    0    0    0    0  0.00000000000E+00  0.00000000000E+00  0.45593999997E+02  0.45594000000E+02  0.51100000000E-03 0.  1.
         11   -1    0    0    0    0 -0.00000000000E+00 -0.00000000000E+00 -0.45593999997E+02  0.45594000000E+02  0.51100000000E-03 0. -1.
    9900012    2    1    2    0    0 -0.94983697380E+01  0.39442109408E+02 -0.19575864732E+02  0.46142317607E+02  0.99999985970E+01 0.  0.
         12    1    1    2    0    0  0.94983697380E+01 -0.39442109408E+02  0.19575864732E+02  0.45045682393E+02  0.00000000000E+00 0. -1.
         11    1    3    3    0    0 -0.27293220310E+01  0.89263068867E+01 -0.28046277824E+01  0.97464911965E+01  0.51100000000E-03 0. -1.
        -11    1    3    3    0    0 -0.28551019282E+01  0.23964796885E+02 -0.97608566188E+01  0.26033390462E+02  0.51100000000E-03 0.  1.
         12    1    3    3    0    0 -0.39139457788E+01  0.65510056359E+01 -0.70103803310E+01  0.10362435948E+02  0.00000000000E+00 0. -1.
</event>
<event>
 7    1  0.2395003E-008  0.4614232E+02  0.7816164E-02  0.1320468E+00
        -11   -1    0    0    0    0  0.00000000000E+00  0.00000000000E+00  0.45593999997E+02  0.45594000000E+02  0.51100000000E-03 0.  1.
         11   -1    0    0    0    0 -0.00000000000E+00 -0.00000000000E+00 -0.45593999997E+02  0.45594000000E+02  0.51100000000E-03 0. -1.
    9900012    2    1    2    0    0  0.15332169689E+02  0.19139788142E+02  0.37785003324E+02  0.46142318812E+02  0.10000009585E+02 0.  0.
         12    1    1    2    0    0 -0.15332169689E+02 -0.19139788142E+02 -0.37785003324E+02  0.45045681188E+02  0.00000000000E+00 0. -1.
         11    1    3    3    0    0  0.43012057027E+01  0.24699927162E+01  0.45885939799E+01  0.67569541577E+01  0.51100000000E-03 0. -1.
        -11    1    3    3    0    0  0.41571080770E+01  0.57919802640E+01  0.18639876201E+02  0.19956792528E+02  0.51100000000E-03 0.  1.
        -12    1    3    3    0    0  0.68738559089E+01  0.10877815161E+02  0.14556533143E+02  0.19428572127E+02  0.00000000000E+00 0.  1.
</event>
<event>
 7    1  0.2543304E-008  0.4614232E+02  0.7816164E-02  0.1320468E+00
        -11   -1    0    0    0    0  0.00000000000E+00  0.00000000000E+00  0.45593999997E+02  0.45594000000E+02  0.51100000000E-03 0. -1.
         11   -1    0    0    0    0 -0.00000000000E+00 -0.00000000000E+00 -0.45593999997E+02  0.45594000000E+02  0.51100000000E-03 0.  1.
    9900012    2    1    2    0    0 -0.36656903873E+02  0.14734963974E+02 -0.21639448783E+02  0.46142317538E+02  0.99999979628E+01 0.  0.
         12    1    1    2    0    0  0.36656903873E+02 -0.14734963974E+02  0.21639448783E+02  0.45045682462E+02  0.00000000000E+00 0. -1.
         11    1    3    3    0    0 -0.70666291485E-01  0.30981800813E+00 -0.19994001137E+01  0.20244954924E+01  0.51100000000E-03 0. -1.
        -11    1    3    3    0    0  0.47403879248E-01  0.19655819232E+00 -0.14130085406E+00  0.24667477215E+00  0.51100000000E-03 0.  1.
        -12    1    3    3    0    0 -0.36633641461E+02  0.14228587773E+02 -0.19498747815E+02  0.43871147273E+02  0.00000000000E+00 0.  1.
</event>
<event>
 7    1  0.2395003E-008  0.4614233E+02  0.7816164E-02  0.1320468E+00
        -11   -1    0    0    0    0  0.00000000000E+00  0.00000000000E+00  0.45593999997E+02  0.45594000000E+02  0.51100000000E-03 0.  1.
         11   -1    0    0    0    0 -0.00000000000E+00 -0.00000000000E+00 -0.45593999997E+02  0.45594000000E+02  0.51100000000E-03 0. -1.
    9900012    2    1    2    0    0 -0.31724107039E+02 -0.42379685898E+01  0.31697529932E+02  0.46142325968E+02  0.10000074839E+02 0.  0.
         12    1    1    2    0    0  0.31724107039E+02  0.42379685898E+01 -0.31697529932E+02  0.45045674032E+02  0.00000000000E+00 0. -1.
         11    1    3    3    0    0 -0.84906553617E+00 -0.20792686833E+00  0.30440560522E+01  0.31670843653E+01  0.51100000000E-03 0. -1.
        -11    1    3    3    0    0 -0.28089027654E+02 -0.58021093497E+01  0.26358382995E+02  0.38954105070E+02  0.51100000000E-03 0.  1.
        -12    1    3    3    0    0 -0.27860138487E+01  0.17720676282E+01  0.22950908846E+01  0.40211365325E+01  0.00000000000E+00 0.  1.
</event>
<event>
 7    1  0.2395003E-008  0.4614232E+02  0.7816164E-02  0.1320468E+00
        -11   -1    0    0    0    0  0.00000000000E+00  0.00000000000E+00  0.45593999997E+02  0.45594000000E+02  0.51100000000E-03 0.  1.
         11   -1    0    0    0    0 -0.00000000000E+00 -0.00000000000E+00 -0.45593999997E+02  0.45594000000E+02  0.51100000000E-03 0. -1.
    9900012    2    1    2    0    0 -0.17350737025E+02  0.32896594058E+02  0.25414158559E+02  0.46142318396E+02  0.10000005789E+02 0.  0.
         12    1    1    2    0    0  0.17350737025E+02 -0.32896594058E+02 -0.25414158559E+02  0.45045681604E+02  0.00000000000E+00 0. -1.
         11    1    3    3    0    0  0.17440552986E-01  0.99086056973E+00  0.19791888789E+01  0.22134357278E+01  0.51100000000E-03 0. -1.
        -11    1    3    3    0    0 -0.22610359975E+01  0.11721386664E+02  0.79155563797E+01  0.14323380263E+02  0.51100000000E-03 0.  1.
         12    1    3    3    0    0 -0.15107141581E+02  0.20184346824E+02  0.15519413300E+02  0.29605502405E+02  0.00000000000E+00 0. -1.
</event>
<event>
 7    1  0.2395003E-008  0.4614232E+02  0.7816164E-02  0.1320468E+00
        -11   -1    0    0    0    0  0.00000000000E+00  0.00000000000E+00  0.45593999997E+02  0.45594000000E+02  0.51100000000E-03 0.  1.
         11   -1    0    0    0    0 -0.00000000000E+00 -0.00000000000E+00 -0.45593999997E+02  0.45594000000E+02  0.51100000000E-03 0. -1.
    9900012    2    1    2    0    0  0.64581406334E+01 -0.40175765370E+02 -0.19321329341E+02  0.46142317954E+02  0.10000001756E+02 0.  0.
         12    1    1    2    0    0 -0.64581406334E+01  0.40175765370E+02  0.19321329341E+02  0.45045682046E+02  0.00000000000E+00 0. -1.
         11    1    3    3    0    0  0.53650546267E+01 -0.14803610812E+02 -0.40232932082E+01  0.16251695072E+02  0.51100000000E-03 0. -1.
        -11    1    3    3    0    0  0.48529186235E+00 -0.13992530916E+02 -0.62175918367E+01  0.15319428127E+02  0.51100000000E-03 0.  1.
         12    1    3    3    0    0  0.60779414439E+00 -0.11379623642E+02 -0.90804442963E+01  0.14571194755E+02  0.00000000000E+00 0. -1.
</event>
<event>
 7    1  0.2395003E-008  0.4614232E+02  0.7816164E-02  0.1320468E+00
        -11   -1    0    0    0    0  0.00000000000E+00  0.00000000000E+00  0.45593999997E+02  0.45594000000E+02  0.51100000000E-03 0. -1.
         11   -1    0    0    0    0 -0.00000000000E+00 -0.00000000000E+00 -0.45593999997E+02  0.45594000000E+02  0.51100000000E-03 0.  1.
    9900012    2    1    2    0    0  0.66367207017E+01  0.41425734247E+02 -0.16400485354E+02  0.46142318304E+02  0.10000004953E+02 0.  0.
         12    1    1    2    0    0 -0.66367207017E+01 -0.41425734247E+02  0.16400485354E+02  0.45045681696E+02  0.00000000000E+00 0. -1.
         11    1    3    3    0    0  0.72335150709E+00  0.13202303279E+02 -0.35685035540E+01  0.13695191388E+02  0.51100000000E-03 0. -1.
        -11    1    3    3    0    0  0.76098567927E+01  0.19860156580E+02 -0.92055076993E+01  0.23174924208E+02  0.51100000000E-03 0.  1.
         12    1    3    3    0    0 -0.16964875981E+01  0.83632743875E+01 -0.36264741006E+01  0.92722027077E+01  0.00000000000E+00 0. -1.
</event>
<event>
 7    1  0.2395003E-008  0.4614232E+02  0.7816164E-02  0.1320468E+00
        -11   -1    0    0    0    0  0.00000000000E+00  0.00000000000E+00  0.45593999997E+02  0.45594000000E+02  0.51100000000E-03 0.  1.
         11   -1    0    0    0    0 -0.00000000000E+00 -0.00000000000E+00 -0.45593999997E+02  0.45594000000E+02  0.51100000000E-03 0. -1.
    9900012    2    1    2    0    0  0.21678901881E+02  0.29956193388E+02  0.25724796880E+02  0.46142317814E+02  0.10000000485E+02 0.  0.
         12    1    1    2    0    0 -0.21678901881E+02 -0.29956193388E+02 -0.25724796880E+02  0.45045682186E+02  0.00000000000E+00 0. -1.
         11    1    3    3    0    0  0.11778012217E+02  0.18762487684E+02  0.15219003577E+02  0.26876952692E+02  0.51100000000E-03 0. -1.
        -11    1    3    3    0    0  0.78665329906E+01  0.11234579107E+02  0.10428050356E+02  0.17229113253E+02  0.51100000000E-03 0.  1.
         12    1    3    3    0    0  0.20343566732E+01 -0.40873402613E-01  0.77742946963E-01  0.20362518691E+01  0.00000000000E+00 0. -1.
</event>
<event>
 7    1  0.2395003E-008  0.4614232E+02  0.7816164E-02  0.1320468E+00
        -11   -1    0    0    0    0  0.00000000000E+00  0.00000000000E+00  0.45593999997E+02  0.45594000000E+02  0.51100000000E-03 0. -1.
         11   -1    0    0    0    0 -0.00000000000E+00 -0.00000000000E+00 -0.45593999997E+02  0.45594000000E+02  0.51100000000E-03 0.  1.
    9900012    2    1    2    0    0 -0.86097215110E+01 -0.17414913407E+02 -0.40641198011E+02  0.46142317752E+02  0.99999999134E+01 0.  0.
         12    1    1    2    0    0  0.86097215110E+01  0.17414913407E+02  0.40641198011E+02  0.45045682248E+02  0.00000000000E+00 0. -1.
         11    1    3    3    0    0  0.44928297905E+00 -0.22058525881E+01 -0.10224236183E+01  0.24724463902E+01  0.51100000000E-03 0. -1.
        -11    1    3    3    0    0 -0.55794105001E+01 -0.76334444152E+01 -0.15557735033E+02  0.18205559996E+02  0.51100000000E-03 0.  1.
        -12    1    3    3    0    0 -0.34795939900E+01 -0.75756164041E+01 -0.24061039360E+02  0.25464311365E+02  0.00000000000E+00 0.  1.
</event>
<event>
 7    1  0.2395003E-008  0.4614232E+02  0.7816164E-02  0.1320468E+00
        -11   -1    0    0    0    0  0.00000000000E+00  0.00000000000E+00  0.45593999997E+02  0.45594000000E+02  0.51100000000E-03 0. -1.
         11   -1    0    0    0    0 -0.00000000000E+00 -0.00000000000E+00 -0.45593999997E+02  0.45594000000E+02  0.51100000000E-03 0.  1.
    9900012    2    1    2    0    0 -0.19188426155E+02  0.35605660510E+02 -0.19828124828E+02  0.46142319932E+02  0.10000019793E+02 0.  0.
         12    1    1    2    0    0  0.19188426155E+02 -0.35605660510E+02  0.19828124828E+02  0.45045680068E+02  0.00000000000E+00 0. -1.
         11    1    3    3    0    0 -0.52039554442E+01  0.49246807240E+01 -0.46990720490E+01  0.85682501645E+01  0.51100000000E-03 0. -1.
        -11    1    3    3    0    0 -0.89605701423E+01  0.21980865604E+02 -0.13753900402E+02  0.27433921456E+02  0.51100000000E-03 0.  1.
        -12    1    3    3    0    0 -0.50239005682E+01  0.87001141823E+01 -0.13751523771E+01  0.10140148311E+02  0.00000000000E+00 0.  1.
</event>
<event>
 7    1  0.2395003E-008  0.4614232E+02  0.7816164E-02  0.1320468E+00
        -11   -1    0    0    0    0  0.00000000000E+00  0.00000000000E+00  0.45593999997E+02  0.45594000000E+02  0.51100000000E-03 0.  1.
         11   -1    0    0    0    0 -0.00000000000E+00 -0.00000000000E+00 -0.45593999997E+02  0.45594000000E+02  0.51100000000E-03 0. -1.
    9900012    2    1    2    0    0  0.11266949755E+02  0.26770440141E+02  0.34431278715E+02  0.46142316788E+02  0.99999911255E+01 0.  0.
         12    1    1    2    0    0 -0.11266949755E+02 -0.26770440141E+02 -0.34431278715E+02  0.45045683212E+02  0.00000000000E+00 0. -1.
         11    1    3    3    0    0  0.31009738512E+01  0.64052350618E+01  0.39386743609E+01  0.81336480748E+01  0.51100000000E-03 0. -1.
        -11    1    3    3    0    0  0.19849317192E+01  0.12708166867E+01  0.52884981629E+01  0.57899172758E+01  0.51100000000E-03 0.  1.
        -12    1    3    3    0    0  0.61810441841E+01  0.19094388393E+02  0.25204106191E+02  0.32218751437E+02  0.00000000000E+00 0.  1.
</event>
<event>
 7    1  0.2395003E-008  0.4614232E+02  0.7816164E-02  0.1320468E+00
        -11   -1    0    0    0    0  0.00000000000E+00  0.00000000000E+00  0.45593999997E+02  0.45594000000E+02  0.51100000000E-03 0.  1.
         11   -1    0    0    0    0 -0.00000000000E+00 -0.00000000000E+00 -0.45593999997E+02  0.45594000000E+02  0.51100000000E-03 0. -1.
    9900012    2    1    2    0    0 -0.27041652488E+02  0.18667240392E+02  0.30812280288E+02  0.46142318191E+02  0.10000003917E+02 0.  0.
         12    1    1    2    0    0  0.27041652488E+02 -0.18667240392E+02 -0.30812280288E+02  0.45045681809E+02  0.00000000000E+00 0. -1.
         11    1    3    3    0    0 -0.88829868076E-01 -0.56904206047E+00 -0.30272777674E-01  0.57672897815E+00  0.51100000000E-03 0. -1.
        -11    1    3    3    0    0 -0.12471389342E+02  0.84281975433E+01  0.10479383066E+02  0.18340870635E+02  0.51100000000E-03 0.  1.
         12    1    3    3    0    0 -0.14481433277E+02  0.10808084909E+02  0.20363170000E+02  0.27224718577E+02  0.00000000000E+00 0. -1.
</event>
<event>
 7    1  0.2395003E-008  0.4614232E+02  0.7816164E-02  0.1320468E+00
        -11   -1    0    0    0    0  0.00000000000E+00  0.00000000000E+00  0.45593999997E+02  0.45594000000E+02  0.51100000000E-03 0.  1.
         11   -1    0    0    0    0 -0.00000000000E+00 -0.00000000000E+00 -0.45593999997E+02  0.45594000000E+02  0.51100000000E-03 0. -1.
    9900012    2    1    2    0    0 -0.26402703011E+01  0.66778903279E+01  0.44469631843E+02  0.46142318712E+02  0.10000008669E+02 0.  0.
         12    1    1    2    0    0  0.26402703011E+01 -0.66778903279E+01 -0.44469631843E+02  0.45045681288E+02  0.00000000000E+00 0. -1.
         11    1    3    3    0    0 -0.10466821053E+01  0.38091314424E+00  0.24773033100E+02  0.24798060559E+02  0.51100000000E-03 0. -1.
        -11    1    3    3    0    0  0.13535162130E+01  0.65061620495E+00  0.17780705352E+01  0.23274111528E+01  0.51100000000E-03 0.  1.
        -12    1    3    3    0    0 -0.29471044087E+01  0.56463609787E+01  0.17918528208E+02  0.19016847000E+02  0.00000000000E+00 0.  1.
</event>
<event>
 7    1  0.2395003E-008  0.4614231E+02  0.7816164E-02  0.1320468E+00
        -11   -1    0    0    0    0  0.00000000000E+00  0.00000000000E+00  0.45593999997E+02  0.45594000000E+02  0.51100000000E-03 0. -1.
         11   -1    0    0    0    0 -0.00000000000E+00 -0.00000000000E+00 -0.45593999997E+02  0.45594000000E+02  0.51100000000E-03 0.  1.
    9900012    2    1    2    0    0 -0.39682441192E+02  0.19199531999E+02 -0.92625941049E+01  0.46142314107E+02  0.99999666833E+01 0.  0.
         12    1    1    2    0    0  0.39682441192E+02 -0.19199531999E+02  0.92625941049E+01  0.45045685893E+02  0.00000000000E+00 0. -1.
         11    1    3    3    0    0 -0.28200825107E+01  0.77367035586E+00 -0.17168138722E+01  0.33910000471E+01  0.51100000000E-03 0.  1.
        -11    1    3    3    0    0 -0.59506853441E+01  0.10515394374E+01  0.13518243641E+01  0.61922387410E+01  0.51100000000E-03 0. -1.
        -12    1    3    3    0    0 -0.30911673338E+02  0.17374322206E+02 -0.88976045968E+01  0.36559075319E+02  0.00000000000E+00 0.  1.
</event>
<event>
 7    1  0.2395003E-008  0.4614232E+02  0.7816164E-02  0.1320468E+00
        -11   -1    0    0    0    0  0.00000000000E+00  0.00000000000E+00  0.45593999997E+02  0.45594000000E+02  0.51100000000E-03 0. -1.
         11   -1    0    0    0    0 -0.00000000000E+00 -0.00000000000E+00 -0.45593999997E+02  0.45594000000E+02  0.51100000000E-03 0.  1.
    9900012    2    1    2    0    0  0.21233772497E+02 -0.30051445521E+02 -0.25983668681E+02  0.46142317516E+02  0.99999977604E+01 0.  0.
         12    1    1    2    0    0 -0.21233772497E+02  0.30051445521E+02  0.25983668681E+02  0.45045682484E+02  0.00000000000E+00 0. -1.
         11    1    3    3    0    0  0.11836081167E+02 -0.15909815105E+02 -0.18268002062E+02  0.26961730910E+02  0.51100000000E-03 0. -1.
        -11    1    3    3    0    0  0.35762852190E+01 -0.28634644460E+01 -0.36364920166E+01  0.58492152507E+01  0.51100000000E-03 0.  1.
         12    1    3    3    0    0  0.58214061116E+01 -0.11278165970E+02 -0.40791746023E+01  0.13331371355E+02  0.00000000000E+00 0. -1.
</event>
<event>
 7    1  0.2395003E-008  0.4614232E+02  0.7816164E-02  0.1320468E+00
        -11   -1    0    0    0    0  0.00000000000E+00  0.00000000000E+00  0.45593999997E+02  0.45594000000E+02  0.51100000000E-03 0.  1.
         11   -1    0    0    0    0 -0.00000000000E+00 -0.00000000000E+00 -0.45593999997E+02  0.45594000000E+02  0.51100000000E-03 0. -1.
    9900012    2    1    2    0    0  0.41824569231E+02 -0.17541092665E+01  0.16635556570E+02  0.46142320595E+02  0.10000025840E+02 0.  0.
         12    1    1    2    0    0 -0.41824569231E+02  0.17541092665E+01 -0.16635556570E+02  0.45045679405E+02  0.00000000000E+00 0. -1.
         11    1    3    3    0    0  0.18783611190E+02 -0.40520850389E+01  0.44742001070E+01  0.19729721472E+02  0.51100000000E-03 0. -1.
        -11    1    3    3    0    0  0.53141129446E+01  0.14837807298E+01  0.43405661488E+01  0.70201080045E+01  0.51100000000E-03 0.  1.
        -12    1    3    3    0    0  0.17726845097E+02  0.81419504261E+00  0.78207903137E+01  0.19392491119E+02  0.00000000000E+00 0.  1.
</event>
<event>
 7    1  0.2395003E-008  0.4614232E+02  0.7816164E-02  0.1320468E+00
        -11   -1    0    0    0    0  0.00000000000E+00  0.00000000000E+00  0.45593999997E+02  0.45594000000E+02  0.51100000000E-03 0.  1.
         11   -1    0    0    0    0 -0.00000000000E+00 -0.00000000000E+00 -0.45593999997E+02  0.45594000000E+02  0.51100000000E-03 0. -1.
    9900012    2    1    2    0    0  0.26137668520E+02 -0.21826832534E+02  0.29487713516E+02  0.46142316716E+02  0.99999904701E+01 0.  0.
         12    1    1    2    0    0 -0.26137668520E+02  0.21826832534E+02 -0.29487713516E+02  0.45045683284E+02  0.00000000000E+00 0. -1.
         11    1    3    3    0    0  0.51133121853E+01 -0.59065842814E+01  0.67534692655E+01  0.10326812033E+02  0.51100000000E-03 0. -1.
        -11    1    3    3    0    0  0.17723031604E+02 -0.11325199126E+02  0.13521190688E+02  0.25003771363E+02  0.51100000000E-03 0.  1.
        -12    1    3    3    0    0  0.33013247309E+01 -0.45950491263E+01  0.92130535623E+01  0.10811733321E+02  0.00000000000E+00 0.  1.
</event>
<event>
 7    1  0.2395003E-008  0.4614232E+02  0.7816164E-02  0.1320468E+00
        -11   -1    0    0    0    0  0.00000000000E+00  0.00000000000E+00  0.45593999997E+02  0.45594000000E+02  0.51100000000E-03 0.  1.
         11   -1    0    0    0    0 -0.00000000000E+00 -0.00000000000E+00 -0.45593999997E+02  0.45594000000E+02  0.51100000000E-03 0. -1.
    9900012    2    1    2    0    0 -0.42269339127E+02 -0.11189243528E+02  0.10826693595E+02  0.46142317685E+02  0.99999993095E+01 0.  0.
         12    1    1    2    0    0  0.42269339127E+02  0.11189243528E+02 -0.10826693595E+02  0.45045682315E+02  0.00000000000E+00 0. -1.
         11    1    3    3    0    0 -0.17527982213E+02 -0.65494210134E+01  0.67882192451E+01  0.19904898816E+02  0.51100000000E-03 0.  1.
        -11    1    3    3    0    0 -0.14641079793E+02 -0.14610307418E+01  0.51534606194E+01  0.15590188740E+02  0.51100000000E-03 0. -1.
         12    1    3    3    0    0 -0.10100277121E+02 -0.31787917729E+01 -0.11149862691E+01  0.10647230130E+02  0.00000000000E+00 0. -1.
</event>
<event>
 7    1  0.2395003E-008  0.4614232E+02  0.7816164E-02  0.1320468E+00
        -11   -1    0    0    0    0  0.00000000000E+00  0.00000000000E+00  0.45593999997E+02  0.45594000000E+02  0.51100000000E-03 0. -1.
         11   -1    0    0    0    0 -0.00000000000E+00 -0.00000000000E+00 -0.45593999997E+02  0.45594000000E+02  0.51100000000E-03 0.  1.
    9900012    2    1    2    0    0 -0.68360519100E+01 -0.28573913508E+02 -0.34145467992E+02  0.46142321814E+02  0.10000036954E+02 0.  0.
         12    1    1    2    0    0  0.68360519100E+01  0.28573913508E+02  0.34145467992E+02  0.45045678186E+02  0.00000000000E+00 0. -1.
         11    1    3    3    0    0 -0.55619749707E+01 -0.57204144964E+01 -0.70503111589E+01  0.10647328082E+02  0.51100000000E-03 0. -1.
        -11    1    3    3    0    0 -0.44343924993E+00 -0.10688783129E+02 -0.13686941636E+02  0.17371790200E+02  0.51100000000E-03 0.  1.
         12    1    3    3    0    0 -0.83063768938E+00 -0.12164715883E+02 -0.13408215198E+02  0.18123203532E+02  0.00000000000E+00 0. -1.
</event>
<event>
 7    1  0.2395003E-008  0.4614232E+02  0.7816164E-02  0.1320468E+00
        -11   -1    0    0    0    0  0.00000000000E+00  0.00000000000E+00  0.45593999997E+02  0.45594000000E+02  0.51100000000E-03 0.  1.
         11   -1    0    0    0    0 -0.00000000000E+00 -0.00000000000E+00 -0.45593999997E+02  0.45594000000E+02  0.51100000000E-03 0. -1.
    9900012    2    1    2    0    0  0.28072142843E+02 -0.14510815289E+02  0.32101473825E+02  0.46142316678E+02  0.99999901258E+01 0.  0.
         12    1    1    2    0    0 -0.28072142843E+02  0.14510815289E+02 -0.32101473825E+02  0.45045683322E+02  0.00000000000E+00 0. -1.
         11    1    3    3    0    0  0.94364317905E+01 -0.61317027185E+01  0.68184936656E+01  0.13158110780E+02  0.51100000000E-03 0. -1.
        -11    1    3    3    0    0  0.30919065043E+01  0.46134759593E+00  0.54269666377E+01  0.62629621253E+01  0.51100000000E-03 0.  1.
        -12    1    3    3    0    0  0.15543804548E+02 -0.88404601667E+01  0.19856013522E+02  0.26721243773E+02  0.00000000000E+00 0.  1.
</event>
<event>
 7    1  0.2395003E-008  0.4614232E+02  0.7816164E-02  0.1320468E+00
        -11   -1    0    0    0    0  0.00000000000E+00  0.00000000000E+00  0.45593999997E+02  0.45594000000E+02  0.51100000000E-03 0.  1.
         11   -1    0    0    0    0 -0.00000000000E+00 -0.00000000000E+00 -0.45593999997E+02  0.45594000000E+02  0.51100000000E-03 0. -1.
    9900012    2    1    2    0    0 -0.27720959133E+02  0.33244707710E+01  0.35349820609E+02  0.46142317651E+02  0.99999989970E+01 0.  0.
         12    1    1    2    0    0  0.27720959133E+02 -0.33244707710E+01 -0.35349820609E+02  0.45045682349E+02  0.00000000000E+00 0. -1.
         11    1    3    3    0    0 -0.37443425346E+01  0.16592898080E+00  0.88909325265E+01  0.96486431634E+01  0.51100000000E-03 0. -1.
        -11    1    3    3    0    0 -0.22689606283E+02  0.40073000452E+01  0.26266505798E+02  0.34940034545E+02  0.51100000000E-03 0.  1.
         12    1    3    3    0    0 -0.12870103150E+01 -0.84875825502E+00  0.19238228495E+00  0.15536399422E+01  0.00000000000E+00 0. -1.
</event>
<event>
 7    1  0.2395003E-008  0.4614232E+02  0.7816164E-02  0.1320468E+00
        -11   -1    0    0    0    0  0.00000000000E+00  0.00000000000E+00  0.45593999997E+02  0.45594000000E+02  0.51100000000E-03 0.  1.
         11   -1    0    0    0    0 -0.00000000000E+00 -0.00000000000E+00 -0.45593999997E+02  0.45594000000E+02  0.51100000000E-03 0. -1.
    9900012    2    1    2    0    0 -0.17094201092E+02  0.23939449253E+02  0.34114579383E+02  0.46142317988E+02  0.10000002065E+02 0.  0.
         12    1    1    2    0    0  0.17094201092E+02 -0.23939449253E+02 -0.34114579383E+02  0.45045682012E+02  0.00000000000E+00 0. -1.
         11    1    3    3    0    0 -0.90500327068E+01  0.96585662381E+01  0.20071042710E+02  0.24042415634E+02  0.51100000000E-03 0.  1.
        -11    1    3    3    0    0 -0.50095035528E+01  0.45011341004E+01  0.44793934996E+01  0.80882816729E+01  0.51100000000E-03 0. -1.
        -12    1    3    3    0    0 -0.30346648325E+01  0.97797489141E+01  0.95641431733E+01  0.14011620681E+02  0.00000000000E+00 0.  1.
</event>
<event>
 7    1  0.2395003E-008  0.4614232E+02  0.7816164E-02  0.1320468E+00
        -11   -1    0    0    0    0  0.00000000000E+00  0.00000000000E+00  0.45593999997E+02  0.45594000000E+02  0.51100000000E-03 0.  1.
         11   -1    0    0    0    0 -0.00000000000E+00 -0.00000000000E+00 -0.45593999997E+02  0.45594000000E+02  0.51100000000E-03 0. -1.
    9900012    2    1    2    0    0 -0.30539994339E+02  0.16188864849E+02  0.28884993826E+02  0.46142317991E+02  0.10000002097E+02 0.  0.
         12    1    1    2    0    0  0.30539994339E+02 -0.16188864849E+02 -0.28884993826E+02  0.45045682009E+02  0.00000000000E+00 0. -1.
         11    1    3    3    0    0 -0.27885802214E+01  0.14341985465E+01  0.29691488644E-01  0.31359188394E+01  0.51100000000E-03 0. -1.
        -11    1    3    3    0    0 -0.14903037916E+02  0.50765535298E+01  0.12958714407E+02  0.20391179814E+02  0.51100000000E-03 0.  1.
        -12    1    3    3    0    0 -0.12848376201E+02  0.96781127729E+01  0.15896587930E+02  0.22615219337E+02  0.00000000000E+00 0.  1.
</event>
<event>
 7    1  0.2395003E-008  0.4614232E+02  0.7816164E-02  0.1320468E+00
        -11   -1    0    0    0    0  0.00000000000E+00  0.00000000000E+00  0.45593999997E+02  0.45594000000E+02  0.51100000000E-03 0.  1.
         11   -1    0    0    0    0 -0.00000000000E+00 -0.00000000000E+00 -0.45593999997E+02  0.45594000000E+02  0.51100000000E-03 0. -1.
    9900012    2    1    2    0    0  0.17770018891E+02  0.32146423565E+02  0.26075804896E+02  0.46142315186E+02  0.99999765198E+01 0.  0.
         12    1    1    2    0    0 -0.17770018891E+02 -0.32146423565E+02 -0.26075804896E+02  0.45045684814E+02  0.00000000000E+00 0. -1.
         11    1    3    3    0    0  0.38003204484E+01  0.10445627049E+02  0.79340656417E+01  0.13656608577E+02  0.51100000000E-03 0. -1.
        -11    1    3    3    0    0  0.46691953289E+01  0.12553522795E+02  0.12328824436E+02  0.18204181712E+02  0.51100000000E-03 0.  1.
         12    1    3    3    0    0  0.93005031143E+01  0.91472737211E+01  0.58129148175E+01  0.14281524897E+02  0.00000000000E+00 0. -1.
</event>
<event>
 7    1  0.2395003E-008  0.4614232E+02  0.7816164E-02  0.1320468E+00
        -11   -1    0    0    0    0  0.00000000000E+00  0.00000000000E+00  0.45593999997E+02  0.45594000000E+02  0.51100000000E-03 0.  1.
         11   -1    0    0    0    0 -0.00000000000E+00 -0.00000000000E+00 -0.45593999997E+02  0.45594000000E+02  0.51100000000E-03 0. -1.
    9900012    2    1    2    0    0  0.38137154919E+01 -0.64490781376E+01  0.44418219644E+02  0.46142320174E+02  0.10000022001E+02 0.  0.
         12    1    1    2    0    0 -0.38137154919E+01  0.64490781376E+01 -0.44418219644E+02  0.45045679826E+02  0.00000000000E+00 0. -1.
         11    1    3    3    0    0  0.11022511577E+01  0.74231798512E+00  0.21745108741E+02  0.21785677589E+02  0.51100000000E-03 0. -1.
        -11    1    3    3    0    0 -0.61393288874E+00 -0.29668872373E+01  0.12364477331E+02  0.12730264467E+02  0.51100000000E-03 0.  1.
        -12    1    3    3    0    0  0.33253972230E+01 -0.42245088854E+01  0.10308633572E+02  0.11626378117E+02  0.00000000000E+00 0.  1.
</event>
<event>
 7    1  0.2395003E-008  0.4614232E+02  0.7816164E-02  0.1320468E+00
        -11   -1    0    0    0    0  0.00000000000E+00  0.00000000000E+00  0.45593999997E+02  0.45594000000E+02  0.51100000000E-03 0.  1.
         11   -1    0    0    0    0 -0.00000000000E+00 -0.00000000000E+00 -0.45593999997E+02  0.45594000000E+02  0.51100000000E-03 0. -1.
    9900012    2    1    2    0    0 -0.19748612785E+02 -0.16730739968E+02  0.36867163809E+02  0.46142321693E+02  0.10000035857E+02 0.  0.
         12    1    1    2    0    0  0.19748612785E+02  0.16730739968E+02 -0.36867163809E+02  0.45045678307E+02  0.00000000000E+00 0. -1.
         11    1    3    3    0    0 -0.93525421319E+00 -0.18460184601E+01  0.89074862757E+00  0.22529797995E+01  0.51100000000E-03 0. -1.
        -11    1    3    3    0    0 -0.95444103307E+01 -0.11396135751E+02  0.25165057008E+02  0.29227517396E+02  0.51100000000E-03 0.  1.
        -12    1    3    3    0    0 -0.92689482407E+01 -0.34885857572E+01  0.10811358173E+02  0.14661824498E+02  0.00000000000E+00 0.  1.
</event>
<event>
 7    1  0.2395003E-008  0.4614232E+02  0.7816164E-02  0.1320468E+00
        -11   -1    0    0    0    0  0.00000000000E+00  0.00000000000E+00  0.45593999997E+02  0.45594000000E+02  0.51100000000E-03 0. -1.
         11   -1    0    0    0    0 -0.00000000000E+00 -0.00000000000E+00 -0.45593999997E+02  0.45594000000E+02  0.51100000000E-03 0.  1.
    9900012    2    1    2    0    0 -0.23951443971E+02 -0.38146951495E+02 -0.50190782930E+00  0.46142317764E+02  0.10000000023E+02 0.  0.
         12    1    1    2    0    0  0.23951443971E+02  0.38146951495E+02  0.50190782930E+00  0.45045682236E+02  0.00000000000E+00 0. -1.
         11    1    3    3    0    0 -0.11887346801E+02 -0.15020392358E+02 -0.17219915516E+01  0.19232432392E+02  0.51100000000E-03 0. -1.
        -11    1    3    3    0    0 -0.10203487761E+02 -0.12834601865E+02  0.15514014844E+00  0.16397019127E+02  0.51100000000E-03 0.  1.
         12    1    3    3    0    0 -0.18606094094E+01 -0.10291957272E+02  0.10649435738E+01  0.10512866245E+02  0.00000000000E+00 0. -1.
</event>
<event>
 7    1  0.2395003E-008  0.4614232E+02  0.7816164E-02  0.1320468E+00
        -11   -1    0    0    0    0  0.00000000000E+00  0.00000000000E+00  0.45593999997E+02  0.45594000000E+02  0.51100000000E-03 0.  1.
         11   -1    0    0    0    0 -0.00000000000E+00 -0.00000000000E+00 -0.45593999997E+02  0.45594000000E+02  0.51100000000E-03 0. -1.
    9900012    2    1    2    0    0  0.96280460905E+01 -0.13267348708E+02  0.41957022009E+02  0.46142317531E+02  0.99999979035E+01 0.  0.
         12    1    1    2    0    0 -0.96280460905E+01  0.13267348708E+02 -0.41957022009E+02  0.45045682469E+02  0.00000000000E+00 0. -1.
         11    1    3    3    0    0  0.36640509706E+01  0.51014652002E+00  0.47605924227E+01  0.60289932379E+01  0.51100000000E-03 0. -1.
        -11    1    3    3    0    0  0.21809946136E+01 -0.48291134080E+01  0.13502945780E+02  0.14505399643E+02  0.51100000000E-03 0.  1.
         12    1    3    3    0    0  0.37830005063E+01 -0.89483818196E+01  0.23693483806E+02  0.25607924650E+02  0.00000000000E+00 0. -1.
</event>
<event>
 7    1  0.2395003E-008  0.4614232E+02  0.7816164E-02  0.1320468E+00
        -11   -1    0    0    0    0  0.00000000000E+00  0.00000000000E+00  0.45593999997E+02  0.45594000000E+02  0.51100000000E-03 0. -1.
         11   -1    0    0    0    0 -0.00000000000E+00 -0.00000000000E+00 -0.45593999997E+02  0.45594000000E+02  0.51100000000E-03 0.  1.
    9900012    2    1    2    0    0  0.41417066313E+02  0.13222141241E+02 -0.11786225748E+02  0.46142317428E+02  0.99999969646E+01 0.  0.
         12    1    1    2    0    0 -0.41417066313E+02 -0.13222141241E+02  0.11786225748E+02  0.45045682572E+02  0.00000000000E+00 0. -1.
         11    1    3    3    0    0  0.26042122207E+02  0.11311578382E+02 -0.10784718030E+02  0.30371929109E+02  0.51100000000E-03 0. -1.
        -11    1    3    3    0    0  0.86043739865E+01  0.18284489260E+01 -0.17140082136E+01  0.89619362635E+01  0.51100000000E-03 0.  1.
         12    1    3    3    0    0  0.67705701197E+01  0.82113933195E-01  0.71250049599E+00  0.68084520561E+01  0.00000000000E+00 0. -1.
</event>
<event>
 7    1  0.2395003E-008  0.4614232E+02  0.7816164E-02  0.1320468E+00
        -11   -1    0    0    0    0  0.00000000000E+00  0.00000000000E+00  0.45593999997E+02  0.45594000000E+02  0.51100000000E-03 0.  1.
         11   -1    0    0    0    0 -0.00000000000E+00 -0.00000000000E+00 -0.45593999997E+02  0.45594000000E+02  0.51100000000E-03 0. -1.
    9900012    2    1    2    0    0 -0.42592730769E+02 -0.25146428197E+01  0.14444699354E+02  0.46142317828E+02  0.10000000614E+02 0.  0.
         12    1    1    2    0    0  0.42592730769E+02  0.25146428197E+01 -0.14444699354E+02  0.45045682172E+02  0.00000000000E+00 0. -1.
         11    1    3    3    0    0 -0.15654067185E+02 -0.52683411768E+01  0.72938808287E+01  0.18055634467E+02  0.51100000000E-03 0. -1.
        -11    1    3    3    0    0 -0.67826408093E+01  0.12648976075E+01  0.10793290011E+01  0.69834900772E+01  0.51100000000E-03 0.  1.
         12    1    3    3    0    0 -0.20156022775E+02  0.14888007496E+01  0.60714895239E+01  0.21103193285E+02  0.00000000000E+00 0. -1.
</event>
<event>
 7    1  0.2395003E-008  0.4614232E+02  0.7816164E-02  0.1320468E+00
        -11   -1    0    0    0    0  0.00000000000E+00  0.00000000000E+00  0.45593999997E+02  0.45594000000E+02  0.51100000000E-03 0.  1.
         11   -1    0    0    0    0 -0.00000000000E+00 -0.00000000000E+00 -0.45593999997E+02  0.45594000000E+02  0.51100000000E-03 0. -1.
    9900012    2    1    2    0    0  0.28755752943E+02  0.25822492346E+02  0.23139123499E+02  0.46142317914E+02  0.10000001396E+02 0.  0.
         12    1    1    2    0    0 -0.28755752943E+02 -0.25822492346E+02 -0.23139123499E+02  0.45045682086E+02  0.00000000000E+00 0. -1.
         11    1    3    3    0    0  0.56758308036E+01  0.65059830951E+01  0.17352646099E+01  0.88064757351E+01  0.51100000000E-03 0. -1.
        -11    1    3    3    0    0  0.10237336346E+02  0.10451346841E+02  0.75249519989E+01  0.16451705355E+02  0.51100000000E-03 0.  1.
        -12    1    3    3    0    0  0.12842585793E+02  0.88651624103E+01  0.13878906890E+02  0.20884136824E+02  0.00000000000E+00 0.  1.
</event>
<event>
 7    1  0.2395003E-008  0.4614232E+02  0.7816164E-02  0.1320468E+00
        -11   -1    0    0    0    0  0.00000000000E+00  0.00000000000E+00  0.45593999997E+02  0.45594000000E+02  0.51100000000E-03 0.  1.
         11   -1    0    0    0    0 -0.00000000000E+00 -0.00000000000E+00 -0.45593999997E+02  0.45594000000E+02  0.51100000000E-03 0. -1.
    9900012    2    1    2    0    0 -0.38880659348E+02 -0.50734170647E+00  0.22740942368E+02  0.46142317335E+02  0.99999961150E+01 0.  0.
         12    1    1    2    0    0  0.38880659348E+02  0.50734170647E+00 -0.22740942368E+02  0.45045682665E+02  0.00000000000E+00 0. -1.
         11    1    3    3    0    0 -0.34724745642E+01 -0.85318421986E+00  0.30600991971E+01  0.47064009890E+01  0.51100000000E-03 0. -1.
        -11    1    3    3    0    0 -0.62378924855E+01 -0.32461113126E+01  0.30365092631E+01  0.76595646143E+01  0.51100000000E-03 0.  1.
        -12    1    3    3    0    0 -0.29170292298E+02  0.35919538260E+01  0.16644333908E+02  0.33776351732E+02  0.00000000000E+00 0.  1.
</event>
<event>
 7    1  0.2395003E-008  0.4614232E+02  0.7816164E-02  0.1320468E+00
        -11   -1    0    0    0    0  0.00000000000E+00  0.00000000000E+00  0.45593999997E+02  0.45594000000E+02  0.51100000000E-03 0.  1.
         11   -1    0    0    0    0 -0.00000000000E+00 -0.00000000000E+00 -0.45593999997E+02  0.45594000000E+02  0.51100000000E-03 0. -1.
    9900012    2    1    2    0    0 -0.41481690570E+02  0.51792563757E+01  0.16779686256E+02  0.46142320740E+02  0.10000027165E+02 0.  0.
         12    1    1    2    0    0  0.41481690570E+02 -0.51792563757E+01 -0.16779686256E+02  0.45045679260E+02  0.00000000000E+00 0. -1.
         11    1    3    3    0    0 -0.24734826256E+02  0.62150085281E+01  0.83032404331E+01  0.26821293087E+02  0.51100000000E-03 0. -1.
        -11    1    3    3    0    0 -0.85231464648E+01  0.16199034385E+01  0.49398081345E+01  0.99834772237E+01  0.51100000000E-03 0.  1.
         12    1    3    3    0    0 -0.82237178490E+01 -0.26556555910E+01  0.35366376884E+01  0.93375504291E+01  0.00000000000E+00 0. -1.
</event>
<event>
 7    1  0.2395003E-008  0.4614231E+02  0.7816164E-02  0.1320468E+00
        -11   -1    0    0    0    0  0.00000000000E+00  0.00000000000E+00  0.45593999997E+02  0.45594000000E+02  0.51100000000E-03 0.  1.
         11   -1    0    0    0    0 -0.00000000000E+00 -0.00000000000E+00 -0.45593999997E+02  0.45594000000E+02  0.51100000000E-03 0. -1.
    9900012    2    1    2    0    0 -0.37798127281E+02  0.58595814880E+01  0.23792449424E+02  0.46142314627E+02  0.99999714201E+01 0.  0.
         12    1    1    2    0    0  0.37798127281E+02 -0.58595814880E+01 -0.23792449424E+02  0.45045685373E+02  0.00000000000E+00 0. -1.
         11    1    3    3    0    0 -0.14157537042E+02  0.23851696095E+01  0.52041025009E+01  0.15271135265E+02  0.51100000000E-03 0. -1.
        -11    1    3    3    0    0 -0.14948877586E+01 -0.12853084273E+01  0.18796592268E+01  0.27239357985E+01  0.51100000000E-03 0.  1.
        -12    1    3    3    0    0 -0.22145702480E+02  0.47597203058E+01  0.16708687696E+02  0.28147243564E+02  0.00000000000E+00 0.  1.
</event>
<event>
 7    1  0.2395003E-008  0.4614232E+02  0.7816164E-02  0.1320468E+00
        -11   -1    0    0    0    0  0.00000000000E+00  0.00000000000E+00  0.45593999997E+02  0.45594000000E+02  0.51100000000E-03 0.  1.
         11   -1    0    0    0    0 -0.00000000000E+00 -0.00000000000E+00 -0.45593999997E+02  0.45594000000E+02  0.51100000000E-03 0. -1.
    9900012    2    1    2    0    0 -0.36929960861E+02 -0.74997237784E+01  0.24678848562E+02  0.46142318384E+02  0.10000005677E+02 0.  0.
         12    1    1    2    0    0  0.36929960861E+02  0.74997237784E+01 -0.24678848562E+02  0.45045681616E+02  0.00000000000E+00 0. -1.
         11    1    3    3    0    0 -0.27574985723E+01 -0.23121386261E+01  0.50068756048E+01  0.61659214223E+01  0.51100000000E-03 0. -1.
        -11    1    3    3    0    0 -0.20122071607E+02 -0.50537146031E+01  0.11461937526E+02  0.23702611864E+02  0.51100000000E-03 0.  1.
        -12    1    3    3    0    0 -0.14050390681E+02 -0.13387054920E+00  0.82100354306E+01  0.16273785097E+02  0.00000000000E+00 0.  1.
</event>
<event>
 7    1  0.2395003E-008  0.4614232E+02  0.7816164E-02  0.1320468E+00
        -11   -1    0    0    0    0  0.00000000000E+00  0.00000000000E+00  0.45593999997E+02  0.45594000000E+02  0.51100000000E-03 0.  1.
         11   -1    0    0    0    0 -0.00000000000E+00 -0.00000000000E+00 -0.45593999997E+02  0.45594000000E+02  0.51100000000E-03 0. -1.
    9900012    2    1    2    0    0 -0.33313873613E+02  0.15864944953E+01  0.30278415223E+02  0.46142316874E+02  0.99999919131E+01 0.  0.
         12    1    1    2    0    0  0.33313873613E+02 -0.15864944953E+01 -0.30278415223E+02  0.45045683126E+02  0.00000000000E+00 0. -1.
         11    1    3    3    0    0 -0.92465353599E+01 -0.70612439956E+00  0.59939866723E+01  0.11041961072E+02  0.51100000000E-03 0. -1.
        -11    1    3    3    0    0 -0.16053064281E+02  0.49291228276E+01  0.14557171772E+02  0.22224049471E+02  0.51100000000E-03 0.  1.
        -12    1    3    3    0    0 -0.80142739719E+01 -0.26365039327E+01  0.97272567788E+01  0.12876306331E+02  0.00000000000E+00 0.  1.
</event>
<event>
 7    1  0.2395003E-008  0.4614232E+02  0.7816164E-02  0.1320468E+00
        -11   -1    0    0    0    0  0.00000000000E+00  0.00000000000E+00  0.45593999997E+02  0.45594000000E+02  0.51100000000E-03 0. -1.
         11   -1    0    0    0    0 -0.00000000000E+00 -0.00000000000E+00 -0.45593999997E+02  0.45594000000E+02  0.51100000000E-03 0.  1.
    9900012    2    1    2    0    0  0.71883082356E+01  0.33061608805E+02 -0.29738379936E+02  0.46142323257E+02  0.10000050114E+02 0.  0.
         12    1    1    2    0    0 -0.71883082356E+01 -0.33061608805E+02  0.29738379936E+02  0.45045676743E+02  0.00000000000E+00 0. -1.
         11    1    3    3    0    0  0.27860697605E+01  0.90669887718E+01 -0.45830590151E+01  0.10534557432E+02  0.51100000000E-03 0. -1.
        -11    1    3    3    0    0 -0.10912867993E+01  0.32520770135E+01 -0.17357235976E+01  0.38444308354E+01  0.51100000000E-03 0.  1.
        -12    1    3    3    0    0  0.54935252745E+01  0.20742543019E+02 -0.23419597323E+02  0.31763334989E+02  0.00000000000E+00 0.  1.
</event>
<event>
 7    1  0.2395003E-008  0.4614232E+02  0.7816164E-02  0.1320468E+00
        -11   -1    0    0    0    0  0.00000000000E+00  0.00000000000E+00  0.45593999997E+02  0.45594000000E+02  0.51100000000E-03 0. -1.
         11   -1    0    0    0    0 -0.00000000000E+00 -0.00000000000E+00 -0.45593999997E+02  0.45594000000E+02  0.51100000000E-03 0.  1.
    9900012    2    1    2    0    0 -0.37686687945E+02 -0.22319166531E+02 -0.10520543711E+02  0.46142317822E+02  0.10000000559E+02 0.  0.
         12    1    1    2    0    0  0.37686687945E+02  0.22319166531E+02  0.10520543711E+02  0.45045682178E+02  0.00000000000E+00 0. -1.
         11    1    3    3    0    0 -0.22901914083E+00 -0.20644355386E+01 -0.95804956989E+00  0.22874009485E+01  0.51100000000E-03 0. -1.
        -11    1    3    3    0    0 -0.14787935526E+02 -0.78872762598E+01 -0.59240859179E+01  0.17776022000E+02  0.51100000000E-03 0.  1.
        -12    1    3    3    0    0 -0.22669733278E+02 -0.12367454732E+02 -0.36384082229E+01  0.26078894874E+02  0.00000000000E+00 0.  1.
</event>
<event>
 7    1  0.2395003E-008  0.4614232E+02  0.7816164E-02  0.1320468E+00
        -11   -1    0    0    0    0  0.00000000000E+00  0.00000000000E+00  0.45593999997E+02  0.45594000000E+02  0.51100000000E-03 0. -1.
         11   -1    0    0    0    0 -0.00000000000E+00 -0.00000000000E+00 -0.45593999997E+02  0.45594000000E+02  0.51100000000E-03 0.  1.
    9900012    2    1    2    0    0 -0.73029593278E+01  0.44309814230E+02  0.35243166014E+01  0.46142315861E+02  0.99999826716E+01 0.  0.
         12    1    1    2    0    0  0.73029593278E+01 -0.44309814230E+02 -0.35243166014E+01  0.45045684139E+02  0.00000000000E+00 0. -1.
         11    1    3    3    0    0  0.34676794067E+00 -0.27159104958E+00  0.38146471006E+00  0.58268798600E+00  0.51100000000E-03 0. -1.
        -11    1    3    3    0    0 -0.15141139764E+01  0.15766014302E+02 -0.66903136536E+00  0.15852676472E+02  0.51100000000E-03 0.  1.
        -12    1    3    3    0    0 -0.61356132921E+01  0.28815390978E+02  0.38118832567E+01  0.29706951403E+02  0.00000000000E+00 0.  1.
</event>
<event>
 7    1  0.2395003E-008  0.4614231E+02  0.7816164E-02  0.1320468E+00
        -11   -1    0    0    0    0  0.00000000000E+00  0.00000000000E+00  0.45593999997E+02  0.45594000000E+02  0.51100000000E-03 0.  1.
         11   -1    0    0    0    0 -0.00000000000E+00 -0.00000000000E+00 -0.45593999997E+02  0.45594000000E+02  0.51100000000E-03 0. -1.
    9900012    2    1    2    0    0 -0.71098296441E+01  0.21999028045E+02  0.38660146675E+02  0.46142313709E+02  0.99999630460E+01 0.  0.
         12    1    1    2    0    0  0.71098296441E+01 -0.21999028045E+02 -0.38660146675E+02  0.45045686291E+02  0.00000000000E+00 0. -1.
         11    1    3    3    0    0 -0.41779724446E+00  0.74313813608E+00  0.60921460470E+01  0.61515081521E+01  0.51100000000E-03 0. -1.
        -11    1    3    3    0    0  0.60893083195E+00  0.72643189863E+00  0.19447840281E+00  0.96763741749E+00  0.51100000000E-03 0.  1.
        -12    1    3    3    0    0 -0.73009632316E+01  0.20529458011E+02  0.32373522225E+02  0.39023168139E+02  0.00000000000E+00 0.  1.
</event>
<event>
 7    1  0.2395003E-008  0.4614231E+02  0.7816164E-02  0.1320468E+00
        -11   -1    0    0    0    0  0.00000000000E+00  0.00000000000E+00  0.45593999997E+02  0.45594000000E+02  0.51100000000E-03 0.  1.
         11   -1    0    0    0    0 -0.00000000000E+00 -0.00000000000E+00 -0.45593999997E+02  0.45594000000E+02  0.51100000000E-03 0. -1.
    9900012    2    1    2    0    0  0.27812058681E+02  0.22018143686E+02  0.27763367873E+02  0.46142313691E+02  0.99999628828E+01 0.  0.
         12    1    1    2    0    0 -0.27812058681E+02 -0.22018143686E+02 -0.27763367873E+02  0.45045686309E+02  0.00000000000E+00 0. -1.
         11    1    3    3    0    0  0.14326786917E+02  0.15031035661E+02  0.17469744969E+02  0.27136338109E+02  0.51100000000E-03 0. -1.
        -11    1    3    3    0    0  0.12942970994E+02  0.72793229713E+01  0.85015322730E+01  0.17110964097E+02  0.51100000000E-03 0.  1.
         12    1    3    3    0    0  0.54230076976E+00 -0.29221494648E+00  0.17920906311E+01  0.18950114854E+01  0.00000000000E+00 0. -1.
</event>
<event>
 7    1  0.2395003E-008  0.4614232E+02  0.7816164E-02  0.1320468E+00
        -11   -1    0    0    0    0  0.00000000000E+00  0.00000000000E+00  0.45593999997E+02  0.45594000000E+02  0.51100000000E-03 0. -1.
         11   -1    0    0    0    0 -0.00000000000E+00 -0.00000000000E+00 -0.45593999997E+02  0.45594000000E+02  0.51100000000E-03 0.  1.
    9900012    2    1    2    0    0  0.39109837710E+01 -0.39745338693E+02 -0.20835685705E+02  0.46142317181E+02  0.99999947070E+01 0.  0.
         12    1    1    2    0    0 -0.39109837710E+01  0.39745338693E+02  0.20835685705E+02  0.45045682819E+02  0.00000000000E+00 0. -1.
         11    1    3    3    0    0  0.50064065341E+00 -0.17138752769E+01  0.49291387850E+00  0.18522888223E+01  0.51100000000E-03 0. -1.
        -11    1    3    3    0    0  0.83806407516E+00 -0.25791006660E+02 -0.10928994036E+02  0.28023584475E+02  0.51100000000E-03 0.  1.
        -12    1    3    3    0    0  0.25722790424E+01 -0.12240456756E+02 -0.10399605547E+02  0.16266443884E+02  0.00000000000E+00 0.  1.
</event>
<event>
 7    1  0.2395003E-008  0.4614232E+02  0.7816164E-02  0.1320468E+00
        -11   -1    0    0    0    0  0.00000000000E+00  0.00000000000E+00  0.45593999997E+02  0.45594000000E+02  0.51100000000E-03 0.  1.
         11   -1    0    0    0    0 -0.00000000000E+00 -0.00000000000E+00 -0.45593999997E+02  0.45594000000E+02  0.51100000000E-03 0. -1.
    9900012    2    1    2    0    0  0.38678281573E+02  0.79363581716E+00  0.23075395297E+02  0.46142321058E+02  0.10000030064E+02 0.  0.
         12    1    1    2    0    0 -0.38678281573E+02 -0.79363581716E+00 -0.23075395297E+02  0.45045678942E+02  0.00000000000E+00 0. -1.
         11    1    3    3    0    0  0.60937720419E+01 -0.36311733008E+00  0.12800099103E+01  0.62373341682E+01  0.51100000000E-03 0. -1.
        -11    1    3    3    0    0  0.16725084248E+02 -0.99955889861E+00  0.15101572205E+02  0.22556263973E+02  0.51100000000E-03 0.  1.
         12    1    3    3    0    0  0.15859425283E+02  0.21563120459E+01  0.66938131816E+01  0.17348722917E+02  0.00000000000E+00 0. -1.
</event>
<event>
 7    1  0.2395003E-008  0.4614232E+02  0.7816164E-02  0.1320468E+00
        -11   -1    0    0    0    0  0.00000000000E+00  0.00000000000E+00  0.45593999997E+02  0.45594000000E+02  0.51100000000E-03 0. -1.
         11   -1    0    0    0    0 -0.00000000000E+00 -0.00000000000E+00 -0.45593999997E+02  0.45594000000E+02  0.51100000000E-03 0.  1.
    9900012    2    1    2    0    0  0.25043162230E+02 -0.22967798070E+02 -0.29570826366E+02  0.46142317692E+02  0.99999993655E+01 0.  0.
         12    1    1    2    0    0 -0.25043162230E+02  0.22967798070E+02  0.29570826366E+02  0.45045682308E+02  0.00000000000E+00 0. -1.
         11    1    3    3    0    0  0.21130674241E+02 -0.17024371778E+02 -0.19681924088E+02  0.33521825195E+02  0.51100000000E-03 0.  1.
        -11    1    3    3    0    0 -0.59671499973E+00 -0.58429060758E+00 -0.95986337733E+00  0.12723216061E+01  0.51100000000E-03 0. -1.
         12    1    3    3    0    0  0.45092029890E+01 -0.53591356839E+01 -0.89290389005E+01  0.11348170891E+02  0.00000000000E+00 0. -1.
</event>
<event>
 7    1  0.2395003E-008  0.4614232E+02  0.7816164E-02  0.1320468E+00
        -11   -1    0    0    0    0  0.00000000000E+00  0.00000000000E+00  0.45593999997E+02  0.45594000000E+02  0.51100000000E-03 0.  1.
         11   -1    0    0    0    0 -0.00000000000E+00 -0.00000000000E+00 -0.45593999997E+02  0.45594000000E+02  0.51100000000E-03 0. -1.
    9900012    2    1    2    0    0  0.17003003551E+02  0.21205286195E+02  0.35921402626E+02  0.46142318087E+02  0.10000002973E+02 0.  0.
         12    1    1    2    0    0 -0.17003003551E+02 -0.21205286195E+02 -0.35921402626E+02  0.45045681913E+02  0.00000000000E+00 0. -1.
         11    1    3    3    0    0  0.48759325944E+01  0.81339197498E+01  0.15153821153E+02  0.17876623422E+02  0.51100000000E-03 0. -1.
        -11    1    3    3    0    0  0.10646770632E+01  0.54491758456E+01  0.79574689356E+01  0.97030081298E+01  0.51100000000E-03 0.  1.
         12    1    3    3    0    0  0.11062393894E+02  0.76221905996E+01  0.12810112537E+02  0.18562686535E+02  0.00000000000E+00 0. -1.
</event>
<event>
 7    1  0.2395003E-008  0.4614232E+02  0.7816164E-02  0.1320468E+00
        -11   -1    0    0    0    0  0.00000000000E+00  0.00000000000E+00  0.45593999997E+02  0.45594000000E+02  0.51100000000E-03 0. -1.
         11   -1    0    0    0    0 -0.00000000000E+00 -0.00000000000E+00 -0.45593999997E+02  0.45594000000E+02  0.51100000000E-03 0.  1.
    9900012    2    1    2    0    0 -0.31720547374E+02  0.80328962424E+01  0.30957919534E+02  0.46142319523E+02  0.10000016069E+02 0.  0.
         12    1    1    2    0    0  0.31720547374E+02 -0.80328962424E+01 -0.30957919534E+02  0.45045680477E+02  0.00000000000E+00 0. -1.
         11    1    3    3    0    0 -0.85600632297E+01 -0.10099182506E+01  0.82579088073E+01  0.11936820159E+02  0.51100000000E-03 0. -1.
        -11    1    3    3    0    0 -0.37014661851E+01 -0.57285088839E+00  0.21677013474E+01  0.43275789366E+01  0.51100000000E-03 0.  1.
         12    1    3    3    0    0 -0.19459017959E+02  0.96156653814E+01  0.20532309379E+02  0.29877920428E+02  0.00000000000E+00 0. -1.
</event>
<event>
 7    1  0.2395003E-008  0.4614232E+02  0.7816164E-02  0.1320468E+00
        -11   -1    0    0    0    0  0.00000000000E+00  0.00000000000E+00  0.45593999997E+02  0.45594000000E+02  0.51100000000E-03 0.  1.
         11   -1    0    0    0    0 -0.00000000000E+00 -0.00000000000E+00 -0.45593999997E+02  0.45594000000E+02  0.51100000000E-03 0. -1.
    9900012    2    1    2    0    0 -0.13299305385E+02  0.25654191404E+02  0.34555812498E+02  0.46142320543E+02  0.10000025369E+02 0.  0.
         12    1    1    2    0    0  0.13299305385E+02 -0.25654191404E+02 -0.34555812498E+02  0.45045679457E+02  0.00000000000E+00 0. -1.
         11    1    3    3    0    0 -0.45241907885E+01  0.13708773679E+02  0.11401821610E+02  0.18395660205E+02  0.51100000000E-03 0. -1.
        -11    1    3    3    0    0 -0.46665290148E+01  0.74217567783E+01  0.10384991614E+02  0.13590696002E+02  0.51100000000E-03 0.  1.
         12    1    3    3    0    0 -0.41085855822E+01  0.45236609460E+01  0.12768999274E+02  0.14155964337E+02  0.00000000000E+00 0. -1.
</event>
<event>
 7    1  0.2395003E-008  0.4614232E+02  0.7816164E-02  0.1320468E+00
        -11   -1    0    0    0    0  0.00000000000E+00  0.00000000000E+00  0.45593999997E+02  0.45594000000E+02  0.51100000000E-03 0.  1.
         11   -1    0    0    0    0 -0.00000000000E+00 -0.00000000000E+00 -0.45593999997E+02  0.45594000000E+02  0.51100000000E-03 0. -1.
    9900012    2    1    2    0    0  0.35906546140E+02 -0.26414979250E+02 -0.64870940371E+01  0.46142316816E+02  0.99999913819E+01 0.  0.
         12    1    1    2    0    0 -0.35906546140E+02  0.26414979250E+02  0.64870940371E+01  0.45045683184E+02  0.00000000000E+00 0. -1.
         11    1    3    3    0    0  0.17896615889E+02 -0.99315971485E+01 -0.59097836633E+01  0.21303779604E+02  0.51100000000E-03 0. -1.
        -11    1    3    3    0    0  0.13691089113E+02 -0.97024625901E+01 -0.30530781637E-01  0.16780483718E+02  0.51100000000E-03 0.  1.
        -12    1    3    3    0    0  0.43188411370E+01 -0.67809195114E+01 -0.54677959220E+00  0.80580534938E+01  0.00000000000E+00 0.  1.
</event>
<event>
 7    1  0.2395003E-008  0.4614232E+02  0.7816164E-02  0.1320468E+00
        -11   -1    0    0    0    0  0.00000000000E+00  0.00000000000E+00  0.45593999997E+02  0.45594000000E+02  0.51100000000E-03 0.  1.
         11   -1    0    0    0    0 -0.00000000000E+00 -0.00000000000E+00 -0.45593999997E+02  0.45594000000E+02  0.51100000000E-03 0. -1.
    9900012    2    1    2    0    0  0.38343932565E+01 -0.22106041891E+02  0.39060643114E+02  0.46142317629E+02  0.99999987989E+01 0.  0.
         12    1    1    2    0    0 -0.38343932565E+01  0.22106041891E+02 -0.39060643114E+02  0.45045682371E+02  0.00000000000E+00 0. -1.
         11    1    3    3    0    0  0.35316523119E+01 -0.34731921391E+01  0.72815790773E+01  0.88066466835E+01  0.51100000000E-03 0. -1.
        -11    1    3    3    0    0  0.31606521770E+01 -0.85405230916E+01  0.14558346256E+02  0.17171945225E+02  0.51100000000E-03 0.  1.
         12    1    3    3    0    0 -0.28579112324E+01 -0.10092326660E+02  0.17220717781E+02  0.20163725721E+02  0.00000000000E+00 0. -1.
</event>
<event>
 7    1  0.2395003E-008  0.4614232E+02  0.7816164E-02  0.1320468E+00
        -11   -1    0    0    0    0  0.00000000000E+00  0.00000000000E+00  0.45593999997E+02  0.45594000000E+02  0.51100000000E-03 0.  1.
         11   -1    0    0    0    0 -0.00000000000E+00 -0.00000000000E+00 -0.45593999997E+02  0.45594000000E+02  0.51100000000E-03 0. -1.
    9900012    2    1    2    0    0  0.48618764402E+01  0.42669182714E+02  0.13594724202E+02  0.46142317386E+02  0.99999965809E+01 0.  0.
         12    1    1    2    0    0 -0.48618764402E+01 -0.42669182714E+02 -0.13594724202E+02  0.45045682614E+02  0.00000000000E+00 0. -1.
         11    1    3    3    0    0  0.28270354255E+01  0.23225975346E+02  0.73053461024E+01  0.24511347209E+02  0.51100000000E-03 0. -1.
        -11    1    3    3    0    0  0.27100436437E+01  0.19584125434E+02  0.53801362438E+01  0.20489708925E+02  0.51100000000E-03 0.  1.
         12    1    3    3    0    0 -0.67520262898E+00 -0.14091806651E+00  0.90924185576E+00  0.11412612514E+01  0.00000000000E+00 0. -1.
</event>
<event>
 7    1  0.2395003E-008  0.4614232E+02  0.7816164E-02  0.1320468E+00
        -11   -1    0    0    0    0  0.00000000000E+00  0.00000000000E+00  0.45593999997E+02  0.45594000000E+02  0.51100000000E-03 0. -1.
         11   -1    0    0    0    0 -0.00000000000E+00 -0.00000000000E+00 -0.45593999997E+02  0.45594000000E+02  0.51100000000E-03 0.  1.
    9900012    2    1    2    0    0 -0.32241491023E+02 -0.30159872193E+02 -0.89432584687E+01  0.46142317564E+02  0.99999982027E+01 0.  0.
         12    1    1    2    0    0  0.32241491023E+02  0.30159872193E+02  0.89432584687E+01  0.45045682436E+02  0.00000000000E+00 0. -1.
         11    1    3    3    0    0 -0.99277937486E+01 -0.13070499860E+02 -0.39044666924E+01  0.16871393414E+02  0.51100000000E-03 0.  1.
        -11    1    3    3    0    0 -0.11746702973E+01 -0.20396763091E+01 -0.21029548937E+01  0.31563506300E+01  0.51100000000E-03 0. -1.
         12    1    3    3    0    0 -0.21139026977E+02 -0.15049696024E+02 -0.29358368826E+01  0.26114573520E+02  0.00000000000E+00 0. -1.
</event>
<event>
 7    1  0.2395003E-008  0.4614232E+02  0.7816164E-02  0.1320468E+00
        -11   -1    0    0    0    0  0.00000000000E+00  0.00000000000E+00  0.45593999997E+02  0.45594000000E+02  0.51100000000E-03 0.  1.
         11   -1    0    0    0    0 -0.00000000000E+00 -0.00000000000E+00 -0.45593999997E+02  0.45594000000E+02  0.51100000000E-03 0. -1.
    9900012    2    1    2    0    0 -0.30198709177E+02  0.57331142887E+01  0.32928449398E+02  0.46142318574E+02  0.10000007408E+02 0.  0.
         12    1    1    2    0    0  0.30198709177E+02 -0.57331142887E+01 -0.32928449398E+02  0.45045681426E+02  0.00000000000E+00 0. -1.
         11    1    3    3    0    0 -0.73318254898E-01 -0.53131520806E+00  0.21913968840E+00  0.57939095693E+00  0.51100000000E-03 0. -1.
        -11    1    3    3    0    0 -0.51468855957E-01  0.10930413718E+01  0.19428465923E+01  0.22298075311E+01  0.51100000000E-03 0.  1.
        -12    1    3    3    0    0 -0.30073922066E+02  0.51713881250E+01  0.30766463118E+02  0.43333120085E+02  0.00000000000E+00 0.  1.
</event>
<event>
 7    1  0.2395003E-008  0.4614232E+02  0.7816164E-02  0.1320468E+00
        -11   -1    0    0    0    0  0.00000000000E+00  0.00000000000E+00  0.45593999997E+02  0.45594000000E+02  0.51100000000E-03 0.  1.
         11   -1    0    0    0    0 -0.00000000000E+00 -0.00000000000E+00 -0.45593999997E+02  0.45594000000E+02  0.51100000000E-03 0. -1.
    9900012    2    1    2    0    0 -0.35419075299E+02 -0.22313497977E+02  0.16634614013E+02  0.46142317961E+02  0.10000001825E+02 0.  0.
         12    1    1    2    0    0  0.35419075299E+02  0.22313497977E+02 -0.16634614013E+02  0.45045682039E+02  0.00000000000E+00 0. -1.
         11    1    3    3    0    0 -0.76067306592E+01 -0.71855613483E+01  0.26210780291E+01  0.10787246799E+02  0.51100000000E-03 0. -1.
        -11    1    3    3    0    0 -0.19714969021E+02 -0.10615696825E+02  0.62060974316E+01  0.23235504474E+02  0.51100000000E-03 0.  1.
        -12    1    3    3    0    0 -0.80973756186E+01 -0.45122398037E+01  0.78074385522E+01  0.12119566688E+02  0.00000000000E+00 0.  1.
</event>
<event>
 7    1  0.2395003E-008  0.4614232E+02  0.7816164E-02  0.1320468E+00
        -11   -1    0    0    0    0  0.00000000000E+00  0.00000000000E+00  0.45593999997E+02  0.45594000000E+02  0.51100000000E-03 0. -1.
         11   -1    0    0    0    0 -0.00000000000E+00 -0.00000000000E+00 -0.45593999997E+02  0.45594000000E+02  0.51100000000E-03 0.  1.
    9900012    2    1    2    0    0  0.43848614664E+02  0.17475579785E+01 -0.10166540118E+02  0.46142317579E+02  0.99999983386E+01 0.  0.
         12    1    1    2    0    0 -0.43848614664E+02 -0.17475579785E+01  0.10166540118E+02  0.45045682421E+02  0.00000000000E+00 0. -1.
         11    1    3    3    0    0  0.49091974955E+01 -0.13904400334E+01 -0.36565795305E+01  0.62772699209E+01  0.51100000000E-03 0. -1.
        -11    1    3    3    0    0  0.32496247195E+02  0.89913433588E+00 -0.53368649851E+01  0.32943840888E+02  0.51100000000E-03 0.  1.
        -12    1    3    3    0    0  0.64431699733E+01  0.22388636761E+01 -0.11730956029E+01  0.69212067703E+01  0.00000000000E+00 0.  1.
</event>
<event>
 7    1  0.2395003E-008  0.4614232E+02  0.7816164E-02  0.1320468E+00
        -11   -1    0    0    0    0  0.00000000000E+00  0.00000000000E+00  0.45593999997E+02  0.45594000000E+02  0.51100000000E-03 0.  1.
         11   -1    0    0    0    0 -0.00000000000E+00 -0.00000000000E+00 -0.45593999997E+02  0.45594000000E+02  0.51100000000E-03 0. -1.
    9900012    2    1    2    0    0 -0.35291497523E+02  0.74195254136E+01  0.26992116506E+02  0.46142317540E+02  0.99999979854E+01 0.  0.
         12    1    1    2    0    0  0.35291497523E+02 -0.74195254136E+01 -0.26992116506E+02  0.45045682460E+02  0.00000000000E+00 0. -1.
         11    1    3    3    0    0 -0.10101830895E+02  0.17606615379E+01  0.66509275712E+01  0.12222182878E+02  0.51100000000E-03 0. -1.
        -11    1    3    3    0    0 -0.20127184973E+02  0.85145009780E+00  0.15635018152E+02  0.25500634013E+02  0.51100000000E-03 0.  1.
         12    1    3    3    0    0 -0.50624816554E+01  0.48074137779E+01  0.47061707833E+01  0.84195006494E+01  0.00000000000E+00 0. -1.
</event>
<event>
 7    1  0.2395003E-008  0.4614232E+02  0.7816164E-02  0.1320468E+00
        -11   -1    0    0    0    0  0.00000000000E+00  0.00000000000E+00  0.45593999997E+02  0.45594000000E+02  0.51100000000E-03 0.  1.
         11   -1    0    0    0    0 -0.00000000000E+00 -0.00000000000E+00 -0.45593999997E+02  0.45594000000E+02  0.51100000000E-03 0. -1.
    9900012    2    1    2    0    0  0.40381891164E+02 -0.31116868912E+01  0.19716333407E+02  0.46142317273E+02  0.99999955521E+01 0.  0.
         12    1    1    2    0    0 -0.40381891164E+02  0.31116868912E+01 -0.19716333407E+02  0.45045682727E+02  0.00000000000E+00 0. -1.
         11    1    3    3    0    0  0.33936674507E+01  0.95143579120E+00 -0.56249822322E+00  0.35691194072E+01  0.51100000000E-03 0. -1.
        -11    1    3    3    0    0  0.20796274117E+02 -0.14730473036E+01  0.92286538194E+01  0.22799625810E+02  0.51100000000E-03 0.  1.
         12    1    3    3    0    0  0.16191949596E+02 -0.25900753787E+01  0.11050177811E+02  0.19773572056E+02  0.00000000000E+00 0. -1.
</event>
<event>
 7    1  0.2395003E-008  0.4614232E+02  0.7816164E-02  0.1320468E+00
        -11   -1    0    0    0    0  0.00000000000E+00  0.00000000000E+00  0.45593999997E+02  0.45594000000E+02  0.51100000000E-03 0. -1.
         11   -1    0    0    0    0 -0.00000000000E+00 -0.00000000000E+00 -0.45593999997E+02  0.45594000000E+02  0.51100000000E-03 0.  1.
    9900012    2    1    2    0    0  0.35003984707E+02  0.11844904537E+02  0.25759129948E+02  0.46142317804E+02  0.10000000388E+02 0.  0.
         12    1    1    2    0    0 -0.35003984707E+02 -0.11844904537E+02 -0.25759129948E+02  0.45045682196E+02  0.00000000000E+00 0. -1.
         11    1    3    3    0    0  0.34634726750E+01 -0.11438897478E+01  0.37197598882E+01  0.52096775920E+01  0.51100000000E-03 0. -1.
        -11    1    3    3    0    0  0.58334653458E+01  0.12677943532E+01  0.59073154227E+01  0.83983924787E+01  0.51100000000E-03 0.  1.
        -12    1    3    3    0    0  0.25707046686E+02  0.11720999932E+02  0.16132054637E+02  0.32534247733E+02  0.00000000000E+00 0.  1.
</event>
<event>
 7    1  0.2395003E-008  0.4614232E+02  0.7816164E-02  0.1320468E+00
        -11   -1    0    0    0    0  0.00000000000E+00  0.00000000000E+00  0.45593999997E+02  0.45594000000E+02  0.51100000000E-03 0.  1.
         11   -1    0    0    0    0 -0.00000000000E+00 -0.00000000000E+00 -0.45593999997E+02  0.45594000000E+02  0.51100000000E-03 0. -1.
    9900012    2    1    2    0    0  0.44198582475E+02  0.35038667054E+00  0.86876903043E+01  0.46142318449E+02  0.10000006270E+02 0.  0.
         12    1    1    2    0    0 -0.44198582475E+02 -0.35038667054E+00 -0.86876903043E+01  0.45045681551E+02  0.00000000000E+00 0. -1.
         11    1    3    3    0    0  0.81249020665E+01  0.12247981962E+01  0.31099945522E+01  0.87855694515E+01  0.51100000000E-03 0. -1.
        -11    1    3    3    0    0  0.20922362576E+02  0.21913030495E+01  0.35446354360E+00  0.21039788722E+02  0.51100000000E-03 0.  1.
        -12    1    3    3    0    0  0.15151317833E+02 -0.30657145751E+01  0.52232322085E+01  0.16316960275E+02  0.00000000000E+00 0.  1.
</event>
<event>
 7    1  0.2395003E-008  0.4614232E+02  0.7816164E-02  0.1320468E+00
        -11   -1    0    0    0    0  0.00000000000E+00  0.00000000000E+00  0.45593999997E+02  0.45594000000E+02  0.51100000000E-03 0.  1.
         11   -1    0    0    0    0 -0.00000000000E+00 -0.00000000000E+00 -0.45593999997E+02  0.45594000000E+02  0.51100000000E-03 0. -1.
    9900012    2    1    2    0    0 -0.29329646324E+02 -0.19754708306E+02  0.27904064118E+02  0.46142318208E+02  0.10000004079E+02 0.  0.
         12    1    1    2    0    0  0.29329646324E+02  0.19754708306E+02 -0.27904064118E+02  0.45045681792E+02  0.00000000000E+00 0. -1.
         11    1    3    3    0    0 -0.79809146235E+01 -0.20895030449E+01  0.10015721697E+02  0.12975966344E+02  0.51100000000E-03 0. -1.
        -11    1    3    3    0    0 -0.35370530895E+01 -0.47735128369E+01  0.38327373295E+01  0.70701516999E+01  0.51100000000E-03 0.  1.
        -12    1    3    3    0    0 -0.17811678611E+02 -0.12891692425E+02  0.14055605092E+02  0.26096200164E+02  0.00000000000E+00 0.  1.
</event>
<event>
 7    1  0.2395003E-008  0.4614232E+02  0.7816164E-02  0.1320468E+00
        -11   -1    0    0    0    0  0.00000000000E+00  0.00000000000E+00  0.45593999997E+02  0.45594000000E+02  0.51100000000E-03 0.  1.
         11   -1    0    0    0    0 -0.00000000000E+00 -0.00000000000E+00 -0.45593999997E+02  0.45594000000E+02  0.51100000000E-03 0. -1.
    9900012    2    1    2    0    0  0.28418273614E+02  0.17142137581E+02  0.30457549666E+02  0.46142317769E+02  0.10000000068E+02 0.  0.
         12    1    1    2    0    0 -0.28418273614E+02 -0.17142137581E+02 -0.30457549666E+02  0.45045682231E+02  0.00000000000E+00 0. -1.
         11    1    3    3    0    0  0.16800131441E+02  0.71487918496E+01  0.14458395167E+02  0.23289371662E+02  0.51100000000E-03 0. -1.
        -11    1    3    3    0    0  0.75928044642E+01  0.91046631512E+01  0.96657466731E+01  0.15296150814E+02  0.51100000000E-03 0.  1.
        -12    1    3    3    0    0  0.40253377084E+01  0.88868257980E+00  0.63334078259E+01  0.75567952919E+01  0.00000000000E+00 0.  1.
</event>
<event>
 7    1  0.2395003E-008  0.4614232E+02  0.7816164E-02  0.1320468E+00
        -11   -1    0    0    0    0  0.00000000000E+00  0.00000000000E+00  0.45593999997E+02  0.45594000000E+02  0.51100000000E-03 0.  1.
         11   -1    0    0    0    0 -0.00000000000E+00 -0.00000000000E+00 -0.45593999997E+02  0.45594000000E+02  0.51100000000E-03 0. -1.
    9900012    2    1    2    0    0  0.27324486513E+02  0.30446936830E+02  0.18853910521E+02  0.46142317994E+02  0.10000002119E+02 0.  0.
         12    1    1    2    0    0 -0.27324486513E+02 -0.30446936830E+02 -0.18853910521E+02  0.45045682006E+02  0.00000000000E+00 0. -1.
         11    1    3    3    0    0  0.39655401472E+01  0.17621297251E+01  0.27760349315E+01  0.51514056363E+01  0.51100000000E-03 0. -1.
        -11    1    3    3    0    0  0.23689172386E+02  0.27922142178E+02  0.14862524259E+02  0.39518572086E+02  0.51100000000E-03 0.  1.
        -12    1    3    3    0    0 -0.33022602099E+00  0.76266492679E+00  0.12153513309E+01  0.14723402708E+01  0.00000000000E+00 0.  1.
</event>
<event>
 7    1  0.2395003E-008  0.4614232E+02  0.7816164E-02  0.1320468E+00
        -11   -1    0    0    0    0  0.00000000000E+00  0.00000000000E+00  0.45593999997E+02  0.45594000000E+02  0.51100000000E-03 0.  1.
         11   -1    0    0    0    0 -0.00000000000E+00 -0.00000000000E+00 -0.45593999997E+02  0.45594000000E+02  0.51100000000E-03 0. -1.
    9900012    2    1    2    0    0  0.43772544981E+02  0.10058231101E+02  0.34510462623E+01  0.46142318439E+02  0.10000006184E+02 0.  0.
         12    1    1    2    0    0 -0.43772544981E+02 -0.10058231101E+02 -0.34510462623E+01  0.45045681561E+02  0.00000000000E+00 0. -1.
         11    1    3    3    0    0  0.53734473713E+01  0.24400563807E+01  0.20597186401E+01  0.62506202037E+01  0.51100000000E-03 0. -1.
        -11    1    3    3    0    0  0.27072355642E+02  0.88287099956E+01  0.89459398245E+00  0.28489627215E+02  0.51100000000E-03 0.  1.
         12    1    3    3    0    0  0.11326741967E+02 -0.12105352754E+01  0.49673363974E+00  0.11402071021E+02  0.00000000000E+00 0. -1.
</event>
<event>
 7    1  0.2395003E-008  0.4614232E+02  0.7816164E-02  0.1320468E+00
        -11   -1    0    0    0    0  0.00000000000E+00  0.00000000000E+00  0.45593999997E+02  0.45594000000E+02  0.51100000000E-03 0.  1.
         11   -1    0    0    0    0 -0.00000000000E+00 -0.00000000000E+00 -0.45593999997E+02  0.45594000000E+02  0.51100000000E-03 0. -1.
    9900012    2    1    2    0    0 -0.20561212109E+01  0.23319343167E+02  0.38484985763E+02  0.46142317306E+02  0.99999958496E+01 0.  0.
         12    1    1    2    0    0  0.20561212109E+01 -0.23319343167E+02 -0.38484985763E+02  0.45045682694E+02  0.00000000000E+00 0. -1.
         11    1    3    3    0    0 -0.21328417052E+00  0.42506990142E+00  0.41664540631E+01  0.41935085883E+01  0.51100000000E-03 0. -1.
        -11    1    3    3    0    0  0.76202130577E+00  0.17243884649E+02  0.29072736183E+02  0.33810593365E+02  0.51100000000E-03 0.  1.
        -12    1    3    3    0    0 -0.26048583461E+01  0.56503886164E+01  0.52457955171E+01  0.81382153527E+01  0.00000000000E+00 0.  1.
</event>
<event>
 7    1  0.2395003E-008  0.4614232E+02  0.7816164E-02  0.1320468E+00
        -11   -1    0    0    0    0  0.00000000000E+00  0.00000000000E+00  0.45593999997E+02  0.45594000000E+02  0.51100000000E-03 0. -1.
         11   -1    0    0    0    0 -0.00000000000E+00 -0.00000000000E+00 -0.45593999997E+02  0.45594000000E+02  0.51100000000E-03 0.  1.
    9900012    2    1    2    0    0  0.22067843727E+02  0.24671526602E+02 -0.30552239161E+02  0.46142320192E+02  0.10000022167E+02 0.  0.
         12    1    1    2    0    0 -0.22067843727E+02 -0.24671526602E+02  0.30552239161E+02  0.45045679808E+02  0.00000000000E+00 0. -1.
         11    1    3    3    0    0  0.10909689072E+02  0.12609832606E+02 -0.10774521369E+02  0.19852443300E+02  0.51100000000E-03 0. -1.
        -11    1    3    3    0    0  0.92243889109E+01  0.12070024199E+02 -0.16105438041E+02  0.22139556674E+02  0.51100000000E-03 0.  1.
         12    1    3    3    0    0  0.19337657446E+01 -0.83302032928E-02 -0.36722797510E+01  0.41503202186E+01  0.00000000000E+00 0. -1.
</event>
<event>
 7    1  0.2395003E-008  0.4614232E+02  0.7816164E-02  0.1320468E+00
        -11   -1    0    0    0    0  0.00000000000E+00  0.00000000000E+00  0.45593999997E+02  0.45594000000E+02  0.51100000000E-03 0. -1.
         11   -1    0    0    0    0 -0.00000000000E+00 -0.00000000000E+00 -0.45593999997E+02  0.45594000000E+02  0.51100000000E-03 0.  1.
    9900012    2    1    2    0    0  0.65372956607E+01  0.77532588994E+01 -0.43889227322E+02  0.46142317266E+02  0.99999954824E+01 0.  0.
         12    1    1    2    0    0 -0.65372956607E+01 -0.77532588994E+01  0.43889227322E+02  0.45045682734E+02  0.00000000000E+00 0. -1.
         11    1    3    3    0    0  0.49377822457E+00 -0.21408301475E+01 -0.74606448378E+01  0.77774155291E+01  0.51100000000E-03 0. -1.
        -11    1    3    3    0    0  0.25674129396E+01  0.36264965239E+01 -0.93213344209E+01  0.10326197843E+02  0.51100000000E-03 0.  1.
        -12    1    3    3    0    0  0.34761044965E+01  0.62675925230E+01 -0.27107248063E+02  0.28038703894E+02  0.00000000000E+00 0.  1.
</event>
<event>
 7    1  0.2395003E-008  0.4614232E+02  0.7816164E-02  0.1320468E+00
        -11   -1    0    0    0    0  0.00000000000E+00  0.00000000000E+00  0.45593999997E+02  0.45594000000E+02  0.51100000000E-03 0. -1.
         11   -1    0    0    0    0 -0.00000000000E+00 -0.00000000000E+00 -0.45593999997E+02  0.45594000000E+02  0.51100000000E-03 0.  1.
    9900012    2    1    2    0    0  0.37653056773E+02 -0.15214387731E+02  0.19490592923E+02  0.46142317733E+02  0.99999997459E+01 0.  0.
         12    1    1    2    0    0 -0.37653056773E+02  0.15214387731E+02 -0.19490592923E+02  0.45045682267E+02  0.00000000000E+00 0. -1.
         11    1    3    3    0    0  0.13520496450E+02 -0.38297325774E+01  0.85487230822E+01  0.16448444986E+02  0.51100000000E-03 0. -1.
        -11    1    3    3    0    0  0.23211035552E+02 -0.87835203432E+01  0.10236209157E+02  0.26845528104E+02  0.51100000000E-03 0.  1.
         12    1    3    3    0    0  0.92152477138E+00 -0.26011348102E+01  0.70566068342E+00  0.28483446430E+01  0.00000000000E+00 0. -1.
</event>
<event>
 7    1  0.2395003E-008  0.4614230E+02  0.7816164E-02  0.1320468E+00
        -11   -1    0    0    0    0  0.00000000000E+00  0.00000000000E+00  0.45593999997E+02  0.45594000000E+02  0.51100000000E-03 0.  1.
         11   -1    0    0    0    0 -0.00000000000E+00 -0.00000000000E+00 -0.45593999997E+02  0.45594000000E+02  0.51100000000E-03 0. -1.
    9900012    2    1    2    0    0  0.18161447567E+02  0.30022660165E+02  0.28247414856E+02  0.46142303789E+02  0.99998725865E+01 0.  0.
         12    1    1    2    0    0 -0.18161447567E+02 -0.30022660165E+02 -0.28247414856E+02  0.45045696211E+02  0.00000000000E+00 0. -1.
         11    1    3    3    0    0  0.70840587235E+01  0.96364470193E+01  0.47028826612E+01  0.12851540948E+02  0.51100000000E-03 0. -1.
        -11    1    3    3    0    0  0.63361873646E+01  0.92973502200E+01  0.90785643989E+01  0.14457120157E+02  0.51100000000E-03 0.  1.
         12    1    3    3    0    0  0.47412014793E+01  0.11088862926E+02  0.14465967796E+02  0.18833642683E+02  0.00000000000E+00 0. -1.
</event>
<event>
 7    1  0.2395003E-008  0.4614232E+02  0.7816164E-02  0.1320468E+00
        -11   -1    0    0    0    0  0.00000000000E+00  0.00000000000E+00  0.45593999997E+02  0.45594000000E+02  0.51100000000E-03 0.  1.
         11   -1    0    0    0    0 -0.00000000000E+00 -0.00000000000E+00 -0.45593999997E+02  0.45594000000E+02  0.51100000000E-03 0. -1.
    9900012    2    1    2    0    0 -0.16697066815E+02  0.35785375058E+02  0.21673218566E+02  0.46142317507E+02  0.99999976804E+01 0.  0.
         12    1    1    2    0    0  0.16697066815E+02 -0.35785375058E+02 -0.21673218566E+02  0.45045682493E+02  0.00000000000E+00 0. -1.
         11    1    3    3    0    0 -0.98045419806E+01  0.14394883702E+02  0.11998061987E+02  0.21149354883E+02  0.51100000000E-03 0. -1.
        -11    1    3    3    0    0 -0.47690890999E+01  0.76230484644E+01  0.50613303272E+01  0.10318533989E+02  0.51100000000E-03 0.  1.
         12    1    3    3    0    0 -0.21234357343E+01  0.13767442892E+02  0.46138262515E+01  0.14674428635E+02  0.00000000000E+00 0. -1.
</event>
<event>
 7    1  0.2395003E-008  0.4614232E+02  0.7816164E-02  0.1320468E+00
        -11   -1    0    0    0    0  0.00000000000E+00  0.00000000000E+00  0.45593999997E+02  0.45594000000E+02  0.51100000000E-03 0.  1.
         11   -1    0    0    0    0 -0.00000000000E+00 -0.00000000000E+00 -0.45593999997E+02  0.45594000000E+02  0.51100000000E-03 0. -1.
    9900012    2    1    2    0    0 -0.33298793202E+02  0.14753610177E+01 -0.30300611671E+02  0.46142318892E+02  0.10000010312E+02 0.  0.
         12    1    1    2    0    0  0.33298793202E+02 -0.14753610177E+01  0.30300611671E+02  0.45045681108E+02  0.00000000000E+00 0. -1.
         11    1    3    3    0    0 -0.46875312949E+00  0.51997659276E-01  0.13606272044E+00  0.49086309496E+00  0.51100000000E-03 0. -1.
        -11    1    3    3    0    0 -0.28293327216E+02 -0.17630005231E+01 -0.23885618099E+02  0.37069438734E+02  0.51100000000E-03 0.  1.
        -12    1    3    3    0    0 -0.45367128567E+01  0.31863638815E+01 -0.65510562925E+01  0.85820170635E+01  0.00000000000E+00 0.  1.
</event>
<event>
 7    1  0.2395003E-008  0.4614233E+02  0.7816164E-02  0.1320468E+00
        -11   -1    0    0    0    0  0.00000000000E+00  0.00000000000E+00  0.45593999997E+02  0.45594000000E+02  0.51100000000E-03 0.  1.
         11   -1    0    0    0    0 -0.00000000000E+00 -0.00000000000E+00 -0.45593999997E+02  0.45594000000E+02  0.51100000000E-03 0. -1.
    9900012    2    1    2    0    0  0.27071593911E+02 -0.35498810261E+02  0.60063288232E+01  0.46142326370E+02  0.10000078503E+02 0.  0.
         12    1    1    2    0    0 -0.27071593911E+02  0.35498810261E+02 -0.60063288232E+01  0.45045673630E+02  0.00000000000E+00 0. -1.
         11    1    3    3    0    0  0.91341844852E+01 -0.19081905811E+02  0.66905081084E+00  0.21166012493E+02  0.51100000000E-03 0.  1.
        -11    1    3    3    0    0  0.77752851054E+01 -0.59594715740E+01  0.16352374567E+01  0.99319867958E+01  0.51100000000E-03 0. -1.
        -12    1    3    3    0    0  0.10162124320E+02 -0.10457432876E+02  0.37020405557E+01  0.15044327081E+02  0.00000000000E+00 0.  1.
</event>
<event>
 7    1  0.2395003E-008  0.4614232E+02  0.7816164E-02  0.1320468E+00
        -11   -1    0    0    0    0  0.00000000000E+00  0.00000000000E+00  0.45593999997E+02  0.45594000000E+02  0.51100000000E-03 0. -1.
         11   -1    0    0    0    0 -0.00000000000E+00 -0.00000000000E+00 -0.45593999997E+02  0.45594000000E+02  0.51100000000E-03 0.  1.
    9900012    2    1    2    0    0 -0.10413185471E+02  0.38433015859E+01 -0.43656707040E+02  0.46142317984E+02  0.10000002028E+02 0.  0.
         12    1    1    2    0    0  0.10413185471E+02 -0.38433015859E+01  0.43656707040E+02  0.45045682016E+02  0.00000000000E+00 0. -1.
         11    1    3    3    0    0 -0.12550231184E+01 -0.30357709242E+00 -0.10402377536E+01  0.16581124582E+01  0.51100000000E-03 0. -1.
        -11    1    3    3    0    0 -0.10214515253E+02  0.22852130167E+01 -0.37610142778E+02  0.39039484634E+02  0.51100000000E-03 0.  1.
        -12    1    3    3    0    0  0.10563528997E+01  0.18616656616E+01 -0.50063265081E+01  0.54447208918E+01  0.00000000000E+00 0.  1.
</event>
<event>
 7    1  0.2395003E-008  0.4614232E+02  0.7816164E-02  0.1320468E+00
        -11   -1    0    0    0    0  0.00000000000E+00  0.00000000000E+00  0.45593999997E+02  0.45594000000E+02  0.51100000000E-03 0.  1.
         11   -1    0    0    0    0 -0.00000000000E+00 -0.00000000000E+00 -0.45593999997E+02  0.45594000000E+02  0.51100000000E-03 0. -1.
    9900012    2    1    2    0    0  0.33236553280E+01  0.32501494854E+02  0.31011603740E+02  0.46142318531E+02  0.10000007017E+02 0.  0.
         12    1    1    2    0    0 -0.33236553280E+01 -0.32501494854E+02 -0.31011603740E+02  0.45045681469E+02  0.00000000000E+00 0. -1.
         11    1    3    3    0    0 -0.12294375133E+01  0.20408651310E+02  0.18341450937E+02  0.27466950825E+02  0.51100000000E-03 0. -1.
        -11    1    3    3    0    0  0.27874672759E+00  0.29850816258E+01  0.77616045552E+00  0.30969077101E+01  0.51100000000E-03 0.  1.
        -12    1    3    3    0    0  0.42743461137E+01  0.91077619189E+01  0.11893992348E+02  0.15578459996E+02  0.00000000000E+00 0.  1.
</event>
<event>
 7    1  0.2395003E-008  0.4614231E+02  0.7816164E-02  0.1320468E+00
        -11   -1    0    0    0    0  0.00000000000E+00  0.00000000000E+00  0.45593999997E+02  0.45594000000E+02  0.51100000000E-03 0. -1.
         11   -1    0    0    0    0 -0.00000000000E+00 -0.00000000000E+00 -0.45593999997E+02  0.45594000000E+02  0.51100000000E-03 0.  1.
    9900012    2    1    2    0    0 -0.35752686614E+02 -0.20236398431E+02  0.18475602062E+02  0.46142308828E+02  0.99999185446E+01 0.  0.
         12    1    1    2    0    0  0.35752686614E+02  0.20236398431E+02 -0.18475602062E+02  0.45045691172E+02  0.00000000000E+00 0. -1.
         11    1    3    3    0    0 -0.38034460778E+01 -0.17427535413E+01  0.14321434897E+01  0.44220388068E+01  0.51100000000E-03 0. -1.
        -11    1    3    3    0    0 -0.17739587416E+02 -0.12357387174E+02  0.52135485300E+01  0.22239133706E+02  0.51100000000E-03 0.  1.
         12    1    3    3    0    0 -0.14209653120E+02 -0.61362577164E+01  0.11829910042E+02  0.19481136316E+02  0.00000000000E+00 0. -1.
</event>
<event>
 7    1  0.2395003E-008  0.4614232E+02  0.7816164E-02  0.1320468E+00
        -11   -1    0    0    0    0  0.00000000000E+00  0.00000000000E+00  0.45593999997E+02  0.45594000000E+02  0.51100000000E-03 0.  1.
         11   -1    0    0    0    0 -0.00000000000E+00 -0.00000000000E+00 -0.45593999997E+02  0.45594000000E+02  0.51100000000E-03 0. -1.
    9900012    2    1    2    0    0  0.20045455756E+02  0.32994694515E+02  0.23208685230E+02  0.46142320599E+02  0.10000025876E+02 0.  0.
         12    1    1    2    0    0 -0.20045455756E+02 -0.32994694515E+02 -0.23208685230E+02  0.45045679401E+02  0.00000000000E+00 0. -1.
         11    1    3    3    0    0  0.12702659626E+02  0.13291443634E+02  0.75831060868E+01  0.19887773471E+02  0.51100000000E-03 0. -1.
        -11    1    3    3    0    0 -0.32539814285E-01  0.87927966370E+00  0.59510606624E+00  0.10622349353E+01  0.51100000000E-03 0.  1.
        -12    1    3    3    0    0  0.73753359441E+01  0.18823971217E+02  0.15030473077E+02  0.25192312192E+02  0.00000000000E+00 0.  1.
</event>
<event>
 7    1  0.2395003E-008  0.4614232E+02  0.7816164E-02  0.1320468E+00
        -11   -1    0    0    0    0  0.00000000000E+00  0.00000000000E+00  0.45593999997E+02  0.45594000000E+02  0.51100000000E-03 0. -1.
         11   -1    0    0    0    0 -0.00000000000E+00 -0.00000000000E+00 -0.45593999997E+02  0.45594000000E+02  0.51100000000E-03 0.  1.
    9900012    2    1    2    0    0  0.18709792282E+02 -0.32098253944E+02  0.25470755264E+02  0.46142316442E+02  0.99999879697E+01 0.  0.
         12    1    1    2    0    0 -0.18709792282E+02  0.32098253944E+02 -0.25470755264E+02  0.45045683558E+02  0.00000000000E+00 0. -1.
         11    1    3    3    0    0  0.21298967046E+01 -0.88165489019E+01  0.72876560879E+01  0.11635202019E+02  0.51100000000E-03 0.  1.
        -11    1    3    3    0    0  0.52752749301E-01 -0.26962171656E+01  0.52652510554E+00  0.27476533268E+01  0.51100000000E-03 0. -1.
        -12    1    3    3    0    0  0.16527142828E+02 -0.20585487877E+02  0.17656574070E+02  0.31759461096E+02  0.00000000000E+00 0.  1.
</event>
<event>
 7    1  0.2395003E-008  0.4614232E+02  0.7816164E-02  0.1320468E+00
        -11   -1    0    0    0    0  0.00000000000E+00  0.00000000000E+00  0.45593999997E+02  0.45594000000E+02  0.51100000000E-03 0. -1.
         11   -1    0    0    0    0 -0.00000000000E+00 -0.00000000000E+00 -0.45593999997E+02  0.45594000000E+02  0.51100000000E-03 0.  1.
    9900012    2    1    2    0    0  0.20826466928E+02 -0.17641980975E+02 -0.35834792778E+02  0.46142316623E+02  0.99999896224E+01 0.  0.
         12    1    1    2    0    0 -0.20826466928E+02  0.17641980975E+02  0.35834792778E+02  0.45045683377E+02  0.00000000000E+00 0. -1.
         11    1    3    3    0    0  0.31882087652E+01 -0.54782733723E+01 -0.52636249388E+01  0.82390473982E+01  0.51100000000E-03 0. -1.
        -11    1    3    3    0    0  0.61377041849E+01 -0.84261321400E+00 -0.71496025295E+01  0.94603502198E+01  0.51100000000E-03 0.  1.
        -12    1    3    3    0    0  0.11500553978E+02 -0.11321094389E+02 -0.23421565310E+02  0.28442919005E+02  0.00000000000E+00 0.  1.
</event>
<event>
 7    1  0.2395003E-008  0.4614232E+02  0.7816164E-02  0.1320468E+00
        -11   -1    0    0    0    0  0.00000000000E+00  0.00000000000E+00  0.45593999997E+02  0.45594000000E+02  0.51100000000E-03 0.  1.
         11   -1    0    0    0    0 -0.00000000000E+00 -0.00000000000E+00 -0.45593999997E+02  0.45594000000E+02  0.51100000000E-03 0. -1.
    9900012    2    1    2    0    0 -0.44958916539E+02  0.27908221640E+01 -0.14334030352E+00  0.46142318618E+02  0.10000007816E+02 0.  0.
         12    1    1    2    0    0  0.44958916539E+02 -0.27908221640E+01  0.14334030352E+00  0.45045681382E+02  0.00000000000E+00 0. -1.
         11    1    3    3    0    0 -0.26451602763E+02  0.33059984067E+01  0.21111369641E+01  0.26740864118E+02  0.51100000000E-03 0. -1.
        -11    1    3    3    0    0 -0.12760163792E+02  0.21413457918E+01 -0.15248296690E+01  0.13028132928E+02  0.51100000000E-03 0.  1.
         12    1    3    3    0    0 -0.57471499834E+01 -0.26565220345E+01 -0.72964759863E+00  0.63733215727E+01  0.00000000000E+00 0. -1.
</event>
<event>
 7    1  0.2395003E-008  0.4614232E+02  0.7816164E-02  0.1320468E+00
        -11   -1    0    0    0    0  0.00000000000E+00  0.00000000000E+00  0.45593999997E+02  0.45594000000E+02  0.51100000000E-03 0.  1.
         11   -1    0    0    0    0 -0.00000000000E+00 -0.00000000000E+00 -0.45593999997E+02  0.45594000000E+02  0.51100000000E-03 0. -1.
    9900012    2    1    2    0    0 -0.10715216832E+02 -0.23330654703E+02  0.37013216101E+02  0.46142317779E+02  0.10000000161E+02 0.  0.
         12    1    1    2    0    0  0.10715216832E+02  0.23330654703E+02 -0.37013216101E+02  0.45045682221E+02  0.00000000000E+00 0. -1.
         11    1    3    3    0    0 -0.67818116922E+01 -0.10888098353E+02  0.15375005803E+02  0.20023347854E+02  0.51100000000E-03 0. -1.
        -11    1    3    3    0    0 -0.33230910062E+01 -0.12648958352E+02  0.21829132038E+02  0.25447005462E+02  0.51100000000E-03 0.  1.
         12    1    3    3    0    0 -0.61031413374E+00  0.20640200225E+00 -0.19092173932E+00  0.67196446254E+00  0.00000000000E+00 0. -1.
</event>
<event>
 7    1  0.2395003E-008  0.4614231E+02  0.7816164E-02  0.1320468E+00
        -11   -1    0    0    0    0  0.00000000000E+00  0.00000000000E+00  0.45593999997E+02  0.45594000000E+02  0.51100000000E-03 0. -1.
         11   -1    0    0    0    0 -0.00000000000E+00 -0.00000000000E+00 -0.45593999997E+02  0.45594000000E+02  0.51100000000E-03 0.  1.
    9900012    2    1    2    0    0  0.32299304089E+02  0.29150260342E+02 -0.11667528525E+02  0.46142312698E+02  0.99999538286E+01 0.  0.
         12    1    1    2    0    0 -0.32299304089E+02 -0.29150260342E+02  0.11667528525E+02  0.45045687302E+02  0.00000000000E+00 0. -1.
         11    1    3    3    0    0  0.14539496783E+02  0.11446846989E+02 -0.81057430121E+01  0.20202236082E+02  0.51100000000E-03 0. -1.
        -11    1    3    3    0    0  0.13452192147E+02  0.12300362183E+02 -0.13843354225E+00  0.18228536626E+02  0.51100000000E-03 0.  1.
        -12    1    3    3    0    0  0.43076151593E+01  0.54030511700E+01 -0.34233519702E+01  0.77115399900E+01  0.00000000000E+00 0.  1.
</event>
<event>
 7    1  0.2395003E-008  0.4614232E+02  0.7816164E-02  0.1320468E+00
        -11   -1    0    0    0    0  0.00000000000E+00  0.00000000000E+00  0.45593999997E+02  0.45594000000E+02  0.51100000000E-03 0.  1.
         11   -1    0    0    0    0 -0.00000000000E+00 -0.00000000000E+00 -0.45593999997E+02  0.45594000000E+02  0.51100000000E-03 0. -1.
    9900012    2    1    2    0    0  0.17709283091E+02 -0.26269767710E+02  0.32021775089E+02  0.46142317822E+02  0.10000000551E+02 0.  0.
         12    1    1    2    0    0 -0.17709283091E+02  0.26269767710E+02 -0.32021775089E+02  0.45045682178E+02  0.00000000000E+00 0. -1.
         11    1    3    3    0    0  0.38204596892E+01 -0.65156405906E+01  0.14172925908E+02  0.16059928817E+02  0.51100000000E-03 0. -1.
        -11    1    3    3    0    0  0.50880690461E+01 -0.58749463595E+01  0.53539319597E+01  0.94375859750E+01  0.51100000000E-03 0.  1.
        -12    1    3    3    0    0  0.88007543555E+01 -0.13879180759E+02  0.12494917220E+02  0.20644803029E+02  0.00000000000E+00 0.  1.
</event>
<event>
 7    1  0.2395003E-008  0.4614232E+02  0.7816164E-02  0.1320468E+00
        -11   -1    0    0    0    0  0.00000000000E+00  0.00000000000E+00  0.45593999997E+02  0.45594000000E+02  0.51100000000E-03 0. -1.
         11   -1    0    0    0    0 -0.00000000000E+00 -0.00000000000E+00 -0.45593999997E+02  0.45594000000E+02  0.51100000000E-03 0.  1.
    9900012    2    1    2    0    0 -0.69419382092E+01 -0.11920955831E+01 -0.44491587790E+02  0.46142323381E+02  0.10000051249E+02 0.  0.
         12    1    1    2    0    0  0.69419382092E+01  0.11920955831E+01  0.44491587790E+02  0.45045676619E+02  0.00000000000E+00 0. -1.
         11    1    3    3    0    0 -0.45983751509E+00  0.14077158828E+01 -0.78504845653E+00  0.16761312261E+01  0.51100000000E-03 0. -1.
        -11    1    3    3    0    0 -0.76555232085E+00 -0.55871078722E+00 -0.19046998047E+02  0.19070562733E+02  0.51100000000E-03 0.  1.
         12    1    3    3    0    0 -0.57165483732E+01 -0.20411006787E+01 -0.24659541286E+02  0.25395629422E+02  0.00000000000E+00 0. -1.
</event>
<event>
 7    1  0.2395003E-008  0.4614232E+02  0.7816164E-02  0.1320468E+00
        -11   -1    0    0    0    0  0.00000000000E+00  0.00000000000E+00  0.45593999997E+02  0.45594000000E+02  0.51100000000E-03 0.  1.
         11   -1    0    0    0    0 -0.00000000000E+00 -0.00000000000E+00 -0.45593999997E+02  0.45594000000E+02  0.51100000000E-03 0. -1.
    9900012    2    1    2    0    0 -0.41097554874E+02  0.45019557036E+01  0.17883981734E+02  0.46142318471E+02  0.10000006469E+02 0.  0.
         12    1    1    2    0    0  0.41097554874E+02 -0.45019557036E+01 -0.17883981734E+02  0.45045681529E+02  0.00000000000E+00 0. -1.
         11    1    3    3    0    0 -0.17265059340E+02 -0.96199268116E+00  0.57731933501E+01  0.18230125223E+02  0.51100000000E-03 0. -1.
        -11    1    3    3    0    0 -0.20853433182E+02  0.26005637662E+01  0.10030876660E+02  0.23286199652E+02  0.51100000000E-03 0.  1.
         12    1    3    3    0    0 -0.29790623525E+01  0.28633846186E+01  0.20799117235E+01  0.46259935961E+01  0.00000000000E+00 0. -1.
</event>
<event>
 7    1  0.2395003E-008  0.4614232E+02  0.7816164E-02  0.1320468E+00
        -11   -1    0    0    0    0  0.00000000000E+00  0.00000000000E+00  0.45593999997E+02  0.45594000000E+02  0.51100000000E-03 0. -1.
         11   -1    0    0    0    0 -0.00000000000E+00 -0.00000000000E+00 -0.45593999997E+02  0.45594000000E+02  0.51100000000E-03 0.  1.
    9900012    2    1    2    0    0  0.46131885117E+01 -0.15236370517E+02 -0.42138878182E+02  0.46142317086E+02  0.99999938426E+01 0.  0.
         12    1    1    2    0    0 -0.46131885117E+01  0.15236370517E+02  0.42138878182E+02  0.45045682914E+02  0.00000000000E+00 0. -1.
         11    1    3    3    0    0  0.15738590796E+01 -0.39757517507E+01 -0.85011371817E+01  0.95159323257E+01  0.51100000000E-03 0. -1.
        -11    1    3    3    0    0 -0.21464155015E+01 -0.52087317130E+01 -0.80448321511E+01  0.98212682564E+01  0.51100000000E-03 0.  1.
        -12    1    3    3    0    0  0.51857449337E+01 -0.60518870534E+01 -0.25592908849E+02  0.26805116504E+02  0.00000000000E+00 0.  1.
</event>
<event>
 7    1  0.2395003E-008  0.4614232E+02  0.7816164E-02  0.1320468E+00
        -11   -1    0    0    0    0  0.00000000000E+00  0.00000000000E+00  0.45593999997E+02  0.45594000000E+02  0.51100000000E-03 0.  1.
         11   -1    0    0    0    0 -0.00000000000E+00 -0.00000000000E+00 -0.45593999997E+02  0.45594000000E+02  0.51100000000E-03 0. -1.
    9900012    2    1    2    0    0 -0.17208450220E+02 -0.96765070646E+01  0.40488861899E+02  0.46142317789E+02  0.10000000256E+02 0.  0.
         12    1    1    2    0    0  0.17208450220E+02  0.96765070646E+01 -0.40488861899E+02  0.45045682211E+02  0.00000000000E+00 0. -1.
         11    1    3    3    0    0 -0.10423254695E+02 -0.54409253778E+01  0.20238953154E+02  0.23406476292E+02  0.51100000000E-03 0. -1.
        -11    1    3    3    0    0 -0.55725867005E+01 -0.29960076520E+00  0.15361292730E+02  0.16343585829E+02  0.51100000000E-03 0.  1.
         12    1    3    3    0    0 -0.12126088246E+01 -0.39359809215E+01  0.48886160150E+01  0.63922556675E+01  0.00000000000E+00 0. -1.
</event>
<event>
 7    1  0.2395003E-008  0.4614232E+02  0.7816164E-02  0.1320468E+00
        -11   -1    0    0    0    0  0.00000000000E+00  0.00000000000E+00  0.45593999997E+02  0.45594000000E+02  0.51100000000E-03 0. -1.
         11   -1    0    0    0    0 -0.00000000000E+00 -0.00000000000E+00 -0.45593999997E+02  0.45594000000E+02  0.51100000000E-03 0.  1.
    9900012    2    1    2    0    0  0.86086973263E+01 -0.62641146074E+01 -0.43769449329E+02  0.46142317676E+02  0.99999992266E+01 0.  0.
         12    1    1    2    0    0 -0.86086973263E+01  0.62641146074E+01  0.43769449329E+02  0.45045682324E+02  0.00000000000E+00 0. -1.
         11    1    3    3    0    0  0.26481947965E+01 -0.14861979935E+01 -0.30219594376E+01  0.42841521051E+01  0.51100000000E-03 0. -1.
        -11    1    3    3    0    0 -0.72459153067E+00  0.53830504911E+00 -0.64643689224E+01  0.65270874851E+01  0.51100000000E-03 0.  1.
        -12    1    3    3    0    0  0.66850940604E+01 -0.53162216630E+01 -0.34283120969E+02  0.35331078086E+02  0.00000000000E+00 0.  1.
</event>
<event>
 7    1  0.2395003E-008  0.4614232E+02  0.7816164E-02  0.1320468E+00
        -11   -1    0    0    0    0  0.00000000000E+00  0.00000000000E+00  0.45593999997E+02  0.45594000000E+02  0.51100000000E-03 0.  1.
         11   -1    0    0    0    0 -0.00000000000E+00 -0.00000000000E+00 -0.45593999997E+02  0.45594000000E+02  0.51100000000E-03 0. -1.
    9900012    2    1    2    0    0  0.37869283499E+02 -0.21420800540E+02  0.11669621026E+02  0.46142318926E+02  0.10000010625E+02 0.  0.
         12    1    1    2    0    0 -0.37869283499E+02  0.21420800540E+02 -0.11669621026E+02  0.45045681074E+02  0.00000000000E+00 0. -1.
         11    1    3    3    0    0  0.25298379834E+01 -0.18643621284E+00 -0.12039925873E+01  0.28079239831E+01  0.51100000000E-03 0. -1.
        -11    1    3    3    0    0  0.10738302763E+02 -0.47086181957E+01  0.42002393155E+01  0.12454888282E+02  0.51100000000E-03 0.  1.
         12    1    3    3    0    0  0.24601142753E+02 -0.16525746131E+02  0.86733742975E+01  0.30879506661E+02  0.00000000000E+00 0. -1.
</event>
<event>
 7    1  0.2395003E-008  0.4614232E+02  0.7816164E-02  0.1320468E+00
        -11   -1    0    0    0    0  0.00000000000E+00  0.00000000000E+00  0.45593999997E+02  0.45594000000E+02  0.51100000000E-03 0.  1.
         11   -1    0    0    0    0 -0.00000000000E+00 -0.00000000000E+00 -0.45593999997E+02  0.45594000000E+02  0.51100000000E-03 0. -1.
    9900012    2    1    2    0    0 -0.26830924612E+02  0.31017237740E+02  0.18631852259E+02  0.46142317952E+02  0.10000001742E+02 0.  0.
         12    1    1    2    0    0  0.26830924612E+02 -0.31017237740E+02 -0.18631852259E+02  0.45045682048E+02  0.00000000000E+00 0. -1.
         11    1    3    3    0    0 -0.58139957395E+01  0.59167751243E+01 -0.98650455091E-01  0.82958125885E+01  0.51100000000E-03 0. -1.
        -11    1    3    3    0    0 -0.12788657385E+02  0.12889851899E+02  0.10023670853E+02  0.20740588644E+02  0.51100000000E-03 0.  1.
         12    1    3    3    0    0 -0.82282714878E+01  0.12210610717E+02  0.87068318611E+01  0.17105916720E+02  0.00000000000E+00 0. -1.
</event>
<event>
 7    1  0.2395003E-008  0.4614232E+02  0.7816164E-02  0.1320468E+00
        -11   -1    0    0    0    0  0.00000000000E+00  0.00000000000E+00  0.45593999997E+02  0.45594000000E+02  0.51100000000E-03 0.  1.
         11   -1    0    0    0    0 -0.00000000000E+00 -0.00000000000E+00 -0.45593999997E+02  0.45594000000E+02  0.51100000000E-03 0. -1.
    9900012    2    1    2    0    0 -0.67915674389E+01  0.73506726240E+01  0.43919878791E+02  0.46142317307E+02  0.99999958592E+01 0.  0.
         12    1    1    2    0    0  0.67915674389E+01 -0.73506726240E+01 -0.43919878791E+02  0.45045682693E+02  0.00000000000E+00 0. -1.
         11    1    3    3    0    0 -0.88072433788E+00  0.22565541169E+01  0.23420400042E+01  0.33694010572E+01  0.51100000000E-03 0. -1.
        -11    1    3    3    0    0  0.12673172143E+01  0.15773240974E+01  0.96315189354E+01  0.98417580489E+01  0.51100000000E-03 0.  1.
        -12    1    3    3    0    0 -0.71781603153E+01  0.35167944097E+01  0.31946319851E+02  0.32931158201E+02  0.00000000000E+00 0.  1.
</event>
<event>
 7    1  0.2395003E-008  0.4614232E+02  0.7816164E-02  0.1320468E+00
        -11   -1    0    0    0    0  0.00000000000E+00  0.00000000000E+00  0.45593999997E+02  0.45594000000E+02  0.51100000000E-03 0. -1.
         11   -1    0    0    0    0 -0.00000000000E+00 -0.00000000000E+00 -0.45593999997E+02  0.45594000000E+02  0.51100000000E-03 0.  1.
    9900012    2    1    2    0    0 -0.41517777810E+02  0.37292484572E+01 -0.17072794570E+02  0.46142317823E+02  0.10000000566E+02 0.  0.
         12    1    1    2    0    0  0.41517777810E+02 -0.37292484572E+01  0.17072794570E+02  0.45045682177E+02  0.00000000000E+00 0. -1.
         11    1    3    3    0    0 -0.18203182534E+02  0.62542053331E+00 -0.93483094579E+01  0.20472857523E+02  0.51100000000E-03 0. -1.
        -11    1    3    3    0    0 -0.19190788479E+02  0.31782651162E+01 -0.88843080476E+01  0.21385010202E+02  0.51100000000E-03 0.  1.
         12    1    3    3    0    0 -0.41238067976E+01 -0.74437192339E-01  0.11598229353E+01  0.42844500978E+01  0.00000000000E+00 0. -1.
</event>
<event>
 7    1  0.2395003E-008  0.4614232E+02  0.7816164E-02  0.1320468E+00
        -11   -1    0    0    0    0  0.00000000000E+00  0.00000000000E+00  0.45593999997E+02  0.45594000000E+02  0.51100000000E-03 0. -1.
         11   -1    0    0    0    0 -0.00000000000E+00 -0.00000000000E+00 -0.45593999997E+02  0.45594000000E+02  0.51100000000E-03 0.  1.
    9900012    2    1    2    0    0 -0.36541461847E+02 -0.25937463222E+02  0.45916292763E+01  0.46142317724E+02  0.99999996658E+01 0.  0.
         12    1    1    2    0    0  0.36541461847E+02  0.25937463222E+02 -0.45916292763E+01  0.45045682276E+02  0.00000000000E+00 0. -1.
         11    1    3    3    0    0 -0.76530497463E+01 -0.10097996166E+02  0.12369877951E+01  0.12730625910E+02  0.51100000000E-03 0. -1.
        -11    1    3    3    0    0 -0.12728520698E+02 -0.94965579837E+01  0.17816704311E+01  0.15980431861E+02  0.51100000000E-03 0.  1.
         12    1    3    3    0    0 -0.16159891402E+02 -0.63429090720E+01  0.15729710501E+01  0.17431259953E+02  0.00000000000E+00 0. -1.
</event>
<event>
 7    1  0.2395003E-008  0.4614232E+02  0.7816164E-02  0.1320468E+00
        -11   -1    0    0    0    0  0.00000000000E+00  0.00000000000E+00  0.45593999997E+02  0.45594000000E+02  0.51100000000E-03 0.  1.
         11   -1    0    0    0    0 -0.00000000000E+00 -0.00000000000E+00 -0.45593999997E+02  0.45594000000E+02  0.51100000000E-03 0. -1.
    9900012    2    1    2    0    0 -0.39144188854E+02  0.50282539871E+01  0.21715495669E+02  0.46142316396E+02  0.99999875497E+01 0.  0.
         12    1    1    2    0    0  0.39144188854E+02 -0.50282539871E+01 -0.21715495669E+02  0.45045683604E+02  0.00000000000E+00 0. -1.
         11    1    3    3    0    0 -0.71894942491E+01  0.29116092415E+01  0.24883534188E+01  0.81460541940E+01  0.51100000000E-03 0. -1.
        -11    1    3    3    0    0 -0.17136166967E+02  0.46064617990E+01  0.10218778775E+02  0.20476600024E+02  0.51100000000E-03 0.  1.
        -12    1    3    3    0    0 -0.14818527638E+02 -0.24898170534E+01  0.90083634755E+01  0.17519662178E+02  0.00000000000E+00 0.  1.
</event>
<event>
 7    1  0.2395003E-008  0.4614232E+02  0.7816164E-02  0.1320468E+00
        -11   -1    0    0    0    0  0.00000000000E+00  0.00000000000E+00  0.45593999997E+02  0.45594000000E+02  0.51100000000E-03 0.  1.
         11   -1    0    0    0    0 -0.00000000000E+00 -0.00000000000E+00 -0.45593999997E+02  0.45594000000E+02  0.51100000000E-03 0. -1.
    9900012    2    1    2    0    0 -0.20886715949E+02 -0.35227457231E+02  0.18758595549E+02  0.46142317043E+02  0.99999934518E+01 0.  0.
         12    1    1    2    0    0  0.20886715949E+02  0.35227457231E+02 -0.18758595549E+02  0.45045682957E+02  0.00000000000E+00 0. -1.
         11    1    3    3    0    0 -0.53918522736E+01 -0.11903598694E+02  0.57089567435E+01  0.14260431977E+02  0.51100000000E-03 0. -1.
        -11    1    3    3    0    0 -0.37079337111E+01 -0.11040248847E+02  0.26880180481E+01  0.11952460345E+02  0.51100000000E-03 0.  1.
         12    1    3    3    0    0 -0.11786929964E+02 -0.12283609690E+02  0.10361620757E+02  0.19929424721E+02  0.00000000000E+00 0. -1.
</event>
<event>
 7    1  0.2395003E-008  0.4614232E+02  0.7816164E-02  0.1320468E+00
        -11   -1    0    0    0    0  0.00000000000E+00  0.00000000000E+00  0.45593999997E+02  0.45594000000E+02  0.51100000000E-03 0.  1.
         11   -1    0    0    0    0 -0.00000000000E+00 -0.00000000000E+00 -0.45593999997E+02  0.45594000000E+02  0.51100000000E-03 0. -1.
    9900012    2    1    2    0    0  0.16149675784E+02 -0.33578499535E+02  0.25313745511E+02  0.46142319067E+02  0.10000011905E+02 0.  0.
         12    1    1    2    0    0 -0.16149675784E+02  0.33578499535E+02 -0.25313745511E+02  0.45045680933E+02  0.00000000000E+00 0. -1.
         11    1    3    3    0    0  0.14696030196E+02 -0.25711594911E+02  0.23203386109E+02  0.37622553656E+02  0.51100000000E-03 0.  1.
        -11    1    3    3    0    0  0.92701552842E-01 -0.12983604773E+01 -0.39319618606E+00  0.13597562314E+01  0.51100000000E-03 0. -1.
        -12    1    3    3    0    0  0.13609440352E+01 -0.65685441459E+01  0.25035555885E+01  0.71600091794E+01  0.00000000000E+00 0.  1.
</event>
<event>
 7    1  0.2395003E-008  0.4614232E+02  0.7816164E-02  0.1320468E+00
        -11   -1    0    0    0    0  0.00000000000E+00  0.00000000000E+00  0.45593999997E+02  0.45594000000E+02  0.51100000000E-03 0.  1.
         11   -1    0    0    0    0 -0.00000000000E+00 -0.00000000000E+00 -0.45593999997E+02  0.45594000000E+02  0.51100000000E-03 0. -1.
    9900012    2    1    2    0    0 -0.37368821153E+02 -0.13202883892E+02  0.21409543132E+02  0.46142317914E+02  0.10000001394E+02 0.  0.
         12    1    1    2    0    0  0.37368821153E+02  0.13202883892E+02 -0.21409543132E+02  0.45045682086E+02  0.00000000000E+00 0. -1.
         11    1    3    3    0    0 -0.97368042038E+01 -0.41244469642E+01  0.87226040206E+01  0.13707670846E+02  0.51100000000E-03 0. -1.
        -11    1    3    3    0    0 -0.23762448693E+02 -0.99943535322E+01  0.11846007295E+02  0.28370212539E+02  0.51100000000E-03 0.  1.
        -12    1    3    3    0    0 -0.38695682569E+01  0.91591660419E+00  0.84093181635E+00  0.40644345290E+01  0.00000000000E+00 0.  1.
</event>
<event>
 7    1  0.2395003E-008  0.4614232E+02  0.7816164E-02  0.1320468E+00
        -11   -1    0    0    0    0  0.00000000000E+00  0.00000000000E+00  0.45593999997E+02  0.45594000000E+02  0.51100000000E-03 0.  1.
         11   -1    0    0    0    0 -0.00000000000E+00 -0.00000000000E+00 -0.45593999997E+02  0.45594000000E+02  0.51100000000E-03 0. -1.
    9900012    2    1    2    0    0 -0.23484631018E+02 -0.15047918438E+02  0.35371536210E+02  0.46142319661E+02  0.10000017327E+02 0.  0.
         12    1    1    2    0    0  0.23484631018E+02  0.15047918438E+02 -0.35371536210E+02  0.45045680339E+02  0.00000000000E+00 0. -1.
         11    1    3    3    0    0 -0.14418720724E+01  0.29949227834E+00  0.10443796298E+01  0.18053863216E+01  0.51100000000E-03 0. -1.
        -11    1    3    3    0    0 -0.73520540456E+01 -0.76803830741E+01  0.83261759153E+01  0.13504302592E+02  0.51100000000E-03 0.  1.
        -12    1    3    3    0    0 -0.14690704900E+02 -0.76670276421E+01  0.26000980665E+02  0.30832630748E+02  0.00000000000E+00 0.  1.
</event>
<event>
 7    1  0.2395003E-008  0.4614232E+02  0.7816164E-02  0.1320468E+00
        -11   -1    0    0    0    0  0.00000000000E+00  0.00000000000E+00  0.45593999997E+02  0.45594000000E+02  0.51100000000E-03 0. -1.
         11   -1    0    0    0    0 -0.00000000000E+00 -0.00000000000E+00 -0.45593999997E+02  0.45594000000E+02  0.51100000000E-03 0.  1.
    9900012    2    1    2    0    0  0.33184147776E+02  0.28891763541E+02 -0.96535924711E+01  0.46142317502E+02  0.99999976345E+01 0.  0.
         12    1    1    2    0    0 -0.33184147776E+02 -0.28891763541E+02  0.96535924711E+01  0.45045682498E+02  0.00000000000E+00 0. -1.
         11    1    3    3    0    0  0.23900504287E+01  0.70999886439E+00 -0.91604671841E+00  0.26562344194E+01  0.51100000000E-03 0. -1.
        -11    1    3    3    0    0  0.14177087659E+00  0.10128677219E+01 -0.16148691636E+01  0.19114922653E+01  0.51100000000E-03 0.  1.
         12    1    3    3    0    0  0.30652326471E+02  0.27168896955E+02 -0.71226765891E+01  0.41574590817E+02  0.00000000000E+00 0. -1.
</event>
<event>
 7    1  0.2395003E-008  0.4614232E+02  0.7816164E-02  0.1320468E+00
        -11   -1    0    0    0    0  0.00000000000E+00  0.00000000000E+00  0.45593999997E+02  0.45594000000E+02  0.51100000000E-03 0. -1.
         11   -1    0    0    0    0 -0.00000000000E+00 -0.00000000000E+00 -0.45593999997E+02  0.45594000000E+02  0.51100000000E-03 0.  1.
    9900012    2    1    2    0    0  0.34901309695E+02 -0.13336426239E+02 -0.25162508334E+02  0.46142317533E+02  0.99999979221E+01 0.  0.
         12    1    1    2    0    0 -0.34901309695E+02  0.13336426239E+02  0.25162508334E+02  0.45045682467E+02  0.00000000000E+00 0. -1.
         11    1    3    3    0    0  0.14372063092E+02 -0.77380545435E+01 -0.95680220363E+01  0.18920378738E+02  0.51100000000E-03 0. -1.
        -11    1    3    3    0    0  0.43825637883E+00 -0.18141744752E+01 -0.14022923656E+01  0.23344639256E+01  0.51100000000E-03 0.  1.
        -12    1    3    3    0    0  0.20090990224E+02 -0.37841972198E+01 -0.14192193932E+02  0.24887474870E+02  0.00000000000E+00 0.  1.
</event>
<event>
 7    1  0.2395003E-008  0.4614232E+02  0.7816164E-02  0.1320468E+00
        -11   -1    0    0    0    0  0.00000000000E+00  0.00000000000E+00  0.45593999997E+02  0.45594000000E+02  0.51100000000E-03 0. -1.
         11   -1    0    0    0    0 -0.00000000000E+00 -0.00000000000E+00 -0.45593999997E+02  0.45594000000E+02  0.51100000000E-03 0.  1.
    9900012    2    1    2    0    0  0.25964350202E+02 -0.24137314676E+02 -0.27791295795E+02  0.46142316931E+02  0.99999924283E+01 0.  0.
         12    1    1    2    0    0 -0.25964350202E+02  0.24137314676E+02  0.27791295795E+02  0.45045683069E+02  0.00000000000E+00 0. -1.
         11    1    3    3    0    0  0.65724003263E+01 -0.77425670487E+01 -0.51485807733E+01  0.11386468934E+02  0.51100000000E-03 0. -1.
        -11    1    3    3    0    0  0.14392662917E+02 -0.11865147323E+02 -0.12080810338E+02  0.22223331108E+02  0.51100000000E-03 0.  1.
        -12    1    3    3    0    0  0.49992869590E+01 -0.45296003040E+01 -0.10561904684E+02  0.12532516888E+02  0.00000000000E+00 0.  1.
</event>
<event>
 7    1  0.2395003E-008  0.4614232E+02  0.7816164E-02  0.1320468E+00
        -11   -1    0    0    0    0  0.00000000000E+00  0.00000000000E+00  0.45593999997E+02  0.45594000000E+02  0.51100000000E-03 0.  1.
         11   -1    0    0    0    0 -0.00000000000E+00 -0.00000000000E+00 -0.45593999997E+02  0.45594000000E+02  0.51100000000E-03 0. -1.
    9900012    2    1    2    0    0 -0.31190768275E+02  0.74144539627E+01  0.31642934885E+02  0.46142317839E+02  0.10000000713E+02 0.  0.
         12    1    1    2    0    0  0.31190768275E+02 -0.74144539627E+01 -0.31642934885E+02  0.45045682161E+02  0.00000000000E+00 0. -1.
         11    1    3    3    0    0 -0.17826161453E+02  0.82697520802E+01  0.19121648048E+02  0.27418939731E+02  0.51100000000E-03 0. -1.
        -11    1    3    3    0    0 -0.38637031218E+01  0.14639996707E+01  0.40281636267E+01  0.57704072052E+01  0.51100000000E-03 0.  1.
        -12    1    3    3    0    0 -0.95009037007E+01 -0.23192977882E+01  0.84931232101E+01  0.12952970903E+02  0.00000000000E+00 0.  1.
</event>
<event>
 7    1  0.2395003E-008  0.4614231E+02  0.7816164E-02  0.1320468E+00
        -11   -1    0    0    0    0  0.00000000000E+00  0.00000000000E+00  0.45593999997E+02  0.45594000000E+02  0.51100000000E-03 0.  1.
         11   -1    0    0    0    0 -0.00000000000E+00 -0.00000000000E+00 -0.45593999997E+02  0.45594000000E+02  0.51100000000E-03 0. -1.
    9900012    2    1    2    0    0 -0.15624835741E+02 -0.31318690757E+02  0.28356974145E+02  0.46142313577E+02  0.99999618449E+01 0.  0.
         12    1    1    2    0    0  0.15624835741E+02  0.31318690757E+02 -0.28356974145E+02  0.45045686423E+02  0.00000000000E+00 0. -1.
         11    1    3    3    0    0 -0.33395916486E+01 -0.25314075264E+01  0.13695275414E+01  0.44086848824E+01  0.51100000000E-03 0. -1.
        -11    1    3    3    0    0 -0.50459605750E+01 -0.10649684637E+02  0.66214537413E+01  0.13517438770E+02  0.51100000000E-03 0.  1.
        -12    1    3    3    0    0 -0.72392835170E+01 -0.18137598594E+02  0.20365992862E+02  0.28216189925E+02  0.00000000000E+00 0.  1.
</event>
<event>
 7    1  0.2395003E-008  0.4614232E+02  0.7816164E-02  0.1320468E+00
        -11   -1    0    0    0    0  0.00000000000E+00  0.00000000000E+00  0.45593999997E+02  0.45594000000E+02  0.51100000000E-03 0. -1.
         11   -1    0    0    0    0 -0.00000000000E+00 -0.00000000000E+00 -0.45593999997E+02  0.45594000000E+02  0.51100000000E-03 0.  1.
    9900012    2    1    2    0    0 -0.55376790123E+01 -0.43770425087E+02  0.90883146419E+01  0.46142318029E+02  0.10000002447E+02 0.  0.
         12    1    1    2    0    0  0.55376790123E+01  0.43770425087E+02 -0.90883146419E+01  0.45045681971E+02  0.00000000000E+00 0. -1.
         11    1    3    3    0    0 -0.58861941037E+01 -0.13302220385E+02  0.43612986589E+01  0.15186088188E+02  0.51100000000E-03 0. -1.
        -11    1    3    3    0    0 -0.69607304625E+00 -0.77325726319E+01  0.21180505193E+01  0.80475670520E+01  0.51100000000E-03 0.  1.
         12    1    3    3    0    0  0.10445881376E+01 -0.22735632071E+02  0.26089654637E+01  0.22908662790E+02  0.00000000000E+00 0. -1.
</event>
<event>
 7    1  0.2395003E-008  0.4614232E+02  0.7816164E-02  0.1320468E+00
        -11   -1    0    0    0    0  0.00000000000E+00  0.00000000000E+00  0.45593999997E+02  0.45594000000E+02  0.51100000000E-03 0.  1.
         11   -1    0    0    0    0 -0.00000000000E+00 -0.00000000000E+00 -0.45593999997E+02  0.45594000000E+02  0.51100000000E-03 0. -1.
    9900012    2    1    2    0    0  0.22670761981E+02  0.34545461559E+02  0.17937701525E+02  0.46142317642E+02  0.99999989139E+01 0.  0.
         12    1    1    2    0    0 -0.22670761981E+02 -0.34545461559E+02 -0.17937701525E+02  0.45045682358E+02  0.00000000000E+00 0. -1.
         11    1    3    3    0    0  0.62334146684E+01  0.53918570245E+01  0.43132554033E+01  0.93022445160E+01  0.51100000000E-03 0. -1.
        -11    1    3    3    0    0  0.13149122784E+02  0.20082397585E+02  0.12673794706E+02  0.27144561062E+02  0.51100000000E-03 0.  1.
         12    1    3    3    0    0  0.32882245288E+01  0.90712069495E+01  0.95065141598E+00  0.96955120642E+01  0.00000000000E+00 0. -1.
</event>
<event>
 7    1  0.2395003E-008  0.4614232E+02  0.7816164E-02  0.1320468E+00
        -11   -1    0    0    0    0  0.00000000000E+00  0.00000000000E+00  0.45593999997E+02  0.45594000000E+02  0.51100000000E-03 0. -1.
         11   -1    0    0    0    0 -0.00000000000E+00 -0.00000000000E+00 -0.45593999997E+02  0.45594000000E+02  0.51100000000E-03 0.  1.
    9900012    2    1    2    0    0 -0.28178429407E+02  0.21303875840E+02 -0.27950569304E+02  0.46142319474E+02  0.10000015622E+02 0.  0.
         12    1    1    2    0    0  0.28178429407E+02 -0.21303875840E+02  0.27950569304E+02  0.45045680526E+02  0.00000000000E+00 0. -1.
         11    1    3    3    0    0 -0.79260524647E+01  0.45188887240E+01 -0.44514738125E+01  0.10151762524E+02  0.51100000000E-03 0.  1.
        -11    1    3    3    0    0  0.29341773021E+00  0.69966561765E+00 -0.21382345050E+01  0.22688483864E+01  0.51100000000E-03 0. -1.
        -12    1    3    3    0    0 -0.20545794672E+02  0.16085321498E+02 -0.21360860986E+02  0.33721708564E+02  0.00000000000E+00 0.  1.
</event>
<event>
 7    1  0.2395003E-008  0.4614232E+02  0.7816164E-02  0.1320468E+00
        -11   -1    0    0    0    0  0.00000000000E+00  0.00000000000E+00  0.45593999997E+02  0.45594000000E+02  0.51100000000E-03 0. -1.
         11   -1    0    0    0    0 -0.00000000000E+00 -0.00000000000E+00 -0.45593999997E+02  0.45594000000E+02  0.51100000000E-03 0.  1.
    9900012    2    1    2    0    0 -0.18797069858E+02  0.14764779526E+02 -0.38180950466E+02  0.46142317319E+02  0.99999959696E+01 0.  0.
         12    1    1    2    0    0  0.18797069858E+02 -0.14764779526E+02  0.38180950466E+02  0.45045682681E+02  0.00000000000E+00 0. -1.
         11    1    3    3    0    0 -0.55629851017E+01  0.59157811923E+01 -0.19612547091E+02  0.21227229542E+02  0.51100000000E-03 0. -1.
        -11    1    3    3    0    0 -0.78076210414E+01  0.23963050060E+01 -0.86196037105E+01  0.11874291238E+02  0.51100000000E-03 0.  1.
         12    1    3    3    0    0 -0.54264637153E+01  0.64526933273E+01 -0.99487996644E+01  0.13040796540E+02  0.00000000000E+00 0. -1.
</event>
<event>
 7    1  0.2395003E-008  0.4614232E+02  0.7816164E-02  0.1320468E+00
        -11   -1    0    0    0    0  0.00000000000E+00  0.00000000000E+00  0.45593999997E+02  0.45594000000E+02  0.51100000000E-03 0.  1.
         11   -1    0    0    0    0 -0.00000000000E+00 -0.00000000000E+00 -0.45593999997E+02  0.45594000000E+02  0.51100000000E-03 0. -1.
    9900012    2    1    2    0    0 -0.29540000981E+02  0.11080641438E+02  0.32151534731E+02  0.46142318096E+02  0.10000003055E+02 0.  0.
         12    1    1    2    0    0  0.29540000981E+02 -0.11080641438E+02 -0.32151534731E+02  0.45045681904E+02  0.00000000000E+00 0. -1.
         11    1    3    3    0    0 -0.64438495846E+01  0.76530988627E+00  0.97559995004E+01  0.11717014262E+02  0.51100000000E-03 0. -1.
        -11    1    3    3    0    0 -0.19460135263E+02  0.62880487203E+01  0.19578666986E+02  0.28311845972E+02  0.51100000000E-03 0.  1.
        -12    1    3    3    0    0 -0.36360161337E+01  0.40272828313E+01  0.28168682444E+01  0.61134578623E+01  0.00000000000E+00 0.  1.
</event>
<event>
 7    1  0.2395003E-008  0.4614232E+02  0.7816164E-02  0.1320468E+00
        -11   -1    0    0    0    0  0.00000000000E+00  0.00000000000E+00  0.45593999997E+02  0.45594000000E+02  0.51100000000E-03 0.  1.
         11   -1    0    0    0    0 -0.00000000000E+00 -0.00000000000E+00 -0.45593999997E+02  0.45594000000E+02  0.51100000000E-03 0. -1.
    9900012    2    1    2    0    0 -0.31544373961E+02  0.52024122480E+01  0.31733277950E+02  0.46142317063E+02  0.99999936382E+01 0.  0.
         12    1    1    2    0    0  0.31544373961E+02 -0.52024122480E+01 -0.31733277950E+02  0.45045682937E+02  0.00000000000E+00 0. -1.
         11    1    3    3    0    0 -0.15432878722E+02  0.56621438893E+01  0.17344653140E+02  0.23897083753E+02  0.51100000000E-03 0. -1.
        -11    1    3    3    0    0 -0.10824085289E+02  0.57632055610E-01  0.12664200812E+02  0.16659715672E+02  0.51100000000E-03 0.  1.
         12    1    3    3    0    0 -0.52874099492E+01 -0.51736369691E+00  0.17244239975E+01  0.55855176384E+01  0.00000000000E+00 0. -1.
</event>
<event>
 7    1  0.2395003E-008  0.4614232E+02  0.7816164E-02  0.1320468E+00
        -11   -1    0    0    0    0  0.00000000000E+00  0.00000000000E+00  0.45593999997E+02  0.45594000000E+02  0.51100000000E-03 0.  1.
         11   -1    0    0    0    0 -0.00000000000E+00 -0.00000000000E+00 -0.45593999997E+02  0.45594000000E+02  0.51100000000E-03 0. -1.
    9900012    2    1    2    0    0  0.27870835555E+02 -0.70114318757E+01  0.34686740524E+02  0.46142316304E+02  0.99999867088E+01 0.  0.
         12    1    1    2    0    0 -0.27870835555E+02  0.70114318757E+01 -0.34686740524E+02  0.45045683696E+02  0.00000000000E+00 0. -1.
         11    1    3    3    0    0  0.20112393136E+02 -0.71581186524E+01  0.22538790972E+02  0.31044228434E+02  0.51100000000E-03 0.  1.
        -11    1    3    3    0    0  0.26929562963E+00 -0.12858572758E+01  0.22251746712E+01  0.25840572068E+01  0.51100000000E-03 0. -1.
        -12    1    3    3    0    0  0.74891467892E+01  0.14325440525E+01  0.99227748808E+01  0.12514030663E+02  0.00000000000E+00 0.  1.
</event>
<event>
 7    1  0.2395003E-008  0.4614232E+02  0.7816164E-02  0.1320468E+00
        -11   -1    0    0    0    0  0.00000000000E+00  0.00000000000E+00  0.45593999997E+02  0.45594000000E+02  0.51100000000E-03 0.  1.
         11   -1    0    0    0    0 -0.00000000000E+00 -0.00000000000E+00 -0.45593999997E+02  0.45594000000E+02  0.51100000000E-03 0. -1.
    9900012    2    1    2    0    0  0.25618399340E+02  0.43167399089E+01  0.36799140956E+02  0.46142318705E+02  0.10000008611E+02 0.  0.
         12    1    1    2    0    0 -0.25618399340E+02 -0.43167399089E+01 -0.36799140956E+02  0.45045681295E+02  0.00000000000E+00 0. -1.
         11    1    3    3    0    0  0.48643629328E+00 -0.93051496543E+00  0.48918805769E+01  0.50032963342E+01  0.51100000000E-03 0. -1.
        -11    1    3    3    0    0  0.10940816585E+02  0.14748151488E+01  0.16523405556E+02  0.19872077865E+02  0.51100000000E-03 0.  1.
        -12    1    3    3    0    0  0.14191146462E+02  0.37724397255E+01  0.15383854824E+02  0.21266944506E+02  0.00000000000E+00 0.  1.
</event>
<event>
 7    1  0.2395003E-008  0.4614232E+02  0.7816164E-02  0.1320468E+00
        -11   -1    0    0    0    0  0.00000000000E+00  0.00000000000E+00  0.45593999997E+02  0.45594000000E+02  0.51100000000E-03 0.  1.
         11   -1    0    0    0    0 -0.00000000000E+00 -0.00000000000E+00 -0.45593999997E+02  0.45594000000E+02  0.51100000000E-03 0. -1.
    9900012    2    1    2    0    0  0.48924319697E+01  0.58955948015E+01  0.44389408654E+02  0.46142317307E+02  0.99999958569E+01 0.  0.
         12    1    1    2    0    0 -0.48924319697E+01 -0.58955948015E+01 -0.44389408654E+02  0.45045682693E+02  0.00000000000E+00 0. -1.
         11    1    3    3    0    0  0.41313828423E+01 -0.19394415511E+00  0.13451534444E+02  0.14073013810E+02  0.51100000000E-03 0. -1.
        -11    1    3    3    0    0  0.17160967872E+01  0.58200179311E+01  0.16216426024E+02  0.17314446863E+02  0.51100000000E-03 0.  1.
        -12    1    3    3    0    0 -0.95504765982E+00  0.26952102553E+00  0.14721448186E+02  0.14754856634E+02  0.00000000000E+00 0.  1.
</event>
<event>
 7    1  0.2395003E-008  0.4614232E+02  0.7816164E-02  0.1320468E+00
        -11   -1    0    0    0    0  0.00000000000E+00  0.00000000000E+00  0.45593999997E+02  0.45594000000E+02  0.51100000000E-03 0.  1.
         11   -1    0    0    0    0 -0.00000000000E+00 -0.00000000000E+00 -0.45593999997E+02  0.45594000000E+02  0.51100000000E-03 0. -1.
    9900012    2    1    2    0    0 -0.41386591765E+02  0.17699131432E+02  0.17332929587E+01  0.46142317234E+02  0.99999951908E+01 0.  0.
         12    1    1    2    0    0  0.41386591765E+02 -0.17699131432E+02 -0.17332929587E+01  0.45045682766E+02  0.00000000000E+00 0. -1.
         11    1    3    3    0    0 -0.12765739197E+02  0.14556730787E+01 -0.10832396372E+01  0.12894048617E+02  0.51100000000E-03 0. -1.
        -11    1    3    3    0    0 -0.66750354663E+01  0.21869213770E+01 -0.93223663031E-01  0.70247714908E+01  0.51100000000E-03 0.  1.
         12    1    3    3    0    0 -0.21945817102E+02  0.14056536976E+02  0.29097562589E+01  0.26223497126E+02  0.00000000000E+00 0. -1.
</event>
<event>
 7    1  0.2395003E-008  0.4614232E+02  0.7816164E-02  0.1320468E+00
        -11   -1    0    0    0    0  0.00000000000E+00  0.00000000000E+00  0.45593999997E+02  0.45594000000E+02  0.51100000000E-03 0.  1.
         11   -1    0    0    0    0 -0.00000000000E+00 -0.00000000000E+00 -0.45593999997E+02  0.45594000000E+02  0.51100000000E-03 0. -1.
    9900012    2    1    2    0    0 -0.43463555286E+02  0.62126529578E+01  0.10071503998E+02  0.46142324429E+02  0.10000060806E+02 0.  0.
         12    1    1    2    0    0  0.43463555286E+02 -0.62126529578E+01 -0.10071503998E+02  0.45045675571E+02  0.00000000000E+00 0. -1.
         11    1    3    3    0    0 -0.21161307035E+02  0.44583009439E+01  0.82449894644E+01  0.23144269577E+02  0.51100000000E-03 0. -1.
        -11    1    3    3    0    0 -0.15814996479E+02  0.16038605261E+01  0.35423692815E+01  0.16286032747E+02  0.51100000000E-03 0.  1.
         12    1    3    3    0    0 -0.64872517710E+01  0.15049148779E+00 -0.17158547481E+01  0.67120221055E+01  0.00000000000E+00 0. -1.
</event>
<event>
 7    1  0.2395003E-008  0.4614232E+02  0.7816164E-02  0.1320468E+00
        -11   -1    0    0    0    0  0.00000000000E+00  0.00000000000E+00  0.45593999997E+02  0.45594000000E+02  0.51100000000E-03 0.  1.
         11   -1    0    0    0    0 -0.00000000000E+00 -0.00000000000E+00 -0.45593999997E+02  0.45594000000E+02  0.51100000000E-03 0. -1.
    9900012    2    1    2    0    0  0.95344893017E+01  0.19944421710E+02  0.39248274187E+02  0.46142317962E+02  0.10000001833E+02 0.  0.
         12    1    1    2    0    0 -0.95344893017E+01 -0.19944421710E+02 -0.39248274187E+02  0.45045682038E+02  0.00000000000E+00 0. -1.
         11    1    3    3    0    0  0.45483095285E+00  0.89675934099E+00  0.12352916471E+01  0.15927944707E+01  0.51100000000E-03 0. -1.
        -11    1    3    3    0    0  0.98331108211E+01  0.14872117643E+02  0.35203164881E+02  0.39460521658E+02  0.51100000000E-03 0.  1.
        -12    1    3    3    0    0 -0.75345247227E+00  0.41755447256E+01  0.28098176588E+01  0.50890018333E+01  0.00000000000E+00 0.  1.
</event>
<event>
 7    1  0.2395003E-008  0.4614232E+02  0.7816164E-02  0.1320468E+00
        -11   -1    0    0    0    0  0.00000000000E+00  0.00000000000E+00  0.45593999997E+02  0.45594000000E+02  0.51100000000E-03 0.  1.
         11   -1    0    0    0    0 -0.00000000000E+00 -0.00000000000E+00 -0.45593999997E+02  0.45594000000E+02  0.51100000000E-03 0. -1.
    9900012    2    1    2    0    0  0.16158135730E+02 -0.41958386553E+02  0.27426193230E+01  0.46142317486E+02  0.99999974889E+01 0.  0.
         12    1    1    2    0    0 -0.16158135730E+02  0.41958386553E+02 -0.27426193230E+01  0.45045682514E+02  0.00000000000E+00 0. -1.
         11    1    3    3    0    0  0.33787122952E+00 -0.20052579572E+01 -0.13906836491E+01  0.24635782341E+01  0.51100000000E-03 0. -1.
        -11    1    3    3    0    0  0.64461102294E+01 -0.96306493671E+01  0.27473674753E+01  0.11910070219E+02  0.51100000000E-03 0.  1.
         12    1    3    3    0    0  0.93741542715E+01 -0.30322479229E+02  0.13859354968E+01  0.31768669032E+02  0.00000000000E+00 0. -1.
</event>
<event>
 7    1  0.2395003E-008  0.4614232E+02  0.7816164E-02  0.1320468E+00
        -11   -1    0    0    0    0  0.00000000000E+00  0.00000000000E+00  0.45593999997E+02  0.45594000000E+02  0.51100000000E-03 0. -1.
         11   -1    0    0    0    0 -0.00000000000E+00 -0.00000000000E+00 -0.45593999997E+02  0.45594000000E+02  0.51100000000E-03 0.  1.
    9900012    2    1    2    0    0  0.19437726281E+01 -0.43794777281E+02  0.10361117169E+02  0.46142317431E+02  0.99999969905E+01 0.  0.
         12    1    1    2    0    0 -0.19437726281E+01  0.43794777281E+02 -0.10361117169E+02  0.45045682569E+02  0.00000000000E+00 0. -1.
         11    1    3    3    0    0  0.34399347163E+01 -0.12046573546E+02  0.43333384191E+01  0.13256353464E+02  0.51100000000E-03 0. -1.
        -11    1    3    3    0    0  0.21821407365E+01 -0.78376030270E+01  0.13922845667E+01  0.82539818256E+01  0.51100000000E-03 0.  1.
        -12    1    3    3    0    0 -0.36783028247E+01 -0.23910600708E+02  0.46354941831E+01  0.24631982142E+02  0.00000000000E+00 0.  1.
</event>
<event>
 7    1  0.2395003E-008  0.4614232E+02  0.7816164E-02  0.1320468E+00
        -11   -1    0    0    0    0  0.00000000000E+00  0.00000000000E+00  0.45593999997E+02  0.45594000000E+02  0.51100000000E-03 0.  1.
         11   -1    0    0    0    0 -0.00000000000E+00 -0.00000000000E+00 -0.45593999997E+02  0.45594000000E+02  0.51100000000E-03 0. -1.
    9900012    2    1    2    0    0 -0.16808648266E+02  0.16334652541E+02  0.38467674383E+02  0.46142317603E+02  0.99999985609E+01 0.  0.
         12    1    1    2    0    0  0.16808648266E+02 -0.16334652541E+02 -0.38467674383E+02  0.45045682397E+02  0.00000000000E+00 0. -1.
         11    1    3    3    0    0 -0.29567991139E+01  0.21809063693E+01  0.22187673716E+01  0.42920790419E+01  0.51100000000E-03 0. -1.
        -11    1    3    3    0    0 -0.10047619624E+02  0.66298150375E+01  0.16946057804E+02  0.20786485583E+02  0.51100000000E-03 0.  1.
        -12    1    3    3    0    0 -0.38042295282E+01  0.75239311340E+01  0.19302849207E+02  0.21063752978E+02  0.00000000000E+00 0.  1.
</event>
<event>
 7    1  0.2395003E-008  0.4614232E+02  0.7816164E-02  0.1320468E+00
        -11   -1    0    0    0    0  0.00000000000E+00  0.00000000000E+00  0.45593999997E+02  0.45594000000E+02  0.51100000000E-03 0.  1.
         11   -1    0    0    0    0 -0.00000000000E+00 -0.00000000000E+00 -0.45593999997E+02  0.45594000000E+02  0.51100000000E-03 0. -1.
    9900012    2    1    2    0    0 -0.24252997403E+02 -0.26230488919E+01  0.37868526117E+02  0.46142317201E+02  0.99999948952E+01 0.  0.
         12    1    1    2    0    0  0.24252997403E+02  0.26230488919E+01 -0.37868526117E+02  0.45045682799E+02  0.00000000000E+00 0. -1.
         11    1    3    3    0    0 -0.71149736232E+01 -0.25035081901E+01  0.55337967124E+01  0.93548548482E+01  0.51100000000E-03 0. -1.
        -11    1    3    3    0    0 -0.84991960062E+01 -0.16945970358E+01  0.14140523823E+02  0.16585005460E+02  0.51100000000E-03 0.  1.
        -12    1    3    3    0    0 -0.86388277736E+01  0.15750563339E+01  0.18194205582E+02  0.20202456893E+02  0.00000000000E+00 0.  1.
</event>
<event>
 7    1  0.2395003E-008  0.4614232E+02  0.7816164E-02  0.1320468E+00
        -11   -1    0    0    0    0  0.00000000000E+00  0.00000000000E+00  0.45593999997E+02  0.45594000000E+02  0.51100000000E-03 0.  1.
         11   -1    0    0    0    0 -0.00000000000E+00 -0.00000000000E+00 -0.45593999997E+02  0.45594000000E+02  0.51100000000E-03 0. -1.
    9900012    2    1    2    0    0 -0.44616181987E+02  0.11829674705E+01  0.60918327730E+01  0.46142317258E+02  0.99999954116E+01 0.  0.
         12    1    1    2    0    0  0.44616181987E+02 -0.11829674705E+01 -0.60918327730E+01  0.45045682742E+02  0.00000000000E+00 0. -1.
         11    1    3    3    0    0 -0.39275288868E+01 -0.18104800398E+01  0.26962372465E+01  0.50963728947E+01  0.51100000000E-03 0. -1.
        -11    1    3    3    0    0 -0.13045336462E+02 -0.40778585857E+00  0.90570114572E+00  0.13083095488E+02  0.51100000000E-03 0.  1.
        -12    1    3    3    0    0 -0.27643316638E+02  0.34012333689E+01  0.24898943808E+01  0.27962848875E+02  0.00000000000E+00 0.  1.
</event>
<event>
 7    1  0.2395003E-008  0.4614232E+02  0.7816164E-02  0.1320468E+00
        -11   -1    0    0    0    0  0.00000000000E+00  0.00000000000E+00  0.45593999997E+02  0.45594000000E+02  0.51100000000E-03 0.  1.
         11   -1    0    0    0    0 -0.00000000000E+00 -0.00000000000E+00 -0.45593999997E+02  0.45594000000E+02  0.51100000000E-03 0. -1.
    9900012    2    1    2    0    0  0.29627541319E+02 -0.33707529181E+02 -0.38890664035E+01  0.46142316904E+02  0.99999921861E+01 0.  0.
         12    1    1    2    0    0 -0.29627541319E+02  0.33707529181E+02  0.38890664035E+01  0.45045683096E+02  0.00000000000E+00 0. -1.
         11    1    3    3    0    0  0.12816267504E+02 -0.15297817542E+02 -0.88590265831E-01  0.19957148663E+02  0.51100000000E-03 0.  1.
        -11    1    3    3    0    0  0.14189007492E+01 -0.49172956252E+01 -0.24439355232E+01  0.56714986295E+01  0.51100000000E-03 0. -1.
         12    1    3    3    0    0  0.15392373066E+02 -0.13492416014E+02 -0.13565406146E+01  0.20513669611E+02  0.00000000000E+00 0. -1.
</event>
<event>
 7    1  0.2395003E-008  0.4614232E+02  0.7816164E-02  0.1320468E+00
        -11   -1    0    0    0    0  0.00000000000E+00  0.00000000000E+00  0.45593999997E+02  0.45594000000E+02  0.51100000000E-03 0.  1.
         11   -1    0    0    0    0 -0.00000000000E+00 -0.00000000000E+00 -0.45593999997E+02  0.45594000000E+02  0.51100000000E-03 0. -1.
    9900012    2    1    2    0    0 -0.21124232400E+02  0.29993160551E+02  0.26139827216E+02  0.46142318285E+02  0.10000004776E+02 0.  0.
         12    1    1    2    0    0  0.21124232400E+02 -0.29993160551E+02 -0.26139827216E+02  0.45045681715E+02  0.00000000000E+00 0. -1.
         11    1    3    3    0    0 -0.53854629779E+01  0.55885758185E+01  0.77770728581E+01  0.10987185885E+02  0.51100000000E-03 0.  1.
        -11    1    3    3    0    0 -0.14835975582E+02  0.23254692987E+02  0.19066771932E+02  0.33532502286E+02  0.51100000000E-03 0. -1.
         12    1    3    3    0    0 -0.90279384012E+00  0.11498917451E+01 -0.70401757391E+00  0.16226301142E+01  0.00000000000E+00 0. -1.
</event>
<event>
 7    1  0.2395003E-008  0.4614232E+02  0.7816164E-02  0.1320468E+00
        -11   -1    0    0    0    0  0.00000000000E+00  0.00000000000E+00  0.45593999997E+02  0.45594000000E+02  0.51100000000E-03 0.  1.
         11   -1    0    0    0    0 -0.00000000000E+00 -0.00000000000E+00 -0.45593999997E+02  0.45594000000E+02  0.51100000000E-03 0. -1.
    9900012    2    1    2    0    0  0.14948011473E+02  0.34515447285E+02  0.24786174191E+02  0.46142316751E+02  0.99999907915E+01 0.  0.
         12    1    1    2    0    0 -0.14948011473E+02 -0.34515447285E+02 -0.24786174191E+02  0.45045683249E+02  0.00000000000E+00 0. -1.
         11    1    3    3    0    0  0.12151507836E+02  0.25510053079E+02  0.22835741674E+02  0.36330332353E+02  0.51100000000E-03 0. -1.
        -11    1    3    3    0    0  0.14046955943E+01  0.19650577603E+01  0.19206813805E+00  0.24231203323E+01  0.51100000000E-03 0.  1.
         12    1    3    3    0    0  0.13918080428E+01  0.70403364461E+01  0.17583643790E+01  0.73888640664E+01  0.00000000000E+00 0. -1.
</event>
<event>
 7    1  0.2395003E-008  0.4614232E+02  0.7816164E-02  0.1320468E+00
        -11   -1    0    0    0    0  0.00000000000E+00  0.00000000000E+00  0.45593999997E+02  0.45594000000E+02  0.51100000000E-03 0.  1.
         11   -1    0    0    0    0 -0.00000000000E+00 -0.00000000000E+00 -0.45593999997E+02  0.45594000000E+02  0.51100000000E-03 0. -1.
    9900012    2    1    2    0    0 -0.18201665986E+02  0.19156523682E+02  0.36480685396E+02  0.46142318174E+02  0.10000003765E+02 0.  0.
         12    1    1    2    0    0  0.18201665986E+02 -0.19156523682E+02 -0.36480685396E+02  0.45045681826E+02  0.00000000000E+00 0. -1.
         11    1    3    3    0    0  0.52268937336E+00 -0.59190410082E-01  0.23851057199E+01  0.24424244598E+01  0.51100000000E-03 0. -1.
        -11    1    3    3    0    0 -0.47777849198E+00  0.74120776519E+00  0.51313217483E-01  0.88334282472E+00  0.51100000000E-03 0.  1.
        -12    1    3    3    0    0 -0.18246576867E+02  0.18474506326E+02  0.34044266458E+02  0.42816550889E+02  0.00000000000E+00 0.  1.
</event>
<event>
 7    1  0.2395003E-008  0.4614232E+02  0.7816164E-02  0.1320468E+00
        -11   -1    0    0    0    0  0.00000000000E+00  0.00000000000E+00  0.45593999997E+02  0.45594000000E+02  0.51100000000E-03 0.  1.
         11   -1    0    0    0    0 -0.00000000000E+00 -0.00000000000E+00 -0.45593999997E+02  0.45594000000E+02  0.51100000000E-03 0. -1.
    9900012    2    1    2    0    0  0.41684689930E+02  0.16599980089E+02  0.39925798947E+01  0.46142318657E+02  0.10000008165E+02 0.  0.
         12    1    1    2    0    0 -0.41684689930E+02 -0.16599980089E+02 -0.39925798947E+01  0.45045681343E+02  0.00000000000E+00 0. -1.
         11    1    3    3    0    0  0.28209697974E+02  0.13229640110E+02  0.38666602814E+01  0.31396839000E+02  0.51100000000E-03 0. -1.
        -11    1    3    3    0    0  0.91522210721E+01  0.38466350071E+01  0.17923162845E+01  0.10088218344E+02  0.51100000000E-03 0.  1.
         12    1    3    3    0    0  0.43227708834E+01 -0.47629502804E+00 -0.16663966712E+01  0.46572613121E+01  0.00000000000E+00 0. -1.
</event>
<event>
 7    1  0.2395003E-008  0.4614231E+02  0.7816164E-02  0.1320468E+00
        -11   -1    0    0    0    0  0.00000000000E+00  0.00000000000E+00  0.45593999997E+02  0.45594000000E+02  0.51100000000E-03 0.  1.
         11   -1    0    0    0    0 -0.00000000000E+00 -0.00000000000E+00 -0.45593999997E+02  0.45594000000E+02  0.51100000000E-03 0. -1.
    9900012    2    1    2    0    0 -0.24813289658E+02 -0.34877202579E+01  0.37433280322E+02  0.46142311950E+02  0.99999470089E+01 0.  0.
         12    1    1    2    0    0  0.24813289658E+02  0.34877202579E+01 -0.37433280322E+02  0.45045688050E+02  0.00000000000E+00 0. -1.
         11    1    3    3    0    0 -0.56349579644E+01  0.41288088816E+00  0.11284631708E+02  0.12620068737E+02  0.51100000000E-03 0. -1.
        -11    1    3    3    0    0 -0.61799520953E+01  0.17854624260E+01  0.54672699263E+01  0.84421990431E+01  0.51100000000E-03 0.  1.
        -12    1    3    3    0    0 -0.12998379599E+02 -0.56860635721E+01  0.20681378688E+02  0.25080044170E+02  0.00000000000E+00 0.  1.
</event>
<event>
 7    1  0.2395003E-008  0.4614232E+02  0.7816164E-02  0.1320468E+00
        -11   -1    0    0    0    0  0.00000000000E+00  0.00000000000E+00  0.45593999997E+02  0.45594000000E+02  0.51100000000E-03 0. -1.
         11   -1    0    0    0    0 -0.00000000000E+00 -0.00000000000E+00 -0.45593999997E+02  0.45594000000E+02  0.51100000000E-03 0.  1.
    9900012    2    1    2    0    0  0.33116478200E+02 -0.12543886895E+02 -0.27839958503E+02  0.46142317451E+02  0.99999971761E+01 0.  0.
         12    1    1    2    0    0 -0.33116478200E+02  0.12543886895E+02  0.27839958503E+02  0.45045682549E+02  0.00000000000E+00 0. -1.
         11    1    3    3    0    0  0.40434357201E+01 -0.30772050287E+01 -0.66601226730E+01  0.83770995871E+01  0.51100000000E-03 0. -1.
        -11    1    3    3    0    0  0.26147728749E+02 -0.10449726429E+02 -0.18648171175E+02  0.33773581238E+02  0.51100000000E-03 0.  1.
        -12    1    3    3    0    0  0.29253137303E+01  0.98304456223E+00 -0.25316646554E+01  0.39916366266E+01  0.00000000000E+00 0.  1.
</event>
<event>
 7    1  0.2395003E-008  0.4614232E+02  0.7816164E-02  0.1320468E+00
        -11   -1    0    0    0    0  0.00000000000E+00  0.00000000000E+00  0.45593999997E+02  0.45594000000E+02  0.51100000000E-03 0.  1.
         11   -1    0    0    0    0 -0.00000000000E+00 -0.00000000000E+00 -0.45593999997E+02  0.45594000000E+02  0.51100000000E-03 0. -1.
    9900012    2    1    2    0    0  0.18223148047E+02 -0.77762231738E+01  0.40454428085E+02  0.46142317374E+02  0.99999964691E+01 0.  0.
         12    1    1    2    0    0 -0.18223148047E+02  0.77762231738E+01 -0.40454428085E+02  0.45045682626E+02  0.00000000000E+00 0. -1.
         11    1    3    3    0    0  0.12146561161E+02 -0.80018173450E+01  0.23392835346E+02  0.27546193470E+02  0.51100000000E-03 0. -1.
        -11    1    3    3    0    0  0.47926476191E+01 -0.16975505342E+01  0.11816675721E+02  0.12864096330E+02  0.51100000000E-03 0.  1.
         12    1    3    3    0    0  0.12839392662E+01  0.19231447053E+01  0.52449170169E+01  0.57320275742E+01  0.00000000000E+00 0. -1.
</event>
<event>
 7    1  0.2395003E-008  0.4614232E+02  0.7816164E-02  0.1320468E+00
        -11   -1    0    0    0    0  0.00000000000E+00  0.00000000000E+00  0.45593999997E+02  0.45594000000E+02  0.51100000000E-03 0.  1.
         11   -1    0    0    0    0 -0.00000000000E+00 -0.00000000000E+00 -0.45593999997E+02  0.45594000000E+02  0.51100000000E-03 0. -1.
    9900012    2    1    2    0    0 -0.20676914109E+02 -0.36693770005E+02  0.15973285999E+02  0.46142318744E+02  0.10000008962E+02 0.  0.
         12    1    1    2    0    0  0.20676914109E+02  0.36693770005E+02 -0.15973285999E+02  0.45045681256E+02  0.00000000000E+00 0. -1.
         11    1    3    3    0    0 -0.63155392548E+01 -0.67129648644E+01  0.51186588708E+01  0.10542798596E+02  0.51100000000E-03 0.  1.
        -11    1    3    3    0    0 -0.37881670489E+01 -0.14245396104E+02  0.67008112956E+01  0.16192047185E+02  0.51100000000E-03 0. -1.
         12    1    3    3    0    0 -0.10573207805E+02 -0.15735409036E+02  0.41538158327E+01  0.19407472962E+02  0.00000000000E+00 0. -1.
</event>
<event>
 7    1  0.2395003E-008  0.4614232E+02  0.7816164E-02  0.1320468E+00
        -11   -1    0    0    0    0  0.00000000000E+00  0.00000000000E+00  0.45593999997E+02  0.45594000000E+02  0.51100000000E-03 0.  1.
         11   -1    0    0    0    0 -0.00000000000E+00 -0.00000000000E+00 -0.45593999997E+02  0.45594000000E+02  0.51100000000E-03 0. -1.
    9900012    2    1    2    0    0  0.24402481219E+02  0.37063697023E+02 -0.77404610783E+01  0.46142318028E+02  0.10000002433E+02 0.  0.
         12    1    1    2    0    0 -0.24402481219E+02 -0.37063697023E+02  0.77404610783E+01  0.45045681972E+02  0.00000000000E+00 0. -1.
         11    1    3    3    0    0  0.11189970088E+01  0.19332981207E+01  0.78999387771E+00  0.23693641588E+01  0.51100000000E-03 0. -1.
        -11    1    3    3    0    0  0.19552976130E+02  0.29157522709E+02 -0.38497766030E+01  0.35317145782E+02  0.51100000000E-03 0.  1.
        -12    1    3    3    0    0  0.37305080802E+01  0.59728761931E+01 -0.46806783531E+01  0.84558080867E+01  0.00000000000E+00 0.  1.
</event>
<event>
 7    1  0.2395003E-008  0.4614231E+02  0.7816164E-02  0.1320468E+00
        -11   -1    0    0    0    0  0.00000000000E+00  0.00000000000E+00  0.45593999997E+02  0.45594000000E+02  0.51100000000E-03 0.  1.
         11   -1    0    0    0    0 -0.00000000000E+00 -0.00000000000E+00 -0.45593999997E+02  0.45594000000E+02  0.51100000000E-03 0. -1.
    9900012    2    1    2    0    0  0.15318976218E+02 -0.17423032472E+02  0.38611935073E+02  0.46142305167E+02  0.99998851558E+01 0.  0.
         12    1    1    2    0    0 -0.15318976218E+02  0.17423032472E+02 -0.38611935073E+02  0.45045694833E+02  0.00000000000E+00 0. -1.
         11    1    3    3    0    0  0.20504432294E+01 -0.14151767643E+01  0.11007934575E+01  0.27237454375E+01  0.51100000000E-03 0. -1.
        -11    1    3    3    0    0  0.87845996669E+01 -0.13933884053E+02  0.32177089233E+02  0.36148131181E+02  0.51100000000E-03 0.  1.
         12    1    3    3    0    0  0.44839333213E+01 -0.20739716553E+01  0.53340523826E+01  0.72704285483E+01  0.00000000000E+00 0. -1.
</event>
<event>
 7    1  0.2395003E-008  0.4614232E+02  0.7816164E-02  0.1320468E+00
        -11   -1    0    0    0    0  0.00000000000E+00  0.00000000000E+00  0.45593999997E+02  0.45594000000E+02  0.51100000000E-03 0. -1.
         11   -1    0    0    0    0 -0.00000000000E+00 -0.00000000000E+00 -0.45593999997E+02  0.45594000000E+02  0.51100000000E-03 0.  1.
    9900012    2    1    2    0    0  0.33151674299E+02 -0.14461011939E+02 -0.26850679903E+02  0.46142318894E+02  0.10000010326E+02 0.  0.
         12    1    1    2    0    0 -0.33151674299E+02  0.14461011939E+02  0.26850679903E+02  0.45045681106E+02  0.00000000000E+00 0. -1.
         11    1    3    3    0    0  0.21852874661E+02 -0.11433948558E+02 -0.17887450735E+02  0.30467100365E+02  0.51100000000E-03 0. -1.
        -11    1    3    3    0    0  0.10211423938E+02 -0.43174316855E+01 -0.71189782411E+01  0.13175478992E+02  0.51100000000E-03 0.  1.
         12    1    3    3    0    0  0.10873756993E+01  0.12903683043E+01 -0.18442509260E+01  0.24997395365E+01  0.00000000000E+00 0. -1.
</event>
<event>
 7    1  0.2395003E-008  0.4614232E+02  0.7816164E-02  0.1320468E+00
        -11   -1    0    0    0    0  0.00000000000E+00  0.00000000000E+00  0.45593999997E+02  0.45594000000E+02  0.51100000000E-03 0.  1.
         11   -1    0    0    0    0 -0.00000000000E+00 -0.00000000000E+00 -0.45593999997E+02  0.45594000000E+02  0.51100000000E-03 0. -1.
    9900012    2    1    2    0    0 -0.90888731883E+00  0.44426092318E+02  0.73898420042E+01  0.46142317413E+02  0.99999968290E+01 0.  0.
         12    1    1    2    0    0  0.90888731883E+00 -0.44426092318E+02 -0.73898420042E+01  0.45045682587E+02  0.00000000000E+00 0. -1.
         11    1    3    3    0    0  0.37414592711E+01  0.12615974930E+02  0.47353106162E+00  0.13167595560E+02  0.51100000000E-03 0. -1.
        -11    1    3    3    0    0 -0.24705715980E+01  0.15328293873E+02  0.21117906998E+01  0.15669077104E+02  0.51100000000E-03 0.  1.
         12    1    3    3    0    0 -0.21797749918E+01  0.16481823516E+02  0.48045202427E+01  0.17305644749E+02  0.00000000000E+00 0. -1.
</event>
<event>
 7    1  0.2395003E-008  0.4614232E+02  0.7816164E-02  0.1320468E+00
        -11   -1    0    0    0    0  0.00000000000E+00  0.00000000000E+00  0.45593999997E+02  0.45594000000E+02  0.51100000000E-03 0.  1.
         11   -1    0    0    0    0 -0.00000000000E+00 -0.00000000000E+00 -0.45593999997E+02  0.45594000000E+02  0.51100000000E-03 0. -1.
    9900012    2    1    2    0    0 -0.23071290639E+02  0.27483929651E+02  0.27229814569E+02  0.46142316053E+02  0.99999844224E+01 0.  0.
         12    1    1    2    0    0  0.23071290639E+02 -0.27483929651E+02 -0.27229814569E+02  0.45045683947E+02  0.00000000000E+00 0. -1.
         11    1    3    3    0    0 -0.97104438881E+01  0.13919191104E+02  0.10540370713E+02  0.19978388737E+02  0.51100000000E-03 0. -1.
        -11    1    3    3    0    0 -0.13434078089E+02  0.13523331659E+02  0.14442180956E+02  0.23915090305E+02  0.51100000000E-03 0.  1.
         12    1    3    3    0    0  0.73231338539E-01  0.41406887991E-01  0.22472629005E+01  0.22488370113E+01  0.00000000000E+00 0. -1.
</event>
<event>
 7    1  0.2395003E-008  0.4614232E+02  0.7816164E-02  0.1320468E+00
        -11   -1    0    0    0    0  0.00000000000E+00  0.00000000000E+00  0.45593999997E+02  0.45594000000E+02  0.51100000000E-03 0.  1.
         11   -1    0    0    0    0 -0.00000000000E+00 -0.00000000000E+00 -0.45593999997E+02  0.45594000000E+02  0.51100000000E-03 0. -1.
    9900012    2    1    2    0    0 -0.83456258018E+01  0.30464571919E+02  0.32115010612E+02  0.46142317423E+02  0.99999969178E+01 0.  0.
         12    1    1    2    0    0  0.83456258018E+01 -0.30464571919E+02 -0.32115010612E+02  0.45045682577E+02  0.00000000000E+00 0. -1.
         11    1    3    3    0    0 -0.72967427403E+00  0.32507645134E+00  0.30807797544E+01  0.31826566579E+01  0.51100000000E-03 0. -1.
        -11    1    3    3    0    0  0.93121006679E+00  0.43830143709E+01  0.49394837302E+01  0.66690679219E+01  0.51100000000E-03 0.  1.
         12    1    3    3    0    0 -0.85471615946E+01  0.25756481097E+02  0.24094747127E+02  0.36290592843E+02  0.00000000000E+00 0. -1.
</event>
<event>
 7    1  0.2395003E-008  0.4614232E+02  0.7816164E-02  0.1320468E+00
        -11   -1    0    0    0    0  0.00000000000E+00  0.00000000000E+00  0.45593999997E+02  0.45594000000E+02  0.51100000000E-03 0. -1.
         11   -1    0    0    0    0 -0.00000000000E+00 -0.00000000000E+00 -0.45593999997E+02  0.45594000000E+02  0.51100000000E-03 0.  1.
    9900012    2    1    2    0    0  0.98839101946E+01  0.43056084501E+02  0.88088277307E+01  0.46142317196E+02  0.99999948457E+01 0.  0.
         12    1    1    2    0    0 -0.98839101946E+01 -0.43056084501E+02 -0.88088277307E+01  0.45045682804E+02  0.00000000000E+00 0. -1.
         11    1    3    3    0    0  0.59207571969E+01  0.24672366868E+02  0.75273457660E+01  0.26465864565E+02  0.51100000000E-03 0. -1.
        -11    1    3    3    0    0  0.47879747786E+01  0.16896201578E+02  0.24536728102E-01  0.17561518515E+02  0.51100000000E-03 0.  1.
         12    1    3    3    0    0 -0.82482178099E+00  0.14875160555E+01  0.12569452366E+01  0.21149341156E+01  0.00000000000E+00 0. -1.
</event>
<event>
 7    1  0.2395003E-008  0.4614232E+02  0.7816164E-02  0.1320468E+00
        -11   -1    0    0    0    0  0.00000000000E+00  0.00000000000E+00  0.45593999997E+02  0.45594000000E+02  0.51100000000E-03 0.  1.
         11   -1    0    0    0    0 -0.00000000000E+00 -0.00000000000E+00 -0.45593999997E+02  0.45594000000E+02  0.51100000000E-03 0. -1.
    9900012    2    1    2    0    0  0.21228673228E+02 -0.20792519168E+02  0.33854512323E+02  0.46142318464E+02  0.10000006412E+02 0.  0.
         12    1    1    2    0    0 -0.21228673228E+02  0.20792519168E+02 -0.33854512323E+02  0.45045681536E+02  0.00000000000E+00 0. -1.
         11    1    3    3    0    0  0.85695655730E+01 -0.55165281141E+01  0.79865236568E+01  0.12948131021E+02  0.51100000000E-03 0. -1.
        -11    1    3    3    0    0  0.46540312636E+01 -0.10364542382E+02  0.15281170555E+02  0.19042004085E+02  0.51100000000E-03 0.  1.
        -12    1    3    3    0    0  0.80050763917E+01 -0.49114486719E+01  0.10586818111E+02  0.14152183359E+02  0.00000000000E+00 0.  1.
</event>
<event>
 7    1  0.2395003E-008  0.4614232E+02  0.7816164E-02  0.1320468E+00
        -11   -1    0    0    0    0  0.00000000000E+00  0.00000000000E+00  0.45593999997E+02  0.45594000000E+02  0.51100000000E-03 0.  1.
         11   -1    0    0    0    0 -0.00000000000E+00 -0.00000000000E+00 -0.45593999997E+02  0.45594000000E+02  0.51100000000E-03 0. -1.
    9900012    2    1    2    0    0 -0.72161893543E+01  0.25575526993E+02  0.36372139301E+02  0.46142317776E+02  0.10000000134E+02 0.  0.
         12    1    1    2    0    0  0.72161893543E+01 -0.25575526993E+02 -0.36372139301E+02  0.45045682224E+02  0.00000000000E+00 0. -1.
         11    1    3    3    0    0 -0.57527830214E+00  0.11652932945E+02  0.16258632902E+02  0.20011620011E+02  0.51100000000E-03 0. -1.
        -11    1    3    3    0    0 -0.33551143290E+01  0.99182561532E+01  0.17337548267E+02  0.20253868210E+02  0.51100000000E-03 0.  1.
         12    1    3    3    0    0 -0.32857967231E+01  0.40043378941E+01  0.27759581320E+01  0.58768295557E+01  0.00000000000E+00 0. -1.
</event>
<event>
 7    1  0.2395003E-008  0.4614232E+02  0.7816164E-02  0.1320468E+00
        -11   -1    0    0    0    0  0.00000000000E+00  0.00000000000E+00  0.45593999997E+02  0.45594000000E+02  0.51100000000E-03 0.  1.
         11   -1    0    0    0    0 -0.00000000000E+00 -0.00000000000E+00 -0.45593999997E+02  0.45594000000E+02  0.51100000000E-03 0. -1.
    9900012    2    1    2    0    0  0.30079586768E+02 -0.72435776913E+01  0.32739313225E+02  0.46142316651E+02  0.99999898775E+01 0.  0.
         12    1    1    2    0    0 -0.30079586768E+02  0.72435776913E+01 -0.32739313225E+02  0.45045683349E+02  0.00000000000E+00 0. -1.
         11    1    3    3    0    0  0.68656952150E+01 -0.51737707658E+01  0.86904251428E+01  0.12224122224E+02  0.51100000000E-03 0. -1.
        -11    1    3    3    0    0  0.18812156232E+02 -0.28717254144E+01  0.16721677021E+02  0.25332953077E+02  0.51100000000E-03 0.  1.
         12    1    3    3    0    0  0.44017353215E+01  0.80191848888E+00  0.73272110609E+01  0.85852413498E+01  0.00000000000E+00 0. -1.
</event>
<event>
 7    1  0.2395003E-008  0.4614232E+02  0.7816164E-02  0.1320468E+00
        -11   -1    0    0    0    0  0.00000000000E+00  0.00000000000E+00  0.45593999997E+02  0.45594000000E+02  0.51100000000E-03 0. -1.
         11   -1    0    0    0    0 -0.00000000000E+00 -0.00000000000E+00 -0.45593999997E+02  0.45594000000E+02  0.51100000000E-03 0.  1.
    9900012    2    1    2    0    0  0.47654520406E+01 -0.15274324020E+02 -0.42108182581E+02  0.46142317102E+02  0.99999939906E+01 0.  0.
         12    1    1    2    0    0 -0.47654520406E+01  0.15274324020E+02  0.42108182581E+02  0.45045682898E+02  0.00000000000E+00 0. -1.
         11    1    3    3    0    0 -0.20669793528E-01  0.57422303094E+00 -0.16057263661E+01  0.17054374083E+01  0.51100000000E-03 0. -1.
        -11    1    3    3    0    0 -0.18105992409E+01 -0.67740318755E+01 -0.17202625273E+02  0.18576762205E+02  0.51100000000E-03 0.  1.
         12    1    3    3    0    0  0.65967210750E+01 -0.90745151759E+01 -0.23299830942E+02  0.25860117489E+02  0.00000000000E+00 0. -1.
</event>
<event>
 7    1  0.2395003E-008  0.4614232E+02  0.7816164E-02  0.1320468E+00
        -11   -1    0    0    0    0  0.00000000000E+00  0.00000000000E+00  0.45593999997E+02  0.45594000000E+02  0.51100000000E-03 0.  1.
         11   -1    0    0    0    0 -0.00000000000E+00 -0.00000000000E+00 -0.45593999997E+02  0.45594000000E+02  0.51100000000E-03 0. -1.
    9900012    2    1    2    0    0 -0.26743315509E+02  0.15947527908E+02  0.32551266051E+02  0.46142317718E+02  0.99999996028E+01 0.  0.
         12    1    1    2    0    0  0.26743315509E+02 -0.15947527908E+02 -0.32551266051E+02  0.45045682282E+02  0.00000000000E+00 0. -1.
         11    1    3    3    0    0 -0.25337238622E+01  0.58922501836E+01  0.57114488405E+01  0.85883069900E+01  0.51100000000E-03 0. -1.
        -11    1    3    3    0    0 -0.11256616138E+02  0.48589456679E+01  0.13705272254E+02  0.18388998007E+02  0.51100000000E-03 0.  1.
        -12    1    3    3    0    0 -0.12952975509E+02  0.51963320564E+01  0.13134544956E+02  0.19165012720E+02  0.00000000000E+00 0.  1.
</event>
<event>
 7    1  0.2395003E-008  0.4614232E+02  0.7816164E-02  0.1320468E+00
        -11   -1    0    0    0    0  0.00000000000E+00  0.00000000000E+00  0.45593999997E+02  0.45594000000E+02  0.51100000000E-03 0.  1.
         11   -1    0    0    0    0 -0.00000000000E+00 -0.00000000000E+00 -0.45593999997E+02  0.45594000000E+02  0.51100000000E-03 0. -1.
    9900012    2    1    2    0    0  0.93790268834E+00 -0.17443164600E+02  0.41520715590E+02  0.46142317901E+02  0.10000001273E+02 0.  0.
         12    1    1    2    0    0 -0.93790268834E+00  0.17443164600E+02 -0.41520715590E+02  0.45045682099E+02  0.00000000000E+00 0. -1.
         11    1    3    3    0    0 -0.21656938327E+01 -0.14572497036E+01  0.53504137308E+01  0.59532120597E+01  0.51100000000E-03 0. -1.
        -11    1    3    3    0    0 -0.29750577764E+00 -0.10854287895E+02  0.18194435830E+02  0.21188241334E+02  0.51100000000E-03 0.  1.
         12    1    3    3    0    0  0.34011022987E+01 -0.51316270011E+01  0.17975866029E+02  0.19000864507E+02  0.00000000000E+00 0. -1.
</event>
<event>
 7    1  0.2395003E-008  0.4614232E+02  0.7816164E-02  0.1320468E+00
        -11   -1    0    0    0    0  0.00000000000E+00  0.00000000000E+00  0.45593999997E+02  0.45594000000E+02  0.51100000000E-03 0.  1.
         11   -1    0    0    0    0 -0.00000000000E+00 -0.00000000000E+00 -0.45593999997E+02  0.45594000000E+02  0.51100000000E-03 0. -1.
    9900012    2    1    2    0    0  0.42609757541E+02 -0.14003023436E+02  0.41758042043E+01  0.46142318256E+02  0.10000004509E+02 0.  0.
         12    1    1    2    0    0 -0.42609757541E+02  0.14003023436E+02 -0.41758042043E+01  0.45045681744E+02  0.00000000000E+00 0. -1.
         11    1    3    3    0    0  0.85813002960E+00 -0.14265749545E+01 -0.89259681727E-01  0.16671744961E+01  0.51100000000E-03 0. -1.
        -11    1    3    3    0    0  0.55015360425E+00 -0.15114569190E+01  0.18525519184E+00  0.16191018355E+01  0.51100000000E-03 0.  1.
        -12    1    3    3    0    0  0.41201473907E+02 -0.11064991562E+02  0.40798086942E+01  0.42856041924E+02  0.00000000000E+00 0.  1.
</event>
<event>
 7    1  0.2395003E-008  0.4614232E+02  0.7816164E-02  0.1320468E+00
        -11   -1    0    0    0    0  0.00000000000E+00  0.00000000000E+00  0.45593999997E+02  0.45594000000E+02  0.51100000000E-03 0.  1.
         11   -1    0    0    0    0 -0.00000000000E+00 -0.00000000000E+00 -0.45593999997E+02  0.45594000000E+02  0.51100000000E-03 0. -1.
    9900012    2    1    2    0    0  0.44513936234E+02  0.51504775337E+01  0.45929582065E+01  0.46142320929E+02  0.10000028884E+02 0.  0.
         12    1    1    2    0    0 -0.44513936234E+02 -0.51504775337E+01 -0.45929582065E+01  0.45045679071E+02  0.00000000000E+00 0. -1.
         11    1    3    3    0    0  0.22478928363E+02  0.28894761162E+01  0.19203914321E+01  0.22745091692E+02  0.51100000000E-03 0.  1.
        -11    1    3    3    0    0  0.19722070502E+02  0.12363740856E+01  0.45121045405E+01  0.20269380193E+02  0.51100000000E-03 0. -1.
         12    1    3    3    0    0  0.23129373691E+01  0.10246273319E+01 -0.18395377661E+01  0.31278490430E+01  0.00000000000E+00 0. -1.
</event>
<event>
 7    1  0.2395003E-008  0.4614232E+02  0.7816164E-02  0.1320468E+00
        -11   -1    0    0    0    0  0.00000000000E+00  0.00000000000E+00  0.45593999997E+02  0.45594000000E+02  0.51100000000E-03 0.  1.
         11   -1    0    0    0    0 -0.00000000000E+00 -0.00000000000E+00 -0.45593999997E+02  0.45594000000E+02  0.51100000000E-03 0. -1.
    9900012    2    1    2    0    0 -0.35358828309E+02  0.94924476888E+01  0.26244241069E+02  0.46142317723E+02  0.99999996569E+01 0.  0.
         12    1    1    2    0    0  0.35358828309E+02 -0.94924476888E+01 -0.26244241069E+02  0.45045682277E+02  0.00000000000E+00 0. -1.
         11    1    3    3    0    0 -0.13265672185E+02  0.25633137775E+01  0.59554548391E+01  0.14765367541E+02  0.51100000000E-03 0. -1.
        -11    1    3    3    0    0 -0.69620517345E+01 -0.44858684912E+00  0.45321938743E+01  0.83193855596E+01  0.51100000000E-03 0.  1.
        -12    1    3    3    0    0 -0.15131104390E+02  0.73777207605E+01  0.15756592355E+02  0.23057564622E+02  0.00000000000E+00 0.  1.
</event>
<event>
 7    1  0.2395003E-008  0.4614232E+02  0.7816164E-02  0.1320468E+00
        -11   -1    0    0    0    0  0.00000000000E+00  0.00000000000E+00  0.45593999997E+02  0.45594000000E+02  0.51100000000E-03 0.  1.
         11   -1    0    0    0    0 -0.00000000000E+00 -0.00000000000E+00 -0.45593999997E+02  0.45594000000E+02  0.51100000000E-03 0. -1.
    9900012    2    1    2    0    0  0.43992280912E+00  0.60963824371E+01  0.44629070922E+02  0.46142318939E+02  0.10000010744E+02 0.  0.
         12    1    1    2    0    0 -0.43992280912E+00 -0.60963824371E+01 -0.44629070922E+02  0.45045681061E+02  0.00000000000E+00 0. -1.
         11    1    3    3    0    0 -0.55270372674E+00  0.46464271207E+01  0.88154831607E+01  0.99803562068E+01  0.51100000000E-03 0. -1.
        -11    1    3    3    0    0  0.47659135718E+00  0.31677881298E+01  0.24051965656E+02  0.24264358082E+02  0.51100000000E-03 0.  1.
         12    1    3    3    0    0  0.51603517868E+00 -0.17178328134E+01  0.11761622105E+02  0.11897604651E+02  0.00000000000E+00 0. -1.
</event>
<event>
 7    1  0.2395003E-008  0.4614232E+02  0.7816164E-02  0.1320468E+00
        -11   -1    0    0    0    0  0.00000000000E+00  0.00000000000E+00  0.45593999997E+02  0.45594000000E+02  0.51100000000E-03 0.  1.
         11   -1    0    0    0    0 -0.00000000000E+00 -0.00000000000E+00 -0.45593999997E+02  0.45594000000E+02  0.51100000000E-03 0. -1.
    9900012    2    1    2    0    0  0.47968285250E+01 -0.20704299650E+02  0.39716947220E+02  0.46142317805E+02  0.10000000402E+02 0.  0.
         12    1    1    2    0    0 -0.47968285250E+01  0.20704299650E+02 -0.39716947220E+02  0.45045682195E+02  0.00000000000E+00 0. -1.
         11    1    3    3    0    0  0.41552221363E+01 -0.42671543078E+01  0.97915878229E+01  0.11460788334E+02  0.51100000000E-03 0. -1.
        -11    1    3    3    0    0 -0.77853906178E+00 -0.31546814209E+01  0.22539502381E+01  0.39545454701E+01  0.51100000000E-03 0.  1.
        -12    1    3    3    0    0  0.14201454506E+01 -0.13282463921E+02  0.27671409159E+02  0.30726984001E+02  0.00000000000E+00 0.  1.
</event>
<event>
 7    1  0.2395003E-008  0.4614232E+02  0.7816164E-02  0.1320468E+00
        -11   -1    0    0    0    0  0.00000000000E+00  0.00000000000E+00  0.45593999997E+02  0.45594000000E+02  0.51100000000E-03 0. -1.
         11   -1    0    0    0    0 -0.00000000000E+00 -0.00000000000E+00 -0.45593999997E+02  0.45594000000E+02  0.51100000000E-03 0.  1.
    9900012    2    1    2    0    0 -0.84970241828E+01 -0.23682776423E+02 -0.37363620942E+02  0.46142317755E+02  0.99999999436E+01 0.  0.
         12    1    1    2    0    0  0.84970241828E+01  0.23682776423E+02  0.37363620942E+02  0.45045682245E+02  0.00000000000E+00 0. -1.
         11    1    3    3    0    0 -0.24346222719E+01 -0.23573160312E+01 -0.41016007744E+01  0.53204749460E+01  0.51100000000E-03 0. -1.
        -11    1    3    3    0    0 -0.79516612343E+01 -0.19196268278E+02 -0.28426164761E+02  0.35210402944E+02  0.51100000000E-03 0.  1.
         12    1    3    3    0    0  0.18892593235E+01 -0.21291921131E+01 -0.48358554064E+01  0.56114398649E+01  0.00000000000E+00 0. -1.
</event>
<event>
 7    1  0.2395003E-008  0.4614232E+02  0.7816164E-02  0.1320468E+00
        -11   -1    0    0    0    0  0.00000000000E+00  0.00000000000E+00  0.45593999997E+02  0.45594000000E+02  0.51100000000E-03 0. -1.
         11   -1    0    0    0    0 -0.00000000000E+00 -0.00000000000E+00 -0.45593999997E+02  0.45594000000E+02  0.51100000000E-03 0.  1.
    9900012    2    1    2    0    0 -0.35956884301E+02  0.14889901352E+02 -0.22682741715E+02  0.46142318047E+02  0.10000002604E+02 0.  0.
         12    1    1    2    0    0  0.35956884301E+02 -0.14889901352E+02  0.22682741715E+02  0.45045681953E+02  0.00000000000E+00 0. -1.
         11    1    3    3    0    0 -0.45739722088E+01  0.98685828022E+00 -0.21367928570E+01  0.51440251756E+01  0.51100000000E-03 0. -1.
        -11    1    3    3    0    0 -0.20556238998E+02  0.43091117194E+01 -0.12634815475E+02  0.24510527695E+02  0.51100000000E-03 0.  1.
         12    1    3    3    0    0 -0.10826673095E+02  0.95939313526E+01 -0.79111333830E+01  0.16487765176E+02  0.00000000000E+00 0. -1.
</event>
<event>
 7    1  0.2395003E-008  0.4614232E+02  0.7816164E-02  0.1320468E+00
        -11   -1    0    0    0    0  0.00000000000E+00  0.00000000000E+00  0.45593999997E+02  0.45594000000E+02  0.51100000000E-03 0.  1.
         11   -1    0    0    0    0 -0.00000000000E+00 -0.00000000000E+00 -0.45593999997E+02  0.45594000000E+02  0.51100000000E-03 0. -1.
    9900012    2    1    2    0    0  0.81838604641E+01 -0.37176273346E+02  0.24084478049E+02  0.46142323683E+02  0.10000053998E+02 0.  0.
         12    1    1    2    0    0 -0.81838604641E+01  0.37176273346E+02 -0.24084478049E+02  0.45045676317E+02  0.00000000000E+00 0. -1.
         11    1    3    3    0    0  0.29897321476E+01 -0.10236944689E+02  0.32471987486E+01  0.11147996898E+02  0.51100000000E-03 0. -1.
        -11    1    3    3    0    0 -0.31276463268E+00 -0.31937545824E+01  0.49466821762E+01  0.58964018572E+01  0.51100000000E-03 0.  1.
        -12    1    3    3    0    0  0.55068929492E+01 -0.23745574075E+02  0.15890597124E+02  0.29097924927E+02  0.00000000000E+00 0.  1.
</event>
<event>
 7    1  0.2395003E-008  0.4614232E+02  0.7816164E-02  0.1320468E+00
        -11   -1    0    0    0    0  0.00000000000E+00  0.00000000000E+00  0.45593999997E+02  0.45594000000E+02  0.51100000000E-03 0.  1.
         11   -1    0    0    0    0 -0.00000000000E+00 -0.00000000000E+00 -0.45593999997E+02  0.45594000000E+02  0.51100000000E-03 0. -1.
    9900012    2    1    2    0    0  0.35570601705E+01 -0.41959924931E+02 -0.15994546615E+02  0.46142317647E+02  0.99999989551E+01 0.  0.
         12    1    1    2    0    0 -0.35570601705E+01  0.41959924931E+02  0.15994546615E+02  0.45045682353E+02  0.00000000000E+00 0. -1.
         11    1    3    3    0    0 -0.46355881688E+00 -0.73871044352E-01 -0.33945424102E+00  0.57928676039E+00  0.51100000000E-03 0. -1.
        -11    1    3    3    0    0  0.23926751267E+01 -0.12830810994E+02 -0.85637817754E+01  0.15610668262E+02  0.51100000000E-03 0.  1.
        -12    1    3    3    0    0  0.16279438606E+01 -0.29055242893E+02 -0.70913105981E+01  0.29952362624E+02  0.00000000000E+00 0.  1.
</event>
<event>
 7    1  0.2395003E-008  0.4614232E+02  0.7816164E-02  0.1320468E+00
        -11   -1    0    0    0    0  0.00000000000E+00  0.00000000000E+00  0.45593999997E+02  0.45594000000E+02  0.51100000000E-03 0.  1.
         11   -1    0    0    0    0 -0.00000000000E+00 -0.00000000000E+00 -0.45593999997E+02  0.45594000000E+02  0.51100000000E-03 0. -1.
    9900012    2    1    2    0    0 -0.25952879190E+02  0.57897581112E+01  0.36359871585E+02  0.46142317644E+02  0.99999989361E+01 0.  0.
         12    1    1    2    0    0  0.25952879190E+02 -0.57897581112E+01 -0.36359871585E+02  0.45045682356E+02  0.00000000000E+00 0. -1.
         11    1    3    3    0    0 -0.90691823015E+01 -0.56840605421E-02  0.13366412470E+02  0.16152742260E+02  0.51100000000E-03 0. -1.
        -11    1    3    3    0    0 -0.17509663264E+02  0.53562497604E+01  0.22714102747E+02  0.29175472284E+02  0.51100000000E-03 0.  1.
         12    1    3    3    0    0  0.62596637629E+00  0.43919241134E+00  0.27935636749E+00  0.81410310065E+00  0.00000000000E+00 0. -1.
</event>
<event>
 7    1  0.2395003E-008  0.4614232E+02  0.7816164E-02  0.1320468E+00
        -11   -1    0    0    0    0  0.00000000000E+00  0.00000000000E+00  0.45593999997E+02  0.45594000000E+02  0.51100000000E-03 0.  1.
         11   -1    0    0    0    0 -0.00000000000E+00 -0.00000000000E+00 -0.45593999997E+02  0.45594000000E+02  0.51100000000E-03 0. -1.
    9900012    2    1    2    0    0 -0.33926577560E+02 -0.20816795984E+02  0.21089374360E+02  0.46142319065E+02  0.10000011890E+02 0.  0.
         12    1    1    2    0    0  0.33926577560E+02  0.20816795984E+02 -0.21089374360E+02  0.45045680935E+02  0.00000000000E+00 0. -1.
         11    1    3    3    0    0 -0.28574414832E+00 -0.73182551455E+00  0.38923598790E+00  0.87676862252E+00  0.51100000000E-03 0. -1.
        -11    1    3    3    0    0 -0.93948787075E+01 -0.93016295831E+01  0.10320794116E+02  0.16772085448E+02  0.51100000000E-03 0.  1.
         12    1    3    3    0    0 -0.24245954704E+02 -0.10783340886E+02  0.10379344256E+02  0.28493464994E+02  0.00000000000E+00 0. -1.
</event>
<event>
 7    1  0.2395003E-008  0.4614232E+02  0.7816164E-02  0.1320468E+00
        -11   -1    0    0    0    0  0.00000000000E+00  0.00000000000E+00  0.45593999997E+02  0.45594000000E+02  0.51100000000E-03 0.  1.
         11   -1    0    0    0    0 -0.00000000000E+00 -0.00000000000E+00 -0.45593999997E+02  0.45594000000E+02  0.51100000000E-03 0. -1.
    9900012    2    1    2    0    0 -0.44764605247E+02 -0.48555400822E+01  0.12912586591E+01  0.46142317618E+02  0.99999986911E+01 0.  0.
         12    1    1    2    0    0  0.44764605247E+02  0.48555400822E+01 -0.12912586591E+01  0.45045682382E+02  0.00000000000E+00 0. -1.
         11    1    3    3    0    0 -0.55921659445E+01 -0.32302998957E+01 -0.50558053224E+00  0.64778676509E+01  0.51100000000E-03 0. -1.
        -11    1    3    3    0    0 -0.14857529857E+02 -0.32574973818E+01  0.15964648708E+01  0.15293991728E+02  0.51100000000E-03 0.  1.
        -12    1    3    3    0    0 -0.24314909445E+02  0.16322571953E+01  0.20037432062E+00  0.24370458238E+02  0.00000000000E+00 0.  1.
</event>
<event>
 7    1  0.2395003E-008  0.4614232E+02  0.7816164E-02  0.1320468E+00
        -11   -1    0    0    0    0  0.00000000000E+00  0.00000000000E+00  0.45593999997E+02  0.45594000000E+02  0.51100000000E-03 0. -1.
         11   -1    0    0    0    0 -0.00000000000E+00 -0.00000000000E+00 -0.45593999997E+02  0.45594000000E+02  0.51100000000E-03 0.  1.
    9900012    2    1    2    0    0  0.32584978565E+02  0.16539926807E+02 -0.26339390847E+02  0.46142317442E+02  0.99999970943E+01 0.  0.
         12    1    1    2    0    0 -0.32584978565E+02 -0.16539926807E+02  0.26339390847E+02  0.45045682558E+02  0.00000000000E+00 0. -1.
         11    1    3    3    0    0  0.31498200113E+01  0.33399900577E+01 -0.11214386914E+01  0.47259416722E+01  0.51100000000E-03 0. -1.
        -11    1    3    3    0    0  0.20516675455E+02  0.83561874984E+01 -0.20656560207E+02  0.30289491925E+02  0.51100000000E-03 0.  1.
         12    1    3    3    0    0  0.89184830991E+01  0.48437492512E+01 -0.45613919484E+01  0.11126883845E+02  0.00000000000E+00 0. -1.
</event>
<event>
 7    1  0.2395003E-008  0.4614232E+02  0.7816164E-02  0.1320468E+00
        -11   -1    0    0    0    0  0.00000000000E+00  0.00000000000E+00  0.45593999997E+02  0.45594000000E+02  0.51100000000E-03 0.  1.
         11   -1    0    0    0    0 -0.00000000000E+00 -0.00000000000E+00 -0.45593999997E+02  0.45594000000E+02  0.51100000000E-03 0. -1.
    9900012    2    1    2    0    0 -0.34606529188E+02 -0.22676008143E+02  0.17812924181E+02  0.46142317903E+02  0.10000001292E+02 0.  0.
         12    1    1    2    0    0  0.34606529188E+02  0.22676008143E+02 -0.17812924181E+02  0.45045682097E+02  0.00000000000E+00 0. -1.
         11    1    3    3    0    0 -0.13019496336E+02 -0.57560620215E+01  0.75006903561E+01  0.16090366401E+02  0.51100000000E-03 0. -1.
        -11    1    3    3    0    0 -0.82950319552E+01 -0.39929628413E+01  0.87646565735E+00  0.92476753673E+01  0.51100000000E-03 0.  1.
         12    1    3    3    0    0 -0.13292000896E+02 -0.12926983280E+02  0.94357681677E+01  0.20804276134E+02  0.00000000000E+00 0. -1.
</event>
<event>
 7    1  0.2395003E-008  0.4614232E+02  0.7816164E-02  0.1320468E+00
        -11   -1    0    0    0    0  0.00000000000E+00  0.00000000000E+00  0.45593999997E+02  0.45594000000E+02  0.51100000000E-03 0.  1.
         11   -1    0    0    0    0 -0.00000000000E+00 -0.00000000000E+00 -0.45593999997E+02  0.45594000000E+02  0.51100000000E-03 0. -1.
    9900012    2    1    2    0    0  0.25562057791E+01 -0.38523284297E+02  0.23206375470E+02  0.46142317816E+02  0.10000000499E+02 0.  0.
         12    1    1    2    0    0 -0.25562057791E+01  0.38523284297E+02 -0.23206375470E+02  0.45045682184E+02  0.00000000000E+00 0. -1.
         11    1    3    3    0    0 -0.22410983985E+00 -0.67545747351E+01  0.40133069021E+01  0.78600978127E+01  0.51100000000E-03 0. -1.
        -11    1    3    3    0    0  0.14854407747E+01 -0.21226345642E+02  0.76897524521E+01  0.22625131528E+02  0.51100000000E-03 0.  1.
         12    1    3    3    0    0  0.12948748442E+01 -0.10542363919E+02  0.11503316116E+02  0.15657088475E+02  0.00000000000E+00 0. -1.
</event>
<event>
 7    1  0.2395003E-008  0.4614232E+02  0.7816164E-02  0.1320468E+00
        -11   -1    0    0    0    0  0.00000000000E+00  0.00000000000E+00  0.45593999997E+02  0.45594000000E+02  0.51100000000E-03 0.  1.
         11   -1    0    0    0    0 -0.00000000000E+00 -0.00000000000E+00 -0.45593999997E+02  0.45594000000E+02  0.51100000000E-03 0. -1.
    9900012    2    1    2    0    0  0.77570100209E+01 -0.16277181060E+02  0.41279482012E+02  0.46142318044E+02  0.10000002580E+02 0.  0.
         12    1    1    2    0    0 -0.77570100209E+01  0.16277181060E+02 -0.41279482012E+02  0.45045681956E+02  0.00000000000E+00 0. -1.
         11    1    3    3    0    0  0.13569169193E+01 -0.47340454155E-02  0.42290620105E+01  0.44414200079E+01  0.51100000000E-03 0. -1.
        -11    1    3    3    0    0  0.60208108044E+01 -0.15988595422E+02  0.37396459726E+02  0.41114237760E+02  0.51100000000E-03 0.  1.
         12    1    3    3    0    0  0.37928229717E+00 -0.28385159314E+00 -0.34603972509E+00  0.58666027581E+00  0.00000000000E+00 0. -1.
</event>
<event>
 7    1  0.2395003E-008  0.4614231E+02  0.7816164E-02  0.1320468E+00
        -11   -1    0    0    0    0  0.00000000000E+00  0.00000000000E+00  0.45593999997E+02  0.45594000000E+02  0.51100000000E-03 0.  1.
         11   -1    0    0    0    0 -0.00000000000E+00 -0.00000000000E+00 -0.45593999997E+02  0.45594000000E+02  0.51100000000E-03 0. -1.
    9900012    2    1    2    0    0  0.32631647840E+02 -0.26486176750E+02  0.16210238794E+02  0.46142313844E+02  0.99999642780E+01 0.  0.
         12    1    1    2    0    0 -0.32631647840E+02  0.26486176750E+02 -0.16210238794E+02  0.45045686156E+02  0.00000000000E+00 0. -1.
         11    1    3    3    0    0  0.15130968799E+02 -0.97880531253E+01  0.58366698269E+01  0.18942516087E+02  0.51100000000E-03 0. -1.
        -11    1    3    3    0    0  0.12566661286E+02 -0.13880211653E+02  0.10594764540E+02  0.21513490821E+02  0.51100000000E-03 0.  1.
        -12    1    3    3    0    0  0.49340177544E+01 -0.28179119712E+01 -0.22119557261E+00  0.56863069350E+01  0.00000000000E+00 0.  1.
</event>
<event>
 7    1  0.2395003E-008  0.4614232E+02  0.7816164E-02  0.1320468E+00
        -11   -1    0    0    0    0  0.00000000000E+00  0.00000000000E+00  0.45593999997E+02  0.45594000000E+02  0.51100000000E-03 0.  1.
         11   -1    0    0    0    0 -0.00000000000E+00 -0.00000000000E+00 -0.45593999997E+02  0.45594000000E+02  0.51100000000E-03 0. -1.
    9900012    2    1    2    0    0  0.71019071376E+00 -0.29079232805E+02  0.34394873643E+02  0.46142317806E+02  0.10000000410E+02 0.  0.
         12    1    1    2    0    0 -0.71019071376E+00  0.29079232805E+02 -0.34394873643E+02  0.45045682194E+02  0.00000000000E+00 0. -1.
         11    1    3    3    0    0  0.53611532819E+00 -0.10447965111E+02  0.11079263584E+02  0.15238027314E+02  0.51100000000E-03 0. -1.
        -11    1    3    3    0    0 -0.16038624704E+01 -0.18419315147E+02  0.21060053793E+02  0.28024443105E+02  0.51100000000E-03 0.  1.
         12    1    3    3    0    0  0.17779378560E+01 -0.21195254690E+00  0.22555562667E+01  0.28798473873E+01  0.00000000000E+00 0. -1.
</event>
<event>
 7    1  0.2395003E-008  0.4614232E+02  0.7816164E-02  0.1320468E+00
        -11   -1    0    0    0    0  0.00000000000E+00  0.00000000000E+00  0.45593999997E+02  0.45594000000E+02  0.51100000000E-03 0. -1.
         11   -1    0    0    0    0 -0.00000000000E+00 -0.00000000000E+00 -0.45593999997E+02  0.45594000000E+02  0.51100000000E-03 0.  1.
    9900012    2    1    2    0    0  0.34475637032E+02  0.25550647307E+02 -0.13700671305E+02  0.46142317402E+02  0.99999967228E+01 0.  0.
         12    1    1    2    0    0 -0.34475637032E+02 -0.25550647307E+02  0.13700671305E+02  0.45045682598E+02  0.00000000000E+00 0. -1.
         11    1    3    3    0    0  0.15572477115E+01  0.17580541822E+01 -0.23855669833E+01  0.33476417125E+01  0.51100000000E-03 0. -1.
        -11    1    3    3    0    0  0.45415614425E+01  0.58137490752E+00 -0.72992676300E+00  0.46364394161E+01  0.51100000000E-03 0.  1.
        -12    1    3    3    0    0  0.28376827878E+02  0.23211218217E+02 -0.10585177559E+02  0.38158236273E+02  0.00000000000E+00 0.  1.
</event>
<event>
 7    1  0.2395003E-008  0.4614232E+02  0.7816164E-02  0.1320468E+00
        -11   -1    0    0    0    0  0.00000000000E+00  0.00000000000E+00  0.45593999997E+02  0.45594000000E+02  0.51100000000E-03 0.  1.
         11   -1    0    0    0    0 -0.00000000000E+00 -0.00000000000E+00 -0.45593999997E+02  0.45594000000E+02  0.51100000000E-03 0. -1.
    9900012    2    1    2    0    0 -0.16738268364E+02 -0.36273401446E+02  0.20813078739E+02  0.46142317334E+02  0.99999961026E+01 0.  0.
         12    1    1    2    0    0  0.16738268364E+02  0.36273401446E+02 -0.20813078739E+02  0.45045682666E+02  0.00000000000E+00 0. -1.
         11    1    3    3    0    0 -0.88895738665E+01 -0.24676034755E+02  0.12073581049E+02  0.28873908193E+02  0.51100000000E-03 0. -1.
        -11    1    3    3    0    0 -0.38208600243E+01 -0.97312204432E+01  0.61329212226E+01  0.12120575301E+02  0.51100000000E-03 0.  1.
        -12    1    3    3    0    0 -0.40278344732E+01 -0.18661462482E+01  0.26065764667E+01  0.51478338396E+01  0.00000000000E+00 0.  1.
</event>
<event>
 7    1  0.2395003E-008  0.4614232E+02  0.7816164E-02  0.1320468E+00
        -11   -1    0    0    0    0  0.00000000000E+00  0.00000000000E+00  0.45593999997E+02  0.45594000000E+02  0.51100000000E-03 0. -1.
         11   -1    0    0    0    0 -0.00000000000E+00 -0.00000000000E+00 -0.45593999997E+02  0.45594000000E+02  0.51100000000E-03 0.  1.
    9900012    2    1    2    0    0 -0.33228910633E+02 -0.30378714086E+02 -0.14445834646E+01  0.46142316602E+02  0.99999894331E+01 0.  0.
         12    1    1    2    0    0  0.33228910633E+02  0.30378714086E+02  0.14445834646E+01  0.45045683398E+02  0.00000000000E+00 0. -1.
         11    1    3    3    0    0 -0.64189608545E+01 -0.26116213365E+01 -0.21046905965E+01  0.72424683102E+01  0.51100000000E-03 0. -1.
        -11    1    3    3    0    0 -0.19807668222E+02 -0.21147271083E+02 -0.15396322697E+01  0.29015879488E+02  0.51100000000E-03 0.  1.
         12    1    3    3    0    0 -0.70022815565E+01 -0.66198216666E+01  0.21997394016E+01  0.98839688046E+01  0.00000000000E+00 0. -1.
</event>
<event>
 7    1  0.2395003E-008  0.4614232E+02  0.7816164E-02  0.1320468E+00
        -11   -1    0    0    0    0  0.00000000000E+00  0.00000000000E+00  0.45593999997E+02  0.45594000000E+02  0.51100000000E-03 0. -1.
         11   -1    0    0    0    0 -0.00000000000E+00 -0.00000000000E+00 -0.45593999997E+02  0.45594000000E+02  0.51100000000E-03 0.  1.
    9900012    2    1    2    0    0  0.23659605669E+02  0.35865477414E+02  0.13527894207E+02  0.46142319494E+02  0.10000015805E+02 0.  0.
         12    1    1    2    0    0 -0.23659605669E+02 -0.35865477414E+02 -0.13527894207E+02  0.45045680506E+02  0.00000000000E+00 0. -1.
         11    1    3    3    0    0  0.16496042481E+02  0.23853785389E+02  0.85610342842E+01  0.30239275838E+02  0.51100000000E-03 0. -1.
        -11    1    3    3    0    0  0.60068919179E+01  0.11802655877E+02  0.58046909693E+01  0.14459594523E+02  0.51100000000E-03 0.  1.
         12    1    3    3    0    0  0.11566712699E+01  0.20903614766E+00 -0.83783104627E+00  0.14434491331E+01  0.00000000000E+00 0. -1.
</event>
<event>
 7    1  0.2395003E-008  0.4614232E+02  0.7816164E-02  0.1320468E+00
        -11   -1    0    0    0    0  0.00000000000E+00  0.00000000000E+00  0.45593999997E+02  0.45594000000E+02  0.51100000000E-03 0.  1.
         11   -1    0    0    0    0 -0.00000000000E+00 -0.00000000000E+00 -0.45593999997E+02  0.45594000000E+02  0.51100000000E-03 0. -1.
    9900012    2    1    2    0    0  0.11121006382E+02  0.16398446527E+02  0.40454018362E+02  0.46142318375E+02  0.10000005597E+02 0.  0.
         12    1    1    2    0    0 -0.11121006382E+02 -0.16398446527E+02 -0.40454018362E+02  0.45045681625E+02  0.00000000000E+00 0. -1.
         11    1    3    3    0    0  0.17383977666E+00  0.10966982772E+00 -0.30183653710E+00  0.36517570471E+00  0.51100000000E-03 0. -1.
        -11    1    3    3    0    0  0.48569767543E+01  0.11557243689E+02  0.19671222700E+02  0.23326317919E+02  0.51100000000E-03 0.  1.
        -12    1    3    3    0    0  0.60901898514E+01  0.47315330106E+01  0.21084632199E+02  0.22450824752E+02  0.00000000000E+00 0.  1.
</event>
<event>
 7    1  0.2395003E-008  0.4614232E+02  0.7816164E-02  0.1320468E+00
        -11   -1    0    0    0    0  0.00000000000E+00  0.00000000000E+00  0.45593999997E+02  0.45594000000E+02  0.51100000000E-03 0. -1.
         11   -1    0    0    0    0 -0.00000000000E+00 -0.00000000000E+00 -0.45593999997E+02  0.45594000000E+02  0.51100000000E-03 0.  1.
    9900012    2    1    2    0    0  0.21707650563E+02 -0.38769689562E+02 -0.74028838942E+01  0.46142316393E+02  0.99999875248E+01 0.  0.
         12    1    1    2    0    0 -0.21707650563E+02  0.38769689562E+02  0.74028838942E+01  0.45045683607E+02  0.00000000000E+00 0. -1.
         11    1    3    3    0    0  0.10146875823E+02 -0.18227347019E+02 -0.17036669380E+01  0.20930784735E+02  0.51100000000E-03 0. -1.
        -11    1    3    3    0    0  0.44077968728E+01 -0.24040246631E+01 -0.17561903380E+01  0.53190424531E+01  0.51100000000E-03 0.  1.
        -12    1    3    3    0    0  0.71529778672E+01 -0.18138317880E+02 -0.39430266182E+01  0.19892489205E+02  0.00000000000E+00 0.  1.
</event>
<event>
 7    1  0.2395003E-008  0.4614232E+02  0.7816164E-02  0.1320468E+00
        -11   -1    0    0    0    0  0.00000000000E+00  0.00000000000E+00  0.45593999997E+02  0.45594000000E+02  0.51100000000E-03 0. -1.
         11   -1    0    0    0    0 -0.00000000000E+00 -0.00000000000E+00 -0.45593999997E+02  0.45594000000E+02  0.51100000000E-03 0.  1.
    9900012    2    1    2    0    0 -0.36335717227E+01 -0.40867806726E+02 -0.18593895262E+02  0.46142318619E+02  0.10000007821E+02 0.  0.
         12    1    1    2    0    0  0.36335717227E+01  0.40867806726E+02  0.18593895262E+02  0.45045681381E+02  0.00000000000E+00 0. -1.
         11    1    3    3    0    0 -0.50868928138E+00 -0.12312572761E+01 -0.18664572506E+01  0.22931249844E+01  0.51100000000E-03 0. -1.
        -11    1    3    3    0    0  0.26632155779E+01 -0.13300179610E+02 -0.58946863976E+01  0.14789686368E+02  0.51100000000E-03 0.  1.
        -12    1    3    3    0    0 -0.57880980193E+01 -0.26336369841E+02 -0.10832751614E+02  0.29059507267E+02  0.00000000000E+00 0.  1.
</event>
<event>
 7    1  0.2395003E-008  0.4614232E+02  0.7816164E-02  0.1320468E+00
        -11   -1    0    0    0    0  0.00000000000E+00  0.00000000000E+00  0.45593999997E+02  0.45594000000E+02  0.51100000000E-03 0. -1.
         11   -1    0    0    0    0 -0.00000000000E+00 -0.00000000000E+00 -0.45593999997E+02  0.45594000000E+02  0.51100000000E-03 0.  1.
    9900012    2    1    2    0    0  0.16326846908E+02 -0.16184941731E+02 -0.38737516831E+02  0.46142317865E+02  0.10000000947E+02 0.  0.
         12    1    1    2    0    0 -0.16326846908E+02  0.16184941731E+02  0.38737516831E+02  0.45045682135E+02  0.00000000000E+00 0. -1.
         11    1    3    3    0    0  0.25617059981E+01 -0.67507057842E+01 -0.15071672300E+02  0.16711961955E+02  0.51100000000E-03 0.  1.
        -11    1    3    3    0    0  0.36448701995E+01 -0.73449861222E+00 -0.27706682158E+01  0.46369353679E+01  0.51100000000E-03 0. -1.
        -12    1    3    3    0    0  0.10120270711E+02 -0.86997373342E+01 -0.20895176315E+02  0.24793420542E+02  0.00000000000E+00 0.  1.
</event>
<event>
 7    1  0.2395003E-008  0.4614232E+02  0.7816164E-02  0.1320468E+00
        -11   -1    0    0    0    0  0.00000000000E+00  0.00000000000E+00  0.45593999997E+02  0.45594000000E+02  0.51100000000E-03 0.  1.
         11   -1    0    0    0    0 -0.00000000000E+00 -0.00000000000E+00 -0.45593999997E+02  0.45594000000E+02  0.51100000000E-03 0. -1.
    9900012    2    1    2    0    0 -0.13962331516E+02  0.42826032097E+02  0.31262765080E+00  0.46142318047E+02  0.10000002611E+02 0.  0.
         12    1    1    2    0    0  0.13962331516E+02 -0.42826032097E+02 -0.31262765080E+00  0.45045681953E+02  0.00000000000E+00 0. -1.
         11    1    3    3    0    0 -0.43046827238E+01  0.21061895460E+02 -0.17226706387E+00  0.21497986183E+02  0.51100000000E-03 0. -1.
        -11    1    3    3    0    0 -0.21030772756E+01  0.13255119422E+01  0.13657881814E+01  0.28364226684E+01  0.51100000000E-03 0.  1.
        -12    1    3    3    0    0 -0.75545715170E+01  0.20438624695E+02 -0.88089346676E+00  0.21807909197E+02  0.00000000000E+00 0.  1.
</event>
<event>
 7    1  0.2395003E-008  0.4614232E+02  0.7816164E-02  0.1320468E+00
        -11   -1    0    0    0    0  0.00000000000E+00  0.00000000000E+00  0.45593999997E+02  0.45594000000E+02  0.51100000000E-03 0.  1.
         11   -1    0    0    0    0 -0.00000000000E+00 -0.00000000000E+00 -0.45593999997E+02  0.45594000000E+02  0.51100000000E-03 0. -1.
    9900012    2    1    2    0    0  0.49270709273E+01  0.36722664550E+02  0.25618024921E+02  0.46142319625E+02  0.10000016998E+02 0.  0.
         12    1    1    2    0    0 -0.49270709273E+01 -0.36722664550E+02 -0.25618024921E+02  0.45045680375E+02  0.00000000000E+00 0. -1.
         11    1    3    3    0    0  0.81677984610E+00  0.11688040419E+02  0.31037138478E+01  0.12120662444E+02  0.51100000000E-03 0. -1.
        -11    1    3    3    0    0  0.14958939209E+00  0.82043691883E+01  0.67891423075E+01  0.10650187993E+02  0.51100000000E-03 0.  1.
         12    1    3    3    0    0  0.39607016891E+01  0.16830254942E+02  0.15725168766E+02  0.23371469188E+02  0.00000000000E+00 0. -1.
</event>
<event>
 7    1  0.2395003E-008  0.4614232E+02  0.7816164E-02  0.1320468E+00
        -11   -1    0    0    0    0  0.00000000000E+00  0.00000000000E+00  0.45593999997E+02  0.45594000000E+02  0.51100000000E-03 0.  1.
         11   -1    0    0    0    0 -0.00000000000E+00 -0.00000000000E+00 -0.45593999997E+02  0.45594000000E+02  0.51100000000E-03 0. -1.
    9900012    2    1    2    0    0 -0.23685285441E+02 -0.29845655363E+02 -0.24028265957E+02  0.46142318127E+02  0.10000003336E+02 0.  0.
         12    1    1    2    0    0  0.23685285441E+02  0.29845655363E+02  0.24028265957E+02  0.45045681873E+02  0.00000000000E+00 0. -1.
         11    1    3    3    0    0 -0.45355344403E+01 -0.91106976970E+01 -0.46646790204E+01  0.11195316691E+02  0.51100000000E-03 0.  1.
        -11    1    3    3    0    0 -0.62762029315E+01 -0.76731688360E+01 -0.29698124660E+01  0.10348334628E+02  0.51100000000E-03 0. -1.
         12    1    3    3    0    0 -0.12873548069E+02 -0.13061788831E+02 -0.16393774471E+02  0.24598666808E+02  0.00000000000E+00 0. -1.
</event>
<event>
 7    1  0.2395003E-008  0.4614232E+02  0.7816164E-02  0.1320468E+00
        -11   -1    0    0    0    0  0.00000000000E+00  0.00000000000E+00  0.45593999997E+02  0.45594000000E+02  0.51100000000E-03 0.  1.
         11   -1    0    0    0    0 -0.00000000000E+00 -0.00000000000E+00 -0.45593999997E+02  0.45594000000E+02  0.51100000000E-03 0. -1.
    9900012    2    1    2    0    0  0.79366871510E+01 -0.96818921308E+01  0.43271045290E+02  0.46142318757E+02  0.10000009084E+02 0.  0.
         12    1    1    2    0    0 -0.79366871510E+01  0.96818921308E+01 -0.43271045290E+02  0.45045681243E+02  0.00000000000E+00 0. -1.
         11    1    3    3    0    0 -0.10982951066E+01 -0.38906742406E+00  0.12902301083E+01  0.17384819801E+01  0.51100000000E-03 0. -1.
        -11    1    3    3    0    0  0.53967938290E+01 -0.18026680015E+01  0.11877112725E+02  0.13169692574E+02  0.51100000000E-03 0.  1.
        -12    1    3    3    0    0  0.36381884286E+01 -0.74901567052E+01  0.30103702456E+02  0.31234144203E+02  0.00000000000E+00 0.  1.
</event>
<event>
 7    1  0.2395003E-008  0.4614232E+02  0.7816164E-02  0.1320468E+00
        -11   -1    0    0    0    0  0.00000000000E+00  0.00000000000E+00  0.45593999997E+02  0.45594000000E+02  0.51100000000E-03 0.  1.
         11   -1    0    0    0    0 -0.00000000000E+00 -0.00000000000E+00 -0.45593999997E+02  0.45594000000E+02  0.51100000000E-03 0. -1.
    9900012    2    1    2    0    0 -0.11741586816E+02  0.39912978589E+02  0.17268548266E+02  0.46142317854E+02  0.10000000843E+02 0.  0.
         12    1    1    2    0    0  0.11741586816E+02 -0.39912978589E+02 -0.17268548266E+02  0.45045682146E+02  0.00000000000E+00 0. -1.
         11    1    3    3    0    0  0.60195138452E+00  0.37272763673E+01  0.13572960597E+01  0.40121300380E+01  0.51100000000E-03 0. -1.
        -11    1    3    3    0    0 -0.12863778350E+02  0.28326106342E+02  0.13272695840E+02  0.33823210212E+02  0.51100000000E-03 0.  1.
        -12    1    3    3    0    0  0.52024014866E+00  0.78595958801E+01  0.26385563668E+01  0.83069776039E+01  0.00000000000E+00 0.  1.
</event>
<event>
 7    1  0.2395003E-008  0.4614232E+02  0.7816164E-02  0.1320468E+00
        -11   -1    0    0    0    0  0.00000000000E+00  0.00000000000E+00  0.45593999997E+02  0.45594000000E+02  0.51100000000E-03 0.  1.
         11   -1    0    0    0    0 -0.00000000000E+00 -0.00000000000E+00 -0.45593999997E+02  0.45594000000E+02  0.51100000000E-03 0. -1.
    9900012    2    1    2    0    0  0.11679638865E+02 -0.34284156552E+02  0.26782387599E+02  0.46142316078E+02  0.99999846515E+01 0.  0.
         12    1    1    2    0    0 -0.11679638865E+02  0.34284156552E+02 -0.26782387599E+02  0.45045683922E+02  0.00000000000E+00 0. -1.
         11    1    3    3    0    0  0.25326405178E+01 -0.50063797860E+01  0.14092819871E+01  0.57848234662E+01  0.51100000000E-03 0. -1.
        -11    1    3    3    0    0  0.72549922465E+01 -0.12147902199E+02  0.11503911496E+02  0.18235855348E+02  0.51100000000E-03 0.  1.
         12    1    3    3    0    0  0.18920061005E+01 -0.17129874567E+02  0.13869194116E+02  0.22121637263E+02  0.00000000000E+00 0. -1.
</event>
<event>
 7    1  0.2395003E-008  0.4614232E+02  0.7816164E-02  0.1320468E+00
        -11   -1    0    0    0    0  0.00000000000E+00  0.00000000000E+00  0.45593999997E+02  0.45594000000E+02  0.51100000000E-03 0.  1.
         11   -1    0    0    0    0 -0.00000000000E+00 -0.00000000000E+00 -0.45593999997E+02  0.45594000000E+02  0.51100000000E-03 0. -1.
    9900012    2    1    2    0    0 -0.15911704107E+02  0.18218643166E+02  0.38000160666E+02  0.46142317665E+02  0.99999991250E+01 0.  0.
         12    1    1    2    0    0  0.15911704107E+02 -0.18218643166E+02 -0.38000160666E+02  0.45045682335E+02  0.00000000000E+00 0. -1.
         11    1    3    3    0    0 -0.11244530424E+02  0.86888486540E+01  0.20682678092E+02  0.25093997862E+02  0.51100000000E-03 0. -1.
        -11    1    3    3    0    0 -0.23920430232E+01  0.26319240709E+00  0.30690555879E+01  0.39000310936E+01  0.51100000000E-03 0.  1.
         12    1    3    3    0    0 -0.22751306593E+01  0.92666021048E+01  0.14248426986E+02  0.17148288709E+02  0.00000000000E+00 0. -1.
</event>
<event>
 7    1  0.2395003E-008  0.4614232E+02  0.7816164E-02  0.1320468E+00
        -11   -1    0    0    0    0  0.00000000000E+00  0.00000000000E+00  0.45593999997E+02  0.45594000000E+02  0.51100000000E-03 0.  1.
         11   -1    0    0    0    0 -0.00000000000E+00 -0.00000000000E+00 -0.45593999997E+02  0.45594000000E+02  0.51100000000E-03 0. -1.
    9900012    2    1    2    0    0  0.87549062724E+00 -0.21201380907E+02  0.39734726238E+02  0.46142317572E+02  0.99999982764E+01 0.  0.
         12    1    1    2    0    0 -0.87549062724E+00  0.21201380907E+02 -0.39734726238E+02  0.45045682428E+02  0.00000000000E+00 0. -1.
         11    1    3    3    0    0  0.16949814970E+00 -0.10982965987E+02  0.15544384735E+02  0.19033711371E+02  0.51100000000E-03 0. -1.
        -11    1    3    3    0    0 -0.26326734459E+01 -0.58902722243E+01  0.16101052024E+02  0.17345609038E+02  0.51100000000E-03 0.  1.
         12    1    3    3    0    0  0.33386659235E+01 -0.43281426955E+01  0.80892894786E+01  0.97629971632E+01  0.00000000000E+00 0. -1.
</event>
<event>
 7    1  0.2395003E-008  0.4614232E+02  0.7816164E-02  0.1320468E+00
        -11   -1    0    0    0    0  0.00000000000E+00  0.00000000000E+00  0.45593999997E+02  0.45594000000E+02  0.51100000000E-03 0.  1.
         11   -1    0    0    0    0 -0.00000000000E+00 -0.00000000000E+00 -0.45593999997E+02  0.45594000000E+02  0.51100000000E-03 0. -1.
    9900012    2    1    2    0    0  0.16925982998E+02  0.40975357585E+02  0.79777526767E+01  0.46142319104E+02  0.10000012245E+02 0.  0.
         12    1    1    2    0    0 -0.16925982998E+02 -0.40975357585E+02 -0.79777526767E+01  0.45045680896E+02  0.00000000000E+00 0. -1.
         11    1    3    3    0    0  0.19506710772E+01  0.32652962586E+01  0.33635798992E+01  0.50774941957E+01  0.51100000000E-03 0. -1.
        -11    1    3    3    0    0  0.86276798968E+01  0.26259190218E+02  0.42672077314E+01  0.27967677655E+02  0.51100000000E-03 0.  1.
        -12    1    3    3    0    0  0.63476320238E+01  0.11450871108E+02  0.34696504612E+00  0.13097147253E+02  0.00000000000E+00 0.  1.
</event>
<event>
 7    1  0.2395003E-008  0.4614232E+02  0.7816164E-02  0.1320468E+00
        -11   -1    0    0    0    0  0.00000000000E+00  0.00000000000E+00  0.45593999997E+02  0.45594000000E+02  0.51100000000E-03 0.  1.
         11   -1    0    0    0    0 -0.00000000000E+00 -0.00000000000E+00 -0.45593999997E+02  0.45594000000E+02  0.51100000000E-03 0. -1.
    9900012    2    1    2    0    0  0.82578361203E+01  0.45576985104E+01  0.44047122677E+02  0.46142317752E+02  0.99999999164E+01 0.  0.
         12    1    1    2    0    0 -0.82578361203E+01 -0.45576985104E+01 -0.44047122677E+02  0.45045682248E+02  0.00000000000E+00 0. -1.
         11    1    3    3    0    0 -0.79804211004E+00  0.28575766002E+01  0.44950254139E+01  0.53858953729E+01  0.51100000000E-03 0. -1.
        -11    1    3    3    0    0  0.52698809561E+01 -0.15808795372E+00  0.16504752242E+02  0.17326381155E+02  0.51100000000E-03 0.  1.
        -12    1    3    3    0    0  0.37859972742E+01  0.18582098639E+01  0.23047345021E+02  0.23430041224E+02  0.00000000000E+00 0.  1.
</event>
<event>
 7    1  0.2395003E-008  0.4614232E+02  0.7816164E-02  0.1320468E+00
        -11   -1    0    0    0    0  0.00000000000E+00  0.00000000000E+00  0.45593999997E+02  0.45594000000E+02  0.51100000000E-03 0.  1.
         11   -1    0    0    0    0 -0.00000000000E+00 -0.00000000000E+00 -0.45593999997E+02  0.45594000000E+02  0.51100000000E-03 0. -1.
    9900012    2    1    2    0    0  0.88329340980E+01  0.32505007294E+01  0.44051412249E+02  0.46142318731E+02  0.10000008849E+02 0.  0.
         12    1    1    2    0    0 -0.88329340980E+01 -0.32505007294E+01 -0.44051412249E+02  0.45045681269E+02  0.00000000000E+00 0. -1.
         11    1    3    3    0    0 -0.47324116860E+00 -0.57186729593E+00  0.19165629726E+01  0.20552866702E+01  0.51100000000E-03 0. -1.
        -11    1    3    3    0    0  0.84859827761E+01 -0.90766671213E-01  0.33706865710E+02  0.34758782179E+02  0.51100000000E-03 0.  1.
         12    1    3    3    0    0  0.82019249048E+00  0.39131346966E+01  0.84279835665E+01  0.93282498826E+01  0.00000000000E+00 0. -1.
</event>
<event>
 7    1  0.2395003E-008  0.4614232E+02  0.7816164E-02  0.1320468E+00
        -11   -1    0    0    0    0  0.00000000000E+00  0.00000000000E+00  0.45593999997E+02  0.45594000000E+02  0.51100000000E-03 0.  1.
         11   -1    0    0    0    0 -0.00000000000E+00 -0.00000000000E+00 -0.45593999997E+02  0.45594000000E+02  0.51100000000E-03 0. -1.
    9900012    2    1    2    0    0  0.33087369051E+02  0.13552631466E+02  0.27398279669E+02  0.46142317197E+02  0.99999948549E+01 0.  0.
         12    1    1    2    0    0 -0.33087369051E+02 -0.13552631466E+02 -0.27398279669E+02  0.45045682803E+02  0.00000000000E+00 0. -1.
         11    1    3    3    0    0  0.72542680999E+00 -0.27392361649E+00 -0.68697279987E-01  0.77845859346E+00  0.51100000000E-03 0. -1.
        -11    1    3    3    0    0  0.72799003834E+01  0.27384551310E+01  0.22205089830E+01  0.80886801458E+01  0.51100000000E-03 0.  1.
        -12    1    3    3    0    0  0.25082041858E+02  0.11088099952E+02  0.25246467966E+02  0.37275178458E+02  0.00000000000E+00 0.  1.
</event>
<event>
 7    1  0.2395003E-008  0.4614232E+02  0.7816164E-02  0.1320468E+00
        -11   -1    0    0    0    0  0.00000000000E+00  0.00000000000E+00  0.45593999997E+02  0.45594000000E+02  0.51100000000E-03 0. -1.
         11   -1    0    0    0    0 -0.00000000000E+00 -0.00000000000E+00 -0.45593999997E+02  0.45594000000E+02  0.51100000000E-03 0.  1.
    9900012    2    1    2    0    0 -0.44922682630E+02  0.16902314902E+01 -0.28651677746E+01  0.46142317815E+02  0.10000000492E+02 0.  0.
         12    1    1    2    0    0  0.44922682630E+02 -0.16902314902E+01  0.28651677746E+01  0.45045682185E+02  0.00000000000E+00 0. -1.
         11    1    3    3    0    0 -0.15002779450E+02 -0.25222951725E+01 -0.27398380040E+01  0.15458074806E+02  0.51100000000E-03 0. -1.
        -11    1    3    3    0    0 -0.51822255098E-01 -0.42434707666E+00 -0.16532026610E+00  0.45835252710E+00  0.51100000000E-03 0.  1.
        -12    1    3    3    0    0 -0.29868080924E+02  0.46368737393E+01  0.39990495471E-01  0.30225890482E+02  0.00000000000E+00 0.  1.
</event>
<event>
 7    1  0.2395003E-008  0.4614232E+02  0.7816164E-02  0.1320468E+00
        -11   -1    0    0    0    0  0.00000000000E+00  0.00000000000E+00  0.45593999997E+02  0.45594000000E+02  0.51100000000E-03 0. -1.
         11   -1    0    0    0    0 -0.00000000000E+00 -0.00000000000E+00 -0.45593999997E+02  0.45594000000E+02  0.51100000000E-03 0.  1.
    9900012    2    1    2    0    0  0.27718454345E+02 -0.30572194348E+01 -0.35375897754E+02  0.46142318256E+02  0.10000004511E+02 0.  0.
         12    1    1    2    0    0 -0.27718454345E+02  0.30572194348E+01  0.35375897754E+02  0.45045681744E+02  0.00000000000E+00 0. -1.
         11    1    3    3    0    0  0.13801787931E+01  0.18686022367E+01 -0.46856188256E+01  0.52298749373E+01  0.51100000000E-03 0. -1.
        -11    1    3    3    0    0  0.82472666397E+01 -0.15163893204E+01 -0.12338388492E+02  0.14918199437E+02  0.51100000000E-03 0.  1.
         12    1    3    3    0    0  0.18091008912E+02 -0.34094323511E+01 -0.18351890436E+02  0.25994243881E+02  0.00000000000E+00 0. -1.
</event>
<event>
 7    1  0.2395003E-008  0.4614232E+02  0.7816164E-02  0.1320468E+00
        -11   -1    0    0    0    0  0.00000000000E+00  0.00000000000E+00  0.45593999997E+02  0.45594000000E+02  0.51100000000E-03 0.  1.
         11   -1    0    0    0    0 -0.00000000000E+00 -0.00000000000E+00 -0.45593999997E+02  0.45594000000E+02  0.51100000000E-03 0. -1.
    9900012    2    1    2    0    0 -0.37112812601E+02  0.79364276850E+01  0.24264495760E+02  0.46142317654E+02  0.99999990194E+01 0.  0.
         12    1    1    2    0    0  0.37112812601E+02 -0.79364276850E+01 -0.24264495760E+02  0.45045682346E+02  0.00000000000E+00 0. -1.
         11    1    3    3    0    0 -0.64210358649E+01  0.13897329486E+01  0.32354143128E+01  0.73231799980E+01  0.51100000000E-03 0. -1.
        -11    1    3    3    0    0 -0.12570930731E+02 -0.17590391030E+01  0.79364675532E+01  0.14970305124E+02  0.51100000000E-03 0.  1.
         12    1    3    3    0    0 -0.18120846005E+02  0.83057338395E+01  0.13092613894E+02  0.23848832532E+02  0.00000000000E+00 0. -1.
</event>
<event>
 7    1  0.2395003E-008  0.4614232E+02  0.7816164E-02  0.1320468E+00
        -11   -1    0    0    0    0  0.00000000000E+00  0.00000000000E+00  0.45593999997E+02  0.45594000000E+02  0.51100000000E-03 0.  1.
         11   -1    0    0    0    0 -0.00000000000E+00 -0.00000000000E+00 -0.45593999997E+02  0.45594000000E+02  0.51100000000E-03 0. -1.
    9900012    2    1    2    0    0 -0.29474645604E+00  0.40610679329E+02  0.19488441416E+02  0.46142317633E+02  0.99999988337E+01 0.  0.
         12    1    1    2    0    0  0.29474645604E+00 -0.40610679329E+02 -0.19488441416E+02  0.45045682367E+02  0.00000000000E+00 0. -1.
         11    1    3    3    0    0  0.26661845925E+01  0.84301188165E+01  0.24038184012E+01  0.91626299013E+01  0.51100000000E-03 0. -1.
        -11    1    3    3    0    0  0.60354783047E-01  0.84243022666E+01  0.19396207592E+01  0.86449199146E+01  0.51100000000E-03 0.  1.
        -12    1    3    3    0    0 -0.30212858315E+01  0.23756258246E+02  0.15145002256E+02  0.28334767817E+02  0.00000000000E+00 0.  1.
</event>
<event>
 7    1  0.2395003E-008  0.4614232E+02  0.7816164E-02  0.1320468E+00
        -11   -1    0    0    0    0  0.00000000000E+00  0.00000000000E+00  0.45593999997E+02  0.45594000000E+02  0.51100000000E-03 0.  1.
         11   -1    0    0    0    0 -0.00000000000E+00 -0.00000000000E+00 -0.45593999997E+02  0.45594000000E+02  0.51100000000E-03 0. -1.
    9900012    2    1    2    0    0  0.44392246469E+01  0.20273990286E+02  0.39979646174E+02  0.46142317568E+02  0.99999982409E+01 0.  0.
         12    1    1    2    0    0 -0.44392246469E+01 -0.20273990286E+02 -0.39979646174E+02  0.45045682432E+02  0.00000000000E+00 0. -1.
         11    1    3    3    0    0 -0.40801533575E-01  0.13568442939E+01  0.40867554783E+00  0.14176414101E+01  0.51100000000E-03 0. -1.
        -11    1    3    3    0    0  0.17965423937E+01  0.17774606652E+02  0.32739007635E+02  0.37296203927E+02  0.51100000000E-03 0.  1.
        -12    1    3    3    0    0  0.26834837868E+01  0.11425393403E+01  0.68319629905E+01  0.74284722307E+01  0.00000000000E+00 0.  1.
</event>
<event>
 7    1  0.2395003E-008  0.4614232E+02  0.7816164E-02  0.1320468E+00
        -11   -1    0    0    0    0  0.00000000000E+00  0.00000000000E+00  0.45593999997E+02  0.45594000000E+02  0.51100000000E-03 0.  1.
         11   -1    0    0    0    0 -0.00000000000E+00 -0.00000000000E+00 -0.45593999997E+02  0.45594000000E+02  0.51100000000E-03 0. -1.
    9900012    2    1    2    0    0  0.53642013088E+01 -0.24357092140E+02  0.37510942409E+02  0.46142318813E+02  0.10000009589E+02 0.  0.
         12    1    1    2    0    0 -0.53642013088E+01  0.24357092140E+02 -0.37510942409E+02  0.45045681187E+02  0.00000000000E+00 0. -1.
         11    1    3    3    0    0 -0.10016996809E+01 -0.14069413168E+02  0.17749844737E+02  0.22671761678E+02  0.51100000000E-03 0. -1.
        -11    1    3    3    0    0  0.26733967161E+01 -0.74395594998E+01  0.11004536233E+02  0.13549683152E+02  0.51100000000E-03 0.  1.
         12    1    3    3    0    0  0.36925042736E+01 -0.28481194721E+01  0.87565614394E+01  0.99208739826E+01  0.00000000000E+00 0. -1.
</event>
<event>
 7    1  0.2395003E-008  0.4614232E+02  0.7816164E-02  0.1320468E+00
        -11   -1    0    0    0    0  0.00000000000E+00  0.00000000000E+00  0.45593999997E+02  0.45594000000E+02  0.51100000000E-03 0. -1.
         11   -1    0    0    0    0 -0.00000000000E+00 -0.00000000000E+00 -0.45593999997E+02  0.45594000000E+02  0.51100000000E-03 0.  1.
    9900012    2    1    2    0    0  0.28695041658E+02  0.30233167050E+02 -0.17078165924E+02  0.46142317000E+02  0.99999930594E+01 0.  0.
         12    1    1    2    0    0 -0.28695041658E+02 -0.30233167050E+02  0.17078165924E+02  0.45045683000E+02  0.00000000000E+00 0. -1.
         11    1    3    3    0    0  0.13588715326E+02  0.10694958613E+02 -0.94343677126E+01  0.19698797383E+02  0.51100000000E-03 0. -1.
        -11    1    3    3    0    0  0.15462571693E+02  0.19454960982E+02 -0.72100305333E+01  0.25876073325E+02  0.51100000000E-03 0.  1.
         12    1    3    3    0    0 -0.35624536061E+00  0.83247454528E-01 -0.43376767777E+00  0.56744629166E+00  0.00000000000E+00 0. -1.
</event>
<event>
 7    1  0.2395003E-008  0.4614232E+02  0.7816164E-02  0.1320468E+00
        -11   -1    0    0    0    0  0.00000000000E+00  0.00000000000E+00  0.45593999997E+02  0.45594000000E+02  0.51100000000E-03 0.  1.
         11   -1    0    0    0    0 -0.00000000000E+00 -0.00000000000E+00 -0.45593999997E+02  0.45594000000E+02  0.51100000000E-03 0. -1.
    9900012    2    1    2    0    0  0.69855429796E+01  0.42787234828E+02 -0.12229810514E+02  0.46142317186E+02  0.99999947560E+01 0.  0.
         12    1    1    2    0    0 -0.69855429796E+01 -0.42787234828E+02  0.12229810514E+02  0.45045682814E+02  0.00000000000E+00 0. -1.
         11    1    3    3    0    0 -0.29929693377E+00  0.12903274673E+02 -0.93073679691E+00  0.12940260708E+02  0.51100000000E-03 0. -1.
        -11    1    3    3    0    0  0.68618805636E+01  0.23887844743E+02 -0.70288525584E+01  0.25828652692E+02  0.51100000000E-03 0.  1.
         12    1    3    3    0    0  0.42295934973E+00  0.59961154123E+01 -0.42702211589E+01  0.73734037863E+01  0.00000000000E+00 0. -1.
</event>
<event>
 7    1  0.2395003E-008  0.4614232E+02  0.7816164E-02  0.1320468E+00
        -11   -1    0    0    0    0  0.00000000000E+00  0.00000000000E+00  0.45593999997E+02  0.45594000000E+02  0.51100000000E-03 0.  1.
         11   -1    0    0    0    0 -0.00000000000E+00 -0.00000000000E+00 -0.45593999997E+02  0.45594000000E+02  0.51100000000E-03 0. -1.
    9900012    2    1    2    0    0  0.45628010386E+01  0.14763184609E+02  0.42312440806E+02  0.46142318519E+02  0.10000006911E+02 0.  0.
         12    1    1    2    0    0 -0.45628010386E+01 -0.14763184609E+02 -0.42312440806E+02  0.45045681481E+02  0.00000000000E+00 0. -1.
         11    1    3    3    0    0  0.37537620748E+01  0.51470987313E+01  0.93133391040E+01  0.11283689139E+02  0.51100000000E-03 0. -1.
        -11    1    3    3    0    0  0.28401716009E+01  0.80769825236E+01  0.27407654449E+02  0.28713824964E+02  0.51100000000E-03 0.  1.
         12    1    3    3    0    0 -0.20311326370E+01  0.15391033543E+01  0.55914472534E+01  0.61448044161E+01  0.00000000000E+00 0. -1.
</event>
<event>
 7    1  0.2395003E-008  0.4614232E+02  0.7816164E-02  0.1320468E+00
        -11   -1    0    0    0    0  0.00000000000E+00  0.00000000000E+00  0.45593999997E+02  0.45594000000E+02  0.51100000000E-03 0. -1.
         11   -1    0    0    0    0 -0.00000000000E+00 -0.00000000000E+00 -0.45593999997E+02  0.45594000000E+02  0.51100000000E-03 0.  1.
    9900012    2    1    2    0    0 -0.18543182811E+02  0.11624978523E+02 -0.39371610383E+02  0.46142318092E+02  0.10000003019E+02 0.  0.
         12    1    1    2    0    0  0.18543182811E+02 -0.11624978523E+02  0.39371610383E+02  0.45045681908E+02  0.00000000000E+00 0. -1.
         11    1    3    3    0    0 -0.13494708295E+02  0.68932558560E+01 -0.23507302864E+02  0.27968150036E+02  0.51100000000E-03 0.  1.
        -11    1    3    3    0    0 -0.16815212108E+01  0.38501958114E-01 -0.49188456213E+00  0.17524116716E+01  0.51100000000E-03 0. -1.
         12    1    3    3    0    0 -0.33669533050E+01  0.46932207087E+01 -0.15372422957E+02  0.16421756384E+02  0.00000000000E+00 0. -1.
</event>
<event>
 7    1  0.2395003E-008  0.4614232E+02  0.7816164E-02  0.1320468E+00
        -11   -1    0    0    0    0  0.00000000000E+00  0.00000000000E+00  0.45593999997E+02  0.45594000000E+02  0.51100000000E-03 0. -1.
         11   -1    0    0    0    0 -0.00000000000E+00 -0.00000000000E+00 -0.45593999997E+02  0.45594000000E+02  0.51100000000E-03 0.  1.
    9900012    2    1    2    0    0  0.18396294554E+02 -0.41002476994E+02  0.30800412522E+01  0.46142318441E+02  0.10000006201E+02 0.  0.
         12    1    1    2    0    0 -0.18396294554E+02  0.41002476994E+02 -0.30800412522E+01  0.45045681559E+02  0.00000000000E+00 0. -1.
         11    1    3    3    0    0  0.10606916532E+02 -0.30224766030E+02  0.25494779779E+01  0.32133207094E+02  0.51100000000E-03 0. -1.
        -11    1    3    3    0    0  0.60765083043E+01 -0.86761724469E+01 -0.13947412560E+01  0.10683876868E+02  0.51100000000E-03 0.  1.
         12    1    3    3    0    0  0.17128697176E+01 -0.21015385171E+01  0.19253045303E+01  0.33252344793E+01  0.00000000000E+00 0. -1.
</event>
<event>
 7    1  0.2395003E-008  0.4614231E+02  0.7816164E-02  0.1320468E+00
        -11   -1    0    0    0    0  0.00000000000E+00  0.00000000000E+00  0.45593999997E+02  0.45594000000E+02  0.51100000000E-03 0. -1.
         11   -1    0    0    0    0 -0.00000000000E+00 -0.00000000000E+00 -0.45593999997E+02  0.45594000000E+02  0.51100000000E-03 0.  1.
    9900012    2    1    2    0    0 -0.38109109133E+02 -0.18423285342E+02 -0.15407539527E+02  0.46142313014E+02  0.99999567154E+01 0.  0.
         12    1    1    2    0    0  0.38109109133E+02  0.18423285342E+02  0.15407539527E+02  0.45045686986E+02  0.00000000000E+00 0. -1.
         11    1    3    3    0    0 -0.61299109035E+01 -0.31662907138E+01 -0.31037981687E+01  0.75653663429E+01  0.51100000000E-03 0. -1.
        -11    1    3    3    0    0 -0.95715757544E+01 -0.32538499078E+01 -0.77821699303E+01  0.12757929720E+02  0.51100000000E-03 0.  1.
         12    1    3    3    0    0 -0.22407622475E+02 -0.12003144721E+02 -0.45215714278E+01  0.25819016952E+02  0.00000000000E+00 0. -1.
</event>
<event>
 7    1  0.2395003E-008  0.4614232E+02  0.7816164E-02  0.1320468E+00
        -11   -1    0    0    0    0  0.00000000000E+00  0.00000000000E+00  0.45593999997E+02  0.45594000000E+02  0.51100000000E-03 0.  1.
         11   -1    0    0    0    0 -0.00000000000E+00 -0.00000000000E+00 -0.45593999997E+02  0.45594000000E+02  0.51100000000E-03 0. -1.
    9900012    2    1    2    0    0  0.21875384956E+02  0.12907102743E+02  0.37201984596E+02  0.46142318453E+02  0.10000006305E+02 0.  0.
         12    1    1    2    0    0 -0.21875384956E+02 -0.12907102743E+02 -0.37201984596E+02  0.45045681547E+02  0.00000000000E+00 0. -1.
         11    1    3    3    0    0  0.48411224051E+01  0.19497637911E+01  0.12958221882E+02  0.13969737277E+02  0.51100000000E-03 0. -1.
        -11    1    3    3    0    0  0.84553108045E+01  0.85226960188E+01  0.16196534037E+02  0.20160762468E+02  0.51100000000E-03 0.  1.
        -12    1    3    3    0    0  0.85789517461E+01  0.24346429330E+01  0.80472286767E+01  0.12011818707E+02  0.00000000000E+00 0.  1.
</event>
<event>
 7    1  0.2395003E-008  0.4614232E+02  0.7816164E-02  0.1320468E+00
        -11   -1    0    0    0    0  0.00000000000E+00  0.00000000000E+00  0.45593999997E+02  0.45594000000E+02  0.51100000000E-03 0.  1.
         11   -1    0    0    0    0 -0.00000000000E+00 -0.00000000000E+00 -0.45593999997E+02  0.45594000000E+02  0.51100000000E-03 0. -1.
    9900012    2    1    2    0    0 -0.18560917976E+01 -0.17906940695E+02  0.41291765385E+02  0.46142317738E+02  0.99999997892E+01 0.  0.
         12    1    1    2    0    0  0.18560917976E+01  0.17906940695E+02 -0.41291765385E+02  0.45045682262E+02  0.00000000000E+00 0. -1.
         11    1    3    3    0    0 -0.27025939837E+01 -0.48179832379E+01  0.97944667517E+01  0.11244934679E+02  0.51100000000E-03 0. -1.
        -11    1    3    3    0    0  0.14975356980E+00 -0.11897527657E+02  0.31322311180E+02  0.33506130311E+02  0.51100000000E-03 0.  1.
         12    1    3    3    0    0  0.69674861626E+00 -0.11914297993E+01  0.17498745394E+00  0.13912527484E+01  0.00000000000E+00 0. -1.
</event>
<event>
 7    1  0.2395003E-008  0.4614232E+02  0.7816164E-02  0.1320468E+00
        -11   -1    0    0    0    0  0.00000000000E+00  0.00000000000E+00  0.45593999997E+02  0.45594000000E+02  0.51100000000E-03 0.  1.
         11   -1    0    0    0    0 -0.00000000000E+00 -0.00000000000E+00 -0.45593999997E+02  0.45594000000E+02  0.51100000000E-03 0. -1.
    9900012    2    1    2    0    0 -0.40547937592E+02  0.15640836080E+02 -0.11846612439E+02  0.46142320712E+02  0.10000026907E+02 0.  0.
         12    1    1    2    0    0  0.40547937592E+02 -0.15640836080E+02  0.11846612439E+02  0.45045679288E+02  0.00000000000E+00 0. -1.
         11    1    3    3    0    0 -0.15668186124E+02  0.40257914970E+01 -0.13466177969E+01  0.16233066049E+02  0.51100000000E-03 0. -1.
        -11    1    3    3    0    0 -0.12156891091E+02  0.55366677393E+01 -0.21734078404E+01  0.13533971796E+02  0.51100000000E-03 0.  1.
         12    1    3    3    0    0 -0.12722860377E+02  0.60783768434E+01 -0.83265868019E+01  0.16375282867E+02  0.00000000000E+00 0. -1.
</event>
<event>
 7    1  0.2395003E-008  0.4614232E+02  0.7816164E-02  0.1320468E+00
        -11   -1    0    0    0    0  0.00000000000E+00  0.00000000000E+00  0.45593999997E+02  0.45594000000E+02  0.51100000000E-03 0. -1.
         11   -1    0    0    0    0 -0.00000000000E+00 -0.00000000000E+00 -0.45593999997E+02  0.45594000000E+02  0.51100000000E-03 0.  1.
    9900012    2    1    2    0    0 -0.30997763779E+02 -0.24107000147E+02 -0.22070449810E+02  0.46142316853E+02  0.99999917147E+01 0.  0.
         12    1    1    2    0    0  0.30997763779E+02  0.24107000147E+02  0.22070449810E+02  0.45045683147E+02  0.00000000000E+00 0. -1.
         11    1    3    3    0    0 -0.43627700126E+01 -0.30462801313E+01 -0.25972630998E+01  0.59210945518E+01  0.51100000000E-03 0. -1.
        -11    1    3    3    0    0 -0.68644695448E+01 -0.10839603094E+02 -0.56323406613E+01  0.14012180379E+02  0.51100000000E-03 0.  1.
         12    1    3    3    0    0 -0.19770524222E+02 -0.10221116922E+02 -0.13840846049E+02  0.26209041922E+02  0.00000000000E+00 0. -1.
</event>
<event>
 7    1  0.2395003E-008  0.4614231E+02  0.7816164E-02  0.1320468E+00
        -11   -1    0    0    0    0  0.00000000000E+00  0.00000000000E+00  0.45593999997E+02  0.45594000000E+02  0.51100000000E-03 0.  1.
         11   -1    0    0    0    0 -0.00000000000E+00 -0.00000000000E+00 -0.45593999997E+02  0.45594000000E+02  0.51100000000E-03 0. -1.
    9900012    2    1    2    0    0 -0.16124412605E+02  0.14496758997E+02  0.39483682162E+02  0.46142313633E+02  0.99999623545E+01 0.  0.
         12    1    1    2    0    0  0.16124412605E+02 -0.14496758997E+02 -0.39483682162E+02  0.45045686367E+02  0.00000000000E+00 0. -1.
         11    1    3    3    0    0 -0.23754040649E+01  0.52800692109E+01  0.16302462355E+02  0.17300056487E+02  0.51100000000E-03 0. -1.
        -11    1    3    3    0    0 -0.95433365174E+01  0.82056675074E+01  0.19236969035E+02  0.22988458605E+02  0.51100000000E-03 0.  1.
         12    1    3    3    0    0 -0.42056720225E+01  0.10110222786E+01  0.39442507710E+01  0.58537985405E+01  0.00000000000E+00 0. -1.
</event>
<event>
 7    1  0.2395003E-008  0.4614232E+02  0.7816164E-02  0.1320468E+00
        -11   -1    0    0    0    0  0.00000000000E+00  0.00000000000E+00  0.45593999997E+02  0.45594000000E+02  0.51100000000E-03 0.  1.
         11   -1    0    0    0    0 -0.00000000000E+00 -0.00000000000E+00 -0.45593999997E+02  0.45594000000E+02  0.51100000000E-03 0. -1.
    9900012    2    1    2    0    0 -0.21366454724E+02 -0.38963817023E+02  0.73762481899E+01  0.46142318055E+02  0.10000002683E+02 0.  0.
         12    1    1    2    0    0  0.21366454724E+02  0.38963817023E+02 -0.73762481899E+01  0.45045681945E+02  0.00000000000E+00 0. -1.
         11    1    3    3    0    0 -0.67467743459E+01 -0.14478666867E+02 -0.12738465395E+01  0.16024151884E+02  0.51100000000E-03 0. -1.
        -11    1    3    3    0    0 -0.66639490452E+01 -0.71700085673E+01  0.32079486098E+01  0.10300882209E+02  0.51100000000E-03 0.  1.
        -12    1    3    3    0    0 -0.79557313326E+01 -0.17315141589E+02  0.54421461196E+01  0.19817283963E+02  0.00000000000E+00 0.  1.
</event>
<event>
 7    1  0.2395003E-008  0.4614232E+02  0.7816164E-02  0.1320468E+00
        -11   -1    0    0    0    0  0.00000000000E+00  0.00000000000E+00  0.45593999997E+02  0.45594000000E+02  0.51100000000E-03 0.  1.
         11   -1    0    0    0    0 -0.00000000000E+00 -0.00000000000E+00 -0.45593999997E+02  0.45594000000E+02  0.51100000000E-03 0. -1.
    9900012    2    1    2    0    0 -0.20938178422E+02  0.33082526919E+02  0.22276726520E+02  0.46142318216E+02  0.10000004144E+02 0.  0.
         12    1    1    2    0    0  0.20938178422E+02 -0.33082526919E+02 -0.22276726520E+02  0.45045681784E+02  0.00000000000E+00 0. -1.
         11    1    3    3    0    0 -0.48758448822E+01  0.82241816404E+01  0.54848879042E+01  0.11022478059E+02  0.51100000000E-03 0. -1.
        -11    1    3    3    0    0 -0.89424636581E+01  0.20244575447E+02  0.10165026457E+02  0.24354429873E+02  0.51100000000E-03 0.  1.
         12    1    3    3    0    0 -0.71198698814E+01  0.46137698314E+01  0.66268121594E+01  0.10765410284E+02  0.00000000000E+00 0. -1.
</event>
<event>
 7    1  0.2395003E-008  0.4614232E+02  0.7816164E-02  0.1320468E+00
        -11   -1    0    0    0    0  0.00000000000E+00  0.00000000000E+00  0.45593999997E+02  0.45594000000E+02  0.51100000000E-03 0. -1.
         11   -1    0    0    0    0 -0.00000000000E+00 -0.00000000000E+00 -0.45593999997E+02  0.45594000000E+02  0.51100000000E-03 0.  1.
    9900012    2    1    2    0    0  0.33184716438E+02  0.26946030837E+02 -0.14205612673E+02  0.46142318583E+02  0.10000007493E+02 0.  0.
         12    1    1    2    0    0 -0.33184716438E+02 -0.26946030837E+02  0.14205612673E+02  0.45045681417E+02  0.00000000000E+00 0. -1.
         11    1    3    3    0    0  0.72591805361E+00 -0.13270898370E+00 -0.15309409360E+01  0.16995143734E+01  0.51100000000E-03 0. -1.
        -11    1    3    3    0    0  0.13954431110E+02  0.83648686442E+01 -0.53089822473E+01  0.17113809272E+02  0.51100000000E-03 0.  1.
         12    1    3    3    0    0  0.18504367274E+02  0.18713871176E+02 -0.73656894895E+01  0.27328994937E+02  0.00000000000E+00 0. -1.
</event>
<event>
 7    1  0.2395003E-008  0.4614232E+02  0.7816164E-02  0.1320468E+00
        -11   -1    0    0    0    0  0.00000000000E+00  0.00000000000E+00  0.45593999997E+02  0.45594000000E+02  0.51100000000E-03 0.  1.
         11   -1    0    0    0    0 -0.00000000000E+00 -0.00000000000E+00 -0.45593999997E+02  0.45594000000E+02  0.51100000000E-03 0. -1.
    9900012    2    1    2    0    0  0.42005311583E+02  0.15052956956E+02  0.61705092965E+01  0.46142324299E+02  0.10000059621E+02 0.  0.
         12    1    1    2    0    0 -0.42005311583E+02 -0.15052956956E+02 -0.61705092965E+01  0.45045675701E+02  0.00000000000E+00 0. -1.
         11    1    3    3    0    0  0.55582012758E+01  0.53885988257E+01  0.12880559360E+00  0.77425570626E+01  0.51100000000E-03 0. -1.
        -11    1    3    3    0    0  0.23541692612E+02  0.75904391169E+01  0.53712582996E+01  0.25311587722E+02  0.51100000000E-03 0.  1.
         12    1    3    3    0    0  0.12905417696E+02  0.20739190136E+01  0.67044540328E+00  0.13088179515E+02  0.00000000000E+00 0. -1.
</event>
<event>
 7    1  0.2395003E-008  0.4614232E+02  0.7816164E-02  0.1320468E+00
        -11   -1    0    0    0    0  0.00000000000E+00  0.00000000000E+00  0.45593999997E+02  0.45594000000E+02  0.51100000000E-03 0. -1.
         11   -1    0    0    0    0 -0.00000000000E+00 -0.00000000000E+00 -0.45593999997E+02  0.45594000000E+02  0.51100000000E-03 0.  1.
    9900012    2    1    2    0    0 -0.32446846767E+02  0.27965449053E+02 -0.13937330766E+02  0.46142318800E+02  0.10000009475E+02 0.  0.
         12    1    1    2    0    0  0.32446846767E+02 -0.27965449053E+02  0.13937330766E+02  0.45045681200E+02  0.00000000000E+00 0. -1.
         11    1    3    3    0    0 -0.73117415577E+01  0.80002824912E+01 -0.11674257974E+01  0.10900870048E+02  0.51100000000E-03 0. -1.
        -11    1    3    3    0    0 -0.15685130628E+02  0.15953792251E+02 -0.10561463482E+02  0.24740479404E+02  0.51100000000E-03 0.  1.
         12    1    3    3    0    0 -0.94499745818E+01  0.40113743109E+01 -0.22084414870E+01  0.10500969349E+02  0.00000000000E+00 0. -1.
</event>
<event>
 7    1  0.2395003E-008  0.4614232E+02  0.7816164E-02  0.1320468E+00
        -11   -1    0    0    0    0  0.00000000000E+00  0.00000000000E+00  0.45593999997E+02  0.45594000000E+02  0.51100000000E-03 0. -1.
         11   -1    0    0    0    0 -0.00000000000E+00 -0.00000000000E+00 -0.45593999997E+02  0.45594000000E+02  0.51100000000E-03 0.  1.
    9900012    2    1    2    0    0 -0.37106738656E+02  0.35496369546E+01 -0.25290375312E+02  0.46142322520E+02  0.10000043398E+02 0.  0.
         12    1    1    2    0    0  0.37106738656E+02 -0.35496369546E+01  0.25290375312E+02  0.45045677480E+02  0.00000000000E+00 0. -1.
         11    1    3    3    0    0 -0.23142323768E+02  0.46259687674E+01 -0.13779939297E+02  0.27328619865E+02  0.51100000000E-03 0. -1.
        -11    1    3    3    0    0 -0.41197791555E+00 -0.42291560527E+00 -0.23977987857E+01  0.24694174799E+01  0.51100000000E-03 0.  1.
        -12    1    3    3    0    0 -0.13552436973E+02 -0.65341620750E+00 -0.91126372293E+01  0.16344285176E+02  0.00000000000E+00 0.  1.
</event>
<event>
 7    1  0.2395003E-008  0.4614232E+02  0.7816164E-02  0.1320468E+00
        -11   -1    0    0    0    0  0.00000000000E+00  0.00000000000E+00  0.45593999997E+02  0.45594000000E+02  0.51100000000E-03 0.  1.
         11   -1    0    0    0    0 -0.00000000000E+00 -0.00000000000E+00 -0.45593999997E+02  0.45594000000E+02  0.51100000000E-03 0. -1.
    9900012    2    1    2    0    0  0.28268708569E+02 -0.31403830205E+02  0.15613873035E+02  0.46142318000E+02  0.10000002179E+02 0.  0.
         12    1    1    2    0    0 -0.28268708569E+02  0.31403830205E+02 -0.15613873035E+02  0.45045682000E+02  0.00000000000E+00 0. -1.
         11    1    3    3    0    0  0.11611005848E+02 -0.10081820110E+02  0.10179849233E+02  0.18441471856E+02  0.51100000000E-03 0. -1.
        -11    1    3    3    0    0  0.10681787117E+02 -0.11771083876E+02  0.32957053971E+01  0.16233319622E+02  0.51100000000E-03 0.  1.
         12    1    3    3    0    0  0.59759156037E+01 -0.95509262189E+01  0.21383184051E+01  0.11467526522E+02  0.00000000000E+00 0. -1.
</event>
<event>
 7    1  0.2395003E-008  0.4614231E+02  0.7816164E-02  0.1320468E+00
        -11   -1    0    0    0    0  0.00000000000E+00  0.00000000000E+00  0.45593999997E+02  0.45594000000E+02  0.51100000000E-03 0.  1.
         11   -1    0    0    0    0 -0.00000000000E+00 -0.00000000000E+00 -0.45593999997E+02  0.45594000000E+02  0.51100000000E-03 0. -1.
    9900012    2    1    2    0    0 -0.54517365133E+01  0.44572486235E+02 -0.35617128336E+01  0.46142314763E+02  0.99999726629E+01 0.  0.
         12    1    1    2    0    0  0.54517365133E+01 -0.44572486235E+02  0.35617128336E+01  0.45045685237E+02  0.00000000000E+00 0. -1.
         11    1    3    3    0    0  0.58189348057E+00  0.44965257680E+01 -0.32355389520E+01  0.55701038210E+01  0.51100000000E-03 0. -1.
        -11    1    3    3    0    0 -0.73911337907E-01  0.17412593064E+00 -0.12596034906E+00  0.22726415522E+00  0.51100000000E-03 0.  1.
        -12    1    3    3    0    0 -0.59597186560E+01  0.39901834536E+02 -0.20021353249E+00  0.40344946787E+02  0.00000000000E+00 0.  1.
</event>
<event>
 7    1  0.2395003E-008  0.4614232E+02  0.7816164E-02  0.1320468E+00
        -11   -1    0    0    0    0  0.00000000000E+00  0.00000000000E+00  0.45593999997E+02  0.45594000000E+02  0.51100000000E-03 0.  1.
         11   -1    0    0    0    0 -0.00000000000E+00 -0.00000000000E+00 -0.45593999997E+02  0.45594000000E+02  0.51100000000E-03 0. -1.
    9900012    2    1    2    0    0  0.36656009019E+01 -0.23151807694E+02  0.38466487864E+02  0.46142317431E+02  0.99999969938E+01 0.  0.
         12    1    1    2    0    0 -0.36656009019E+01  0.23151807694E+02 -0.38466487864E+02  0.45045682569E+02  0.00000000000E+00 0. -1.
         11    1    3    3    0    0 -0.55464408102E+00 -0.60567020157E+01  0.15531682400E+02  0.16680060785E+02  0.51100000000E-03 0. -1.
        -11    1    3    3    0    0  0.38720195238E+01 -0.71138118738E+01  0.13380202009E+02  0.15640609343E+02  0.51100000000E-03 0.  1.
         12    1    3    3    0    0  0.34822545919E+00 -0.99812938044E+01  0.95546034552E+01  0.13821647303E+02  0.00000000000E+00 0. -1.
</event>
<event>
 7    1  0.2395003E-008  0.4614232E+02  0.7816164E-02  0.1320468E+00
        -11   -1    0    0    0    0  0.00000000000E+00  0.00000000000E+00  0.45593999997E+02  0.45594000000E+02  0.51100000000E-03 0.  1.
         11   -1    0    0    0    0 -0.00000000000E+00 -0.00000000000E+00 -0.45593999997E+02  0.45594000000E+02  0.51100000000E-03 0. -1.
    9900012    2    1    2    0    0 -0.10089196909E+02 -0.43859002288E+02  0.19259994824E+01  0.46142318188E+02  0.10000003888E+02 0.  0.
         12    1    1    2    0    0  0.10089196909E+02  0.43859002288E+02 -0.19259994824E+01  0.45045681812E+02  0.00000000000E+00 0. -1.
         11    1    3    3    0    0 -0.64076013695E+00 -0.36841865243E+01 -0.10410215934E+01  0.38816916567E+01  0.51100000000E-03 0. -1.
        -11    1    3    3    0    0 -0.79694542957E+00 -0.22119647244E+02  0.17311155329E+01  0.22201591778E+02  0.51100000000E-03 0.  1.
         12    1    3    3    0    0 -0.86514913421E+01 -0.18055168519E+02  0.12359055429E+01  0.20059034753E+02  0.00000000000E+00 0. -1.
</event>
<event>
 7    1  0.2395003E-008  0.4614232E+02  0.7816164E-02  0.1320468E+00
        -11   -1    0    0    0    0  0.00000000000E+00  0.00000000000E+00  0.45593999997E+02  0.45594000000E+02  0.51100000000E-03 0.  1.
         11   -1    0    0    0    0 -0.00000000000E+00 -0.00000000000E+00 -0.45593999997E+02  0.45594000000E+02  0.51100000000E-03 0. -1.
    9900012    2    1    2    0    0  0.36541178315E+02 -0.10984372035E+02 -0.23941582172E+02  0.46142317648E+02  0.99999989652E+01 0.  0.
         12    1    1    2    0    0 -0.36541178315E+02  0.10984372035E+02  0.23941582172E+02  0.45045682352E+02  0.00000000000E+00 0. -1.
         11    1    3    3    0    0  0.29326631789E+01  0.33786478805E+00 -0.13829239857E+01  0.32599302059E+01  0.51100000000E-03 0. -1.
        -11    1    3    3    0    0  0.26651738297E+02 -0.53818474615E+01 -0.18420796176E+02  0.32842124907E+02  0.51100000000E-03 0.  1.
        -12    1    3    3    0    0  0.69567768393E+01 -0.59403893613E+01 -0.41378620106E+01  0.10040262535E+02  0.00000000000E+00 0.  1.
</event>
<event>
 7    1  0.2395003E-008  0.4614232E+02  0.7816164E-02  0.1320468E+00
        -11   -1    0    0    0    0  0.00000000000E+00  0.00000000000E+00  0.45593999997E+02  0.45594000000E+02  0.51100000000E-03 0.  1.
         11   -1    0    0    0    0 -0.00000000000E+00 -0.00000000000E+00 -0.45593999997E+02  0.45594000000E+02  0.51100000000E-03 0. -1.
    9900012    2    1    2    0    0 -0.29259039055E+01 -0.14060235437E+02  0.42694993406E+02  0.46142316565E+02  0.99999890908E+01 0.  0.
         12    1    1    2    0    0  0.29259039055E+01  0.14060235437E+02 -0.42694993406E+02  0.45045683435E+02  0.00000000000E+00 0. -1.
         11    1    3    3    0    0  0.72294559098E+00  0.72574774365E+00  0.28874364592E+01  0.30637639730E+01  0.51100000000E-03 0. -1.
        -11    1    3    3    0    0 -0.14255258535E+01 -0.11337941643E+02  0.21843649350E+02  0.24652100556E+02  0.51100000000E-03 0.  1.
         12    1    3    3    0    0 -0.22233236430E+01 -0.34480415379E+01  0.17963907597E+02  0.18426452036E+02  0.00000000000E+00 0. -1.
</event>
<event>
 7    1  0.2395003E-008  0.4614232E+02  0.7816164E-02  0.1320468E+00
        -11   -1    0    0    0    0  0.00000000000E+00  0.00000000000E+00  0.45593999997E+02  0.45594000000E+02  0.51100000000E-03 0.  1.
         11   -1    0    0    0    0 -0.00000000000E+00 -0.00000000000E+00 -0.45593999997E+02  0.45594000000E+02  0.51100000000E-03 0. -1.
    9900012    2    1    2    0    0 -0.23127711741E+02 -0.49250664041E+01  0.38340136057E+02  0.46142319160E+02  0.10000012758E+02 0.  0.
         12    1    1    2    0    0  0.23127711741E+02  0.49250664041E+01 -0.38340136057E+02  0.45045680840E+02  0.00000000000E+00 0. -1.
         11    1    3    3    0    0 -0.15329535267E+02 -0.23767545477E+01  0.30897922696E+02  0.34573475973E+02  0.51100000000E-03 0. -1.
        -11    1    3    3    0    0 -0.44793580350E+01 -0.31583227478E+01  0.44854963972E+01  0.70823251249E+01  0.51100000000E-03 0.  1.
         12    1    3    3    0    0 -0.33188184388E+01  0.61001089143E+00  0.29567169638E+01  0.44865180621E+01  0.00000000000E+00 0. -1.
</event>
<event>
 7    1  0.2395003E-008  0.4614232E+02  0.7816164E-02  0.1320468E+00
        -11   -1    0    0    0    0  0.00000000000E+00  0.00000000000E+00  0.45593999997E+02  0.45594000000E+02  0.51100000000E-03 0.  1.
         11   -1    0    0    0    0 -0.00000000000E+00 -0.00000000000E+00 -0.45593999997E+02  0.45594000000E+02  0.51100000000E-03 0. -1.
    9900012    2    1    2    0    0  0.34156271686E+02 -0.28248382798E+02  0.80306606386E+01  0.46142317227E+02  0.99999951285E+01 0.  0.
         12    1    1    2    0    0 -0.34156271686E+02  0.28248382798E+02 -0.80306606386E+01  0.45045682773E+02  0.00000000000E+00 0. -1.
         11    1    3    3    0    0  0.24341854037E+02 -0.17121468732E+02  0.69746142399E+01  0.30566579684E+02  0.51100000000E-03 0. -1.
        -11    1    3    3    0    0  0.85526464128E+01 -0.94444344098E+01  0.25524871026E+01  0.12994625530E+02  0.51100000000E-03 0.  1.
         12    1    3    3    0    0  0.12617712363E+01 -0.16824796563E+01 -0.14964407040E+01  0.25811120137E+01  0.00000000000E+00 0. -1.
</event>
<event>
 7    1  0.2395003E-008  0.4614232E+02  0.7816164E-02  0.1320468E+00
        -11   -1    0    0    0    0  0.00000000000E+00  0.00000000000E+00  0.45593999997E+02  0.45594000000E+02  0.51100000000E-03 0.  1.
         11   -1    0    0    0    0 -0.00000000000E+00 -0.00000000000E+00 -0.45593999997E+02  0.45594000000E+02  0.51100000000E-03 0. -1.
    9900012    2    1    2    0    0 -0.36707718386E+02 -0.26023827046E+02  0.21017432135E+01  0.46142317768E+02  0.10000000065E+02 0.  0.
         12    1    1    2    0    0  0.36707718386E+02  0.26023827046E+02 -0.21017432135E+01  0.45045682232E+02  0.00000000000E+00 0. -1.
         11    1    3    3    0    0 -0.25105837446E+01 -0.15528384377E+00  0.72066431632E+00  0.26165819553E+01  0.51100000000E-03 0. -1.
        -11    1    3    3    0    0 -0.32230671016E+02 -0.23946684962E+02  0.31173574054E+01  0.40273785423E+02  0.51100000000E-03 0.  1.
        -12    1    3    3    0    0 -0.19664636247E+01 -0.19218582399E+01 -0.17362785082E+01  0.32519503901E+01  0.00000000000E+00 0.  1.
</event>
<event>
 7    1  0.2395003E-008  0.4614232E+02  0.7816164E-02  0.1320468E+00
        -11   -1    0    0    0    0  0.00000000000E+00  0.00000000000E+00  0.45593999997E+02  0.45594000000E+02  0.51100000000E-03 0.  1.
         11   -1    0    0    0    0 -0.00000000000E+00 -0.00000000000E+00 -0.45593999997E+02  0.45594000000E+02  0.51100000000E-03 0. -1.
    9900012    2    1    2    0    0 -0.80299346911E+01  0.20979742876E+02  0.39044640449E+02  0.46142318630E+02  0.10000007926E+02 0.  0.
         12    1    1    2    0    0  0.80299346911E+01 -0.20979742876E+02 -0.39044640449E+02  0.45045681370E+02  0.00000000000E+00 0. -1.
         11    1    3    3    0    0  0.13003412573E+01  0.16766010542E+01  0.36534365878E+01  0.42248642159E+01  0.51100000000E-03 0. -1.
        -11    1    3    3    0    0 -0.48188733225E+01  0.16128751427E+02  0.28374910819E+02  0.32992328304E+02  0.51100000000E-03 0.  1.
         12    1    3    3    0    0 -0.45114026258E+01  0.31743903947E+01  0.70162930421E+01  0.89251261102E+01  0.00000000000E+00 0. -1.
</event>
<event>
 7    1  0.2395003E-008  0.4614232E+02  0.7816164E-02  0.1320468E+00
        -11   -1    0    0    0    0  0.00000000000E+00  0.00000000000E+00  0.45593999997E+02  0.45594000000E+02  0.51100000000E-03 0. -1.
         11   -1    0    0    0    0 -0.00000000000E+00 -0.00000000000E+00 -0.45593999997E+02  0.45594000000E+02  0.51100000000E-03 0.  1.
    9900012    2    1    2    0    0  0.35231269307E+02  0.27565201535E+02 -0.52944113335E+01  0.46142318031E+02  0.10000002464E+02 0.  0.
         12    1    1    2    0    0 -0.35231269307E+02 -0.27565201535E+02  0.52944113335E+01  0.45045681969E+02  0.00000000000E+00 0. -1.
         11    1    3    3    0    0 -0.48773207718E+00  0.10547275842E-01 -0.19047160843E-02  0.48785009297E+00  0.51100000000E-03 0. -1.
        -11    1    3    3    0    0  0.87363633976E+01  0.56066236108E+01  0.50401034390E+00  0.10392896633E+02  0.51100000000E-03 0.  1.
        -12    1    3    3    0    0  0.26982637987E+02  0.21948030648E+02 -0.57965169613E+01  0.35261571306E+02  0.00000000000E+00 0.  1.
</event>
<event>
 7    1  0.2395003E-008  0.4614232E+02  0.7816164E-02  0.1320468E+00
        -11   -1    0    0    0    0  0.00000000000E+00  0.00000000000E+00  0.45593999997E+02  0.45594000000E+02  0.51100000000E-03 0.  1.
         11   -1    0    0    0    0 -0.00000000000E+00 -0.00000000000E+00 -0.45593999997E+02  0.45594000000E+02  0.51100000000E-03 0. -1.
    9900012    2    1    2    0    0 -0.29351207156E+02  0.17281592541E+02  0.29478241686E+02  0.46142317242E+02  0.99999952660E+01 0.  0.
         12    1    1    2    0    0  0.29351207156E+02 -0.17281592541E+02 -0.29478241686E+02  0.45045682758E+02  0.00000000000E+00 0. -1.
         11    1    3    3    0    0 -0.12823022384E+01  0.25331378146E+01  0.31704124361E+01  0.42558902117E+01  0.51100000000E-03 0. -1.
        -11    1    3    3    0    0 -0.26890826756E+02  0.15180898115E+02  0.23480726652E+02  0.38793308129E+02  0.51100000000E-03 0.  1.
        -12    1    3    3    0    0 -0.11780781611E+01 -0.43244338918E+00  0.28271025979E+01  0.30931189013E+01  0.00000000000E+00 0.  1.
</event>
<event>
 7    1  0.2395003E-008  0.4614232E+02  0.7816164E-02  0.1320468E+00
        -11   -1    0    0    0    0  0.00000000000E+00  0.00000000000E+00  0.45593999997E+02  0.45594000000E+02  0.51100000000E-03 0. -1.
         11   -1    0    0    0    0 -0.00000000000E+00 -0.00000000000E+00 -0.45593999997E+02  0.45594000000E+02  0.51100000000E-03 0.  1.
    9900012    2    1    2    0    0  0.49624843106E+01  0.43534831871E+02 -0.10450150951E+02  0.46142317727E+02  0.99999996856E+01 0.  0.
         12    1    1    2    0    0 -0.49624843106E+01 -0.43534831871E+02  0.10450150951E+02  0.45045682273E+02  0.00000000000E+00 0. -1.
         11    1    3    3    0    0  0.40150234811E+00  0.17370518985E+02 -0.83920105234E+01  0.19295646525E+02  0.51100000000E-03 0. -1.
        -11    1    3    3    0    0  0.25354421021E+01  0.13043578880E+02 -0.26827213334E+01  0.13555825710E+02  0.51100000000E-03 0.  1.
        -12    1    3    3    0    0  0.20255398603E+01  0.13120734006E+02  0.62458090536E+00  0.13290845491E+02  0.00000000000E+00 0.  1.
</event>
<event>
 7    1  0.2395003E-008  0.4614232E+02  0.7816164E-02  0.1320468E+00
        -11   -1    0    0    0    0  0.00000000000E+00  0.00000000000E+00  0.45593999997E+02  0.45594000000E+02  0.51100000000E-03 0.  1.
         11   -1    0    0    0    0 -0.00000000000E+00 -0.00000000000E+00 -0.45593999997E+02  0.45594000000E+02  0.51100000000E-03 0. -1.
    9900012    2    1    2    0    0  0.26346242400E+02  0.35089090725E+02  0.10185508995E+02  0.46142319075E+02  0.10000011985E+02 0.  0.
         12    1    1    2    0    0 -0.26346242400E+02 -0.35089090725E+02 -0.10185508995E+02  0.45045680925E+02  0.00000000000E+00 0. -1.
         11    1    3    3    0    0  0.10384067400E+02  0.17152576665E+02  0.60216791703E+01  0.20935624240E+02  0.51100000000E-03 0.  1.
        -11    1    3    3    0    0  0.14999735292E+02  0.13485290259E+02  0.23584774795E+01  0.20307819393E+02  0.51100000000E-03 0. -1.
        -12    1    3    3    0    0  0.96243970758E+00  0.44512238005E+01  0.18053523456E+01  0.48988754428E+01  0.00000000000E+00 0.  1.
</event>
<event>
 7    1  0.2395003E-008  0.4614232E+02  0.7816164E-02  0.1320468E+00
        -11   -1    0    0    0    0  0.00000000000E+00  0.00000000000E+00  0.45593999997E+02  0.45594000000E+02  0.51100000000E-03 0.  1.
         11   -1    0    0    0    0 -0.00000000000E+00 -0.00000000000E+00 -0.45593999997E+02  0.45594000000E+02  0.51100000000E-03 0. -1.
    9900012    2    1    2    0    0  0.16889934417E+02  0.40475428377E+02  0.10275373381E+02  0.46142317798E+02  0.10000000334E+02 0.  0.
         12    1    1    2    0    0 -0.16889934417E+02 -0.40475428377E+02 -0.10275373381E+02  0.45045682202E+02  0.00000000000E+00 0. -1.
         11    1    3    3    0    0  0.52271207174E+01  0.12000323291E+02  0.30618394527E+01  0.13442671281E+02  0.51100000000E-03 0.  1.
        -11    1    3    3    0    0  0.91824807045E+01  0.13545160937E+02  0.63081455555E+01  0.17538016915E+02  0.51100000000E-03 0. -1.
        -12    1    3    3    0    0  0.24803329953E+01  0.14929944149E+02  0.90538837319E+00  0.15161629601E+02  0.00000000000E+00 0.  1.
</event>
<event>
 7    1  0.2395003E-008  0.4614232E+02  0.7816164E-02  0.1320468E+00
        -11   -1    0    0    0    0  0.00000000000E+00  0.00000000000E+00  0.45593999997E+02  0.45594000000E+02  0.51100000000E-03 0.  1.
         11   -1    0    0    0    0 -0.00000000000E+00 -0.00000000000E+00 -0.45593999997E+02  0.45594000000E+02  0.51100000000E-03 0. -1.
    9900012    2    1    2    0    0 -0.14083901038E+02 -0.11203104956E+02  0.41294644554E+02  0.46142317655E+02  0.99999990324E+01 0.  0.
         12    1    1    2    0    0  0.14083901038E+02  0.11203104956E+02 -0.41294644554E+02  0.45045682345E+02  0.00000000000E+00 0. -1.
         11    1    3    3    0    0 -0.83971969739E+01 -0.29775883968E+01  0.13305997323E+02  0.16013385485E+02  0.51100000000E-03 0. -1.
        -11    1    3    3    0    0 -0.48668974688E+01 -0.28649090945E+01  0.16102592699E+02  0.17064228286E+02  0.51100000000E-03 0.  1.
        -12    1    3    3    0    0 -0.81980659508E+00 -0.53606074651E+01  0.11886054531E+02  0.13064703884E+02  0.00000000000E+00 0.  1.
</event>
<event>
 7    1  0.2395003E-008  0.4614232E+02  0.7816164E-02  0.1320468E+00
        -11   -1    0    0    0    0  0.00000000000E+00  0.00000000000E+00  0.45593999997E+02  0.45594000000E+02  0.51100000000E-03 0.  1.
         11   -1    0    0    0    0 -0.00000000000E+00 -0.00000000000E+00 -0.45593999997E+02  0.45594000000E+02  0.51100000000E-03 0. -1.
    9900012    2    1    2    0    0  0.28783552798E+02 -0.22615092057E+01  0.34576092533E+02  0.46142317517E+02  0.99999977721E+01 0.  0.
         12    1    1    2    0    0 -0.28783552798E+02  0.22615092057E+01 -0.34576092533E+02  0.45045682483E+02  0.00000000000E+00 0. -1.
         11    1    3    3    0    0  0.82832440894E+01 -0.87549563506E+00  0.58853966544E+01  0.10198848920E+02  0.51100000000E-03 0.  1.
        -11    1    3    3    0    0  0.36082328869E+01 -0.28523618665E+01  0.75843715635E+01  0.88700622916E+01  0.51100000000E-03 0. -1.
        -12    1    3    3    0    0  0.16892075821E+02  0.14663482959E+01  0.21106324315E+02  0.27073406305E+02  0.00000000000E+00 0.  1.
</event>
<event>
 7    1  0.2395003E-008  0.4614232E+02  0.7816164E-02  0.1320468E+00
        -11   -1    0    0    0    0  0.00000000000E+00  0.00000000000E+00  0.45593999997E+02  0.45594000000E+02  0.51100000000E-03 0. -1.
         11   -1    0    0    0    0 -0.00000000000E+00 -0.00000000000E+00 -0.45593999997E+02  0.45594000000E+02  0.51100000000E-03 0.  1.
    9900012    2    1    2    0    0  0.14650150073E+02  0.35583262499E+02  0.23416186993E+02  0.46142320068E+02  0.10000021039E+02 0.  0.
         12    1    1    2    0    0 -0.14650150073E+02 -0.35583262499E+02 -0.23416186993E+02  0.45045679932E+02  0.00000000000E+00 0. -1.
         11    1    3    3    0    0  0.23438639089E+01  0.14974826577E+01  0.10817895060E+01  0.29843627678E+01  0.51100000000E-03 0. -1.
        -11    1    3    3    0    0  0.73794295687E+01  0.13843577714E+02  0.64581846860E+01  0.16964927774E+02  0.51100000000E-03 0.  1.
         12    1    3    3    0    0  0.49268565952E+01  0.20242202128E+02  0.15876212801E+02  0.26193029526E+02  0.00000000000E+00 0. -1.
</event>
<event>
 7    1  0.2395003E-008  0.4614232E+02  0.7816164E-02  0.1320468E+00
        -11   -1    0    0    0    0  0.00000000000E+00  0.00000000000E+00  0.45593999997E+02  0.45594000000E+02  0.51100000000E-03 0.  1.
         11   -1    0    0    0    0 -0.00000000000E+00 -0.00000000000E+00 -0.45593999997E+02  0.45594000000E+02  0.51100000000E-03 0. -1.
    9900012    2    1    2    0    0 -0.16306988796E+02  0.39395859907E+02  0.14531411325E+02  0.46142316783E+02  0.99999910768E+01 0.  0.
         12    1    1    2    0    0  0.16306988796E+02 -0.39395859907E+02 -0.14531411325E+02  0.45045683217E+02  0.00000000000E+00 0. -1.
         11    1    3    3    0    0  0.48128000697E+00  0.50352390027E+01  0.28668851260E+01  0.58141459257E+01  0.51100000000E-03 0. -1.
        -11    1    3    3    0    0 -0.10997034515E+02  0.16504484847E+02  0.59933363601E+01  0.20718418598E+02  0.51100000000E-03 0.  1.
         12    1    3    3    0    0 -0.57912342879E+01  0.17856136057E+02  0.56711898393E+01  0.19609752259E+02  0.00000000000E+00 0. -1.
</event>
<event>
 7    1  0.2395003E-008  0.4614232E+02  0.7816164E-02  0.1320468E+00
        -11   -1    0    0    0    0  0.00000000000E+00  0.00000000000E+00  0.45593999997E+02  0.45594000000E+02  0.51100000000E-03 0.  1.
         11   -1    0    0    0    0 -0.00000000000E+00 -0.00000000000E+00 -0.45593999997E+02  0.45594000000E+02  0.51100000000E-03 0. -1.
    9900012    2    1    2    0    0 -0.32449972682E+02 -0.31222203522E+02  0.11343589187E+01  0.46142317743E+02  0.99999998340E+01 0.  0.
         12    1    1    2    0    0  0.32449972682E+02  0.31222203522E+02 -0.11343589187E+01  0.45045682257E+02  0.00000000000E+00 0. -1.
         11    1    3    3    0    0 -0.26460933880E+01 -0.63483633232E+01  0.54027914500E+00  0.68989440436E+01  0.51100000000E-03 0. -1.
        -11    1    3    3    0    0 -0.18349097362E+02 -0.18800091770E+02  0.16704728095E+00  0.26270910331E+02  0.51100000000E-03 0.  1.
        -12    1    3    3    0    0 -0.11454781932E+02 -0.60737484284E+01  0.42703249278E+00  0.12972463368E+02  0.00000000000E+00 0.  1.
</event>
<event>
 7    1  0.2395003E-008  0.4614232E+02  0.7816164E-02  0.1320468E+00
        -11   -1    0    0    0    0  0.00000000000E+00  0.00000000000E+00  0.45593999997E+02  0.45594000000E+02  0.51100000000E-03 0.  1.
         11   -1    0    0    0    0 -0.00000000000E+00 -0.00000000000E+00 -0.45593999997E+02  0.45594000000E+02  0.51100000000E-03 0. -1.
    9900012    2    1    2    0    0  0.30338873954E+02 -0.20331807077E+02  0.26368235772E+02  0.46142317527E+02  0.99999978615E+01 0.  0.
         12    1    1    2    0    0 -0.30338873954E+02  0.20331807077E+02 -0.26368235772E+02  0.45045682473E+02  0.00000000000E+00 0. -1.
         11    1    3    3    0    0  0.64790504438E+01 -0.93109700669E+00  0.48279806514E+01  0.81335375895E+01  0.51100000000E-03 0. -1.
        -11    1    3    3    0    0  0.16887886134E+02 -0.15576511428E+02  0.18494181405E+02  0.29493442533E+02  0.51100000000E-03 0.  1.
        -12    1    3    3    0    0  0.69719373756E+01 -0.38241986418E+01  0.30460737152E+01  0.85153374037E+01  0.00000000000E+00 0.  1.
</event>
<event>
 7    1  0.2395003E-008  0.4614232E+02  0.7816164E-02  0.1320468E+00
        -11   -1    0    0    0    0  0.00000000000E+00  0.00000000000E+00  0.45593999997E+02  0.45594000000E+02  0.51100000000E-03 0. -1.
         11   -1    0    0    0    0 -0.00000000000E+00 -0.00000000000E+00 -0.45593999997E+02  0.45594000000E+02  0.51100000000E-03 0.  1.
    9900012    2    1    2    0    0 -0.10339875473E+01 -0.37541521521E+02 -0.24873248944E+02  0.46142317839E+02  0.10000000707E+02 0.  0.
         12    1    1    2    0    0  0.10339875473E+01  0.37541521521E+02  0.24873248944E+02  0.45045682161E+02  0.00000000000E+00 0. -1.
         11    1    3    3    0    0  0.20171480621E+01 -0.29676515633E+02 -0.19119522486E+02  0.35359872833E+02  0.51100000000E-03 0. -1.
        -11    1    3    3    0    0  0.28845889861E+00 -0.30316848238E+01 -0.30678647039E+01  0.43227439792E+01  0.51100000000E-03 0.  1.
         12    1    3    3    0    0 -0.33395945081E+01 -0.48333210643E+01 -0.26858617541E+01  0.64597010265E+01  0.00000000000E+00 0. -1.
</event>
<event>
 7    1  0.2395003E-008  0.4614232E+02  0.7816164E-02  0.1320468E+00
        -11   -1    0    0    0    0  0.00000000000E+00  0.00000000000E+00  0.45593999997E+02  0.45594000000E+02  0.51100000000E-03 0.  1.
         11   -1    0    0    0    0 -0.00000000000E+00 -0.00000000000E+00 -0.45593999997E+02  0.45594000000E+02  0.51100000000E-03 0. -1.
    9900012    2    1    2    0    0 -0.81416677547E+01 -0.35254809811E+02  0.26831420975E+02  0.46142317407E+02  0.99999967754E+01 0.  0.
         12    1    1    2    0    0  0.81416677547E+01  0.35254809811E+02 -0.26831420975E+02  0.45045682593E+02  0.00000000000E+00 0. -1.
         11    1    3    3    0    0 -0.21850462172E+01 -0.16649237899E+01  0.37475742538E+01  0.46465805972E+01  0.51100000000E-03 0. -1.
        -11    1    3    3    0    0  0.81782342855E+00 -0.62991055303E+01  0.46711739761E+01  0.78846326622E+01  0.51100000000E-03 0.  1.
        -12    1    3    3    0    0 -0.67744449661E+01 -0.27290780491E+02  0.18412672745E+02  0.33611104148E+02  0.00000000000E+00 0.  1.
</event>
<event>
 7    1  0.2395003E-008  0.4614232E+02  0.7816164E-02  0.1320468E+00
        -11   -1    0    0    0    0  0.00000000000E+00  0.00000000000E+00  0.45593999997E+02  0.45594000000E+02  0.51100000000E-03 0.  1.
         11   -1    0    0    0    0 -0.00000000000E+00 -0.00000000000E+00 -0.45593999997E+02  0.45594000000E+02  0.51100000000E-03 0. -1.
    9900012    2    1    2    0    0  0.43762184243E+01  0.28681416461E+02  0.34457777451E+02  0.46142319132E+02  0.10000012505E+02 0.  0.
         12    1    1    2    0    0 -0.43762184243E+01 -0.28681416461E+02 -0.34457777451E+02  0.45045680868E+02  0.00000000000E+00 0. -1.
         11    1    3    3    0    0  0.14650352002E+01  0.44166468368E+01  0.23883807904E+01  0.52304359742E+01  0.51100000000E-03 0. -1.
        -11    1    3    3    0    0  0.31672877719E+01  0.75065721976E+01  0.14488337326E+02  0.16622041292E+02  0.51100000000E-03 0.  1.
        -12    1    3    3    0    0 -0.25610454772E+00  0.16758197427E+02  0.17581059335E+02  0.24289841866E+02  0.00000000000E+00 0.  1.
</event>
<event>
 7    1  0.2395003E-008  0.4614232E+02  0.7816164E-02  0.1320468E+00
        -11   -1    0    0    0    0  0.00000000000E+00  0.00000000000E+00  0.45593999997E+02  0.45594000000E+02  0.51100000000E-03 0. -1.
         11   -1    0    0    0    0 -0.00000000000E+00 -0.00000000000E+00 -0.45593999997E+02  0.45594000000E+02  0.51100000000E-03 0.  1.
    9900012    2    1    2    0    0  0.33322461584E+02  0.25847812711E+02 -0.15830906546E+02  0.46142317964E+02  0.10000001855E+02 0.  0.
         12    1    1    2    0    0 -0.33322461584E+02 -0.25847812711E+02  0.15830906546E+02  0.45045682036E+02  0.00000000000E+00 0. -1.
         11    1    3    3    0    0  0.24676075849E+02  0.14304145755E+02 -0.81870853988E+01  0.29673989834E+02  0.51100000000E-03 0. -1.
        -11    1    3    3    0    0  0.68441635214E+01  0.76972049410E+01 -0.59522150021E+01  0.11896150718E+02  0.51100000000E-03 0.  1.
         12    1    3    3    0    0  0.18022222141E+01  0.38464620154E+01 -0.16916061454E+01  0.45721774130E+01  0.00000000000E+00 0. -1.
</event>
<event>
 7    1  0.2395003E-008  0.4614232E+02  0.7816164E-02  0.1320468E+00
        -11   -1    0    0    0    0  0.00000000000E+00  0.00000000000E+00  0.45593999997E+02  0.45594000000E+02  0.51100000000E-03 0.  1.
         11   -1    0    0    0    0 -0.00000000000E+00 -0.00000000000E+00 -0.45593999997E+02  0.45594000000E+02  0.51100000000E-03 0. -1.
    9900012    2    1    2    0    0  0.31785676848E+01 -0.23479912730E+02  0.38310617076E+02  0.46142323458E+02  0.10000051949E+02 0.  0.
         12    1    1    2    0    0 -0.31785676848E+01  0.23479912730E+02 -0.38310617076E+02  0.45045676542E+02  0.00000000000E+00 0. -1.
         11    1    3    3    0    0  0.37051786773E+01 -0.45780592221E+01  0.54770096947E+01  0.80426743517E+01  0.51100000000E-03 0. -1.
        -11    1    3    3    0    0  0.12620861518E+01 -0.14752330727E+02  0.24906900782E+02  0.28975469456E+02  0.51100000000E-03 0.  1.
         12    1    3    3    0    0 -0.17886971443E+01 -0.41495227809E+01  0.79267065996E+01  0.91241796508E+01  0.00000000000E+00 0. -1.
</event>
<event>
 7    1  0.2395003E-008  0.4614232E+02  0.7816164E-02  0.1320468E+00
        -11   -1    0    0    0    0  0.00000000000E+00  0.00000000000E+00  0.45593999997E+02  0.45594000000E+02  0.51100000000E-03 0. -1.
         11   -1    0    0    0    0 -0.00000000000E+00 -0.00000000000E+00 -0.45593999997E+02  0.45594000000E+02  0.51100000000E-03 0.  1.
    9900012    2    1    2    0    0  0.41934340619E+02 -0.84281643530E+00 -0.16429069219E+02  0.46142316765E+02  0.99999909181E+01 0.  0.
         12    1    1    2    0    0 -0.41934340619E+02  0.84281643530E+00  0.16429069219E+02  0.45045683235E+02  0.00000000000E+00 0. -1.
         11    1    3    3    0    0  0.87864995640E+01 -0.17088815271E+01 -0.96702848745E+00  0.90032213690E+01  0.51100000000E-03 0. -1.
        -11    1    3    3    0    0  0.11804068230E+02  0.30532536351E+01 -0.71175362193E+01  0.14117992301E+02  0.51100000000E-03 0.  1.
        -12    1    3    3    0    0  0.21343772825E+02 -0.21871885433E+01 -0.83445045121E+01  0.23021103095E+02  0.00000000000E+00 0.  1.
</event>
<event>
 7    1  0.2395003E-008  0.4614232E+02  0.7816164E-02  0.1320468E+00
        -11   -1    0    0    0    0  0.00000000000E+00  0.00000000000E+00  0.45593999997E+02  0.45594000000E+02  0.51100000000E-03 0.  1.
         11   -1    0    0    0    0 -0.00000000000E+00 -0.00000000000E+00 -0.45593999997E+02  0.45594000000E+02  0.51100000000E-03 0. -1.
    9900012    2    1    2    0    0 -0.42797736920E+02 -0.10695678168E+02  0.91142569425E+01  0.46142317670E+02  0.99999991724E+01 0.  0.
         12    1    1    2    0    0  0.42797736920E+02  0.10695678168E+02 -0.91142569425E+01  0.45045682330E+02  0.00000000000E+00 0. -1.
         11    1    3    3    0    0 -0.20182955221E+01  0.37208443517E+00  0.15153940308E+01  0.25511532630E+01  0.51100000000E-03 0. -1.
        -11    1    3    3    0    0 -0.24903462930E+02 -0.76100308235E+01  0.10157833075E+01  0.26060062376E+02  0.51100000000E-03 0.  1.
         12    1    3    3    0    0 -0.15875978467E+02 -0.34577317796E+01  0.65830796042E+01  0.17531102031E+02  0.00000000000E+00 0. -1.
</event>
<event>
 7    1  0.2395003E-008  0.4614232E+02  0.7816164E-02  0.1320468E+00
        -11   -1    0    0    0    0  0.00000000000E+00  0.00000000000E+00  0.45593999997E+02  0.45594000000E+02  0.51100000000E-03 0.  1.
         11   -1    0    0    0    0 -0.00000000000E+00 -0.00000000000E+00 -0.45593999997E+02  0.45594000000E+02  0.51100000000E-03 0. -1.
    9900012    2    1    2    0    0  0.27236618684E+02 -0.35821254626E+02  0.20292586320E+01  0.46142316845E+02  0.99999916465E+01 0.  0.
         12    1    1    2    0    0 -0.27236618684E+02  0.35821254626E+02 -0.20292586320E+01  0.45045683155E+02  0.00000000000E+00 0. -1.
         11    1    3    3    0    0  0.40135720730E+01 -0.35022278585E+01  0.22491320660E+01  0.57821238373E+01  0.51100000000E-03 0. -1.
        -11    1    3    3    0    0  0.32653835877E+01 -0.80949526188E+01 -0.18833559629E+01  0.89296146513E+01  0.51100000000E-03 0.  1.
        -12    1    3    3    0    0  0.19957663023E+02 -0.24224074149E+02  0.16634825289E+01  0.31430578356E+02  0.00000000000E+00 0.  1.
</event>
<event>
 7    1  0.2395003E-008  0.4614232E+02  0.7816164E-02  0.1320468E+00
        -11   -1    0    0    0    0  0.00000000000E+00  0.00000000000E+00  0.45593999997E+02  0.45594000000E+02  0.51100000000E-03 0.  1.
         11   -1    0    0    0    0 -0.00000000000E+00 -0.00000000000E+00 -0.45593999997E+02  0.45594000000E+02  0.51100000000E-03 0. -1.
    9900012    2    1    2    0    0 -0.39541418007E+02  0.19819484981E+02  0.85309988505E+01  0.46142315809E+02  0.99999821948E+01 0.  0.
         12    1    1    2    0    0  0.39541418007E+02 -0.19819484981E+02 -0.85309988505E+01  0.45045684191E+02  0.00000000000E+00 0. -1.
         11    1    3    3    0    0 -0.69133018110E+01  0.21918159106E+01 -0.13431709166E+01  0.73757648612E+01  0.51100000000E-03 0. -1.
        -11    1    3    3    0    0 -0.17435110565E+02  0.12475265653E+02  0.60021486164E+01  0.22262998940E+02  0.51100000000E-03 0.  1.
        -12    1    3    3    0    0 -0.15193005631E+02  0.51524034175E+01  0.38720211507E+01  0.16503552007E+02  0.00000000000E+00 0.  1.
</event>
<event>
 7    1  0.2395003E-008  0.4614232E+02  0.7816164E-02  0.1320468E+00
        -11   -1    0    0    0    0  0.00000000000E+00  0.00000000000E+00  0.45593999997E+02  0.45594000000E+02  0.51100000000E-03 0.  1.
         11   -1    0    0    0    0 -0.00000000000E+00 -0.00000000000E+00 -0.45593999997E+02  0.45594000000E+02  0.51100000000E-03 0. -1.
    9900012    2    1    2    0    0  0.18399012990E+02 -0.21847874220E+02  0.34831884997E+02  0.46142317639E+02  0.99999988838E+01 0.  0.
         12    1    1    2    0    0 -0.18399012990E+02  0.21847874220E+02 -0.34831884997E+02  0.45045682361E+02  0.00000000000E+00 0. -1.
         11    1    3    3    0    0 -0.16091492430E-02 -0.15273190077E+01  0.20655125474E+01  0.25688612818E+01  0.51100000000E-03 0. -1.
        -11    1    3    3    0    0  0.17125792134E+02 -0.19636587887E+02  0.26582248391E+02  0.37222362497E+02  0.51100000000E-03 0.  1.
         12    1    3    3    0    0  0.12748300057E+01 -0.68396732463E+00  0.61841240585E+01  0.63510938598E+01  0.00000000000E+00 0. -1.
</event>
<event>
 7    1  0.2395003E-008  0.4614231E+02  0.7816164E-02  0.1320468E+00
        -11   -1    0    0    0    0  0.00000000000E+00  0.00000000000E+00  0.45593999997E+02  0.45594000000E+02  0.51100000000E-03 0.  1.
         11   -1    0    0    0    0 -0.00000000000E+00 -0.00000000000E+00 -0.45593999997E+02  0.45594000000E+02  0.51100000000E-03 0. -1.
    9900012    2    1    2    0    0  0.20966204133E+02  0.32843867649E+02  0.22601168199E+02  0.46142310285E+02  0.99999318293E+01 0.  0.
         12    1    1    2    0    0 -0.20966204133E+02 -0.32843867649E+02 -0.22601168199E+02  0.45045689715E+02  0.00000000000E+00 0. -1.
         11    1    3    3    0    0  0.42453558980E+01  0.61370804795E+01  0.51326940080E+00  0.74799899232E+01  0.51100000000E-03 0. -1.
        -11    1    3    3    0    0  0.81828338546E+01  0.96123798473E+01  0.88020809855E+01  0.15389387452E+02  0.51100000000E-03 0.  1.
        -12    1    3    3    0    0  0.85380143803E+01  0.17094407322E+02  0.13285817813E+02  0.23272932910E+02  0.00000000000E+00 0.  1.
</event>
<event>
 7    1  0.2395003E-008  0.4614232E+02  0.7816164E-02  0.1320468E+00
        -11   -1    0    0    0    0  0.00000000000E+00  0.00000000000E+00  0.45593999997E+02  0.45594000000E+02  0.51100000000E-03 0.  1.
         11   -1    0    0    0    0 -0.00000000000E+00 -0.00000000000E+00 -0.45593999997E+02  0.45594000000E+02  0.51100000000E-03 0. -1.
    9900012    2    1    2    0    0 -0.26224251753E+02 -0.36603215482E+02  0.12675715893E+01  0.46142317617E+02  0.99999986850E+01 0.  0.
         12    1    1    2    0    0  0.26224251753E+02  0.36603215482E+02 -0.12675715893E+01  0.45045682383E+02  0.00000000000E+00 0. -1.
         11    1    3    3    0    0 -0.85513757361E+01 -0.12038752309E+02  0.39096759117E+01  0.15275573644E+02  0.51100000000E-03 0. -1.
        -11    1    3    3    0    0 -0.10244639052E+02 -0.14057734008E+02  0.12056873226E+01  0.17436347006E+02  0.51100000000E-03 0.  1.
         12    1    3    3    0    0 -0.74282369644E+01 -0.10506729165E+02 -0.38477916450E+01  0.13430396967E+02  0.00000000000E+00 0. -1.
</event>
<event>
 7    1  0.2395003E-008  0.4614232E+02  0.7816164E-02  0.1320468E+00
        -11   -1    0    0    0    0  0.00000000000E+00  0.00000000000E+00  0.45593999997E+02  0.45594000000E+02  0.51100000000E-03 0.  1.
         11   -1    0    0    0    0 -0.00000000000E+00 -0.00000000000E+00 -0.45593999997E+02  0.45594000000E+02  0.51100000000E-03 0. -1.
    9900012    2    1    2    0    0  0.40766823750E+02 -0.14939464511E+02  0.11999661563E+02  0.46142318785E+02  0.10000009335E+02 0.  0.
         12    1    1    2    0    0 -0.40766823750E+02  0.14939464511E+02 -0.11999661563E+02  0.45045681215E+02  0.00000000000E+00 0. -1.
         11    1    3    3    0    0  0.16602400327E+02 -0.83701435658E+01  0.94618616936E+00  0.18617042419E+02  0.51100000000E-03 0. -1.
        -11    1    3    3    0    0  0.66211208985E+01 -0.31335644642E+01  0.29281591184E+01  0.78887631659E+01  0.51100000000E-03 0.  1.
         12    1    3    3    0    0  0.17543302525E+02 -0.34357564807E+01  0.81253162751E+01  0.19636513199E+02  0.00000000000E+00 0. -1.
</event>
<event>
 7    1  0.2395003E-008  0.4614232E+02  0.7816164E-02  0.1320468E+00
        -11   -1    0    0    0    0  0.00000000000E+00  0.00000000000E+00  0.45593999997E+02  0.45594000000E+02  0.51100000000E-03 0.  1.
         11   -1    0    0    0    0 -0.00000000000E+00 -0.00000000000E+00 -0.45593999997E+02  0.45594000000E+02  0.51100000000E-03 0. -1.
    9900012    2    1    2    0    0  0.30342533653E+02 -0.18467382257E+02  0.27701982694E+02  0.46142318729E+02  0.10000008828E+02 0.  0.
         12    1    1    2    0    0 -0.30342533653E+02  0.18467382257E+02 -0.27701982694E+02  0.45045681271E+02  0.00000000000E+00 0. -1.
         11    1    3    3    0    0  0.78573427216E+01 -0.95878700076E+01  0.83418468594E+01  0.14941602833E+02  0.51100000000E-03 0. -1.
        -11    1    3    3    0    0  0.17658912257E+02 -0.61514786586E+01  0.16613412060E+02  0.25013662913E+02  0.51100000000E-03 0.  1.
         12    1    3    3    0    0  0.48262786751E+01 -0.27280335912E+01  0.27467237749E+01  0.61870529834E+01  0.00000000000E+00 0. -1.
</event>
<event>
 7    1  0.2395003E-008  0.4614232E+02  0.7816164E-02  0.1320468E+00
        -11   -1    0    0    0    0  0.00000000000E+00  0.00000000000E+00  0.45593999997E+02  0.45594000000E+02  0.51100000000E-03 0.  1.
         11   -1    0    0    0    0 -0.00000000000E+00 -0.00000000000E+00 -0.45593999997E+02  0.45594000000E+02  0.51100000000E-03 0. -1.
    9900012    2    1    2    0    0 -0.23608650640E+02  0.22720846069E+02  0.30911296392E+02  0.46142317900E+02  0.10000001270E+02 0.  0.
         12    1    1    2    0    0  0.23608650640E+02 -0.22720846069E+02 -0.30911296392E+02  0.45045682100E+02  0.00000000000E+00 0. -1.
         11    1    3    3    0    0 -0.31970280559E+01  0.78093896458E+01  0.52718702460E+01  0.99498829733E+01  0.51100000000E-03 0. -1.
        -11    1    3    3    0    0 -0.17301176301E+02  0.12965932924E+02  0.19924381891E+02  0.29401141338E+02  0.51100000000E-03 0.  1.
        -12    1    3    3    0    0 -0.31104462830E+01  0.19455234991E+01  0.57150442556E+01  0.67912935888E+01  0.00000000000E+00 0.  1.
</event>
<event>
 7    1  0.2395003E-008  0.4614232E+02  0.7816164E-02  0.1320468E+00
        -11   -1    0    0    0    0  0.00000000000E+00  0.00000000000E+00  0.45593999997E+02  0.45594000000E+02  0.51100000000E-03 0. -1.
         11   -1    0    0    0    0 -0.00000000000E+00 -0.00000000000E+00 -0.45593999997E+02  0.45594000000E+02  0.51100000000E-03 0.  1.
    9900012    2    1    2    0    0 -0.34399579844E+02 -0.24700419593E+02 -0.15351600007E+02  0.46142318250E+02  0.10000004458E+02 0.  0.
         12    1    1    2    0    0  0.34399579844E+02  0.24700419593E+02  0.15351600007E+02  0.45045681750E+02  0.00000000000E+00 0. -1.
         11    1    3    3    0    0 -0.14936610880E+02 -0.51391468285E+01 -0.53631033654E+01  0.16681608216E+02  0.51100000000E-03 0. -1.
        -11    1    3    3    0    0 -0.16541100184E+02 -0.15386468408E+02 -0.76202211808E+01  0.23841543081E+02  0.51100000000E-03 0.  1.
        -12    1    3    3    0    0 -0.29218687798E+01 -0.41748043567E+01 -0.23682754612E+01  0.56191669528E+01  0.00000000000E+00 0.  1.
</event>
<event>
 7    1  0.2395003E-008  0.4614232E+02  0.7816164E-02  0.1320468E+00
        -11   -1    0    0    0    0  0.00000000000E+00  0.00000000000E+00  0.45593999997E+02  0.45594000000E+02  0.51100000000E-03 0. -1.
         11   -1    0    0    0    0 -0.00000000000E+00 -0.00000000000E+00 -0.45593999997E+02  0.45594000000E+02  0.51100000000E-03 0.  1.
    9900012    2    1    2    0    0  0.15525658754E+02  0.26446225325E+02 -0.32994916822E+02  0.46142318189E+02  0.10000003906E+02 0.  0.
         12    1    1    2    0    0 -0.15525658754E+02 -0.26446225325E+02  0.32994916822E+02  0.45045681811E+02  0.00000000000E+00 0. -1.
         11    1    3    3    0    0  0.80429472075E+01  0.14128236850E+02 -0.21419889965E+02  0.26890663113E+02  0.51100000000E-03 0. -1.
        -11    1    3    3    0    0  0.30434048124E+01  0.70322052861E+01 -0.91516225581E+01  0.11935929781E+02  0.51100000000E-03 0.  1.
        -12    1    3    3    0    0  0.44393067346E+01  0.52857831885E+01 -0.24234042991E+01  0.73157252953E+01  0.00000000000E+00 0.  1.
</event>
<event>
 7    1  0.2395003E-008  0.4614232E+02  0.7816164E-02  0.1320468E+00
        -11   -1    0    0    0    0  0.00000000000E+00  0.00000000000E+00  0.45593999997E+02  0.45594000000E+02  0.51100000000E-03 0.  1.
         11   -1    0    0    0    0 -0.00000000000E+00 -0.00000000000E+00 -0.45593999997E+02  0.45594000000E+02  0.51100000000E-03 0. -1.
    9900012    2    1    2    0    0  0.22457327512E+02  0.27130241163E+02  0.28084372142E+02  0.46142317597E+02  0.99999985033E+01 0.  0.
         12    1    1    2    0    0 -0.22457327512E+02 -0.27130241163E+02 -0.28084372142E+02  0.45045682403E+02  0.00000000000E+00 0. -1.
         11    1    3    3    0    0  0.10660974288E+02  0.10612587981E+02  0.96436134375E+01  0.17868482779E+02  0.51100000000E-03 0. -1.
        -11    1    3    3    0    0  0.92090275071E+01  0.14760195495E+02  0.18135874768E+02  0.25131245742E+02  0.51100000000E-03 0.  1.
        -12    1    3    3    0    0  0.25873257174E+01  0.17574576864E+01  0.30488393660E+00  0.31425890763E+01  0.00000000000E+00 0.  1.
</event>
<event>
 7    1  0.2395003E-008  0.4614232E+02  0.7816164E-02  0.1320468E+00
        -11   -1    0    0    0    0  0.00000000000E+00  0.00000000000E+00  0.45593999997E+02  0.45594000000E+02  0.51100000000E-03 0. -1.
         11   -1    0    0    0    0 -0.00000000000E+00 -0.00000000000E+00 -0.45593999997E+02  0.45594000000E+02  0.51100000000E-03 0.  1.
    9900012    2    1    2    0    0  0.40915374298E+02 -0.17250299857E+02 -0.75810670717E+01  0.46142320107E+02  0.10000021387E+02 0.  0.
         12    1    1    2    0    0 -0.40915374298E+02  0.17250299857E+02  0.75810670717E+01  0.45045679893E+02  0.00000000000E+00 0. -1.
         11    1    3    3    0    0  0.65339345526E-01 -0.62430223282E-01  0.65502857292E+00  0.66123328358E+00  0.51100000000E-03 0. -1.
        -11    1    3    3    0    0  0.25239088690E+02 -0.12183356463E+02 -0.77616165310E+01  0.29080723237E+02  0.51100000000E-03 0.  1.
         12    1    3    3    0    0  0.15610946263E+02 -0.50045131715E+01 -0.47447911354E+00  0.16400363585E+02  0.00000000000E+00 0. -1.
</event>
<event>
 7    1  0.2395003E-008  0.4614232E+02  0.7816164E-02  0.1320468E+00
        -11   -1    0    0    0    0  0.00000000000E+00  0.00000000000E+00  0.45593999997E+02  0.45594000000E+02  0.51100000000E-03 0.  1.
         11   -1    0    0    0    0 -0.00000000000E+00 -0.00000000000E+00 -0.45593999997E+02  0.45594000000E+02  0.51100000000E-03 0. -1.
    9900012    2    1    2    0    0 -0.27475544995E+02 -0.30037597755E+02  0.19286021076E+02  0.46142318069E+02  0.10000002810E+02 0.  0.
         12    1    1    2    0    0  0.27475544995E+02  0.30037597755E+02 -0.19286021076E+02  0.45045681931E+02  0.00000000000E+00 0. -1.
         11    1    3    3    0    0 -0.13161361746E+02 -0.10324072266E+02  0.97676254590E+01  0.19370452202E+02  0.51100000000E-03 0. -1.
        -11    1    3    3    0    0 -0.12339077370E+02 -0.14472468161E+02  0.92902846977E+01  0.21166354316E+02  0.51100000000E-03 0.  1.
         12    1    3    3    0    0 -0.19751058792E+01 -0.52410573285E+01  0.22811091893E+00  0.56055115508E+01  0.00000000000E+00 0. -1.
</event>
<event>
 7    1  0.2395003E-008  0.4614232E+02  0.7816164E-02  0.1320468E+00
        -11   -1    0    0    0    0  0.00000000000E+00  0.00000000000E+00  0.45593999997E+02  0.45594000000E+02  0.51100000000E-03 0. -1.
         11   -1    0    0    0    0 -0.00000000000E+00 -0.00000000000E+00 -0.45593999997E+02  0.45594000000E+02  0.51100000000E-03 0.  1.
    9900012    2    1    2    0    0 -0.34622133372E+02  0.16576245816E+02  0.23572217798E+02  0.46142317671E+02  0.99999991756E+01 0.  0.
         12    1    1    2    0    0  0.34622133372E+02 -0.16576245816E+02 -0.23572217798E+02  0.45045682329E+02  0.00000000000E+00 0. -1.
         11    1    3    3    0    0 -0.27617003327E+01  0.34062679000E+01  0.28482099439E+01  0.52289530386E+01  0.51100000000E-03 0. -1.
        -11    1    3    3    0    0 -0.14800864115E+02  0.21452428931E+01  0.92429376217E+01  0.17581226969E+02  0.51100000000E-03 0.  1.
        -12    1    3    3    0    0 -0.17059568925E+02  0.11024735023E+02  0.11481070232E+02  0.23332137663E+02  0.00000000000E+00 0.  1.
</event>
<event>
 7    1  0.2395003E-008  0.4614232E+02  0.7816164E-02  0.1320468E+00
        -11   -1    0    0    0    0  0.00000000000E+00  0.00000000000E+00  0.45593999997E+02  0.45594000000E+02  0.51100000000E-03 0.  1.
         11   -1    0    0    0    0 -0.00000000000E+00 -0.00000000000E+00 -0.45593999997E+02  0.45594000000E+02  0.51100000000E-03 0. -1.
    9900012    2    1    2    0    0  0.28556814611E+01  0.17317492614E+02  0.41485696103E+02  0.46142318207E+02  0.10000004067E+02 0.  0.
         12    1    1    2    0    0 -0.28556814611E+01 -0.17317492614E+02 -0.41485696103E+02  0.45045681793E+02  0.00000000000E+00 0. -1.
         11    1    3    3    0    0  0.35736258724E+01  0.21244165245E+01  0.69117691668E+01  0.80657610132E+01  0.51100000000E-03 0. -1.
        -11    1    3    3    0    0  0.11556121981E+01  0.13016140742E+02  0.28907426949E+02  0.31723724442E+02  0.51100000000E-03 0.  1.
         12    1    3    3    0    0 -0.18735566094E+01  0.21769353469E+01  0.56664999872E+01  0.63528327523E+01  0.00000000000E+00 0. -1.
</event>
<event>
 7    1  0.2395003E-008  0.4614232E+02  0.7816164E-02  0.1320468E+00
        -11   -1    0    0    0    0  0.00000000000E+00  0.00000000000E+00  0.45593999997E+02  0.45594000000E+02  0.51100000000E-03 0.  1.
         11   -1    0    0    0    0 -0.00000000000E+00 -0.00000000000E+00 -0.45593999997E+02  0.45594000000E+02  0.51100000000E-03 0. -1.
    9900012    2    1    2    0    0 -0.97039324044E+01 -0.43987152637E+02  0.27847837269E+00  0.46142318171E+02  0.10000003741E+02 0.  0.
         12    1    1    2    0    0  0.97039324044E+01  0.43987152637E+02 -0.27847837269E+00  0.45045681829E+02  0.00000000000E+00 0. -1.
         11    1    3    3    0    0 -0.46271143576E+00 -0.16951911060E+01 -0.12065871388E+01  0.21315786505E+01  0.51100000000E-03 0. -1.
        -11    1    3    3    0    0 -0.86481226589E+01 -0.25010186495E+02 -0.13041255068E+01  0.26495286329E+02  0.51100000000E-03 0.  1.
        -12    1    3    3    0    0 -0.59309830974E+00 -0.17281775036E+02  0.27891910184E+01  0.17515453192E+02  0.00000000000E+00 0.  1.
</event>
<event>
 7    1  0.2395003E-008  0.4614232E+02  0.7816164E-02  0.1320468E+00
        -11   -1    0    0    0    0  0.00000000000E+00  0.00000000000E+00  0.45593999997E+02  0.45594000000E+02  0.51100000000E-03 0. -1.
         11   -1    0    0    0    0 -0.00000000000E+00 -0.00000000000E+00 -0.45593999997E+02  0.45594000000E+02  0.51100000000E-03 0.  1.
    9900012    2    1    2    0    0 -0.10294316712E+01 -0.21209778993E+02 -0.39726556067E+02  0.46142315286E+02  0.99999774262E+01 0.  0.
         12    1    1    2    0    0  0.10294316712E+01  0.21209778993E+02  0.39726556067E+02  0.45045684714E+02  0.00000000000E+00 0. -1.
         11    1    3    3    0    0 -0.38284273719E+00 -0.83558322971E+00 -0.75547965520E+00  0.11897552966E+01  0.51100000000E-03 0. -1.
        -11    1    3    3    0    0  0.70116097574E-01 -0.13174664441E+02 -0.33131254458E+02  0.35654687233E+02  0.51100000000E-03 0.  1.
        -12    1    3    3    0    0 -0.71670503160E+00 -0.71995313215E+01 -0.58398219531E+01  0.92978727564E+01  0.00000000000E+00 0.  1.
</event>
<event>
 7    1  0.2395003E-008  0.4614232E+02  0.7816164E-02  0.1320468E+00
        -11   -1    0    0    0    0  0.00000000000E+00  0.00000000000E+00  0.45593999997E+02  0.45594000000E+02  0.51100000000E-03 0. -1.
         11   -1    0    0    0    0 -0.00000000000E+00 -0.00000000000E+00 -0.45593999997E+02  0.45594000000E+02  0.51100000000E-03 0.  1.
    9900012    2    1    2    0    0 -0.76035970105E+01 -0.21400891119E+02 -0.38901165625E+02  0.46142317464E+02  0.99999972883E+01 0.  0.
         12    1    1    2    0    0  0.76035970105E+01  0.21400891119E+02  0.38901165625E+02  0.45045682536E+02  0.00000000000E+00 0. -1.
         11    1    3    3    0    0 -0.38352449049E+01 -0.50002756144E+01 -0.10145640316E+02  0.11943444954E+02  0.51100000000E-03 0. -1.
        -11    1    3    3    0    0 -0.55308057524E+01 -0.74962402835E+01 -0.16495925332E+02  0.18944629410E+02  0.51100000000E-03 0.  1.
        -12    1    3    3    0    0  0.17624536469E+01 -0.89043752216E+01 -0.12259599977E+02  0.15254243099E+02  0.00000000000E+00 0.  1.
</event>
<event>
 7    1  0.2395003E-008  0.4614232E+02  0.7816164E-02  0.1320468E+00
        -11   -1    0    0    0    0  0.00000000000E+00  0.00000000000E+00  0.45593999997E+02  0.45594000000E+02  0.51100000000E-03 0.  1.
         11   -1    0    0    0    0 -0.00000000000E+00 -0.00000000000E+00 -0.45593999997E+02  0.45594000000E+02  0.51100000000E-03 0. -1.
    9900012    2    1    2    0    0 -0.43284057814E+02 -0.18940329018E+01 -0.12329493673E+02  0.46142318346E+02  0.10000005333E+02 0.  0.
         12    1    1    2    0    0  0.43284057814E+02  0.18940329018E+01  0.12329493673E+02  0.45045681654E+02  0.00000000000E+00 0. -1.
         11    1    3    3    0    0 -0.44941205515E+01 -0.12263922962E+01 -0.52649495116E+00  0.46881078049E+01  0.51100000000E-03 0. -1.
        -11    1    3    3    0    0 -0.11783699112E+02  0.37023856320E+01 -0.29385941986E+01  0.12696399500E+02  0.51100000000E-03 0.  1.
        -12    1    3    3    0    0 -0.27006238150E+02 -0.43700262376E+01 -0.88644045232E+01  0.28757811041E+02  0.00000000000E+00 0.  1.
</event>
<event>
 7    1  0.2395003E-008  0.4614232E+02  0.7816164E-02  0.1320468E+00
        -11   -1    0    0    0    0  0.00000000000E+00  0.00000000000E+00  0.45593999997E+02  0.45594000000E+02  0.51100000000E-03 0.  1.
         11   -1    0    0    0    0 -0.00000000000E+00 -0.00000000000E+00 -0.45593999997E+02  0.45594000000E+02  0.51100000000E-03 0. -1.
    9900012    2    1    2    0    0 -0.30629689618E+02  0.26556074339E+01  0.32922383877E+02  0.46142317664E+02  0.99999991156E+01 0.  0.
         12    1    1    2    0    0  0.30629689618E+02 -0.26556074339E+01 -0.32922383877E+02  0.45045682336E+02  0.00000000000E+00 0. -1.
         11    1    3    3    0    0 -0.98187147577E+01 -0.15731307081E+01  0.77919565694E+01  0.12633150326E+02  0.51100000000E-03 0. -1.
        -11    1    3    3    0    0 -0.12510795259E+02  0.11342499896E+01  0.10346063226E+02  0.16274137322E+02  0.51100000000E-03 0.  1.
        -12    1    3    3    0    0 -0.83001796017E+01  0.30944881523E+01  0.14784364082E+02  0.17235030016E+02  0.00000000000E+00 0.  1.
</event>
<event>
 7    1  0.2395003E-008  0.4614232E+02  0.7816164E-02  0.1320468E+00
        -11   -1    0    0    0    0  0.00000000000E+00  0.00000000000E+00  0.45593999997E+02  0.45594000000E+02  0.51100000000E-03 0.  1.
         11   -1    0    0    0    0 -0.00000000000E+00 -0.00000000000E+00 -0.45593999997E+02  0.45594000000E+02  0.51100000000E-03 0. -1.
    9900012    2    1    2    0    0  0.23985713742E+02  0.35543399190E+02  0.13800933332E+02  0.46142318181E+02  0.10000003827E+02 0.  0.
         12    1    1    2    0    0 -0.23985713742E+02 -0.35543399190E+02 -0.13800933332E+02  0.45045681819E+02  0.00000000000E+00 0. -1.
         11    1    3    3    0    0  0.66792494016E+01  0.79619674490E+01  0.67856610674E+01  0.12411707965E+02  0.51100000000E-03 0. -1.
        -11    1    3    3    0    0  0.79685957601E+01  0.99098354241E+01  0.49168355790E+01  0.13633731290E+02  0.51100000000E-03 0.  1.
        -12    1    3    3    0    0  0.93378685806E+01  0.17671596317E+02  0.20984366853E+01  0.20096878926E+02  0.00000000000E+00 0.  1.
</event>
<event>
 7    1  0.2395003E-008  0.4614232E+02  0.7816164E-02  0.1320468E+00
        -11   -1    0    0    0    0  0.00000000000E+00  0.00000000000E+00  0.45593999997E+02  0.45594000000E+02  0.51100000000E-03 0.  1.
         11   -1    0    0    0    0 -0.00000000000E+00 -0.00000000000E+00 -0.45593999997E+02  0.45594000000E+02  0.51100000000E-03 0. -1.
    9900012    2    1    2    0    0  0.30143734148E-01 -0.15497401353E+02  0.42295900026E+02  0.46142317450E+02  0.99999971637E+01 0.  0.
         12    1    1    2    0    0 -0.30143734148E-01  0.15497401353E+02 -0.42295900026E+02  0.45045682550E+02  0.00000000000E+00 0. -1.
         11    1    3    3    0    0 -0.13161105075E+01 -0.59317252779E+01  0.84686772597E+01  0.10422859801E+02  0.51100000000E-03 0. -1.
        -11    1    3    3    0    0  0.78314102355E+00 -0.83486832434E+00  0.47588691028E+00  0.12396707604E+01  0.51100000000E-03 0.  1.
        -12    1    3    3    0    0  0.56311321805E+00 -0.87308077507E+01  0.33351335856E+02  0.34479786889E+02  0.00000000000E+00 0.  1.
</event>
<event>
 7    1  0.2395003E-008  0.4614232E+02  0.7816164E-02  0.1320468E+00
        -11   -1    0    0    0    0  0.00000000000E+00  0.00000000000E+00  0.45593999997E+02  0.45594000000E+02  0.51100000000E-03 0.  1.
         11   -1    0    0    0    0 -0.00000000000E+00 -0.00000000000E+00 -0.45593999997E+02  0.45594000000E+02  0.51100000000E-03 0. -1.
    9900012    2    1    2    0    0  0.27996070234E+02  0.21315121991E+02  0.28124710119E+02  0.46142315486E+02  0.99999792578E+01 0.  0.
         12    1    1    2    0    0 -0.27996070234E+02 -0.21315121991E+02 -0.28124710119E+02  0.45045684514E+02  0.00000000000E+00 0. -1.
         11    1    3    3    0    0  0.10148357646E+02  0.66218242615E+01  0.98399177261E+01  0.15609666895E+02  0.51100000000E-03 0. -1.
        -11    1    3    3    0    0  0.15538771028E+02  0.82350184258E+01  0.13492244656E+02  0.22165504723E+02  0.51100000000E-03 0.  1.
         12    1    3    3    0    0  0.23089415597E+01  0.64582793039E+01  0.47925477369E+01  0.83671438678E+01  0.00000000000E+00 0. -1.
</event>
<event>
 7    1  0.2395003E-008  0.4614232E+02  0.7816164E-02  0.1320468E+00
        -11   -1    0    0    0    0  0.00000000000E+00  0.00000000000E+00  0.45593999997E+02  0.45594000000E+02  0.51100000000E-03 0.  1.
         11   -1    0    0    0    0 -0.00000000000E+00 -0.00000000000E+00 -0.45593999997E+02  0.45594000000E+02  0.51100000000E-03 0. -1.
    9900012    2    1    2    0    0  0.31580579577E+00 -0.30864501004E+01  0.44938709025E+02  0.46142317894E+02  0.10000001214E+02 0.  0.
         12    1    1    2    0    0 -0.31580579577E+00  0.30864501004E+01 -0.44938709025E+02  0.45045682106E+02  0.00000000000E+00 0. -1.
         11    1    3    3    0    0  0.14885601703E+01 -0.10046430229E+01  0.58579152966E+01  0.61270132094E+01  0.51100000000E-03 0. -1.
        -11    1    3    3    0    0 -0.40063932133E+00  0.19941752203E+01  0.29560814434E+02  0.29630710368E+02  0.51100000000E-03 0.  1.
         12    1    3    3    0    0 -0.77211505325E+00 -0.40759822979E+01  0.95199792948E+01  0.10384594317E+02  0.00000000000E+00 0. -1.
</event>
<event>
 7    1  0.2395003E-008  0.4614232E+02  0.7816164E-02  0.1320468E+00
        -11   -1    0    0    0    0  0.00000000000E+00  0.00000000000E+00  0.45593999997E+02  0.45594000000E+02  0.51100000000E-03 0. -1.
         11   -1    0    0    0    0 -0.00000000000E+00 -0.00000000000E+00 -0.45593999997E+02  0.45594000000E+02  0.51100000000E-03 0.  1.
    9900012    2    1    2    0    0 -0.23204299850E+02 -0.36106812920E+02  0.13673772641E+02  0.46142317310E+02  0.99999958836E+01 0.  0.
         12    1    1    2    0    0  0.23204299850E+02  0.36106812920E+02 -0.13673772641E+02  0.45045682690E+02  0.00000000000E+00 0. -1.
         11    1    3    3    0    0 -0.11514946583E+02 -0.11124466681E+02  0.65008491020E+01  0.17280300723E+02  0.51100000000E-03 0. -1.
        -11    1    3    3    0    0 -0.58120746402E+01 -0.79620768043E+01  0.36654250812E+01  0.10517139342E+02  0.51100000000E-03 0.  1.
        -12    1    3    3    0    0 -0.58772786267E+01 -0.17020269435E+02  0.35074984575E+01  0.18344877244E+02  0.00000000000E+00 0.  1.
</event>
<event>
 7    1  0.2395003E-008  0.4614232E+02  0.7816164E-02  0.1320468E+00
        -11   -1    0    0    0    0  0.00000000000E+00  0.00000000000E+00  0.45593999997E+02  0.45594000000E+02  0.51100000000E-03 0.  1.
         11   -1    0    0    0    0 -0.00000000000E+00 -0.00000000000E+00 -0.45593999997E+02  0.45594000000E+02  0.51100000000E-03 0. -1.
    9900012    2    1    2    0    0 -0.25024937235E+02  0.24850546198E+02  0.28023493789E+02  0.46142319473E+02  0.10000015614E+02 0.  0.
         12    1    1    2    0    0  0.25024937235E+02 -0.24850546198E+02 -0.28023493789E+02  0.45045680527E+02  0.00000000000E+00 0. -1.
         11    1    3    3    0    0 -0.46511904702E+01  0.39754353897E+01  0.68292530218E+01  0.91693160281E+01  0.51100000000E-03 0. -1.
        -11    1    3    3    0    0 -0.20622226826E+02  0.21059117229E+02  0.21541891365E+02  0.36507749062E+02  0.51100000000E-03 0.  1.
         12    1    3    3    0    0  0.24848006147E+00 -0.18400642008E+00 -0.34765059736E+00  0.46525438356E+00  0.00000000000E+00 0. -1.
</event>
<event>
 7    1  0.2395003E-008  0.4614232E+02  0.7816164E-02  0.1320468E+00
        -11   -1    0    0    0    0  0.00000000000E+00  0.00000000000E+00  0.45593999997E+02  0.45594000000E+02  0.51100000000E-03 0. -1.
         11   -1    0    0    0    0 -0.00000000000E+00 -0.00000000000E+00 -0.45593999997E+02  0.45594000000E+02  0.51100000000E-03 0.  1.
    9900012    2    1    2    0    0 -0.26523049614E+02 -0.10165195415E+02 -0.34961552532E+02  0.46142317476E+02  0.99999973980E+01 0.  0.
         12    1    1    2    0    0  0.26523049614E+02  0.10165195415E+02  0.34961552532E+02  0.45045682524E+02  0.00000000000E+00 0. -1.
         11    1    3    3    0    0 -0.10095779609E+02 -0.47635843686E+01 -0.12216833184E+02  0.16548943025E+02  0.51100000000E-03 0. -1.
        -11    1    3    3    0    0 -0.84992340214E+01 -0.29444479928E+01 -0.57376166540E+01  0.10668973618E+02  0.51100000000E-03 0.  1.
         12    1    3    3    0    0 -0.79280359831E+01 -0.24571630540E+01 -0.17007102694E+02  0.18924400832E+02  0.00000000000E+00 0. -1.
</event>
<event>
 7    1  0.2395003E-008  0.4614232E+02  0.7816164E-02  0.1320468E+00
        -11   -1    0    0    0    0  0.00000000000E+00  0.00000000000E+00  0.45593999997E+02  0.45594000000E+02  0.51100000000E-03 0. -1.
         11   -1    0    0    0    0 -0.00000000000E+00 -0.00000000000E+00 -0.45593999997E+02  0.45594000000E+02  0.51100000000E-03 0.  1.
    9900012    2    1    2    0    0  0.13353220982E+02 -0.39152198347E+02 -0.17830046126E+02  0.46142315514E+02  0.99999795047E+01 0.  0.
         12    1    1    2    0    0 -0.13353220982E+02  0.39152198347E+02  0.17830046126E+02  0.45045684486E+02  0.00000000000E+00 0. -1.
         11    1    3    3    0    0  0.18897997032E+01 -0.29919802940E+01 -0.18257914443E+01  0.39820602277E+01  0.51100000000E-03 0. -1.
        -11    1    3    3    0    0  0.70237430714E+01 -0.31755455158E+02 -0.15040696676E+02  0.35832449759E+02  0.51100000000E-03 0.  1.
        -12    1    3    3    0    0  0.44396782077E+01 -0.44047628952E+01 -0.96355800648E+00  0.63278055266E+01  0.00000000000E+00 0.  1.
</event>
<event>
 7    1  0.2395003E-008  0.4614232E+02  0.7816164E-02  0.1320468E+00
        -11   -1    0    0    0    0  0.00000000000E+00  0.00000000000E+00  0.45593999997E+02  0.45594000000E+02  0.51100000000E-03 0.  1.
         11   -1    0    0    0    0 -0.00000000000E+00 -0.00000000000E+00 -0.45593999997E+02  0.45594000000E+02  0.51100000000E-03 0. -1.
    9900012    2    1    2    0    0 -0.43383339892E+02 -0.90727754686E+01  0.80426425697E+01  0.46142317250E+02  0.99999953435E+01 0.  0.
         12    1    1    2    0    0  0.43383339892E+02  0.90727754686E+01 -0.80426425697E+01  0.45045682750E+02  0.00000000000E+00 0. -1.
         11    1    3    3    0    0 -0.14687830295E+02  0.10090094824E+00  0.44979497368E+01  0.15361448235E+02  0.51100000000E-03 0. -1.
        -11    1    3    3    0    0 -0.21401387401E+02 -0.47324985283E+01  0.13307757561E+01  0.21958754276E+02  0.51100000000E-03 0.  1.
        -12    1    3    3    0    0 -0.72941221957E+01 -0.44411778885E+01  0.22139170768E+01  0.88221147389E+01  0.00000000000E+00 0.  1.
</event>
<event>
 7    1  0.2395003E-008  0.4614231E+02  0.7816164E-02  0.1320468E+00
        -11   -1    0    0    0    0  0.00000000000E+00  0.00000000000E+00  0.45593999997E+02  0.45594000000E+02  0.51100000000E-03 0.  1.
         11   -1    0    0    0    0 -0.00000000000E+00 -0.00000000000E+00 -0.45593999997E+02  0.45594000000E+02  0.51100000000E-03 0. -1.
    9900012    2    1    2    0    0  0.25758059447E+02 -0.47655100830E+01  0.36645965342E+02  0.46142306658E+02  0.99998987549E+01 0.  0.
         12    1    1    2    0    0 -0.25758059447E+02  0.47655100830E+01 -0.36645965342E+02  0.45045693342E+02  0.00000000000E+00 0. -1.
         11    1    3    3    0    0  0.61468929843E+01  0.17258565757E+01  0.48328111402E+01  0.80074301781E+01  0.51100000000E-03 0. -1.
        -11    1    3    3    0    0  0.33657375108E+01 -0.16876502169E+01  0.86853199298E+01  0.94663157982E+01  0.51100000000E-03 0.  1.
         12    1    3    3    0    0  0.16245428952E+02 -0.48037164418E+01  0.23127834272E+02  0.28668560682E+02  0.00000000000E+00 0. -1.
</event>
<event>
 7    1  0.2395003E-008  0.4614232E+02  0.7816164E-02  0.1320468E+00
        -11   -1    0    0    0    0  0.00000000000E+00  0.00000000000E+00  0.45593999997E+02  0.45594000000E+02  0.51100000000E-03 0.  1.
         11   -1    0    0    0    0 -0.00000000000E+00 -0.00000000000E+00 -0.45593999997E+02  0.45594000000E+02  0.51100000000E-03 0. -1.
    9900012    2    1    2    0    0  0.29836936806E+02 -0.31338166801E+02  0.12521581307E+02  0.46142317689E+02  0.99999993429E+01 0.  0.
         12    1    1    2    0    0 -0.29836936806E+02  0.31338166801E+02 -0.12521581307E+02  0.45045682311E+02  0.00000000000E+00 0. -1.
         11    1    3    3    0    0  0.20594187741E+01 -0.59631274853E+01  0.16471074417E+01  0.65202038526E+01  0.51100000000E-03 0. -1.
        -11    1    3    3    0    0  0.98678031802E+01 -0.53835370746E+01  0.26383821848E+01  0.11546301219E+02  0.51100000000E-03 0.  1.
        -12    1    3    3    0    0  0.17909714852E+02 -0.19991502241E+02  0.82360916810E+01  0.28075812617E+02  0.00000000000E+00 0.  1.
</event>
<event>
 7    1  0.2395003E-008  0.4614232E+02  0.7816164E-02  0.1320468E+00
        -11   -1    0    0    0    0  0.00000000000E+00  0.00000000000E+00  0.45593999997E+02  0.45594000000E+02  0.51100000000E-03 0.  1.
         11   -1    0    0    0    0 -0.00000000000E+00 -0.00000000000E+00 -0.45593999997E+02  0.45594000000E+02  0.51100000000E-03 0. -1.
    9900012    2    1    2    0    0  0.24317328135E+02  0.35857633054E+02  0.12329281007E+02  0.46142318009E+02  0.10000002263E+02 0.  0.
         12    1    1    2    0    0 -0.24317328135E+02 -0.35857633054E+02 -0.12329281007E+02  0.45045681991E+02  0.00000000000E+00 0. -1.
         11    1    3    3    0    0  0.22138328396E+01  0.35122791996E+01  0.20996438089E+01  0.46524902368E+01  0.51100000000E-03 0. -1.
        -11    1    3    3    0    0  0.20952113775E+02  0.32437288139E+02  0.10937988304E+02  0.40134876627E+02  0.51100000000E-03 0.  1.
        -12    1    3    3    0    0  0.11513815205E+01 -0.91934284696E-01 -0.70835110551E+00  0.13549511457E+01  0.00000000000E+00 0.  1.
</event>
<event>
 7    1  0.2395003E-008  0.4614232E+02  0.7816164E-02  0.1320468E+00
        -11   -1    0    0    0    0  0.00000000000E+00  0.00000000000E+00  0.45593999997E+02  0.45594000000E+02  0.51100000000E-03 0.  1.
         11   -1    0    0    0    0 -0.00000000000E+00 -0.00000000000E+00 -0.45593999997E+02  0.45594000000E+02  0.51100000000E-03 0. -1.
    9900012    2    1    2    0    0 -0.85393522298E+01  0.23828246964E+02  0.37261341974E+02  0.46142317681E+02  0.99999992692E+01 0.  0.
         12    1    1    2    0    0  0.85393522298E+01 -0.23828246964E+02 -0.37261341974E+02  0.45045682319E+02  0.00000000000E+00 0. -1.
         11    1    3    3    0    0 -0.42489918180E+01  0.10598204890E+02  0.22142094253E+02  0.24912812296E+02  0.51100000000E-03 0. -1.
        -11    1    3    3    0    0  0.16826845100E+00  0.52454529211E+01  0.83072239981E+01  0.98261417370E+01  0.51100000000E-03 0.  1.
         12    1    3    3    0    0 -0.44586288627E+01  0.79845891526E+01  0.68120237233E+01  0.11403363648E+02  0.00000000000E+00 0. -1.
</event>
<event>
 7    1  0.2395003E-008  0.4614232E+02  0.7816164E-02  0.1320468E+00
        -11   -1    0    0    0    0  0.00000000000E+00  0.00000000000E+00  0.45593999997E+02  0.45594000000E+02  0.51100000000E-03 0.  1.
         11   -1    0    0    0    0 -0.00000000000E+00 -0.00000000000E+00 -0.45593999997E+02  0.45594000000E+02  0.51100000000E-03 0. -1.
    9900012    2    1    2    0    0  0.23645335820E+02  0.26529465815E+02  0.27680298747E+02  0.46142318729E+02  0.10000008824E+02 0.  0.
         12    1    1    2    0    0 -0.23645335820E+02 -0.26529465815E+02 -0.27680298747E+02  0.45045681271E+02  0.00000000000E+00 0. -1.
         11    1    3    3    0    0 -0.15162373321E+00  0.11116097615E+01  0.72424589224E+00  0.13353645165E+01  0.51100000000E-03 0. -1.
        -11    1    3    3    0    0  0.89758880282E+01  0.82689148516E+01  0.48098947330E+01  0.13117797312E+02  0.51100000000E-03 0.  1.
         12    1    3    3    0    0  0.14821071525E+02  0.17148941202E+02  0.22146158121E+02  0.31689156900E+02  0.00000000000E+00 0. -1.
</event>
<event>
 7    1  0.2395003E-008  0.4614232E+02  0.7816164E-02  0.1320468E+00
        -11   -1    0    0    0    0  0.00000000000E+00  0.00000000000E+00  0.45593999997E+02  0.45594000000E+02  0.51100000000E-03 0.  1.
         11   -1    0    0    0    0 -0.00000000000E+00 -0.00000000000E+00 -0.45593999997E+02  0.45594000000E+02  0.51100000000E-03 0. -1.
    9900012    2    1    2    0    0  0.29483855705E+02  0.20365668997E+02  0.27295703601E+02  0.46142315900E+02  0.99999830295E+01 0.  0.
         12    1    1    2    0    0 -0.29483855705E+02 -0.20365668997E+02 -0.27295703601E+02  0.45045684100E+02  0.00000000000E+00 0. -1.
         11    1    3    3    0    0  0.62318010190E+01  0.61776681447E+01  0.58382715949E+01  0.10539655740E+02  0.51100000000E-03 0. -1.
        -11    1    3    3    0    0  0.22027055052E+02  0.14755017547E+02  0.21663016492E+02  0.34237230918E+02  0.51100000000E-03 0.  1.
         12    1    3    3    0    0  0.12249996338E+01 -0.56701669467E+00 -0.20558448590E+00  0.13654292423E+01  0.00000000000E+00 0. -1.
</event>
<event>
 7    1  0.2395003E-008  0.4614232E+02  0.7816164E-02  0.1320468E+00
        -11   -1    0    0    0    0  0.00000000000E+00  0.00000000000E+00  0.45593999997E+02  0.45594000000E+02  0.51100000000E-03 0.  1.
         11   -1    0    0    0    0 -0.00000000000E+00 -0.00000000000E+00 -0.45593999997E+02  0.45594000000E+02  0.51100000000E-03 0. -1.
    9900012    2    1    2    0    0 -0.11935678836E+02 -0.66247871599E+01  0.42927442479E+02  0.46142317055E+02  0.99999935634E+01 0.  0.
         12    1    1    2    0    0  0.11935678836E+02  0.66247871599E+01 -0.42927442479E+02  0.45045682945E+02  0.00000000000E+00 0. -1.
         11    1    3    3    0    0 -0.22240320743E+01 -0.24437935947E+01  0.23654162366E+02  0.23883840631E+02  0.51100000000E-03 0.  1.
        -11    1    3    3    0    0 -0.56146919872E+01 -0.10298217857E+01  0.12470418198E+02  0.13714832456E+02  0.51100000000E-03 0. -1.
        -12    1    3    3    0    0 -0.40969547747E+01 -0.31511717796E+01  0.68028619153E+01  0.85436439679E+01  0.00000000000E+00 0.  1.
</event>
<event>
 7    1  0.2395003E-008  0.4614232E+02  0.7816164E-02  0.1320468E+00
        -11   -1    0    0    0    0  0.00000000000E+00  0.00000000000E+00  0.45593999997E+02  0.45594000000E+02  0.51100000000E-03 0. -1.
         11   -1    0    0    0    0 -0.00000000000E+00 -0.00000000000E+00 -0.45593999997E+02  0.45594000000E+02  0.51100000000E-03 0.  1.
    9900012    2    1    2    0    0  0.20740160978E+02 -0.66951401556E+01 -0.39422509594E+02  0.46142318278E+02  0.10000004715E+02 0.  0.
         12    1    1    2    0    0 -0.20740160978E+02  0.66951401556E+01  0.39422509594E+02  0.45045681722E+02  0.00000000000E+00 0. -1.
         11    1    3    3    0    0  0.62038947806E+01  0.16130865392E+01 -0.91155125769E+01  0.11143739428E+02  0.51100000000E-03 0. -1.
        -11    1    3    3    0    0  0.90192385566E+01 -0.22996341309E+01 -0.14984539500E+02  0.17640051178E+02  0.51100000000E-03 0.  1.
         12    1    3    3    0    0  0.55170276411E+01 -0.60085925639E+01 -0.15322457517E+02  0.17358527672E+02  0.00000000000E+00 0. -1.
</event>
<event>
 7    1  0.2395003E-008  0.4614232E+02  0.7816164E-02  0.1320468E+00
        -11   -1    0    0    0    0  0.00000000000E+00  0.00000000000E+00  0.45593999997E+02  0.45594000000E+02  0.51100000000E-03 0.  1.
         11   -1    0    0    0    0 -0.00000000000E+00 -0.00000000000E+00 -0.45593999997E+02  0.45594000000E+02  0.51100000000E-03 0. -1.
    9900012    2    1    2    0    0 -0.14980649571E+02 -0.34830693095E+02  0.24321104264E+02  0.46142321454E+02  0.10000033678E+02 0.  0.
         12    1    1    2    0    0  0.14980649571E+02  0.34830693095E+02 -0.24321104264E+02  0.45045678546E+02  0.00000000000E+00 0. -1.
         11    1    3    3    0    0 -0.38000511656E+01 -0.31504717496E+01  0.28332476987E+01  0.56914983870E+01  0.51100000000E-03 0. -1.
        -11    1    3    3    0    0 -0.17307725948E+01 -0.15681363128E+01  0.32434007490E+01  0.39967829501E+01  0.51100000000E-03 0.  1.
        -12    1    3    3    0    0 -0.94498258105E+01 -0.30112085032E+02  0.18244455816E+02  0.36454040117E+02  0.00000000000E+00 0.  1.
</event>
<event>
 7    1  0.2395003E-008  0.4614232E+02  0.7816164E-02  0.1320468E+00
        -11   -1    0    0    0    0  0.00000000000E+00  0.00000000000E+00  0.45593999997E+02  0.45594000000E+02  0.51100000000E-03 0.  1.
         11   -1    0    0    0    0 -0.00000000000E+00 -0.00000000000E+00 -0.45593999997E+02  0.45594000000E+02  0.51100000000E-03 0. -1.
    9900012    2    1    2    0    0 -0.32859009351E+02  0.10078700729E+02  0.29117327112E+02  0.46142318275E+02  0.10000004689E+02 0.  0.
         12    1    1    2    0    0  0.32859009351E+02 -0.10078700729E+02 -0.29117327112E+02  0.45045681725E+02  0.00000000000E+00 0. -1.
         11    1    3    3    0    0 -0.77937794764E+01  0.44241981941E+01  0.57694193340E+01  0.10658458045E+02  0.51100000000E-03 0. -1.
        -11    1    3    3    0    0 -0.19077922058E+02  0.53066184233E+01  0.21450789183E+02  0.29193555213E+02  0.51100000000E-03 0.  1.
         12    1    3    3    0    0 -0.59873078168E+01  0.34788411118E+00  0.18971185946E+01  0.62903050172E+01  0.00000000000E+00 0. -1.
</event>
<event>
 7    1  0.2395003E-008  0.4614232E+02  0.7816164E-02  0.1320468E+00
        -11   -1    0    0    0    0  0.00000000000E+00  0.00000000000E+00  0.45593999997E+02  0.45594000000E+02  0.51100000000E-03 0. -1.
         11   -1    0    0    0    0 -0.00000000000E+00 -0.00000000000E+00 -0.45593999997E+02  0.45594000000E+02  0.51100000000E-03 0.  1.
    9900012    2    1    2    0    0 -0.14168105483E+02  0.76709145068E+01 -0.42065845432E+02  0.46142317696E+02  0.99999994063E+01 0.  0.
         12    1    1    2    0    0  0.14168105483E+02 -0.76709145068E+01  0.42065845432E+02  0.45045682304E+02  0.00000000000E+00 0. -1.
         11    1    3    3    0    0 -0.13798797216E+01 -0.91261101993E+00 -0.11150409036E+02  0.11272468623E+02  0.51100000000E-03 0. -1.
        -11    1    3    3    0    0 -0.12149611554E+01  0.90893308754E-01 -0.59336401356E+01  0.60574316110E+01  0.51100000000E-03 0.  1.
         12    1    3    3    0    0 -0.11573264606E+02  0.84926322180E+01 -0.24981796260E+02  0.28812417462E+02  0.00000000000E+00 0. -1.
</event>
<event>
 7    1  0.2395003E-008  0.4614232E+02  0.7816164E-02  0.1320468E+00
        -11   -1    0    0    0    0  0.00000000000E+00  0.00000000000E+00  0.45593999997E+02  0.45594000000E+02  0.51100000000E-03 0.  1.
         11   -1    0    0    0    0 -0.00000000000E+00 -0.00000000000E+00 -0.45593999997E+02  0.45594000000E+02  0.51100000000E-03 0. -1.
    9900012    2    1    2    0    0 -0.42122461622E+02 -0.23503187478E+01 -0.15788848373E+02  0.46142317585E+02  0.99999983941E+01 0.  0.
         12    1    1    2    0    0  0.42122461622E+02  0.23503187478E+01  0.15788848373E+02  0.45045682415E+02  0.00000000000E+00 0. -1.
         11    1    3    3    0    0 -0.22734790215E+02 -0.52689640790E+00 -0.67407969032E+01  0.23718909104E+02  0.51100000000E-03 0. -1.
        -11    1    3    3    0    0 -0.12046144521E+02 -0.35075181860E+01 -0.33709884146E+01  0.12991375786E+02  0.51100000000E-03 0.  1.
         12    1    3    3    0    0 -0.73415268853E+01  0.16840958461E+01 -0.56770630550E+01  0.94320326948E+01  0.00000000000E+00 0. -1.
</event>
<event>
 7    1  0.2395003E-008  0.4614232E+02  0.7816164E-02  0.1320468E+00
        -11   -1    0    0    0    0  0.00000000000E+00  0.00000000000E+00  0.45593999997E+02  0.45594000000E+02  0.51100000000E-03 0. -1.
         11   -1    0    0    0    0 -0.00000000000E+00 -0.00000000000E+00 -0.45593999997E+02  0.45594000000E+02  0.51100000000E-03 0.  1.
    9900012    2    1    2    0    0 -0.29323965823E+02  0.33325342355E+02 -0.76576863711E+01  0.46142316797E+02  0.99999912098E+01 0.  0.
         12    1    1    2    0    0  0.29323965823E+02 -0.33325342355E+02  0.76576863711E+01  0.45045683203E+02  0.00000000000E+00 0. -1.
         11    1    3    3    0    0 -0.17600798186E+00 -0.10293199187E+00 -0.35118751424E+00  0.40608710384E+00  0.51100000000E-03 0. -1.
        -11    1    3    3    0    0 -0.23505683793E+02  0.30793048286E+02 -0.76976767194E+01  0.39496622899E+02  0.51100000000E-03 0.  1.
         12    1    3    3    0    0 -0.56422740478E+01  0.26352260611E+01  0.39117786258E+00  0.62396067940E+01  0.00000000000E+00 0. -1.
</event>
<event>
 7    1  0.2395003E-008  0.4614232E+02  0.7816164E-02  0.1320468E+00
        -11   -1    0    0    0    0  0.00000000000E+00  0.00000000000E+00  0.45593999997E+02  0.45594000000E+02  0.51100000000E-03 0.  1.
         11   -1    0    0    0    0 -0.00000000000E+00 -0.00000000000E+00 -0.45593999997E+02  0.45594000000E+02  0.51100000000E-03 0. -1.
    9900012    2    1    2    0    0 -0.20462690604E+02  0.36113977588E+02  0.17497783886E+02  0.46142317356E+02  0.99999963031E+01 0.  0.
         12    1    1    2    0    0  0.20462690604E+02 -0.36113977588E+02 -0.17497783886E+02  0.45045682644E+02  0.00000000000E+00 0. -1.
         11    1    3    3    0    0 -0.11264309699E+02  0.21331484290E+02  0.11897939598E+02  0.26897543790E+02  0.51100000000E-03 0.  1.
        -11    1    3    3    0    0 -0.53999661255E+01  0.12727397636E+02  0.28243991277E+01  0.14111113189E+02  0.51100000000E-03 0. -1.
         12    1    3    3    0    0 -0.37984147800E+01  0.20550956609E+01  0.27754451604E+01  0.51336603759E+01  0.00000000000E+00 0. -1.
</event>
<event>
 7    1  0.2395003E-008  0.4614232E+02  0.7816164E-02  0.1320468E+00
        -11   -1    0    0    0    0  0.00000000000E+00  0.00000000000E+00  0.45593999997E+02  0.45594000000E+02  0.51100000000E-03 0.  1.
         11   -1    0    0    0    0 -0.00000000000E+00 -0.00000000000E+00 -0.45593999997E+02  0.45594000000E+02  0.51100000000E-03 0. -1.
    9900012    2    1    2    0    0  0.99483256563E+01  0.22086254444E+01  0.43877855777E+02  0.46142318327E+02  0.10000005165E+02 0.  0.
         12    1    1    2    0    0 -0.99483256563E+01 -0.22086254444E+01 -0.43877855777E+02  0.45045681673E+02  0.00000000000E+00 0. -1.
         11    1    3    3    0    0 -0.16909785731E+01  0.88126592381E+00  0.36427135429E+01  0.41116177327E+01  0.51100000000E-03 0. -1.
        -11    1    3    3    0    0  0.45115753117E+01  0.18568365402E+01  0.19385887130E+02  0.19990367025E+02  0.51100000000E-03 0.  1.
         12    1    3    3    0    0  0.71277289177E+01 -0.52947701965E+00  0.20849255105E+02  0.22040333570E+02  0.00000000000E+00 0. -1.
</event>
<event>
 7    1  0.2395003E-008  0.4614232E+02  0.7816164E-02  0.1320468E+00
        -11   -1    0    0    0    0  0.00000000000E+00  0.00000000000E+00  0.45593999997E+02  0.45594000000E+02  0.51100000000E-03 0.  1.
         11   -1    0    0    0    0 -0.00000000000E+00 -0.00000000000E+00 -0.45593999997E+02  0.45594000000E+02  0.51100000000E-03 0. -1.
    9900012    2    1    2    0    0 -0.38349999595E+02 -0.23583927444E+02  0.14796557749E+01  0.46142317811E+02  0.10000000459E+02 0.  0.
         12    1    1    2    0    0  0.38349999595E+02  0.23583927444E+02 -0.14796557749E+01  0.45045682189E+02  0.00000000000E+00 0. -1.
         11    1    3    3    0    0 -0.36621469302E+02 -0.22560309160E+02 -0.43472296935E+00  0.43014980501E+02  0.51100000000E-03 0. -1.
        -11    1    3    3    0    0 -0.10444756853E+01  0.18230537527E+00  0.60709235792E+00  0.12217717051E+01  0.51100000000E-03 0.  1.
         12    1    3    3    0    0 -0.68405460766E+00 -0.12059236597E+01  0.13072863863E+01  0.19055656050E+01  0.00000000000E+00 0. -1.
</event>
<event>
 7    1  0.2395003E-008  0.4614232E+02  0.7816164E-02  0.1320468E+00
        -11   -1    0    0    0    0  0.00000000000E+00  0.00000000000E+00  0.45593999997E+02  0.45594000000E+02  0.51100000000E-03 0.  1.
         11   -1    0    0    0    0 -0.00000000000E+00 -0.00000000000E+00 -0.45593999997E+02  0.45594000000E+02  0.51100000000E-03 0. -1.
    9900012    2    1    2    0    0  0.39163344666E+01  0.28678965690E+02  0.34515109511E+02  0.46142317263E+02  0.99999954573E+01 0.  0.
         12    1    1    2    0    0 -0.39163344666E+01 -0.28678965690E+02 -0.34515109511E+02  0.45045682737E+02  0.00000000000E+00 0. -1.
         11    1    3    3    0    0  0.40991101007E+00  0.10756691440E+02  0.14438596193E+02  0.18009650137E+02  0.51100000000E-03 0. -1.
        -11    1    3    3    0    0 -0.49245415550E+00  0.19566514401E+01  0.64716258028E+01  0.67788595461E+01  0.51100000000E-03 0.  1.
         12    1    3    3    0    0  0.39988776120E+01  0.15965622810E+02  0.13604887516E+02  0.21353807580E+02  0.00000000000E+00 0. -1.
</event>
<event>
 7    1  0.2395003E-008  0.4614232E+02  0.7816164E-02  0.1320468E+00
        -11   -1    0    0    0    0  0.00000000000E+00  0.00000000000E+00  0.45593999997E+02  0.45594000000E+02  0.51100000000E-03 0.  1.
         11   -1    0    0    0    0 -0.00000000000E+00 -0.00000000000E+00 -0.45593999997E+02  0.45594000000E+02  0.51100000000E-03 0. -1.
    9900012    2    1    2    0    0 -0.26403011156E+02 -0.11803111251E+02  0.34535205527E+02  0.46142324801E+02  0.10000064197E+02 0.  0.
         12    1    1    2    0    0  0.26403011156E+02  0.11803111251E+02 -0.34535205527E+02  0.45045675199E+02  0.00000000000E+00 0. -1.
         11    1    3    3    0    0 -0.62302820302E+01 -0.58776250602E+01  0.10112300394E+02  0.13252226607E+02  0.51100000000E-03 0. -1.
        -11    1    3    3    0    0 -0.56836527105E+01 -0.48969185980E+01  0.81496966379E+01  0.11077060776E+02  0.51100000000E-03 0.  1.
         12    1    3    3    0    0 -0.14489076415E+02 -0.10285675925E+01  0.16273208496E+02  0.21813037418E+02  0.00000000000E+00 0. -1.
</event>
<event>
 7    1  0.2395003E-008  0.4614232E+02  0.7816164E-02  0.1320468E+00
        -11   -1    0    0    0    0  0.00000000000E+00  0.00000000000E+00  0.45593999997E+02  0.45594000000E+02  0.51100000000E-03 0.  1.
         11   -1    0    0    0    0 -0.00000000000E+00 -0.00000000000E+00 -0.45593999997E+02  0.45594000000E+02  0.51100000000E-03 0. -1.
    9900012    2    1    2    0    0  0.36802406534E+02 -0.10245743119E+02  0.23868834161E+02  0.46142316267E+02  0.99999863718E+01 0.  0.
         12    1    1    2    0    0 -0.36802406534E+02  0.10245743119E+02 -0.23868834161E+02  0.45045683733E+02  0.00000000000E+00 0. -1.
         11    1    3    3    0    0  0.22007380399E+01  0.26278662041E+00  0.29496644443E+01  0.36895562502E+01  0.51100000000E-03 0. -1.
        -11    1    3    3    0    0  0.24999818070E+02 -0.10221948139E+02  0.17824946294E+02  0.32360590815E+02  0.51100000000E-03 0.  1.
        -12    1    3    3    0    0  0.96018504245E+01 -0.28658160084E+00  0.30942234232E+01  0.10092169201E+02  0.00000000000E+00 0.  1.
</event>
<event>
 7    1  0.2395003E-008  0.4614231E+02  0.7816164E-02  0.1320468E+00
        -11   -1    0    0    0    0  0.00000000000E+00  0.00000000000E+00  0.45593999997E+02  0.45594000000E+02  0.51100000000E-03 0.  1.
         11   -1    0    0    0    0 -0.00000000000E+00 -0.00000000000E+00 -0.45593999997E+02  0.45594000000E+02  0.51100000000E-03 0. -1.
    9900012    2    1    2    0    0 -0.62075069038E+01 -0.40604222163E+02  0.18489938489E+02  0.46142314028E+02  0.99999659543E+01 0.  0.
         12    1    1    2    0    0  0.62075069038E+01  0.40604222163E+02 -0.18489938489E+02  0.45045685972E+02  0.00000000000E+00 0. -1.
         11    1    3    3    0    0 -0.40993987405E+01 -0.10830013780E+02  0.46861869508E+01  0.12492182231E+02  0.51100000000E-03 0.  1.
        -11    1    3    3    0    0  0.15225843701E+01 -0.45275679544E+01  0.29130309307E+00  0.47856026265E+01  0.51100000000E-03 0. -1.
         12    1    3    3    0    0 -0.36306925334E+01 -0.25246640429E+02  0.13512448445E+02  0.28864529170E+02  0.00000000000E+00 0. -1.
</event>
<event>
 7    1  0.2395003E-008  0.4614232E+02  0.7816164E-02  0.1320468E+00
        -11   -1    0    0    0    0  0.00000000000E+00  0.00000000000E+00  0.45593999997E+02  0.45594000000E+02  0.51100000000E-03 0.  1.
         11   -1    0    0    0    0 -0.00000000000E+00 -0.00000000000E+00 -0.45593999997E+02  0.45594000000E+02  0.51100000000E-03 0. -1.
    9900012    2    1    2    0    0 -0.30993624138E+02  0.32444980390E+02  0.39789372762E+01  0.46142318391E+02  0.10000005744E+02 0.  0.
         12    1    1    2    0    0  0.30993624138E+02 -0.32444980390E+02 -0.39789372762E+01  0.45045681609E+02  0.00000000000E+00 0. -1.
         11    1    3    3    0    0 -0.15005779668E+02  0.14603363258E+02 -0.19851442059E+01  0.21032651751E+02  0.51100000000E-03 0. -1.
        -11    1    3    3    0    0 -0.64159623695E+01  0.59212307323E+01  0.42981517089E+01  0.97313747685E+01  0.51100000000E-03 0.  1.
        -12    1    3    3    0    0 -0.95718821006E+01  0.11920386400E+02  0.16659297733E+01  0.15378291871E+02  0.00000000000E+00 0.  1.
</event>
<event>
 7    1  0.2395003E-008  0.4614232E+02  0.7816164E-02  0.1320468E+00
        -11   -1    0    0    0    0  0.00000000000E+00  0.00000000000E+00  0.45593999997E+02  0.45594000000E+02  0.51100000000E-03 0.  1.
         11   -1    0    0    0    0 -0.00000000000E+00 -0.00000000000E+00 -0.45593999997E+02  0.45594000000E+02  0.51100000000E-03 0. -1.
    9900012    2    1    2    0    0 -0.17173968596E+02 -0.22299287837E+01  0.41583599470E+02  0.46142317359E+02  0.99999963306E+01 0.  0.
         12    1    1    2    0    0  0.17173968596E+02  0.22299287837E+01 -0.41583599470E+02  0.45045682641E+02  0.00000000000E+00 0. -1.
         11    1    3    3    0    0  0.39304758819E+00  0.44684682494E+00  0.20891623200E+01  0.21722702299E+01  0.51100000000E-03 0. -1.
        -11    1    3    3    0    0 -0.15221083540E+01  0.12331547308E+01  0.97853967677E+01  0.99795528253E+01  0.51100000000E-03 0.  1.
        -12    1    3    3    0    0 -0.16044907830E+02 -0.39099303394E+01  0.29709040383E+02  0.33990494303E+02  0.00000000000E+00 0.  1.
</event>
<event>
 7    1  0.2395003E-008  0.4614232E+02  0.7816164E-02  0.1320468E+00
        -11   -1    0    0    0    0  0.00000000000E+00  0.00000000000E+00  0.45593999997E+02  0.45594000000E+02  0.51100000000E-03 0. -1.
         11   -1    0    0    0    0 -0.00000000000E+00 -0.00000000000E+00 -0.45593999997E+02  0.45594000000E+02  0.51100000000E-03 0.  1.
    9900012    2    1    2    0    0 -0.55095089020E+01  0.31420374895E+02 -0.31804384530E+02  0.46142317386E+02  0.99999965773E+01 0.  0.
         12    1    1    2    0    0  0.55095089020E+01 -0.31420374895E+02  0.31804384530E+02  0.45045682614E+02  0.00000000000E+00 0. -1.
         11    1    3    3    0    0 -0.41738792181E+01  0.14827666276E+02 -0.13412381582E+02  0.20424811746E+02  0.51100000000E-03 0. -1.
        -11    1    3    3    0    0 -0.31801809617E+01  0.13588762875E+02 -0.16825258132E+02  0.21859948282E+02  0.51100000000E-03 0.  1.
        -12    1    3    3    0    0  0.18445512778E+01  0.30039457439E+01 -0.15667448161E+01  0.38575573576E+01  0.00000000000E+00 0.  1.
</event>
<event>
 7    1  0.2395003E-008  0.4614232E+02  0.7816164E-02  0.1320468E+00
        -11   -1    0    0    0    0  0.00000000000E+00  0.00000000000E+00  0.45593999997E+02  0.45594000000E+02  0.51100000000E-03 0.  1.
         11   -1    0    0    0    0 -0.00000000000E+00 -0.00000000000E+00 -0.45593999997E+02  0.45594000000E+02  0.51100000000E-03 0. -1.
    9900012    2    1    2    0    0  0.19872244924E+02  0.14563080373E+02  0.37711060563E+02  0.46142317442E+02  0.99999970926E+01 0.  0.
         12    1    1    2    0    0 -0.19872244924E+02 -0.14563080373E+02 -0.37711060563E+02  0.45045682558E+02  0.00000000000E+00 0. -1.
         11    1    3    3    0    0  0.59354171107E+01  0.81797540943E+01  0.16818146486E+02  0.19621101009E+02  0.51100000000E-03 0. -1.
        -11    1    3    3    0    0  0.63338226367E+01  0.26128373204E+00  0.60968903003E+01  0.87953197769E+01  0.51100000000E-03 0.  1.
        -12    1    3    3    0    0  0.76030051766E+01  0.61220425466E+01  0.14796023778E+02  0.17725896657E+02  0.00000000000E+00 0.  1.
</event>
<event>
 7    1  0.2395003E-008  0.4614232E+02  0.7816164E-02  0.1320468E+00
        -11   -1    0    0    0    0  0.00000000000E+00  0.00000000000E+00  0.45593999997E+02  0.45594000000E+02  0.51100000000E-03 0.  1.
         11   -1    0    0    0    0 -0.00000000000E+00 -0.00000000000E+00 -0.45593999997E+02  0.45594000000E+02  0.51100000000E-03 0. -1.
    9900012    2    1    2    0    0  0.97664192397E+01 -0.17609575080E+02  0.40294331630E+02  0.46142320509E+02  0.10000025060E+02 0.  0.
         12    1    1    2    0    0 -0.97664192397E+01  0.17609575080E+02 -0.40294331630E+02  0.45045679491E+02  0.00000000000E+00 0. -1.
         11    1    3    3    0    0 -0.10350120629E+01 -0.38947146659E+01  0.10744154085E+02  0.11475055536E+02  0.51100000000E-03 0. -1.
        -11    1    3    3    0    0  0.45204754732E+01 -0.94520718676E+01  0.15738502098E+02  0.18907057138E+02  0.51100000000E-03 0.  1.
         12    1    3    3    0    0  0.62809558294E+01 -0.42627885465E+01  0.13811675448E+02  0.15760207835E+02  0.00000000000E+00 0. -1.
</event>
<event>
 7    1  0.2395003E-008  0.4614232E+02  0.7816164E-02  0.1320468E+00
        -11   -1    0    0    0    0  0.00000000000E+00  0.00000000000E+00  0.45593999997E+02  0.45594000000E+02  0.51100000000E-03 0. -1.
         11   -1    0    0    0    0 -0.00000000000E+00 -0.00000000000E+00 -0.45593999997E+02  0.45594000000E+02  0.51100000000E-03 0.  1.
    9900012    2    1    2    0    0 -0.34327906957E+02  0.55521682572E+00 -0.29161617922E+02  0.46142318502E+02  0.10000006755E+02 0.  0.
         12    1    1    2    0    0  0.34327906957E+02 -0.55521682572E+00  0.29161617922E+02  0.45045681498E+02  0.00000000000E+00 0. -1.
         11    1    3    3    0    0 -0.10142254892E+02  0.11999067710E+01 -0.37332506037E+01  0.10873926195E+02  0.51100000000E-03 0. -1.
        -11    1    3    3    0    0 -0.22409401804E+02 -0.62423767909E+00 -0.22013778660E+02  0.31419379577E+02  0.51100000000E-03 0.  1.
         12    1    3    3    0    0 -0.17762502614E+01 -0.20452266237E-01 -0.34145886591E+01  0.38490127302E+01  0.00000000000E+00 0. -1.
</event>
<event>
 7    1  0.2395003E-008  0.4614232E+02  0.7816164E-02  0.1320468E+00
        -11   -1    0    0    0    0  0.00000000000E+00  0.00000000000E+00  0.45593999997E+02  0.45594000000E+02  0.51100000000E-03 0.  1.
         11   -1    0    0    0    0 -0.00000000000E+00 -0.00000000000E+00 -0.45593999997E+02  0.45594000000E+02  0.51100000000E-03 0. -1.
    9900012    2    1    2    0    0 -0.20611149016E+02 -0.36864936536E+02  0.15661118216E+02  0.46142316152E+02  0.99999853297E+01 0.  0.
         12    1    1    2    0    0  0.20611149016E+02  0.36864936536E+02 -0.15661118216E+02  0.45045683848E+02  0.00000000000E+00 0. -1.
         11    1    3    3    0    0 -0.58782275492E+01 -0.18370577067E+02  0.77769045409E+01  0.20796920575E+02  0.51100000000E-03 0. -1.
        -11    1    3    3    0    0 -0.84454696898E+01 -0.13198186325E+02  0.36085196496E+01  0.16079163376E+02  0.51100000000E-03 0.  1.
         12    1    3    3    0    0 -0.62874517768E+01 -0.52961731438E+01  0.42756940255E+01  0.92662322016E+01  0.00000000000E+00 0. -1.
</event>
<event>
 7    1  0.2395003E-008  0.4614232E+02  0.7816164E-02  0.1320468E+00
        -11   -1    0    0    0    0  0.00000000000E+00  0.00000000000E+00  0.45593999997E+02  0.45594000000E+02  0.51100000000E-03 0.  1.
         11   -1    0    0    0    0 -0.00000000000E+00 -0.00000000000E+00 -0.45593999997E+02  0.45594000000E+02  0.51100000000E-03 0. -1.
    9900012    2    1    2    0    0 -0.50239839245E+01 -0.10151405064E+01  0.44753128389E+02  0.46142318461E+02  0.10000006379E+02 0.  0.
         12    1    1    2    0    0  0.50239839245E+01  0.10151405064E+01 -0.44753128389E+02  0.45045681539E+02  0.00000000000E+00 0. -1.
         11    1    3    3    0    0 -0.55849535050E+01 -0.23839229483E+01  0.18336751441E+02  0.19316087802E+02  0.51100000000E-03 0.  1.
        -11    1    3    3    0    0 -0.15958798924E+01 -0.51878511262E+00  0.12945898639E+02  0.13054204781E+02  0.51100000000E-03 0. -1.
         12    1    3    3    0    0  0.21568494728E+01  0.18875675546E+01  0.13470478309E+02  0.13772025878E+02  0.00000000000E+00 0. -1.
</event>
<event>
 7    1  0.2395003E-008  0.4614231E+02  0.7816164E-02  0.1320468E+00
        -11   -1    0    0    0    0  0.00000000000E+00  0.00000000000E+00  0.45593999997E+02  0.45594000000E+02  0.51100000000E-03 0.  1.
         11   -1    0    0    0    0 -0.00000000000E+00 -0.00000000000E+00 -0.45593999997E+02  0.45594000000E+02  0.51100000000E-03 0. -1.
    9900012    2    1    2    0    0  0.28121784722E+02  0.92352438243E+01  0.33955696172E+02  0.46142314225E+02  0.99999677558E+01 0.  0.
         12    1    1    2    0    0 -0.28121784722E+02 -0.92352438243E+01 -0.33955696172E+02  0.45045685775E+02  0.00000000000E+00 0. -1.
         11    1    3    3    0    0  0.10240211111E+01  0.77797417976E+00  0.36717156358E+01  0.38904188761E+01  0.51100000000E-03 0. -1.
        -11    1    3    3    0    0  0.22691830153E+02  0.57491742454E+01  0.20201547276E+02  0.30920457189E+02  0.51100000000E-03 0.  1.
        -12    1    3    3    0    0  0.44059334578E+01  0.27080953991E+01  0.10082433260E+02  0.11331438160E+02  0.00000000000E+00 0.  1.
</event>
<event>
 7    1  0.2395003E-008  0.4614232E+02  0.7816164E-02  0.1320468E+00
        -11   -1    0    0    0    0  0.00000000000E+00  0.00000000000E+00  0.45593999997E+02  0.45594000000E+02  0.51100000000E-03 0.  1.
         11   -1    0    0    0    0 -0.00000000000E+00 -0.00000000000E+00 -0.45593999997E+02  0.45594000000E+02  0.51100000000E-03 0. -1.
    9900012    2    1    2    0    0  0.91291450696E+01  0.74359817289E+01  0.43479631281E+02  0.46142318184E+02  0.10000003854E+02 0.  0.
         12    1    1    2    0    0 -0.91291450696E+01 -0.74359817289E+01 -0.43479631281E+02  0.45045681816E+02  0.00000000000E+00 0. -1.
         11    1    3    3    0    0  0.55234206707E+01  0.22221578014E+01  0.90059301224E+01  0.10795968638E+02  0.51100000000E-03 0. -1.
        -11    1    3    3    0    0  0.13674311727E+01  0.46895873631E+01  0.29014956521E+02  0.29423286693E+02  0.51100000000E-03 0.  1.
         12    1    3    3    0    0  0.22382932263E+01  0.52423656440E+00  0.54587446376E+01  0.59230628531E+01  0.00000000000E+00 0. -1.
</event>
<event>
 7    1  0.2395003E-008  0.4614232E+02  0.7816164E-02  0.1320468E+00
        -11   -1    0    0    0    0  0.00000000000E+00  0.00000000000E+00  0.45593999997E+02  0.45594000000E+02  0.51100000000E-03 0. -1.
         11   -1    0    0    0    0 -0.00000000000E+00 -0.00000000000E+00 -0.45593999997E+02  0.45594000000E+02  0.51100000000E-03 0.  1.
    9900012    2    1    2    0    0 -0.22550581361E+02 -0.30486686791E+02 -0.24313504779E+02  0.46142319787E+02  0.10000018474E+02 0.  0.
         12    1    1    2    0    0  0.22550581361E+02  0.30486686791E+02  0.24313504779E+02  0.45045680213E+02  0.00000000000E+00 0. -1.
         11    1    3    3    0    0 -0.47943100746E+01 -0.76250171329E+01 -0.46378645727E+01  0.10130946818E+02  0.51100000000E-03 0. -1.
        -11    1    3    3    0    0 -0.15888461689E+02 -0.16316778074E+02 -0.11964186226E+02  0.25725905502E+02  0.51100000000E-03 0.  1.
         12    1    3    3    0    0 -0.18678095974E+01 -0.65448915840E+01 -0.77114539804E+01  0.10285467468E+02  0.00000000000E+00 0. -1.
</event>
<event>
 7    1  0.2395003E-008  0.4614232E+02  0.7816164E-02  0.1320468E+00
        -11   -1    0    0    0    0  0.00000000000E+00  0.00000000000E+00  0.45593999997E+02  0.45594000000E+02  0.51100000000E-03 0.  1.
         11   -1    0    0    0    0 -0.00000000000E+00 -0.00000000000E+00 -0.45593999997E+02  0.45594000000E+02  0.51100000000E-03 0. -1.
    9900012    2    1    2    0    0 -0.17439230269E+02  0.26199644705E+02  0.32226778840E+02  0.46142318637E+02  0.10000007985E+02 0.  0.
         12    1    1    2    0    0  0.17439230269E+02 -0.26199644705E+02 -0.32226778840E+02  0.45045681363E+02  0.00000000000E+00 0. -1.
         11    1    3    3    0    0 -0.21988488545E+01  0.32426437212E+01  0.75107871547E+01  0.84712217851E+01  0.51100000000E-03 0. -1.
        -11    1    3    3    0    0 -0.13344442940E+02  0.16329266739E+02  0.21315290384E+02  0.29984341147E+02  0.51100000000E-03 0.  1.
        -12    1    3    3    0    0 -0.18959384744E+01  0.66277342446E+01  0.34007013015E+01  0.76867557043E+01  0.00000000000E+00 0.  1.
</event>
<event>
 7    1  0.2395003E-008  0.4614231E+02  0.7816164E-02  0.1320468E+00
        -11   -1    0    0    0    0  0.00000000000E+00  0.00000000000E+00  0.45593999997E+02  0.45594000000E+02  0.51100000000E-03 0.  1.
         11   -1    0    0    0    0 -0.00000000000E+00 -0.00000000000E+00 -0.45593999997E+02  0.45594000000E+02  0.51100000000E-03 0. -1.
    9900012    2    1    2    0    0  0.95645807697E+01  0.43535053563E+02  0.65062782407E+01  0.46142314851E+02  0.99999734636E+01 0.  0.
         12    1    1    2    0    0 -0.95645807697E+01 -0.43535053563E+02 -0.65062782407E+01  0.45045685149E+02  0.00000000000E+00 0. -1.
         11    1    3    3    0    0 -0.11342078411E+01  0.66180961873E+01 -0.75394994116E+00  0.67567792140E+01  0.51100000000E-03 0. -1.
        -11    1    3    3    0    0  0.21568167485E+01  0.12952466494E+02  0.90228652486E+00  0.13161776780E+02  0.51100000000E-03 0.  1.
         12    1    3    3    0    0  0.85419718624E+01  0.23964490881E+02  0.63579416570E+01  0.26223758857E+02  0.00000000000E+00 0. -1.
</event>
<event>
 7    1  0.2395003E-008  0.4614232E+02  0.7816164E-02  0.1320468E+00
        -11   -1    0    0    0    0  0.00000000000E+00  0.00000000000E+00  0.45593999997E+02  0.45594000000E+02  0.51100000000E-03 0.  1.
         11   -1    0    0    0    0 -0.00000000000E+00 -0.00000000000E+00 -0.45593999997E+02  0.45594000000E+02  0.51100000000E-03 0. -1.
    9900012    2    1    2    0    0 -0.39057756227E+02  0.20250755766E+02 -0.96701719274E+01  0.46142315904E+02  0.99999830670E+01 0.  0.
         12    1    1    2    0    0  0.39057756227E+02 -0.20250755766E+02  0.96701719274E+01  0.45045684096E+02  0.00000000000E+00 0. -1.
         11    1    3    3    0    0 -0.18325860937E+02  0.13440561901E+02 -0.20019994977E+01  0.22814335089E+02  0.51100000000E-03 0. -1.
        -11    1    3    3    0    0 -0.60830728363E+01  0.24981199666E+01 -0.94665877582E+00  0.66438348563E+01  0.51100000000E-03 0.  1.
         12    1    3    3    0    0 -0.14648822454E+02  0.43120738979E+01 -0.67215136539E+01  0.16684145959E+02  0.00000000000E+00 0. -1.
</event>
<event>
 7    1  0.2395003E-008  0.4614232E+02  0.7816164E-02  0.1320468E+00
        -11   -1    0    0    0    0  0.00000000000E+00  0.00000000000E+00  0.45593999997E+02  0.45594000000E+02  0.51100000000E-03 0.  1.
         11   -1    0    0    0    0 -0.00000000000E+00 -0.00000000000E+00 -0.45593999997E+02  0.45594000000E+02  0.51100000000E-03 0. -1.
    9900012    2    1    2    0    0  0.25127744182E+02 -0.31066108139E+02  0.20799204371E+02  0.46142317576E+02  0.99999983123E+01 0.  0.
         12    1    1    2    0    0 -0.25127744182E+02  0.31066108139E+02 -0.20799204371E+02  0.45045682424E+02  0.00000000000E+00 0. -1.
         11    1    3    3    0    0  0.54316374937E+01 -0.86844188681E+01  0.42812635826E+01  0.11101848273E+02  0.51100000000E-03 0. -1.
        -11    1    3    3    0    0  0.25042473910E+01 -0.60164077859E+01  0.78468697723E+00  0.65638518840E+01  0.51100000000E-03 0.  1.
        -12    1    3    3    0    0  0.17191859297E+02 -0.16365281485E+02  0.15733253811E+02  0.28476617420E+02  0.00000000000E+00 0.  1.
</event>
<event>
 7    1  0.2395003E-008  0.4614232E+02  0.7816164E-02  0.1320468E+00
        -11   -1    0    0    0    0  0.00000000000E+00  0.00000000000E+00  0.45593999997E+02  0.45594000000E+02  0.51100000000E-03 0.  1.
         11   -1    0    0    0    0 -0.00000000000E+00 -0.00000000000E+00 -0.45593999997E+02  0.45594000000E+02  0.51100000000E-03 0. -1.
    9900012    2    1    2    0    0 -0.22267982748E+02 -0.22650407653E+02  0.31940716381E+02  0.46142318903E+02  0.10000010417E+02 0.  0.
         12    1    1    2    0    0  0.22267982748E+02  0.22650407653E+02 -0.31940716381E+02  0.45045681097E+02  0.00000000000E+00 0. -1.
         11    1    3    3    0    0 -0.59229202087E+00 -0.31496911044E+01  0.23376345436E+01  0.39668500616E+01  0.51100000000E-03 0. -1.
        -11    1    3    3    0    0 -0.97918569578E+01 -0.80703297665E+01  0.80060278732E+01  0.15003571834E+02  0.51100000000E-03 0.  1.
        -12    1    3    3    0    0 -0.11883833769E+02 -0.11430386782E+02  0.21597053965E+02  0.27171897007E+02  0.00000000000E+00 0.  1.
</event>
<event>
 7    1  0.2600076E-008  0.4614232E+02  0.7816164E-02  0.1320468E+00
        -11   -1    0    0    0    0  0.00000000000E+00  0.00000000000E+00  0.45593999997E+02  0.45594000000E+02  0.51100000000E-03 0.  1.
         11   -1    0    0    0    0 -0.00000000000E+00 -0.00000000000E+00 -0.45593999997E+02  0.45594000000E+02  0.51100000000E-03 0. -1.
    9900012    2    1    2    0    0 -0.38381861579E+02 -0.12909309109E+02  0.19730584568E+02  0.46142317329E+02  0.99999960596E+01 0.  0.
         12    1    1    2    0    0  0.38381861579E+02  0.12909309109E+02 -0.19730584568E+02  0.45045682671E+02  0.00000000000E+00 0. -1.
         11    1    3    3    0    0 -0.21760287785E+01 -0.28331782476E+01  0.41965498103E+00  0.35969585474E+01  0.51100000000E-03 0. -1.
        -11    1    3    3    0    0 -0.48302757444E+01  0.13044161443E+00  0.15491271399E+01  0.50742855594E+01  0.51100000000E-03 0.  1.
        -12    1    3    3    0    0 -0.31375557056E+02 -0.10206572475E+02  0.17761802447E+02  0.37471073222E+02  0.00000000000E+00 0.  1.
</event>
<event>
 7    1  0.2395003E-008  0.4614232E+02  0.7816164E-02  0.1320468E+00
        -11   -1    0    0    0    0  0.00000000000E+00  0.00000000000E+00  0.45593999997E+02  0.45594000000E+02  0.51100000000E-03 0. -1.
         11   -1    0    0    0    0 -0.00000000000E+00 -0.00000000000E+00 -0.45593999997E+02  0.45594000000E+02  0.51100000000E-03 0.  1.
    9900012    2    1    2    0    0  0.39221682132E+02 -0.19575956738E+02 -0.10370874340E+02  0.46142318009E+02  0.10000002260E+02 0.  0.
         12    1    1    2    0    0 -0.39221682132E+02  0.19575956738E+02  0.10370874340E+02  0.45045681991E+02  0.00000000000E+00 0. -1.
         11    1    3    3    0    0  0.23803704156E+02 -0.10572443602E+02 -0.41542697692E+01  0.26375193892E+02  0.51100000000E-03 0. -1.
        -11    1    3    3    0    0  0.15881985331E+02 -0.88468711594E+01 -0.56933210700E+01  0.19050419745E+02  0.51100000000E-03 0.  1.
         12    1    3    3    0    0 -0.46400735568E+00 -0.15664197719E+00 -0.52328350080E+00  0.71670437235E+00  0.00000000000E+00 0. -1.
</event>
<event>
 7    1  0.2395003E-008  0.4614232E+02  0.7816164E-02  0.1320468E+00
        -11   -1    0    0    0    0  0.00000000000E+00  0.00000000000E+00  0.45593999997E+02  0.45594000000E+02  0.51100000000E-03 0.  1.
         11   -1    0    0    0    0 -0.00000000000E+00 -0.00000000000E+00 -0.45593999997E+02  0.45594000000E+02  0.51100000000E-03 0. -1.
    9900012    2    1    2    0    0  0.41137330014E+02  0.17736680407E+02 -0.47163341143E+01  0.46142316966E+02  0.99999927494E+01 0.  0.
         12    1    1    2    0    0 -0.41137330014E+02 -0.17736680407E+02  0.47163341143E+01  0.45045683034E+02  0.00000000000E+00 0. -1.
         11    1    3    3    0    0  0.45006808887E+01  0.64252741537E-01 -0.15281368651E+01  0.47534681461E+01  0.51100000000E-03 0. -1.
        -11    1    3    3    0    0  0.79702866591E+01  0.67053497509E+01 -0.23871720526E+01  0.10685774440E+02  0.51100000000E-03 0.  1.
        -12    1    3    3    0    0  0.28666362466E+02  0.10967077914E+02 -0.80102519654E+00  0.30703074380E+02  0.00000000000E+00 0.  1.
</event>
<event>
 7    1  0.2395003E-008  0.4614232E+02  0.7816164E-02  0.1320468E+00
        -11   -1    0    0    0    0  0.00000000000E+00  0.00000000000E+00  0.45593999997E+02  0.45594000000E+02  0.51100000000E-03 0.  1.
         11   -1    0    0    0    0 -0.00000000000E+00 -0.00000000000E+00 -0.45593999997E+02  0.45594000000E+02  0.51100000000E-03 0. -1.
    9900012    2    1    2    0    0  0.25568449375E+02  0.88785980827E+01  0.36007478086E+02  0.46142316683E+02  0.99999901726E+01 0.  0.
         12    1    1    2    0    0 -0.25568449375E+02 -0.88785980827E+01 -0.36007478086E+02  0.45045683317E+02  0.00000000000E+00 0. -1.
         11    1    3    3    0    0  0.45208449657E+01  0.51043201452E+01  0.62306222074E+01  0.92364915796E+01  0.51100000000E-03 0. -1.
        -11    1    3    3    0    0  0.80053784982E+01 -0.63853116639E+00  0.11305385888E+02  0.13867427926E+02  0.51100000000E-03 0.  1.
        -12    1    3    3    0    0  0.13042225911E+02  0.44128091039E+01  0.18471469990E+02  0.23038397177E+02  0.00000000000E+00 0.  1.
</event>
<event>
 7    1  0.2395003E-008  0.4614232E+02  0.7816164E-02  0.1320468E+00
        -11   -1    0    0    0    0  0.00000000000E+00  0.00000000000E+00  0.45593999997E+02  0.45594000000E+02  0.51100000000E-03 0. -1.
         11   -1    0    0    0    0 -0.00000000000E+00 -0.00000000000E+00 -0.45593999997E+02  0.45594000000E+02  0.51100000000E-03 0.  1.
    9900012    2    1    2    0    0 -0.25095563641E+02  0.36326170938E+02 -0.89294703218E+01  0.46142318190E+02  0.10000003911E+02 0.  0.
         12    1    1    2    0    0  0.25095563641E+02 -0.36326170938E+02  0.89294703218E+01  0.45045681810E+02  0.00000000000E+00 0. -1.
         11    1    3    3    0    0 -0.90878020700E+01  0.19285605288E+02 -0.75481757049E+00  0.21332896372E+02  0.51100000000E-03 0. -1.
        -11    1    3    3    0    0 -0.10152821430E+01  0.91159256509E+00 -0.82468636329E+00  0.15943358158E+01  0.51100000000E-03 0.  1.
         12    1    3    3    0    0 -0.14992479428E+02  0.16128973085E+02 -0.73499663880E+01  0.23215086002E+02  0.00000000000E+00 0. -1.
</event>
<event>
 7    1  0.2395003E-008  0.4614232E+02  0.7816164E-02  0.1320468E+00
        -11   -1    0    0    0    0  0.00000000000E+00  0.00000000000E+00  0.45593999997E+02  0.45594000000E+02  0.51100000000E-03 0. -1.
         11   -1    0    0    0    0 -0.00000000000E+00 -0.00000000000E+00 -0.45593999997E+02  0.45594000000E+02  0.51100000000E-03 0.  1.
    9900012    2    1    2    0    0 -0.44973088152E+02 -0.77576918465E+00  0.24357770347E+01  0.46142317793E+02  0.10000000288E+02 0.  0.
         12    1    1    2    0    0  0.44973088152E+02  0.77576918465E+00 -0.24357770347E+01  0.45045682207E+02  0.00000000000E+00 0. -1.
         11    1    3    3    0    0 -0.17277908477E+02  0.34993006730E+01  0.81440994353E+00  0.17647506633E+02  0.51100000000E-03 0.  1.
        -11    1    3    3    0    0 -0.10559048700E+02 -0.39026025767E+01  0.14800827305E+01  0.11354050443E+02  0.51100000000E-03 0. -1.
        -12    1    3    3    0    0 -0.17136130975E+02 -0.37246728098E+00  0.14128436073E+00  0.17140760717E+02  0.00000000000E+00 0.  1.
</event>
<event>
 7    1  0.2395003E-008  0.4614232E+02  0.7816164E-02  0.1320468E+00
        -11   -1    0    0    0    0  0.00000000000E+00  0.00000000000E+00  0.45593999997E+02  0.45594000000E+02  0.51100000000E-03 0.  1.
         11   -1    0    0    0    0 -0.00000000000E+00 -0.00000000000E+00 -0.45593999997E+02  0.45594000000E+02  0.51100000000E-03 0. -1.
    9900012    2    1    2    0    0 -0.20622214465E+02 -0.28025575793E+02  0.28607777155E+02  0.46142317169E+02  0.99999946030E+01 0.  0.
         12    1    1    2    0    0  0.20622214465E+02  0.28025575793E+02 -0.28607777155E+02  0.45045682831E+02  0.00000000000E+00 0. -1.
         11    1    3    3    0    0 -0.16672755902E+01  0.10040734269E+00  0.14737928596E+01  0.22275446533E+01  0.51100000000E-03 0. -1.
        -11    1    3    3    0    0 -0.88826323032E+01 -0.10165480988E+02  0.14225384303E+02  0.19611214118E+02  0.51100000000E-03 0.  1.
         12    1    3    3    0    0 -0.10072306572E+02 -0.17960502147E+02  0.12908599992E+02  0.24303558398E+02  0.00000000000E+00 0. -1.
</event>
<event>
 7    1  0.2395003E-008  0.4614231E+02  0.7816164E-02  0.1320468E+00
        -11   -1    0    0    0    0  0.00000000000E+00  0.00000000000E+00  0.45593999997E+02  0.45594000000E+02  0.51100000000E-03 0. -1.
         11   -1    0    0    0    0 -0.00000000000E+00 -0.00000000000E+00 -0.45593999997E+02  0.45594000000E+02  0.51100000000E-03 0.  1.
    9900012    2    1    2    0    0 -0.26462279881E+02  0.50798776345E+01 -0.36097873095E+02  0.46142313689E+02  0.99999628631E+01 0.  0.
         12    1    1    2    0    0  0.26462279881E+02 -0.50798776345E+01  0.36097873095E+02  0.45045686311E+02  0.00000000000E+00 0. -1.
         11    1    3    3    0    0 -0.10980269936E+02  0.43274556173E+01 -0.16873620881E+02  0.20591558510E+02  0.51100000000E-03 0. -1.
        -11    1    3    3    0    0 -0.76880743673E+00  0.11616036572E+01 -0.45826326731E+01  0.47896670457E+01  0.51100000000E-03 0.  1.
        -12    1    3    3    0    0 -0.14713202508E+02 -0.40918163992E+00 -0.14641619541E+02  0.20761088133E+02  0.00000000000E+00 0.  1.
</event>
<event>
 7    1  0.2395003E-008  0.4614232E+02  0.7816164E-02  0.1320468E+00
        -11   -1    0    0    0    0  0.00000000000E+00  0.00000000000E+00  0.45593999997E+02  0.45594000000E+02  0.51100000000E-03 0. -1.
         11   -1    0    0    0    0 -0.00000000000E+00 -0.00000000000E+00 -0.45593999997E+02  0.45594000000E+02  0.51100000000E-03 0.  1.
    9900012    2    1    2    0    0  0.14345098166E+02  0.40160894325E+02 -0.14506347558E+02  0.46142318811E+02  0.10000009570E+02 0.  0.
         12    1    1    2    0    0 -0.14345098166E+02 -0.40160894325E+02  0.14506347558E+02  0.45045681189E+02  0.00000000000E+00 0. -1.
         11    1    3    3    0    0  0.10446413788E+02  0.31838398357E+02 -0.91025417738E+01  0.34722722214E+02  0.51100000000E-03 0. -1.
        -11    1    3    3    0    0  0.37222837691E+01  0.69770184704E+01 -0.60108626330E+01  0.99330082577E+01  0.51100000000E-03 0.  1.
        -12    1    3    3    0    0  0.17640060889E+00  0.13454774972E+01  0.60705684895E+00  0.14865883385E+01  0.00000000000E+00 0.  1.
</event>
<event>
 7    1  0.2395003E-008  0.4614232E+02  0.7816164E-02  0.1320468E+00
        -11   -1    0    0    0    0  0.00000000000E+00  0.00000000000E+00  0.45593999997E+02  0.45594000000E+02  0.51100000000E-03 0.  1.
         11   -1    0    0    0    0 -0.00000000000E+00 -0.00000000000E+00 -0.45593999997E+02  0.45594000000E+02  0.51100000000E-03 0. -1.
    9900012    2    1    2    0    0  0.41525512168E+01 -0.40048742454E+02  0.20198218954E+02  0.46142317603E+02  0.99999985555E+01 0.  0.
         12    1    1    2    0    0 -0.41525512168E+01  0.40048742454E+02 -0.20198218954E+02  0.45045682397E+02  0.00000000000E+00 0. -1.
         11    1    3    3    0    0  0.22948711424E+01 -0.74292002527E+01  0.17548448468E+01  0.79711310773E+01  0.51100000000E-03 0. -1.
        -11    1    3    3    0    0  0.11798463990E+00 -0.26494819119E+02  0.11911304162E+02  0.29049415271E+02  0.51100000000E-03 0.  1.
        -12    1    3    3    0    0  0.17396954345E+01 -0.61247230822E+01  0.65320699456E+01  0.91217712541E+01  0.00000000000E+00 0.  1.
</event>
<event>
 7    1  0.2395003E-008  0.4614232E+02  0.7816164E-02  0.1320468E+00
        -11   -1    0    0    0    0  0.00000000000E+00  0.00000000000E+00  0.45593999997E+02  0.45594000000E+02  0.51100000000E-03 0.  1.
         11   -1    0    0    0    0 -0.00000000000E+00 -0.00000000000E+00 -0.45593999997E+02  0.45594000000E+02  0.51100000000E-03 0. -1.
    9900012    2    1    2    0    0 -0.76052651360E+01  0.21026126051E+02  0.39104672561E+02  0.46142318180E+02  0.10000003818E+02 0.  0.
         12    1    1    2    0    0  0.76052651360E+01 -0.21026126051E+02 -0.39104672561E+02  0.45045681820E+02  0.00000000000E+00 0. -1.
         11    1    3    3    0    0 -0.17615830989E+01  0.21439793783E+01  0.29181957864E+01  0.40268709313E+01  0.51100000000E-03 0. -1.
        -11    1    3    3    0    0 -0.44519120033E+01  0.12157004623E+02  0.14850954459E+02  0.19701856016E+02  0.51100000000E-03 0.  1.
        -12    1    3    3    0    0 -0.13917700338E+01  0.67251420499E+01  0.21335522316E+02  0.22413591232E+02  0.00000000000E+00 0.  1.
</event>
<event>
 7    1  0.2395003E-008  0.4614232E+02  0.7816164E-02  0.1320468E+00
        -11   -1    0    0    0    0  0.00000000000E+00  0.00000000000E+00  0.45593999997E+02  0.45594000000E+02  0.51100000000E-03 0.  1.
         11   -1    0    0    0    0 -0.00000000000E+00 -0.00000000000E+00 -0.45593999997E+02  0.45594000000E+02  0.51100000000E-03 0. -1.
    9900012    2    1    2    0    0 -0.21442574247E+02 -0.36876939070E+02 -0.14471384414E+02  0.46142316607E+02  0.99999894768E+01 0.  0.
         12    1    1    2    0    0  0.21442574247E+02  0.36876939070E+02  0.14471384414E+02  0.45045683393E+02  0.00000000000E+00 0. -1.
         11    1    3    3    0    0 -0.27353739994E+01 -0.81374185643E+01 -0.64505146175E+01  0.10738202405E+02  0.51100000000E-03 0. -1.
        -11    1    3    3    0    0 -0.10087319846E+02 -0.18582141932E+02 -0.43617683452E+01  0.21588771243E+02  0.51100000000E-03 0.  1.
        -12    1    3    3    0    0 -0.86198804014E+01 -0.10157378574E+02 -0.36591014511E+01  0.13815342958E+02  0.00000000000E+00 0.  1.
</event>
<event>
 7    1  0.2395003E-008  0.4614232E+02  0.7816164E-02  0.1320468E+00
        -11   -1    0    0    0    0  0.00000000000E+00  0.00000000000E+00  0.45593999997E+02  0.45594000000E+02  0.51100000000E-03 0.  1.
         11   -1    0    0    0    0 -0.00000000000E+00 -0.00000000000E+00 -0.45593999997E+02  0.45594000000E+02  0.51100000000E-03 0. -1.
    9900012    2    1    2    0    0  0.40260509697E+02 -0.17291316528E+02  0.10450615980E+02  0.46142316048E+02  0.99999843824E+01 0.  0.
         12    1    1    2    0    0 -0.40260509697E+02  0.17291316528E+02 -0.10450615980E+02  0.45045683952E+02  0.00000000000E+00 0. -1.
         11    1    3    3    0    0  0.72534819422E+01 -0.35902843346E+01  0.14585386925E+01  0.82237751226E+01  0.51100000000E-03 0. -1.
        -11    1    3    3    0    0  0.80647781827E+01 -0.62214259618E+01  0.56989556035E+01  0.11671541602E+02  0.51100000000E-03 0.  1.
         12    1    3    3    0    0  0.24942249572E+02 -0.74796062312E+01  0.32931216840E+01  0.26246999324E+02  0.00000000000E+00 0. -1.
</event>
<event>
 7    1  0.2395003E-008  0.4614232E+02  0.7816164E-02  0.1320468E+00
        -11   -1    0    0    0    0  0.00000000000E+00  0.00000000000E+00  0.45593999997E+02  0.45594000000E+02  0.51100000000E-03 0.  1.
         11   -1    0    0    0    0 -0.00000000000E+00 -0.00000000000E+00 -0.45593999997E+02  0.45594000000E+02  0.51100000000E-03 0. -1.
    9900012    2    1    2    0    0 -0.15189187783E+01 -0.40546042773E+02  0.19565909120E+02  0.46142317649E+02  0.99999989796E+01 0.  0.
         12    1    1    2    0    0  0.15189187783E+01  0.40546042773E+02 -0.19565909120E+02  0.45045682351E+02  0.00000000000E+00 0. -1.
         11    1    3    3    0    0 -0.15699780050E+01 -0.20046995454E+02  0.70639342921E+01  0.21313048248E+02  0.51100000000E-03 0. -1.
        -11    1    3    3    0    0  0.31505133612E+01 -0.92240497649E+01  0.52774689693E+01  0.11084245914E+02  0.51100000000E-03 0.  1.
        -12    1    3    3    0    0 -0.30994541345E+01 -0.11274997554E+02  0.72245058581E+01  0.13745023487E+02  0.00000000000E+00 0.  1.
</event>
<event>
 7    1  0.2395003E-008  0.4614233E+02  0.7816164E-02  0.1320468E+00
        -11   -1    0    0    0    0  0.00000000000E+00  0.00000000000E+00  0.45593999997E+02  0.45594000000E+02  0.51100000000E-03 0.  1.
         11   -1    0    0    0    0 -0.00000000000E+00 -0.00000000000E+00 -0.45593999997E+02  0.45594000000E+02  0.51100000000E-03 0. -1.
    9900012    2    1    2    0    0 -0.12353059066E+02 -0.38513695278E+02  0.19829515427E+02  0.46142329017E+02  0.10000102639E+02 0.  0.
         12    1    1    2    0    0  0.12353059066E+02  0.38513695278E+02 -0.19829515427E+02  0.45045670983E+02  0.00000000000E+00 0. -1.
         11    1    3    3    0    0 -0.71360531426E+00  0.10078045154E+00  0.81742535077E+00  0.10897585554E+01  0.51100000000E-03 0. -1.
        -11    1    3    3    0    0 -0.32235188469E+01 -0.77490912983E+01  0.68254910454E+01  0.10817893417E+02  0.51100000000E-03 0.  1.
        -12    1    3    3    0    0 -0.84159349045E+01 -0.30865384431E+02  0.12186599031E+02  0.34234677045E+02  0.00000000000E+00 0.  1.
</event>
<event>
 7    1  0.2395003E-008  0.4614232E+02  0.7816164E-02  0.1320468E+00
        -11   -1    0    0    0    0  0.00000000000E+00  0.00000000000E+00  0.45593999997E+02  0.45594000000E+02  0.51100000000E-03 0.  1.
         11   -1    0    0    0    0 -0.00000000000E+00 -0.00000000000E+00 -0.45593999997E+02  0.45594000000E+02  0.51100000000E-03 0. -1.
    9900012    2    1    2    0    0 -0.29337227821E+02 -0.31073515508E+02  0.14243496095E+02  0.46142317818E+02  0.10000000520E+02 0.  0.
         12    1    1    2    0    0  0.29337227821E+02  0.31073515508E+02 -0.14243496095E+02  0.45045682182E+02  0.00000000000E+00 0. -1.
         11    1    3    3    0    0 -0.67930020336E+01 -0.10073771183E+02  0.62081846332E+01  0.13644313804E+02  0.51100000000E-03 0. -1.
        -11    1    3    3    0    0 -0.21374921698E+02 -0.21296387578E+02  0.82313215591E+01  0.31275838219E+02  0.51100000000E-03 0.  1.
         12    1    3    3    0    0 -0.11693040895E+01  0.29664325256E+00 -0.19601009740E+00  0.12221657953E+01  0.00000000000E+00 0. -1.
</event>
<event>
 7    1  0.2395003E-008  0.4614232E+02  0.7816164E-02  0.1320468E+00
        -11   -1    0    0    0    0  0.00000000000E+00  0.00000000000E+00  0.45593999997E+02  0.45594000000E+02  0.51100000000E-03 0.  1.
         11   -1    0    0    0    0 -0.00000000000E+00 -0.00000000000E+00 -0.45593999997E+02  0.45594000000E+02  0.51100000000E-03 0. -1.
    9900012    2    1    2    0    0 -0.22466976335E+02  0.58534744852E+01  0.38601622928E+02  0.46142317833E+02  0.10000000658E+02 0.  0.
         12    1    1    2    0    0  0.22466976335E+02 -0.58534744852E+01 -0.38601622928E+02  0.45045682167E+02  0.00000000000E+00 0. -1.
         11    1    3    3    0    0 -0.39481713467E+01 -0.16567660863E+01  0.10695746591E+02  0.11520934261E+02  0.51100000000E-03 0. -1.
        -11    1    3    3    0    0 -0.47391647350E+01  0.12732135808E+01  0.39934223761E+01  0.63267825743E+01  0.51100000000E-03 0.  1.
        -12    1    3    3    0    0 -0.13779640253E+02  0.62370269907E+01  0.23912453962E+02  0.28294600998E+02  0.00000000000E+00 0.  1.
</event>
<event>
 7    1  0.2395003E-008  0.4614232E+02  0.7816164E-02  0.1320468E+00
        -11   -1    0    0    0    0  0.00000000000E+00  0.00000000000E+00  0.45593999997E+02  0.45594000000E+02  0.51100000000E-03 0.  1.
         11   -1    0    0    0    0 -0.00000000000E+00 -0.00000000000E+00 -0.45593999997E+02  0.45594000000E+02  0.51100000000E-03 0. -1.
    9900012    2    1    2    0    0  0.54773790595E+01  0.17902113014E+02  0.40971039939E+02  0.46142318238E+02  0.10000004348E+02 0.  0.
         12    1    1    2    0    0 -0.54773790595E+01 -0.17902113014E+02 -0.40971039939E+02  0.45045681762E+02  0.00000000000E+00 0. -1.
         11    1    3    3    0    0  0.24376412707E+01  0.44490961420E+01  0.77038669853E+01  0.92242136919E+01  0.51100000000E-03 0. -1.
        -11    1    3    3    0    0  0.33742005161E+01  0.14496126342E+02  0.30376394336E+02  0.33826738553E+02  0.51100000000E-03 0.  1.
         12    1    3    3    0    0 -0.33446272731E+00 -0.10431094702E+01  0.28907786180E+01  0.30913659928E+01  0.00000000000E+00 0. -1.
</event>
<event>
 7    1  0.2472681E-008  0.4614232E+02  0.7816164E-02  0.1320468E+00
        -11   -1    0    0    0    0  0.00000000000E+00  0.00000000000E+00  0.45593999997E+02  0.45594000000E+02  0.51100000000E-03 0.  1.
         11   -1    0    0    0    0 -0.00000000000E+00 -0.00000000000E+00 -0.45593999997E+02  0.45594000000E+02  0.51100000000E-03 0. -1.
    9900012    2    1    2    0    0 -0.39240843645E+02 -0.14030115706E+01  0.22074903986E+02  0.46142316107E+02  0.99999849147E+01 0.  0.
         12    1    1    2    0    0  0.39240843645E+02  0.14030115706E+01 -0.22074903986E+02  0.45045683893E+02  0.00000000000E+00 0. -1.
         11    1    3    3    0    0 -0.10182153146E+01 -0.10071065717E+01 -0.98721915562E-02  0.14321744988E+01  0.51100000000E-03 0. -1.
        -11    1    3    3    0    0 -0.14632523344E+02  0.12427929895E+01  0.49100744880E+01  0.15484318053E+02  0.51100000000E-03 0.  1.
        -12    1    3    3    0    0 -0.23590104987E+02 -0.16386979885E+01  0.17174701689E+02  0.29225823555E+02  0.00000000000E+00 0.  1.
</event>
<event>
 7    1  0.2395003E-008  0.4614232E+02  0.7816164E-02  0.1320468E+00
        -11   -1    0    0    0    0  0.00000000000E+00  0.00000000000E+00  0.45593999997E+02  0.45594000000E+02  0.51100000000E-03 0.  1.
         11   -1    0    0    0    0 -0.00000000000E+00 -0.00000000000E+00 -0.45593999997E+02  0.45594000000E+02  0.51100000000E-03 0. -1.
    9900012    2    1    2    0    0 -0.11755365697E+02  0.43069099005E+02 -0.59981333846E+01  0.46142317456E+02  0.99999972199E+01 0.  0.
         12    1    1    2    0    0  0.11755365697E+02 -0.43069099005E+02  0.59981333846E+01  0.45045682544E+02  0.00000000000E+00 0. -1.
         11    1    3    3    0    0 -0.47552190740E+01  0.21236011663E+02 -0.59989973411E+01  0.22573618876E+02  0.51100000000E-03 0. -1.
        -11    1    3    3    0    0 -0.58636275979E+01  0.19126492680E+02 -0.18626195483E+01  0.20091645097E+02  0.51100000000E-03 0.  1.
         12    1    3    3    0    0 -0.11365190250E+01  0.27065946616E+01  0.18634835048E+01  0.34770534838E+01  0.00000000000E+00 0. -1.
</event>
<event>
 7    1  0.2395003E-008  0.4614232E+02  0.7816164E-02  0.1320468E+00
        -11   -1    0    0    0    0  0.00000000000E+00  0.00000000000E+00  0.45593999997E+02  0.45594000000E+02  0.51100000000E-03 0. -1.
         11   -1    0    0    0    0 -0.00000000000E+00 -0.00000000000E+00 -0.45593999997E+02  0.45594000000E+02  0.51100000000E-03 0.  1.
    9900012    2    1    2    0    0  0.10508688134E+02 -0.42818208272E+02 -0.92348275929E+01  0.46142317337E+02  0.99999961294E+01 0.  0.
         12    1    1    2    0    0 -0.10508688134E+02  0.42818208272E+02  0.92348275929E+01  0.45045682663E+02  0.00000000000E+00 0. -1.
         11    1    3    3    0    0 -0.12975185159E+00 -0.78726171799E+01 -0.46647367225E+01  0.91517597082E+01  0.51100000000E-03 0. -1.
        -11    1    3    3    0    0 -0.76279196164E-01  0.51522409261E-01  0.40775501369E-01  0.10067758964E+00  0.51100000000E-03 0.  1.
        -12    1    3    3    0    0  0.10714719182E+02 -0.34997113502E+02 -0.46108663718E+01  0.36889880039E+02  0.00000000000E+00 0.  1.
</event>
<event>
 7    1  0.2395003E-008  0.4614232E+02  0.7816164E-02  0.1320468E+00
        -11   -1    0    0    0    0  0.00000000000E+00  0.00000000000E+00  0.45593999997E+02  0.45594000000E+02  0.51100000000E-03 0. -1.
         11   -1    0    0    0    0 -0.00000000000E+00 -0.00000000000E+00 -0.45593999997E+02  0.45594000000E+02  0.51100000000E-03 0.  1.
    9900012    2    1    2    0    0 -0.36930624304E+02  0.77294315026E+01 -0.24606876720E+02  0.46142317579E+02  0.99999983384E+01 0.  0.
         12    1    1    2    0    0  0.36930624304E+02 -0.77294315026E+01  0.24606876720E+02  0.45045682421E+02  0.00000000000E+00 0. -1.
         11    1    3    3    0    0 -0.45577495550E+01 -0.18003483671E+01 -0.31671073855E+01  0.58348011707E+01  0.51100000000E-03 0. -1.
        -11    1    3    3    0    0 -0.53058093482E+01  0.17979762415E+01 -0.14640119168E+01  0.57903076394E+01  0.51100000000E-03 0.  1.
        -12    1    3    3    0    0 -0.27067065401E+02  0.77318036282E+01 -0.19975757418E+02  0.34517208769E+02  0.00000000000E+00 0.  1.
</event>
<event>
 7    1  0.2395003E-008  0.4614232E+02  0.7816164E-02  0.1320468E+00
        -11   -1    0    0    0    0  0.00000000000E+00  0.00000000000E+00  0.45593999997E+02  0.45594000000E+02  0.51100000000E-03 0. -1.
         11   -1    0    0    0    0 -0.00000000000E+00 -0.00000000000E+00 -0.45593999997E+02  0.45594000000E+02  0.51100000000E-03 0.  1.
    9900012    2    1    2    0    0 -0.35509266806E+02  0.27540999736E+02  0.31142864150E+01  0.46142317905E+02  0.10000001310E+02 0.  0.
         12    1    1    2    0    0  0.35509266806E+02 -0.27540999736E+02 -0.31142864150E+01  0.45045682095E+02  0.00000000000E+00 0. -1.
         11    1    3    3    0    0 -0.10387696775E+01  0.91827103079E+00 -0.71012207778E+00  0.15577348155E+01  0.51100000000E-03 0. -1.
        -11    1    3    3    0    0 -0.72368570707E+01  0.86617615642E+01 -0.19502263197E+01  0.11454326546E+02  0.51100000000E-03 0.  1.
         12    1    3    3    0    0 -0.27233640057E+02  0.17960967141E+02  0.57746348125E+01  0.33130256544E+02  0.00000000000E+00 0. -1.
</event>
<event>
 7    1  0.2395003E-008  0.4614231E+02  0.7816164E-02  0.1320468E+00
        -11   -1    0    0    0    0  0.00000000000E+00  0.00000000000E+00  0.45593999997E+02  0.45594000000E+02  0.51100000000E-03 0.  1.
         11   -1    0    0    0    0 -0.00000000000E+00 -0.00000000000E+00 -0.45593999997E+02  0.45594000000E+02  0.51100000000E-03 0. -1.
    9900012    2    1    2    0    0 -0.19722746511E+02 -0.40362003703E+02  0.33220359230E+01  0.46142312132E+02  0.99999486663E+01 0.  0.
         12    1    1    2    0    0  0.19722746511E+02  0.40362003703E+02 -0.33220359230E+01  0.45045687868E+02  0.00000000000E+00 0. -1.
         11    1    3    3    0    0 -0.11301762068E+01 -0.46780734697E+01  0.75797462215E+00  0.48719806481E+01  0.51100000000E-03 0. -1.
        -11    1    3    3    0    0 -0.12469058043E+02 -0.15513052507E+02 -0.82292955841E+00  0.19920075800E+02  0.51100000000E-03 0.  1.
        -12    1    3    3    0    0 -0.61235122609E+01 -0.20170877727E+02  0.33869908593E+01  0.21350255683E+02  0.00000000000E+00 0.  1.
</event>
<event>
 7    1  0.2395003E-008  0.4614231E+02  0.7816164E-02  0.1320468E+00
        -11   -1    0    0    0    0  0.00000000000E+00  0.00000000000E+00  0.45593999997E+02  0.45594000000E+02  0.51100000000E-03 0.  1.
         11   -1    0    0    0    0 -0.00000000000E+00 -0.00000000000E+00 -0.45593999997E+02  0.45594000000E+02  0.51100000000E-03 0. -1.
    9900012    2    1    2    0    0 -0.44600434385E+02  0.12725667016E+01  0.61884002930E+01  0.46142306848E+02  0.99999004845E+01 0.  0.
         12    1    1    2    0    0  0.44600434385E+02 -0.12725667016E+01 -0.61884002930E+01  0.45045693152E+02  0.00000000000E+00 0. -1.
         11    1    3    3    0    0 -0.23394054609E+02  0.24991547391E+01  0.12590292030E+01  0.23560830212E+02  0.51100000000E-03 0. -1.
        -11    1    3    3    0    0 -0.12652138000E+02  0.21609259190E+01  0.29760853633E+01  0.13175859788E+02  0.51100000000E-03 0.  1.
         12    1    3    3    0    0 -0.85542417755E+01 -0.33875139565E+01  0.19532857267E+01  0.94056168479E+01  0.00000000000E+00 0. -1.
</event>
<event>
 7    1  0.2395003E-008  0.4614232E+02  0.7816164E-02  0.1320468E+00
        -11   -1    0    0    0    0  0.00000000000E+00  0.00000000000E+00  0.45593999997E+02  0.45594000000E+02  0.51100000000E-03 0.  1.
         11   -1    0    0    0    0 -0.00000000000E+00 -0.00000000000E+00 -0.45593999997E+02  0.45594000000E+02  0.51100000000E-03 0. -1.
    9900012    2    1    2    0    0 -0.54833886947E+01  0.21511976773E+02  0.39195417612E+02  0.46142318098E+02  0.10000003069E+02 0.  0.
         12    1    1    2    0    0  0.54833886947E+01 -0.21511976773E+02 -0.39195417612E+02  0.45045681902E+02  0.00000000000E+00 0. -1.
         11    1    3    3    0    0 -0.21212260953E+01  0.27980786121E+01  0.51880061541E+01  0.62645233006E+01  0.51100000000E-03 0.  1.
        -11    1    3    3    0    0  0.16172056973E+01  0.67152130082E+00  0.55261820655E+01  0.57969805595E+01  0.51100000000E-03 0. -1.
        -12    1    3    3    0    0 -0.49793682966E+01  0.18042376860E+02  0.28481229393E+02  0.34080814238E+02  0.00000000000E+00 0.  1.
</event>
<event>
 7    1  0.2395003E-008  0.4614232E+02  0.7816164E-02  0.1320468E+00
        -11   -1    0    0    0    0  0.00000000000E+00  0.00000000000E+00  0.45593999997E+02  0.45594000000E+02  0.51100000000E-03 0.  1.
         11   -1    0    0    0    0 -0.00000000000E+00 -0.00000000000E+00 -0.45593999997E+02  0.45594000000E+02  0.51100000000E-03 0. -1.
    9900012    2    1    2    0    0 -0.22972069670E+02  0.36294449354E+02  0.13568731785E+02  0.46142317398E+02  0.99999966860E+01 0.  0.
         12    1    1    2    0    0  0.22972069670E+02 -0.36294449354E+02 -0.13568731785E+02  0.45045682602E+02  0.00000000000E+00 0. -1.
         11    1    3    3    0    0 -0.17749852670E-02  0.31934250690E+00 -0.18606179378E+00  0.36959713136E+00  0.51100000000E-03 0. -1.
        -11    1    3    3    0    0 -0.18138548256E+02  0.32364017734E+02  0.14198240411E+02  0.39724383038E+02  0.51100000000E-03 0.  1.
        -12    1    3    3    0    0 -0.48317464286E+01  0.36110891137E+01 -0.44344683208E+00  0.60483372285E+01  0.00000000000E+00 0.  1.
</event>
<event>
 7    1  0.2395003E-008  0.4614232E+02  0.7816164E-02  0.1320468E+00
        -11   -1    0    0    0    0  0.00000000000E+00  0.00000000000E+00  0.45593999997E+02  0.45594000000E+02  0.51100000000E-03 0.  1.
         11   -1    0    0    0    0 -0.00000000000E+00 -0.00000000000E+00 -0.45593999997E+02  0.45594000000E+02  0.51100000000E-03 0. -1.
    9900012    2    1    2    0    0  0.25562645143E+02  0.23444361756E+02  0.28740677380E+02  0.46142318064E+02  0.10000002762E+02 0.  0.
         12    1    1    2    0    0 -0.25562645143E+02 -0.23444361756E+02 -0.28740677380E+02  0.45045681936E+02  0.00000000000E+00 0. -1.
         11    1    3    3    0    0  0.10876857939E+02  0.87645177439E+01  0.11292379550E+02  0.17962200479E+02  0.51100000000E-03 0. -1.
        -11    1    3    3    0    0  0.81004682014E+01  0.48584235044E+01  0.11685629908E+02  0.15025838101E+02  0.51100000000E-03 0.  1.
         12    1    3    3    0    0  0.65853190023E+01  0.98214205080E+01  0.57626679222E+01  0.13154279484E+02  0.00000000000E+00 0. -1.
</event>
<event>
 7    1  0.2395003E-008  0.4614232E+02  0.7816164E-02  0.1320468E+00
        -11   -1    0    0    0    0  0.00000000000E+00  0.00000000000E+00  0.45593999997E+02  0.45594000000E+02  0.51100000000E-03 0. -1.
         11   -1    0    0    0    0 -0.00000000000E+00 -0.00000000000E+00 -0.45593999997E+02  0.45594000000E+02  0.51100000000E-03 0.  1.
    9900012    2    1    2    0    0 -0.62354846945E+01 -0.53546295104E+01 -0.44289503875E+02  0.46142317853E+02  0.10000000842E+02 0.  0.
         12    1    1    2    0    0  0.62354846945E+01  0.53546295104E+01  0.44289503875E+02  0.45045682147E+02  0.00000000000E+00 0. -1.
         11    1    3    3    0    0 -0.55514189535E+00 -0.21094973590E+01 -0.21521211706E+02  0.21631475104E+02  0.51100000000E-03 0. -1.
        -11    1    3    3    0    0 -0.54074786052E+01 -0.45982571686E+01 -0.14685144336E+02  0.16310679271E+02  0.51100000000E-03 0.  1.
         12    1    3    3    0    0 -0.27286419398E+00  0.13531250172E+01 -0.80831478335E+01  0.82001634787E+01  0.00000000000E+00 0. -1.
</event>
<event>
 7    1  0.2395003E-008  0.4614232E+02  0.7816164E-02  0.1320468E+00
        -11   -1    0    0    0    0  0.00000000000E+00  0.00000000000E+00  0.45593999997E+02  0.45594000000E+02  0.51100000000E-03 0. -1.
         11   -1    0    0    0    0 -0.00000000000E+00 -0.00000000000E+00 -0.45593999997E+02  0.45594000000E+02  0.51100000000E-03 0.  1.
    9900012    2    1    2    0    0 -0.38697450678E+02 -0.10301997889E+02 -0.20627401050E+02  0.46142317371E+02  0.99999964413E+01 0.  0.
         12    1    1    2    0    0  0.38697450678E+02  0.10301997889E+02  0.20627401050E+02  0.45045682629E+02  0.00000000000E+00 0. -1.
         11    1    3    3    0    0 -0.16625971495E+02 -0.26766526082E+00 -0.96009858749E+01  0.19200872451E+02  0.51100000000E-03 0. -1.
        -11    1    3    3    0    0 -0.45969768800E+01 -0.15884327134E+01 -0.40099154713E+01  0.63035495769E+01  0.51100000000E-03 0.  1.
         12    1    3    3    0    0 -0.17474502302E+02 -0.84458999152E+01 -0.70164997035E+01  0.20637895343E+02  0.00000000000E+00 0. -1.
</event>
<event>
 7    1  0.2395003E-008  0.4614232E+02  0.7816164E-02  0.1320468E+00
        -11   -1    0    0    0    0  0.00000000000E+00  0.00000000000E+00  0.45593999997E+02  0.45594000000E+02  0.51100000000E-03 0.  1.
         11   -1    0    0    0    0 -0.00000000000E+00 -0.00000000000E+00 -0.45593999997E+02  0.45594000000E+02  0.51100000000E-03 0. -1.
    9900012    2    1    2    0    0  0.39874516038E+02 -0.49730419619E+01  0.20356946707E+02  0.46142318133E+02  0.10000003392E+02 0.  0.
         12    1    1    2    0    0 -0.39874516038E+02  0.49730419619E+01 -0.20356946707E+02  0.45045681867E+02  0.00000000000E+00 0. -1.
         11    1    3    3    0    0  0.21849056616E+02 -0.15945476158E+00  0.12766706992E+02  0.25306036997E+02  0.51100000000E-03 0. -1.
        -11    1    3    3    0    0  0.13574767788E+02 -0.22854518412E+01  0.75860170815E+01  0.15717673684E+02  0.51100000000E-03 0.  1.
         12    1    3    3    0    0  0.44506916338E+01 -0.25281353591E+01  0.42226337451E-02  0.51186074517E+01  0.00000000000E+00 0. -1.
</event>
<event>
 7    1  0.2406281E-008  0.4614232E+02  0.7816164E-02  0.1320468E+00
        -11   -1    0    0    0    0  0.00000000000E+00  0.00000000000E+00  0.45593999997E+02  0.45594000000E+02  0.51100000000E-03 0. -1.
         11   -1    0    0    0    0 -0.00000000000E+00 -0.00000000000E+00 -0.45593999997E+02  0.45594000000E+02  0.51100000000E-03 0.  1.
    9900012    2    1    2    0    0 -0.19568278369E+00  0.43784768178E+02 -0.10581564699E+02  0.46142315106E+02  0.99999757842E+01 0.  0.
         12    1    1    2    0    0  0.19568278369E+00 -0.43784768178E+02  0.10581564699E+02  0.45045684894E+02  0.00000000000E+00 0. -1.
         11    1    3    3    0    0 -0.90005684451E+00  0.11409767414E+01 -0.15386023521E+01  0.21164186039E+01  0.51100000000E-03 0. -1.
        -11    1    3    3    0    0 -0.71405008145E+00  0.18245511354E+01 -0.15548350532E+01  0.25012730096E+01  0.51100000000E-03 0.  1.
        -12    1    3    3    0    0  0.14184241423E+01  0.40819240301E+02 -0.74881272941E+01  0.41524623492E+02  0.00000000000E+00 0.  1.
</event>
<event>
 7    1  0.2395003E-008  0.4614232E+02  0.7816164E-02  0.1320468E+00
        -11   -1    0    0    0    0  0.00000000000E+00  0.00000000000E+00  0.45593999997E+02  0.45594000000E+02  0.51100000000E-03 0.  1.
         11   -1    0    0    0    0 -0.00000000000E+00 -0.00000000000E+00 -0.45593999997E+02  0.45594000000E+02  0.51100000000E-03 0. -1.
    9900012    2    1    2    0    0 -0.32703039194E+02  0.84837717552E+01  0.29793461269E+02  0.46142317742E+02  0.99999998242E+01 0.  0.
         12    1    1    2    0    0  0.32703039194E+02 -0.84837717552E+01 -0.29793461269E+02  0.45045682258E+02  0.00000000000E+00 0. -1.
         11    1    3    3    0    0 -0.11505933328E+02  0.27833634328E+01  0.15358256769E+02  0.19390968645E+02  0.51100000000E-03 0. -1.
        -11    1    3    3    0    0 -0.10726470701E+02  0.22231642207E+01  0.10091248288E+02  0.14894056705E+02  0.51100000000E-03 0.  1.
         12    1    3    3    0    0 -0.10470635165E+02  0.34772441017E+01  0.43439562122E+01  0.11857292392E+02  0.00000000000E+00 0. -1.
</event>
<event>
 7    1  0.2395003E-008  0.4614232E+02  0.7816164E-02  0.1320468E+00
        -11   -1    0    0    0    0  0.00000000000E+00  0.00000000000E+00  0.45593999997E+02  0.45594000000E+02  0.51100000000E-03 0. -1.
         11   -1    0    0    0    0 -0.00000000000E+00 -0.00000000000E+00 -0.45593999997E+02  0.45594000000E+02  0.51100000000E-03 0.  1.
    9900012    2    1    2    0    0 -0.12204616813E+02  0.25784889121E+02 -0.34861157567E+02  0.46142317793E+02  0.10000000291E+02 0.  0.
         12    1    1    2    0    0  0.12204616813E+02 -0.25784889121E+02  0.34861157567E+02  0.45045682207E+02  0.00000000000E+00 0. -1.
         11    1    3    3    0    0 -0.17147542419E+01  0.48407452021E+01 -0.43396169672E+01  0.67235014617E+01  0.51100000000E-03 0. -1.
        -11    1    3    3    0    0  0.13009241565E+01  0.34203831654E+01 -0.30332118775E+01  0.47530831272E+01  0.51100000000E-03 0.  1.
         12    1    3    3    0    0 -0.11790786728E+02  0.17523760754E+02 -0.27488328723E+02  0.34665733204E+02  0.00000000000E+00 0. -1.
</event>
<event>
 7    1  0.2395003E-008  0.4614232E+02  0.7816164E-02  0.1320468E+00
        -11   -1    0    0    0    0  0.00000000000E+00  0.00000000000E+00  0.45593999997E+02  0.45594000000E+02  0.51100000000E-03 0.  1.
         11   -1    0    0    0    0 -0.00000000000E+00 -0.00000000000E+00 -0.45593999997E+02  0.45594000000E+02  0.51100000000E-03 0. -1.
    9900012    2    1    2    0    0 -0.44827544158E+02 -0.41597684599E+01  0.15169386149E+01  0.46142317725E+02  0.99999996706E+01 0.  0.
         12    1    1    2    0    0  0.44827544158E+02  0.41597684599E+01 -0.15169386149E+01  0.45045682275E+02  0.00000000000E+00 0. -1.
         11    1    3    3    0    0 -0.20295586142E+02  0.16758321944E+00 -0.36357168513E+01  0.20619343788E+02  0.51100000000E-03 0. -1.
        -11    1    3    3    0    0 -0.54581250590E+01 -0.15173009533E+01  0.18702634202E+01  0.59658374823E+01  0.51100000000E-03 0.  1.
        -12    1    3    3    0    0 -0.19073832957E+02 -0.28100507261E+01  0.32823920461E+01  0.19557136454E+02  0.00000000000E+00 0.  1.
</event>
<event>
 7    1  0.2395003E-008  0.4614232E+02  0.7816164E-02  0.1320468E+00
        -11   -1    0    0    0    0  0.00000000000E+00  0.00000000000E+00  0.45593999997E+02  0.45594000000E+02  0.51100000000E-03 0.  1.
         11   -1    0    0    0    0 -0.00000000000E+00 -0.00000000000E+00 -0.45593999997E+02  0.45594000000E+02  0.51100000000E-03 0. -1.
    9900012    2    1    2    0    0 -0.39053687266E+02  0.82813260875E+01  0.20864864882E+02  0.46142318327E+02  0.10000005157E+02 0.  0.
         12    1    1    2    0    0  0.39053687266E+02 -0.82813260875E+01 -0.20864864882E+02  0.45045681673E+02  0.00000000000E+00 0. -1.
         11    1    3    3    0    0 -0.23383300435E+02  0.66918130627E+01  0.12473994296E+02  0.27334220956E+02  0.51100000000E-03 0.  1.
        -11    1    3    3    0    0 -0.13207301541E+02  0.24267061906E+01  0.45681188590E+01  0.14184125884E+02  0.51100000000E-03 0. -1.
         12    1    3    3    0    0 -0.24630852905E+01 -0.83719316580E+00  0.38227517264E+01  0.46239714863E+01  0.00000000000E+00 0. -1.
</event>
<event>
 7    1  0.2395003E-008  0.4614232E+02  0.7816164E-02  0.1320468E+00
        -11   -1    0    0    0    0  0.00000000000E+00  0.00000000000E+00  0.45593999997E+02  0.45594000000E+02  0.51100000000E-03 0. -1.
         11   -1    0    0    0    0 -0.00000000000E+00 -0.00000000000E+00 -0.45593999997E+02  0.45594000000E+02  0.51100000000E-03 0.  1.
    9900012    2    1    2    0    0 -0.38911626269E+02 -0.11690848981E+02  0.19450522743E+02  0.46142318256E+02  0.10000004513E+02 0.  0.
         12    1    1    2    0    0  0.38911626269E+02  0.11690848981E+02 -0.19450522743E+02  0.45045681744E+02  0.00000000000E+00 0. -1.
         11    1    3    3    0    0 -0.64238033373E+01 -0.35064386924E+01  0.50996578433E+01  0.89200264573E+01  0.51100000000E-03 0. -1.
        -11    1    3    3    0    0 -0.14182084215E+02 -0.45518460475E+00  0.36402529567E+01  0.14648895780E+02  0.51100000000E-03 0.  1.
        -12    1    3    3    0    0 -0.18305738716E+02 -0.77292256843E+01  0.10710611943E+02  0.22573396019E+02  0.00000000000E+00 0.  1.
</event>
<event>
 7    1  0.2395003E-008  0.4614232E+02  0.7816164E-02  0.1320468E+00
        -11   -1    0    0    0    0  0.00000000000E+00  0.00000000000E+00  0.45593999997E+02  0.45594000000E+02  0.51100000000E-03 0.  1.
         11   -1    0    0    0    0 -0.00000000000E+00 -0.00000000000E+00 -0.45593999997E+02  0.45594000000E+02  0.51100000000E-03 0. -1.
    9900012    2    1    2    0    0 -0.36303894476E+02 -0.23287879572E+02  0.12992898232E+02  0.46142317703E+02  0.99999994736E+01 0.  0.
         12    1    1    2    0    0  0.36303894476E+02  0.23287879572E+02 -0.12992898232E+02  0.45045682297E+02  0.00000000000E+00 0. -1.
         11    1    3    3    0    0 -0.17573713673E+00 -0.48068994416E+00  0.10760736788E+01  0.11915876749E+01  0.51100000000E-03 0. -1.
        -11    1    3    3    0    0 -0.12422134210E+01 -0.37639376090E-01 -0.69564872570E+00  0.14242325360E+01  0.51100000000E-03 0.  1.
         12    1    3    3    0    0 -0.34885943919E+02 -0.22769550252E+02  0.12612473279E+02  0.43526497492E+02  0.00000000000E+00 0. -1.
</event>
<event>
 7    1  0.2395003E-008  0.4614232E+02  0.7816164E-02  0.1320468E+00
        -11   -1    0    0    0    0  0.00000000000E+00  0.00000000000E+00  0.45593999997E+02  0.45594000000E+02  0.51100000000E-03 0. -1.
         11   -1    0    0    0    0 -0.00000000000E+00 -0.00000000000E+00 -0.45593999997E+02  0.45594000000E+02  0.51100000000E-03 0.  1.
    9900012    2    1    2    0    0 -0.37437773628E+02  0.17257582690E+01 -0.24990965059E+02  0.46142317960E+02  0.10000001818E+02 0.  0.
         12    1    1    2    0    0  0.37437773628E+02 -0.17257582690E+01  0.24990965059E+02  0.45045682040E+02  0.00000000000E+00 0. -1.
         11    1    3    3    0    0 -0.10236897211E+02 -0.10924188719E+01 -0.64756006158E+01  0.12162271461E+02  0.51100000000E-03 0. -1.
        -11    1    3    3    0    0 -0.27719813958E+02  0.30872988403E+01 -0.17958469785E+02  0.33172671543E+02  0.51100000000E-03 0.  1.
         12    1    3    3    0    0  0.51893754083E+00 -0.26912169930E+00 -0.55689465828E+00  0.80737495672E+00  0.00000000000E+00 0. -1.
</event>
<event>
 7    1  0.2395003E-008  0.4614232E+02  0.7816164E-02  0.1320468E+00
        -11   -1    0    0    0    0  0.00000000000E+00  0.00000000000E+00  0.45593999997E+02  0.45594000000E+02  0.51100000000E-03 0.  1.
         11   -1    0    0    0    0 -0.00000000000E+00 -0.00000000000E+00 -0.45593999997E+02  0.45594000000E+02  0.51100000000E-03 0. -1.
    9900012    2    1    2    0    0  0.14534405779E+02 -0.29658093821E+02  0.30631055716E+02  0.46142322575E+02  0.10000043898E+02 0.  0.
         12    1    1    2    0    0 -0.14534405779E+02  0.29658093821E+02 -0.30631055716E+02  0.45045677425E+02  0.00000000000E+00 0. -1.
         11    1    3    3    0    0  0.23179550743E+01 -0.45939714063E+01  0.17609107908E+01  0.54385932080E+01  0.51100000000E-03 0. -1.
        -11    1    3    3    0    0  0.11692836405E+02 -0.23297930858E+02  0.23758002639E+02  0.35269798626E+02  0.51100000000E-03 0.  1.
        -12    1    3    3    0    0  0.52361429974E+00 -0.17661915559E+01  0.51121422862E+01  0.54339307413E+01  0.00000000000E+00 0.  1.
</event>
<event>
 7    1  0.2395003E-008  0.4614232E+02  0.7816164E-02  0.1320468E+00
        -11   -1    0    0    0    0  0.00000000000E+00  0.00000000000E+00  0.45593999997E+02  0.45594000000E+02  0.51100000000E-03 0. -1.
         11   -1    0    0    0    0 -0.00000000000E+00 -0.00000000000E+00 -0.45593999997E+02  0.45594000000E+02  0.51100000000E-03 0.  1.
    9900012    2    1    2    0    0 -0.41746711664E+02  0.15268558315E+02  0.72936005012E+01  0.46142318564E+02  0.10000007318E+02 0.  0.
         12    1    1    2    0    0  0.41746711664E+02 -0.15268558315E+02 -0.72936005012E+01  0.45045681436E+02  0.00000000000E+00 0. -1.
         11    1    3    3    0    0 -0.11788813112E+01  0.23415806955E+01  0.10604240178E+01  0.28279428315E+01  0.51100000000E-03 0. -1.
        -11    1    3    3    0    0 -0.86817347041E+01  0.85352125725E+00  0.47750229321E+00  0.87366483682E+01  0.51100000000E-03 0.  1.
         12    1    3    3    0    0 -0.31886095649E+02  0.12073456362E+02  0.57556741902E+01  0.34577727364E+02  0.00000000000E+00 0. -1.
</event>
<event>
 7    1  0.2395003E-008  0.4614232E+02  0.7816164E-02  0.1320468E+00
        -11   -1    0    0    0    0  0.00000000000E+00  0.00000000000E+00  0.45593999997E+02  0.45594000000E+02  0.51100000000E-03 0.  1.
         11   -1    0    0    0    0 -0.00000000000E+00 -0.00000000000E+00 -0.45593999997E+02  0.45594000000E+02  0.51100000000E-03 0. -1.
    9900012    2    1    2    0    0  0.29302799981E+02 -0.31184054759E+02  0.14071745490E+02  0.46142318974E+02  0.10000011060E+02 0.  0.
         12    1    1    2    0    0 -0.29302799981E+02  0.31184054759E+02 -0.14071745490E+02  0.45045681026E+02  0.00000000000E+00 0. -1.
         11    1    3    3    0    0  0.38444494530E+01 -0.72831861449E+01  0.27951970723E+01  0.86969948230E+01  0.51100000000E-03 0. -1.
        -11    1    3    3    0    0  0.36450198259E+01 -0.91153713633E+00  0.26603129598E+01  0.46037305294E+01  0.51100000000E-03 0.  1.
        -12    1    3    3    0    0  0.21813330702E+02 -0.22989331478E+02  0.86162354579E+01  0.32841593621E+02  0.00000000000E+00 0.  1.
</event>
<event>
 7    1  0.2395003E-008  0.4614232E+02  0.7816164E-02  0.1320468E+00
        -11   -1    0    0    0    0  0.00000000000E+00  0.00000000000E+00  0.45593999997E+02  0.45594000000E+02  0.51100000000E-03 0.  1.
         11   -1    0    0    0    0 -0.00000000000E+00 -0.00000000000E+00 -0.45593999997E+02  0.45594000000E+02  0.51100000000E-03 0. -1.
    9900012    2    1    2    0    0  0.41815676075E+02  0.67124369748E+01  0.15346194380E+02  0.46142320322E+02  0.10000023351E+02 0.  0.
         12    1    1    2    0    0 -0.41815676075E+02 -0.67124369748E+01 -0.15346194380E+02  0.45045679678E+02  0.00000000000E+00 0. -1.
         11    1    3    3    0    0  0.20308690651E+02  0.21559597404E+01  0.31944571489E+01  0.20671130475E+02  0.51100000000E-03 0. -1.
        -11    1    3    3    0    0  0.14654801715E+02  0.12660550841E+01  0.70110805744E+01  0.16294826169E+02  0.51100000000E-03 0.  1.
         12    1    3    3    0    0  0.68521837084E+01  0.32904221503E+01  0.51406566564E+01  0.91763636785E+01  0.00000000000E+00 0. -1.
</event>
<event>
 7    1  0.2395003E-008  0.4614232E+02  0.7816164E-02  0.1320468E+00
        -11   -1    0    0    0    0  0.00000000000E+00  0.00000000000E+00  0.45593999997E+02  0.45594000000E+02  0.51100000000E-03 0. -1.
         11   -1    0    0    0    0 -0.00000000000E+00 -0.00000000000E+00 -0.45593999997E+02  0.45594000000E+02  0.51100000000E-03 0.  1.
    9900012    2    1    2    0    0 -0.14542468526E+02  0.35591194130E+02 -0.23471191095E+02  0.46142319831E+02  0.10000018877E+02 0.  0.
         12    1    1    2    0    0  0.14542468526E+02 -0.35591194130E+02  0.23471191095E+02  0.45045680169E+02  0.00000000000E+00 0. -1.
         11    1    3    3    0    0 -0.37934309009E-01  0.25752606953E+01 -0.42257315070E+01  0.49487588030E+01  0.51100000000E-03 0. -1.
        -11    1    3    3    0    0 -0.14909551154E+02  0.32021710549E+02 -0.18404013694E+02  0.39829541579E+02  0.51100000000E-03 0.  1.
        -12    1    3    3    0    0  0.40501693635E+00  0.99422288653E+00 -0.84144589338E+00  0.13640194494E+01  0.00000000000E+00 0.  1.
</event>
<event>
 7    1  0.2395003E-008  0.4614231E+02  0.7816164E-02  0.1320468E+00
        -11   -1    0    0    0    0  0.00000000000E+00  0.00000000000E+00  0.45593999997E+02  0.45594000000E+02  0.51100000000E-03 0.  1.
         11   -1    0    0    0    0 -0.00000000000E+00 -0.00000000000E+00 -0.45593999997E+02  0.45594000000E+02  0.51100000000E-03 0. -1.
    9900012    2    1    2    0    0  0.12828845906E+02  0.38183726435E+02  0.20162785870E+02  0.46142310020E+02  0.99999294081E+01 0.  0.
         12    1    1    2    0    0 -0.12828845906E+02 -0.38183726435E+02 -0.20162785870E+02  0.45045689980E+02  0.00000000000E+00 0. -1.
         11    1    3    3    0    0  0.51287047102E+01  0.74443744827E+01  0.18228585635E+01  0.92219920324E+01  0.51100000000E-03 0. -1.
        -11    1    3    3    0    0  0.18654121443E+01  0.60459118967E+01  0.16129626588E+01  0.65295070205E+01  0.51100000000E-03 0.  1.
        -12    1    3    3    0    0  0.58347290511E+01  0.24693440056E+02  0.16726964648E+02  0.30390810967E+02  0.00000000000E+00 0.  1.
</event>
<event>
 7    1  0.2395003E-008  0.4614232E+02  0.7816164E-02  0.1320468E+00
        -11   -1    0    0    0    0  0.00000000000E+00  0.00000000000E+00  0.45593999997E+02  0.45594000000E+02  0.51100000000E-03 0. -1.
         11   -1    0    0    0    0 -0.00000000000E+00 -0.00000000000E+00 -0.45593999997E+02  0.45594000000E+02  0.51100000000E-03 0.  1.
    9900012    2    1    2    0    0  0.29347043744E+02 -0.27068997497E+02 -0.20859862241E+02  0.46142318135E+02  0.10000003407E+02 0.  0.
         12    1    1    2    0    0 -0.29347043744E+02  0.27068997497E+02  0.20859862241E+02  0.45045681865E+02  0.00000000000E+00 0. -1.
         11    1    3    3    0    0  0.97893474536E+00  0.34157002042E+00 -0.20650232615E+00  0.10571786918E+01  0.51100000000E-03 0. -1.
        -11    1    3    3    0    0  0.37387814578E+01 -0.34844481054E+01 -0.19377828327E+00  0.51144320968E+01  0.51100000000E-03 0.  1.
        -12    1    3    3    0    0  0.24629327541E+02 -0.23926119412E+02 -0.20459581632E+02  0.39970707346E+02  0.00000000000E+00 0.  1.
</event>
<event>
 7    1  0.2395003E-008  0.4614232E+02  0.7816164E-02  0.1320468E+00
        -11   -1    0    0    0    0  0.00000000000E+00  0.00000000000E+00  0.45593999997E+02  0.45594000000E+02  0.51100000000E-03 0. -1.
         11   -1    0    0    0    0 -0.00000000000E+00 -0.00000000000E+00 -0.45593999997E+02  0.45594000000E+02  0.51100000000E-03 0.  1.
    9900012    2    1    2    0    0  0.86061630678E+01  0.40664622256E+01 -0.44028528684E+02  0.46142317678E+02  0.99999992378E+01 0.  0.
         12    1    1    2    0    0 -0.86061630678E+01 -0.40664622256E+01  0.44028528684E+02  0.45045682322E+02  0.00000000000E+00 0. -1.
         11    1    3    3    0    0  0.64670209896E+01  0.43069309273E+01 -0.16212651191E+02  0.17978377941E+02  0.51100000000E-03 0. -1.
        -11    1    3    3    0    0 -0.92056287816E+00  0.65735663852E+00 -0.10124049063E+02  0.10187046846E+02  0.51100000000E-03 0.  1.
         12    1    3    3    0    0  0.30597049563E+01 -0.89782534020E+00 -0.17691828430E+02  0.17976892890E+02  0.00000000000E+00 0. -1.
</event>
<event>
 7    1  0.2395003E-008  0.4614232E+02  0.7816164E-02  0.1320468E+00
        -11   -1    0    0    0    0  0.00000000000E+00  0.00000000000E+00  0.45593999997E+02  0.45594000000E+02  0.51100000000E-03 0.  1.
         11   -1    0    0    0    0 -0.00000000000E+00 -0.00000000000E+00 -0.45593999997E+02  0.45594000000E+02  0.51100000000E-03 0. -1.
    9900012    2    1    2    0    0  0.25314186985E+02 -0.33279661806E+02  0.16756177119E+02  0.46142318472E+02  0.10000006484E+02 0.  0.
         12    1    1    2    0    0 -0.25314186985E+02  0.33279661806E+02 -0.16756177119E+02  0.45045681528E+02  0.00000000000E+00 0. -1.
         11    1    3    3    0    0  0.21851426862E+02 -0.29139656938E+02  0.12304919670E+02  0.38444967300E+02  0.51100000000E-03 0. -1.
        -11    1    3    3    0    0  0.20564290787E+01 -0.43312435297E+01  0.38781434957E+01  0.61667307630E+01  0.51100000000E-03 0.  1.
         12    1    3    3    0    0  0.14063310451E+01  0.19123866139E+00  0.57311395342E+00  0.15306204093E+01  0.00000000000E+00 0. -1.
</event>
<event>
 7    1  0.2395003E-008  0.4614232E+02  0.7816164E-02  0.1320468E+00
        -11   -1    0    0    0    0  0.00000000000E+00  0.00000000000E+00  0.45593999997E+02  0.45594000000E+02  0.51100000000E-03 0. -1.
         11   -1    0    0    0    0 -0.00000000000E+00 -0.00000000000E+00 -0.45593999997E+02  0.45594000000E+02  0.51100000000E-03 0.  1.
    9900012    2    1    2    0    0  0.35991970200E+02  0.19891996881E+02 -0.18384776100E+02  0.46142318175E+02  0.10000003779E+02 0.  0.
         12    1    1    2    0    0 -0.35991970200E+02 -0.19891996881E+02  0.18384776100E+02  0.45045681825E+02  0.00000000000E+00 0. -1.
         11    1    3    3    0    0  0.44443877231E+01  0.32609464068E+01  0.65327857365E+00  0.55509572920E+01  0.51100000000E-03 0. -1.
        -11    1    3    3    0    0  0.96539816974E+01  0.34892770932E+01 -0.64361283240E+01  0.12116029272E+02  0.51100000000E-03 0.  1.
         12    1    3    3    0    0  0.21893600780E+02  0.13141773381E+02 -0.12601926349E+02  0.28475331612E+02  0.00000000000E+00 0. -1.
</event>
<event>
 7    1  0.2395003E-008  0.4614232E+02  0.7816164E-02  0.1320468E+00
        -11   -1    0    0    0    0  0.00000000000E+00  0.00000000000E+00  0.45593999997E+02  0.45594000000E+02  0.51100000000E-03 0.  1.
         11   -1    0    0    0    0 -0.00000000000E+00 -0.00000000000E+00 -0.45593999997E+02  0.45594000000E+02  0.51100000000E-03 0. -1.
    9900012    2    1    2    0    0  0.17465561419E+02  0.18691550898E+02  0.37076860150E+02  0.46142317974E+02  0.10000001939E+02 0.  0.
         12    1    1    2    0    0 -0.17465561419E+02 -0.18691550898E+02 -0.37076860150E+02  0.45045682026E+02  0.00000000000E+00 0. -1.
         11    1    3    3    0    0  0.82467087687E+01  0.54227223795E+01  0.15244512827E+02  0.18160652387E+02  0.51100000000E-03 0. -1.
        -11    1    3    3    0    0  0.73233048256E+01  0.84693919498E+01  0.19107322040E+02  0.22146131702E+02  0.51100000000E-03 0.  1.
         12    1    3    3    0    0  0.18955478244E+01  0.47994365683E+01  0.27250252833E+01  0.58355338850E+01  0.00000000000E+00 0. -1.
</event>
<event>
 7    1  0.2395003E-008  0.4614232E+02  0.7816164E-02  0.1320468E+00
        -11   -1    0    0    0    0  0.00000000000E+00  0.00000000000E+00  0.45593999997E+02  0.45594000000E+02  0.51100000000E-03 0. -1.
         11   -1    0    0    0    0 -0.00000000000E+00 -0.00000000000E+00 -0.45593999997E+02  0.45594000000E+02  0.51100000000E-03 0.  1.
    9900012    2    1    2    0    0  0.41340044104E+02 -0.71226739419E+01  0.16412853276E+02  0.46142317818E+02  0.10000000515E+02 0.  0.
         12    1    1    2    0    0 -0.41340044104E+02  0.71226739419E+01 -0.16412853276E+02  0.45045682182E+02  0.00000000000E+00 0. -1.
         11    1    3    3    0    0  0.61888300397E+01 -0.15270013727E+01  0.29701650869E+01  0.70324413511E+01  0.51100000000E-03 0. -1.
        -11    1    3    3    0    0  0.46689497616E+01 -0.37376661115E+01  0.37957693346E+01  0.70835799523E+01  0.51100000000E-03 0.  1.
        -12    1    3    3    0    0  0.30482264303E+02 -0.18580064577E+01  0.96469188541E+01  0.32026296514E+02  0.00000000000E+00 0.  1.
</event>
<event>
 7    1  0.2395003E-008  0.4614232E+02  0.7816164E-02  0.1320468E+00
        -11   -1    0    0    0    0  0.00000000000E+00  0.00000000000E+00  0.45593999997E+02  0.45594000000E+02  0.51100000000E-03 0.  1.
         11   -1    0    0    0    0 -0.00000000000E+00 -0.00000000000E+00 -0.45593999997E+02  0.45594000000E+02  0.51100000000E-03 0. -1.
    9900012    2    1    2    0    0  0.30350515048E+02  0.31225964520E+02  0.11528178487E+02  0.46142317375E+02  0.99999964796E+01 0.  0.
         12    1    1    2    0    0 -0.30350515048E+02 -0.31225964520E+02 -0.11528178487E+02  0.45045682625E+02  0.00000000000E+00 0. -1.
         11    1    3    3    0    0  0.42511235671E+00  0.69217429873E+00 -0.99867510773E+00  0.12873142614E+01  0.51100000000E-03 0. -1.
        -11    1    3    3    0    0  0.74611898974E+01  0.82790491871E+01  0.96726070473E+00  0.11186938976E+02  0.51100000000E-03 0.  1.
        -12    1    3    3    0    0  0.22464212794E+02  0.22254741035E+02  0.11559592890E+02  0.33668064137E+02  0.00000000000E+00 0.  1.
</event>
<event>
 7    1  0.2395003E-008  0.4614232E+02  0.7816164E-02  0.1320468E+00
        -11   -1    0    0    0    0  0.00000000000E+00  0.00000000000E+00  0.45593999997E+02  0.45594000000E+02  0.51100000000E-03 0.  1.
         11   -1    0    0    0    0 -0.00000000000E+00 -0.00000000000E+00 -0.45593999997E+02  0.45594000000E+02  0.51100000000E-03 0. -1.
    9900012    2    1    2    0    0  0.29461310419E+02 -0.13454430157E+02  0.31306915369E+02  0.46142318161E+02  0.10000003644E+02 0.  0.
         12    1    1    2    0    0 -0.29461310419E+02  0.13454430157E+02 -0.31306915369E+02  0.45045681839E+02  0.00000000000E+00 0. -1.
         11    1    3    3    0    0  0.12130522418E+02 -0.21200709399E+01  0.15067164571E+02  0.19459283733E+02  0.51100000000E-03 0. -1.
        -11    1    3    3    0    0  0.14157614850E+02 -0.10373946995E+02  0.15171609004E+02  0.23199882640E+02  0.51100000000E-03 0.  1.
        -12    1    3    3    0    0  0.31731731512E+01 -0.96041222242E+00  0.10681417939E+01  0.34831517877E+01  0.00000000000E+00 0.  1.
</event>
<event>
 7    1  0.2395003E-008  0.4614232E+02  0.7816164E-02  0.1320468E+00
        -11   -1    0    0    0    0  0.00000000000E+00  0.00000000000E+00  0.45593999997E+02  0.45594000000E+02  0.51100000000E-03 0. -1.
         11   -1    0    0    0    0 -0.00000000000E+00 -0.00000000000E+00 -0.45593999997E+02  0.45594000000E+02  0.51100000000E-03 0.  1.
    9900012    2    1    2    0    0 -0.24304298371E+02 -0.20537438746E+02 -0.31884608564E+02  0.46142316823E+02  0.99999914476E+01 0.  0.
         12    1    1    2    0    0  0.24304298371E+02  0.20537438746E+02  0.31884608564E+02  0.45045683177E+02  0.00000000000E+00 0. -1.
         11    1    3    3    0    0 -0.57796810913E+00  0.47129687879E+00 -0.26463618193E+01  0.27494361282E+01  0.51100000000E-03 0. -1.
        -11    1    3    3    0    0 -0.12583880362E+02 -0.14034361324E+02 -0.15820458183E+02  0.24609027614E+02  0.51100000000E-03 0.  1.
         12    1    3    3    0    0 -0.11142449900E+02 -0.69743743006E+01 -0.13417788562E+02  0.18783853081E+02  0.00000000000E+00 0. -1.
</event>
<event>
 7    1  0.2395003E-008  0.4614232E+02  0.7816164E-02  0.1320468E+00
        -11   -1    0    0    0    0  0.00000000000E+00  0.00000000000E+00  0.45593999997E+02  0.45594000000E+02  0.51100000000E-03 0. -1.
         11   -1    0    0    0    0 -0.00000000000E+00 -0.00000000000E+00 -0.45593999997E+02  0.45594000000E+02  0.51100000000E-03 0.  1.
    9900012    2    1    2    0    0 -0.29411454957E+02  0.31777443015E+02  0.12420703431E+02  0.46142318287E+02  0.10000004794E+02 0.  0.
         12    1    1    2    0    0  0.29411454957E+02 -0.31777443015E+02 -0.12420703431E+02  0.45045681713E+02  0.00000000000E+00 0. -1.
         11    1    3    3    0    0 -0.12223423410E+01  0.20863898250E+01  0.72875029097E+00  0.25255139176E+01  0.51100000000E-03 0. -1.
        -11    1    3    3    0    0 -0.16792856233E+02  0.23721779269E+02  0.94216182235E+01  0.30553064042E+02  0.51100000000E-03 0.  1.
        -12    1    3    3    0    0 -0.11396256383E+02  0.59692739211E+01  0.22703349167E+01  0.13063740327E+02  0.00000000000E+00 0.  1.
</event>
<event>
 7    1  0.2395003E-008  0.4614232E+02  0.7816164E-02  0.1320468E+00
        -11   -1    0    0    0    0  0.00000000000E+00  0.00000000000E+00  0.45593999997E+02  0.45594000000E+02  0.51100000000E-03 0.  1.
         11   -1    0    0    0    0 -0.00000000000E+00 -0.00000000000E+00 -0.45593999997E+02  0.45594000000E+02  0.51100000000E-03 0. -1.
    9900012    2    1    2    0    0 -0.14456628802E+01  0.29363129364E+02  0.34129608684E+02  0.46142317675E+02  0.99999992185E+01 0.  0.
         12    1    1    2    0    0  0.14456628802E+01 -0.29363129364E+02 -0.34129608684E+02  0.45045682325E+02  0.00000000000E+00 0. -1.
         11    1    3    3    0    0 -0.89372585985E+00  0.71510645226E+01  0.10720256494E+02  0.12917444378E+02  0.51100000000E-03 0. -1.
        -11    1    3    3    0    0 -0.19690973214E+01  0.14597597531E+02  0.19804916153E+02  0.24682015761E+02  0.51100000000E-03 0.  1.
         12    1    3    3    0    0  0.14171603011E+01  0.76144673101E+01  0.36044360370E+01  0.85428575360E+01  0.00000000000E+00 0. -1.
</event>
<event>
 7    1  0.2395003E-008  0.4614232E+02  0.7816164E-02  0.1320468E+00
        -11   -1    0    0    0    0  0.00000000000E+00  0.00000000000E+00  0.45593999997E+02  0.45594000000E+02  0.51100000000E-03 0.  1.
         11   -1    0    0    0    0 -0.00000000000E+00 -0.00000000000E+00 -0.45593999997E+02  0.45594000000E+02  0.51100000000E-03 0. -1.
    9900012    2    1    2    0    0 -0.13556399040E+02  0.29435861910E+02  0.31286858510E+02  0.46142318334E+02  0.10000005226E+02 0.  0.
         12    1    1    2    0    0  0.13556399040E+02 -0.29435861910E+02 -0.31286858510E+02  0.45045681666E+02  0.00000000000E+00 0. -1.
         11    1    3    3    0    0 -0.28145095572E+01  0.10460188763E+02  0.10056885113E+02  0.14780999677E+02  0.51100000000E-03 0. -1.
        -11    1    3    3    0    0 -0.59715476972E+01  0.10124194496E+02  0.62302743838E+01  0.13303195678E+02  0.51100000000E-03 0.  1.
         12    1    3    3    0    0 -0.47703417853E+01  0.88514786513E+01  0.14999699013E+02  0.18058122980E+02  0.00000000000E+00 0. -1.
</event>
<event>
 7    1  0.2395003E-008  0.4614232E+02  0.7816164E-02  0.1320468E+00
        -11   -1    0    0    0    0  0.00000000000E+00  0.00000000000E+00  0.45593999997E+02  0.45594000000E+02  0.51100000000E-03 0.  1.
         11   -1    0    0    0    0 -0.00000000000E+00 -0.00000000000E+00 -0.45593999997E+02  0.45594000000E+02  0.51100000000E-03 0. -1.
    9900012    2    1    2    0    0  0.33527154648E+02  0.77113750334E+01  0.29078820800E+02  0.46142320709E+02  0.10000026878E+02 0.  0.
         12    1    1    2    0    0 -0.33527154648E+02 -0.77113750334E+01 -0.29078820800E+02  0.45045679291E+02  0.00000000000E+00 0. -1.
         11    1    3    3    0    0  0.17631348737E+01  0.32089640224E+00  0.52284961834E+01  0.55270961349E+01  0.51100000000E-03 0. -1.
        -11    1    3    3    0    0  0.12581617658E+02  0.13137746032E+01  0.76592893289E+01  0.14788097236E+02  0.51100000000E-03 0.  1.
        -12    1    3    3    0    0  0.19182402117E+02  0.60767040280E+01  0.16191035288E+02  0.25827127337E+02  0.00000000000E+00 0.  1.
</event>
<event>
 7    1  0.2395003E-008  0.4614232E+02  0.7816164E-02  0.1320468E+00
        -11   -1    0    0    0    0  0.00000000000E+00  0.00000000000E+00  0.45593999997E+02  0.45594000000E+02  0.51100000000E-03 0. -1.
         11   -1    0    0    0    0 -0.00000000000E+00 -0.00000000000E+00 -0.45593999997E+02  0.45594000000E+02  0.51100000000E-03 0.  1.
    9900012    2    1    2    0    0 -0.45026132624E+02  0.23686122275E-02 -0.13269669138E+01  0.46142318011E+02  0.10000002280E+02 0.  0.
         12    1    1    2    0    0  0.45026132624E+02 -0.23686122275E-02  0.13269669138E+01  0.45045681989E+02  0.00000000000E+00 0. -1.
         11    1    3    3    0    0 -0.30153914185E+02 -0.11891265532E+01  0.57006461336E+00  0.30182735737E+02  0.51100000000E-03 0. -1.
        -11    1    3    3    0    0 -0.12540573110E+01  0.12776397432E+01 -0.14996138153E+01  0.23353511318E+01  0.51100000000E-03 0.  1.
        -12    1    3    3    0    0 -0.13618161128E+02 -0.86144577727E-01 -0.39741771185E+00  0.13624231143E+02  0.00000000000E+00 0.  1.
</event>
<event>
 7    1  0.2395003E-008  0.4614232E+02  0.7816164E-02  0.1320468E+00
        -11   -1    0    0    0    0  0.00000000000E+00  0.00000000000E+00  0.45593999997E+02  0.45594000000E+02  0.51100000000E-03 0.  1.
         11   -1    0    0    0    0 -0.00000000000E+00 -0.00000000000E+00 -0.45593999997E+02  0.45594000000E+02  0.51100000000E-03 0. -1.
    9900012    2    1    2    0    0 -0.32181910744E+02 -0.40409755934E+01  0.31258737498E+02  0.46142317267E+02  0.99999954959E+01 0.  0.
         12    1    1    2    0    0  0.32181910744E+02  0.40409755934E+01 -0.31258737498E+02  0.45045682733E+02  0.00000000000E+00 0. -1.
         11    1    3    3    0    0 -0.69009330739E+01  0.50946565597E+00  0.92318672205E+01  0.11537322271E+02  0.51100000000E-03 0. -1.
        -11    1    3    3    0    0 -0.43370755783E+01 -0.84323899111E+00  0.67940502312E+00  0.44702201304E+01  0.51100000000E-03 0.  1.
        -12    1    3    3    0    0 -0.20943902092E+02 -0.37072022583E+01  0.21347465255E+02  0.30134774866E+02  0.00000000000E+00 0.  1.
</event>
<event>
 7    1  0.2395003E-008  0.4614232E+02  0.7816164E-02  0.1320468E+00
        -11   -1    0    0    0    0  0.00000000000E+00  0.00000000000E+00  0.45593999997E+02  0.45594000000E+02  0.51100000000E-03 0.  1.
         11   -1    0    0    0    0 -0.00000000000E+00 -0.00000000000E+00 -0.45593999997E+02  0.45594000000E+02  0.51100000000E-03 0. -1.
    9900012    2    1    2    0    0 -0.12239519629E+02 -0.12901594608E+02  0.41386670500E+02  0.46142317862E+02  0.10000000919E+02 0.  0.
         12    1    1    2    0    0  0.12239519629E+02  0.12901594608E+02 -0.41386670500E+02  0.45045682138E+02  0.00000000000E+00 0. -1.
         11    1    3    3    0    0 -0.65904793724E+01 -0.58549646605E+01  0.11039425836E+02  0.14127418469E+02  0.51100000000E-03 0. -1.
        -11    1    3    3    0    0 -0.38141160595E+01 -0.65321939808E+01  0.18050197099E+02  0.19571066785E+02  0.51100000000E-03 0.  1.
         12    1    3    3    0    0 -0.18349241971E+01 -0.51443596692E+00  0.12297047565E+02  0.12443832609E+02  0.00000000000E+00 0. -1.
</event>
<event>
 7    1  0.2395003E-008  0.4614232E+02  0.7816164E-02  0.1320468E+00
        -11   -1    0    0    0    0  0.00000000000E+00  0.00000000000E+00  0.45593999997E+02  0.45594000000E+02  0.51100000000E-03 0.  1.
         11   -1    0    0    0    0 -0.00000000000E+00 -0.00000000000E+00 -0.45593999997E+02  0.45594000000E+02  0.51100000000E-03 0. -1.
    9900012    2    1    2    0    0 -0.27070130492E+02  0.28185511897E+02  0.22403089534E+02  0.46142318005E+02  0.10000002220E+02 0.  0.
         12    1    1    2    0    0  0.27070130492E+02 -0.28185511897E+02 -0.22403089534E+02  0.45045681995E+02  0.00000000000E+00 0. -1.
         11    1    3    3    0    0 -0.20824187744E+01 -0.33431304044E+00  0.19063905396E+01  0.28429840506E+01  0.51100000000E-03 0. -1.
        -11    1    3    3    0    0 -0.25562102061E+01  0.16480999114E+01  0.25174021303E+01  0.39481334429E+01  0.51100000000E-03 0.  1.
        -12    1    3    3    0    0 -0.22431501511E+02  0.26871725026E+02  0.17979296864E+02  0.39351200511E+02  0.00000000000E+00 0.  1.
</event>
<event>
 7    1  0.2395003E-008  0.4614232E+02  0.7816164E-02  0.1320468E+00
        -11   -1    0    0    0    0  0.00000000000E+00  0.00000000000E+00  0.45593999997E+02  0.45594000000E+02  0.51100000000E-03 0. -1.
         11   -1    0    0    0    0 -0.00000000000E+00 -0.00000000000E+00 -0.45593999997E+02  0.45594000000E+02  0.51100000000E-03 0.  1.
    9900012    2    1    2    0    0  0.74547227533E+01 -0.31579364657E+02  0.31245549095E+02  0.46142317613E+02  0.99999986488E+01 0.  0.
         12    1    1    2    0    0 -0.74547227533E+01  0.31579364657E+02 -0.31245549095E+02  0.45045682387E+02  0.00000000000E+00 0. -1.
         11    1    3    3    0    0  0.41113881813E+01 -0.15560789276E+02  0.18446555651E+02  0.24480953644E+02  0.51100000000E-03 0. -1.
        -11    1    3    3    0    0  0.44499600185E+01 -0.97042467096E+01  0.10131102843E+02  0.14717805320E+02  0.51100000000E-03 0.  1.
        -12    1    3    3    0    0 -0.11066254465E+01 -0.63143286714E+01  0.26678906007E+01  0.69435586486E+01  0.00000000000E+00 0.  1.
</event>
<event>
 7    1  0.2395003E-008  0.4614232E+02  0.7816164E-02  0.1320468E+00
        -11   -1    0    0    0    0  0.00000000000E+00  0.00000000000E+00  0.45593999997E+02  0.45594000000E+02  0.51100000000E-03 0. -1.
         11   -1    0    0    0    0 -0.00000000000E+00 -0.00000000000E+00 -0.45593999997E+02  0.45594000000E+02  0.51100000000E-03 0.  1.
    9900012    2    1    2    0    0 -0.13829095907E+02  0.37281868066E+02 -0.21164400555E+02  0.46142318398E+02  0.10000005808E+02 0.  0.
         12    1    1    2    0    0  0.13829095907E+02 -0.37281868066E+02  0.21164400555E+02  0.45045681602E+02  0.00000000000E+00 0. -1.
         11    1    3    3    0    0 -0.45412281422E+01  0.81922123751E+01 -0.82699456035E+01  0.12495082920E+02  0.51100000000E-03 0. -1.
        -11    1    3    3    0    0 -0.17256310809E+01  0.12169300745E+02 -0.72657235162E+01  0.14277969804E+02  0.51100000000E-03 0.  1.
        -12    1    3    3    0    0 -0.75622366839E+01  0.16920354946E+02 -0.56287314355E+01  0.19369265674E+02  0.00000000000E+00 0.  1.
</event>
<event>
 7    1  0.2502482E-008  0.4614232E+02  0.7816164E-02  0.1320468E+00
        -11   -1    0    0    0    0  0.00000000000E+00  0.00000000000E+00  0.45593999997E+02  0.45594000000E+02  0.51100000000E-03 0.  1.
         11   -1    0    0    0    0 -0.00000000000E+00 -0.00000000000E+00 -0.45593999997E+02  0.45594000000E+02  0.51100000000E-03 0. -1.
    9900012    2    1    2    0    0 -0.29964834384E+01 -0.41896224157E+02  0.16273936828E+02  0.46142317282E+02  0.99999956349E+01 0.  0.
         12    1    1    2    0    0  0.29964834384E+01  0.41896224157E+02 -0.16273936828E+02  0.45045682718E+02  0.00000000000E+00 0. -1.
         11    1    3    3    0    0 -0.96857247665E+00 -0.32087440389E+00  0.10535789698E+01  0.14666703557E+01  0.51100000000E-03 0. -1.
        -11    1    3    3    0    0 -0.34500429680E+01 -0.17606872897E+02  0.75975222963E+01  0.19484022043E+02  0.51100000000E-03 0.  1.
        -12    1    3    3    0    0  0.14221320062E+01 -0.23968476857E+02  0.76228355616E+01  0.25191624883E+02  0.00000000000E+00 0.  1.
</event>
<event>
 7    1  0.2395003E-008  0.4614232E+02  0.7816164E-02  0.1320468E+00
        -11   -1    0    0    0    0  0.00000000000E+00  0.00000000000E+00  0.45593999997E+02  0.45594000000E+02  0.51100000000E-03 0.  1.
         11   -1    0    0    0    0 -0.00000000000E+00 -0.00000000000E+00 -0.45593999997E+02  0.45594000000E+02  0.51100000000E-03 0. -1.
    9900012    2    1    2    0    0  0.37038590816E+02 -0.93106852111E+01  0.23886554264E+02  0.46142317151E+02  0.99999944350E+01 0.  0.
         12    1    1    2    0    0 -0.37038590816E+02  0.93106852111E+01 -0.23886554264E+02  0.45045682849E+02  0.00000000000E+00 0. -1.
         11    1    3    3    0    0  0.17233807345E+02 -0.37156102869E+01  0.87574017851E+01  0.19685069512E+02  0.51100000000E-03 0. -1.
        -11    1    3    3    0    0  0.82987272793E+01 -0.60960861367E+00  0.97347254721E+01  0.12806458425E+02  0.51100000000E-03 0.  1.
        -12    1    3    3    0    0  0.11506056192E+02 -0.49854663105E+01  0.53944270070E+01  0.13650789214E+02  0.00000000000E+00 0.  1.
</event>
<event>
 7    1  0.2395003E-008  0.4614232E+02  0.7816164E-02  0.1320468E+00
        -11   -1    0    0    0    0  0.00000000000E+00  0.00000000000E+00  0.45593999997E+02  0.45594000000E+02  0.51100000000E-03 0.  1.
         11   -1    0    0    0    0 -0.00000000000E+00 -0.00000000000E+00 -0.45593999997E+02  0.45594000000E+02  0.51100000000E-03 0. -1.
    9900012    2    1    2    0    0 -0.99211069734E+01  0.60920703178E+01  0.43515188520E+02  0.46142319672E+02  0.10000017423E+02 0.  0.
         12    1    1    2    0    0  0.99211069734E+01 -0.60920703178E+01 -0.43515188520E+02  0.45045680328E+02  0.00000000000E+00 0. -1.
         11    1    3    3    0    0 -0.19544961890E+01  0.55159816272E+00  0.18100717089E+01  0.27204183021E+01  0.51100000000E-03 0. -1.
        -11    1    3    3    0    0 -0.95269190076E+00  0.49476749319E+01  0.18341018619E+02  0.19020517168E+02  0.51100000000E-03 0.  1.
         12    1    3    3    0    0 -0.70139188836E+01  0.59279722320E+00  0.23364098191E+02  0.24401384202E+02  0.00000000000E+00 0. -1.
</event>
<event>
 7    1  0.2395003E-008  0.4614232E+02  0.7816164E-02  0.1320468E+00
        -11   -1    0    0    0    0  0.00000000000E+00  0.00000000000E+00  0.45593999997E+02  0.45594000000E+02  0.51100000000E-03 0. -1.
         11   -1    0    0    0    0 -0.00000000000E+00 -0.00000000000E+00 -0.45593999997E+02  0.45594000000E+02  0.51100000000E-03 0.  1.
    9900012    2    1    2    0    0 -0.19030952789E+02  0.37138827162E+02 -0.16960065393E+02  0.46142318019E+02  0.10000002348E+02 0.  0.
         12    1    1    2    0    0  0.19030952789E+02 -0.37138827162E+02  0.16960065393E+02  0.45045681981E+02  0.00000000000E+00 0. -1.
         11    1    3    3    0    0 -0.43583987582E+01  0.63357756352E+01 -0.45638972409E+00  0.77036344979E+01  0.51100000000E-03 0. -1.
        -11    1    3    3    0    0 -0.10742818861E+02  0.24769728071E+02 -0.10175820554E+02  0.28852987887E+02  0.51100000000E-03 0.  1.
         12    1    3    3    0    0 -0.39297351696E+01  0.60333234560E+01 -0.63278551153E+01  0.95856956340E+01  0.00000000000E+00 0. -1.
</event>
<event>
 7    1  0.2395003E-008  0.4614232E+02  0.7816164E-02  0.1320468E+00
        -11   -1    0    0    0    0  0.00000000000E+00  0.00000000000E+00  0.45593999997E+02  0.45594000000E+02  0.51100000000E-03 0.  1.
         11   -1    0    0    0    0 -0.00000000000E+00 -0.00000000000E+00 -0.45593999997E+02  0.45594000000E+02  0.51100000000E-03 0. -1.
    9900012    2    1    2    0    0 -0.19627157688E+02 -0.11506863729E+02  0.38877760012E+02  0.46142318127E+02  0.10000003339E+02 0.  0.
         12    1    1    2    0    0  0.19627157688E+02  0.11506863729E+02 -0.38877760012E+02  0.45045681873E+02  0.00000000000E+00 0. -1.
         11    1    3    3    0    0 -0.98077694349E+00 -0.20195934060E+01  0.10178528398E+01  0.24650974835E+01  0.51100000000E-03 0. -1.
        -11    1    3    3    0    0 -0.42125345408E+01 -0.19822681245E+01  0.14358456527E+02  0.15094373398E+02  0.51100000000E-03 0.  1.
        -12    1    3    3    0    0 -0.14433846204E+02 -0.75050021989E+01  0.23501450646E+02  0.28582847246E+02  0.00000000000E+00 0.  1.
</event>
<event>
 7    1  0.2395003E-008  0.4614232E+02  0.7816164E-02  0.1320468E+00
        -11   -1    0    0    0    0  0.00000000000E+00  0.00000000000E+00  0.45593999997E+02  0.45594000000E+02  0.51100000000E-03 0.  1.
         11   -1    0    0    0    0 -0.00000000000E+00 -0.00000000000E+00 -0.45593999997E+02  0.45594000000E+02  0.51100000000E-03 0. -1.
    9900012    2    1    2    0    0  0.18387446943E+02 -0.31652556849E+02  0.26251302891E+02  0.46142318035E+02  0.10000002501E+02 0.  0.
         12    1    1    2    0    0 -0.18387446943E+02  0.31652556849E+02 -0.26251302891E+02  0.45045681965E+02  0.00000000000E+00 0. -1.
         11    1    3    3    0    0  0.19895018938E+01 -0.19752725154E+01 -0.26340028273E+00  0.28158833899E+01  0.51100000000E-03 0. -1.
        -11    1    3    3    0    0  0.33487526077E+01 -0.98071330174E+01  0.98298766238E+01  0.14283573669E+02  0.51100000000E-03 0.  1.
         12    1    3    3    0    0  0.13049192442E+02 -0.19870151316E+02  0.16684826550E+02  0.29042860977E+02  0.00000000000E+00 0. -1.
</event>
<event>
 7    1  0.2395003E-008  0.4614232E+02  0.7816164E-02  0.1320468E+00
        -11   -1    0    0    0    0  0.00000000000E+00  0.00000000000E+00  0.45593999997E+02  0.45594000000E+02  0.51100000000E-03 0.  1.
         11   -1    0    0    0    0 -0.00000000000E+00 -0.00000000000E+00 -0.45593999997E+02  0.45594000000E+02  0.51100000000E-03 0. -1.
    9900012    2    1    2    0    0 -0.35096428548E+02 -0.77857058776E+01  0.27142899708E+02  0.46142317439E+02  0.99999970666E+01 0.  0.
         12    1    1    2    0    0  0.35096428548E+02  0.77857058776E+01 -0.27142899708E+02  0.45045682561E+02  0.00000000000E+00 0. -1.
         11    1    3    3    0    0 -0.83852402741E+00 -0.85312825030E+00 -0.39329871290E+00  0.12592197960E+01  0.51100000000E-03 0. -1.
        -11    1    3    3    0    0 -0.25344164581E+02 -0.75508616596E+01  0.19391296210E+02  0.32792751624E+02  0.51100000000E-03 0.  1.
        -12    1    3    3    0    0 -0.89137399390E+01  0.61828403235E+00  0.81449022104E+01  0.12090346019E+02  0.00000000000E+00 0.  1.
</event>
<event>
 7    1  0.2395003E-008  0.4614232E+02  0.7816164E-02  0.1320468E+00
        -11   -1    0    0    0    0  0.00000000000E+00  0.00000000000E+00  0.45593999997E+02  0.45594000000E+02  0.51100000000E-03 0.  1.
         11   -1    0    0    0    0 -0.00000000000E+00 -0.00000000000E+00 -0.45593999997E+02  0.45594000000E+02  0.51100000000E-03 0. -1.
    9900012    2    1    2    0    0  0.54097419675E+01  0.19002564928E+02  0.40481486043E+02  0.46142317696E+02  0.99999994069E+01 0.  0.
         12    1    1    2    0    0 -0.54097419675E+01 -0.19002564928E+02 -0.40481486043E+02  0.45045682304E+02  0.00000000000E+00 0. -1.
         11    1    3    3    0    0  0.25307753121E+00  0.74309534181E+00 -0.97407539055E-01  0.79102933802E+00  0.51100000000E-03 0. -1.
        -11    1    3    3    0    0  0.19146922312E+00 -0.25320353123E+00 -0.13991633111E+00  0.34691401307E+00  0.51100000000E-03 0.  1.
        -12    1    3    3    0    0  0.49651952131E+01  0.18512673117E+02  0.40718809913E+02  0.45004374345E+02  0.00000000000E+00 0.  1.
</event>
<event>
 7    1  0.2395003E-008  0.4614232E+02  0.7816164E-02  0.1320468E+00
        -11   -1    0    0    0    0  0.00000000000E+00  0.00000000000E+00  0.45593999997E+02  0.45594000000E+02  0.51100000000E-03 0.  1.
         11   -1    0    0    0    0 -0.00000000000E+00 -0.00000000000E+00 -0.45593999997E+02  0.45594000000E+02  0.51100000000E-03 0. -1.
    9900012    2    1    2    0    0  0.40914269346E+02  0.18845015210E+02 -0.39288905392E-01  0.46142316766E+02  0.99999909292E+01 0.  0.
         12    1    1    2    0    0 -0.40914269346E+02 -0.18845015210E+02  0.39288905392E-01  0.45045683234E+02  0.00000000000E+00 0. -1.
         11    1    3    3    0    0  0.30007971236E+01  0.27983278004E+01  0.10242845109E+01  0.42290165376E+01  0.51100000000E-03 0. -1.
        -11    1    3    3    0    0  0.23880538478E+02  0.99916322127E+01  0.31033503107E+01  0.26071893212E+02  0.51100000000E-03 0.  1.
         12    1    3    3    0    0  0.14032933745E+02  0.60550551967E+01 -0.41669237269E+01  0.15841407016E+02  0.00000000000E+00 0. -1.
</event>
<event>
 7    1  0.2395003E-008  0.4614232E+02  0.7816164E-02  0.1320468E+00
        -11   -1    0    0    0    0  0.00000000000E+00  0.00000000000E+00  0.45593999997E+02  0.45594000000E+02  0.51100000000E-03 0. -1.
         11   -1    0    0    0    0 -0.00000000000E+00 -0.00000000000E+00 -0.45593999997E+02  0.45594000000E+02  0.51100000000E-03 0.  1.
    9900012    2    1    2    0    0  0.36687510124E+01 -0.35137717224E+02 -0.27946280372E+02  0.46142317717E+02  0.99999995990E+01 0.  0.
         12    1    1    2    0    0 -0.36687510124E+01  0.35137717224E+02  0.27946280372E+02  0.45045682283E+02  0.00000000000E+00 0. -1.
         11    1    3    3    0    0 -0.37606067920E+00 -0.11721807703E+02 -0.13977503130E+02  0.18245897936E+02  0.51100000000E-03 0. -1.
        -11    1    3    3    0    0  0.60169471083E+00 -0.11762644244E+02 -0.87464161616E+01  0.14670433942E+02  0.51100000000E-03 0.  1.
         12    1    3    3    0    0  0.34431169808E+01 -0.11653265277E+02 -0.52223610802E+01  0.13225985839E+02  0.00000000000E+00 0. -1.
</event>
<event>
 7    1  0.2395003E-008  0.4614232E+02  0.7816164E-02  0.1320468E+00
        -11   -1    0    0    0    0  0.00000000000E+00  0.00000000000E+00  0.45593999997E+02  0.45594000000E+02  0.51100000000E-03 0.  1.
         11   -1    0    0    0    0 -0.00000000000E+00 -0.00000000000E+00 -0.45593999997E+02  0.45594000000E+02  0.51100000000E-03 0. -1.
    9900012    2    1    2    0    0  0.10197136923E+01  0.32859850782E+02  0.30794542377E+02  0.46142318191E+02  0.10000003924E+02 0.  0.
         12    1    1    2    0    0 -0.10197136923E+01 -0.32859850782E+02 -0.30794542377E+02  0.45045681809E+02  0.00000000000E+00 0. -1.
         11    1    3    3    0    0 -0.30096203464E+01  0.18117070020E+02  0.20488337178E+02  0.27514687011E+02  0.51100000000E-03 0. -1.
        -11    1    3    3    0    0  0.23245173681E+01  0.12336346328E+02  0.86529582727E+01  0.15246721249E+02  0.51100000000E-03 0.  1.
         12    1    3    3    0    0  0.17048166706E+01  0.24064344342E+01  0.16532469258E+01  0.33809099314E+01  0.00000000000E+00 0. -1.
</event>
<event>
 7    1  0.2395003E-008  0.4614232E+02  0.7816164E-02  0.1320468E+00
        -11   -1    0    0    0    0  0.00000000000E+00  0.00000000000E+00  0.45593999997E+02  0.45594000000E+02  0.51100000000E-03 0.  1.
         11   -1    0    0    0    0 -0.00000000000E+00 -0.00000000000E+00 -0.45593999997E+02  0.45594000000E+02  0.51100000000E-03 0. -1.
    9900012    2    1    2    0    0  0.18109441716E+02 -0.37958923666E+02  0.16133247804E+02  0.46142318189E+02  0.10000003900E+02 0.  0.
         12    1    1    2    0    0 -0.18109441716E+02  0.37958923666E+02 -0.16133247804E+02  0.45045681811E+02  0.00000000000E+00 0. -1.
         11    1    3    3    0    0  0.35443287895E+00 -0.29141212983E+01  0.11352360530E+01  0.31474571902E+01  0.51100000000E-03 0. -1.
        -11    1    3    3    0    0  0.10034405530E+02 -0.16378254029E+02  0.28358606226E+01  0.19415936885E+02  0.51100000000E-03 0.  1.
        -12    1    3    3    0    0  0.77206033066E+01 -0.18666548338E+02  0.12162151129E+02  0.23578924114E+02  0.00000000000E+00 0.  1.
</event>
<event>
 7    1  0.2395003E-008  0.4614232E+02  0.7816164E-02  0.1320468E+00
        -11   -1    0    0    0    0  0.00000000000E+00  0.00000000000E+00  0.45593999997E+02  0.45594000000E+02  0.51100000000E-03 0.  1.
         11   -1    0    0    0    0 -0.00000000000E+00 -0.00000000000E+00 -0.45593999997E+02  0.45594000000E+02  0.51100000000E-03 0. -1.
    9900012    2    1    2    0    0  0.77341428326E+01  0.43985180911E+02  0.58822075814E+01  0.46142317952E+02  0.10000001744E+02 0.  0.
         12    1    1    2    0    0 -0.77341428326E+01 -0.43985180911E+02 -0.58822075814E+01  0.45045682048E+02  0.00000000000E+00 0. -1.
         11    1    3    3    0    0 -0.13168853689E+01  0.70722113901E+01  0.19241213094E+01  0.74466505286E+01  0.51100000000E-03 0. -1.
        -11    1    3    3    0    0 -0.53570638168E+00  0.77473948954E+01  0.13723216487E+01  0.78862142984E+01  0.51100000000E-03 0.  1.
        -12    1    3    3    0    0  0.95867345832E+01  0.29165574625E+02  0.25857646232E+01  0.30809453125E+02  0.00000000000E+00 0.  1.
</event>
<event>
 7    1  0.2395003E-008  0.4614232E+02  0.7816164E-02  0.1320468E+00
        -11   -1    0    0    0    0  0.00000000000E+00  0.00000000000E+00  0.45593999997E+02  0.45594000000E+02  0.51100000000E-03 0.  1.
         11   -1    0    0    0    0 -0.00000000000E+00 -0.00000000000E+00 -0.45593999997E+02  0.45594000000E+02  0.51100000000E-03 0. -1.
    9900012    2    1    2    0    0 -0.21199276703E+02 -0.16862819002E+02  0.35990963405E+02  0.46142318251E+02  0.10000004464E+02 0.  0.
         12    1    1    2    0    0  0.21199276703E+02  0.16862819002E+02 -0.35990963405E+02  0.45045681749E+02  0.00000000000E+00 0. -1.
         11    1    3    3    0    0 -0.15154778242E+02 -0.10629686216E+02  0.25198386289E+02  0.31266854726E+02  0.51100000000E-03 0.  1.
        -11    1    3    3    0    0 -0.24080998918E+01 -0.56999086712E+00  0.41885055295E+00  0.25098348002E+01  0.51100000000E-03 0. -1.
        -12    1    3    3    0    0 -0.36363985693E+01 -0.56631419183E+01  0.10373726563E+02  0.12365628725E+02  0.00000000000E+00 0.  1.
</event>
<event>
 7    1  0.2395003E-008  0.4614232E+02  0.7816164E-02  0.1320468E+00
        -11   -1    0    0    0    0  0.00000000000E+00  0.00000000000E+00  0.45593999997E+02  0.45594000000E+02  0.51100000000E-03 0.  1.
         11   -1    0    0    0    0 -0.00000000000E+00 -0.00000000000E+00 -0.45593999997E+02  0.45594000000E+02  0.51100000000E-03 0. -1.
    9900012    2    1    2    0    0 -0.40859275627E+02 -0.14846067708E+02 -0.11799462379E+02  0.46142318258E+02  0.10000004534E+02 0.  0.
         12    1    1    2    0    0  0.40859275627E+02  0.14846067708E+02  0.11799462379E+02  0.45045681742E+02  0.00000000000E+00 0. -1.
         11    1    3    3    0    0 -0.23190258455E+02 -0.86826396760E+01 -0.59852514020E+01  0.25475469643E+02  0.51100000000E-03 0. -1.
        -11    1    3    3    0    0 -0.14853776494E+02 -0.75758196951E+01 -0.51074133133E+01  0.17438847187E+02  0.51100000000E-03 0.  1.
         12    1    3    3    0    0 -0.28152406778E+01  0.14123916628E+01 -0.70679766380E+00  0.32280014282E+01  0.00000000000E+00 0. -1.
</event>
<event>
 7    1  0.2395003E-008  0.4614232E+02  0.7816164E-02  0.1320468E+00
        -11   -1    0    0    0    0  0.00000000000E+00  0.00000000000E+00  0.45593999997E+02  0.45594000000E+02  0.51100000000E-03 0.  1.
         11   -1    0    0    0    0 -0.00000000000E+00 -0.00000000000E+00 -0.45593999997E+02  0.45594000000E+02  0.51100000000E-03 0. -1.
    9900012    2    1    2    0    0 -0.25454946870E+02  0.56296209857E+01  0.36735086286E+02  0.46142317443E+02  0.99999970972E+01 0.  0.
         12    1    1    2    0    0  0.25454946870E+02 -0.56296209857E+01 -0.36735086286E+02  0.45045682557E+02  0.00000000000E+00 0. -1.
         11    1    3    3    0    0 -0.34933542482E+01  0.25205318531E+01  0.46169371196E+01  0.63144844091E+01  0.51100000000E-03 0. -1.
        -11    1    3    3    0    0 -0.21300604918E+02  0.42814023452E+01  0.31676220040E+02  0.38411314638E+02  0.51100000000E-03 0.  1.
        -12    1    3    3    0    0 -0.66098770422E+00 -0.11723132126E+01  0.44192912642E+00  0.14165183960E+01  0.00000000000E+00 0.  1.
</event>
<event>
 7    1  0.2395003E-008  0.4614230E+02  0.7816164E-02  0.1320468E+00
        -11   -1    0    0    0    0  0.00000000000E+00  0.00000000000E+00  0.45593999997E+02  0.45594000000E+02  0.51100000000E-03 0.  1.
         11   -1    0    0    0    0 -0.00000000000E+00 -0.00000000000E+00 -0.45593999997E+02  0.45594000000E+02  0.51100000000E-03 0. -1.
    9900012    2    1    2    0    0  0.41338224745E+02 -0.17894128152E+02 -0.25720973767E+00  0.46142303155E+02  0.99998668086E+01 0.  0.
         12    1    1    2    0    0 -0.41338224745E+02  0.17894128152E+02  0.25720973767E+00  0.45045696845E+02  0.00000000000E+00 0. -1.
         11    1    3    3    0    0  0.52372428888E+01 -0.46959834793E+01  0.26388958249E+01  0.75129718055E+01  0.51100000000E-03 0.  1.
        -11    1    3    3    0    0  0.24845663339E+02 -0.10306336614E+02 -0.21664459771E+01  0.26985571137E+02  0.51100000000E-03 0. -1.
        -12    1    3    3    0    0  0.11255318518E+02 -0.28918080592E+01 -0.72965958548E+00  0.11643760213E+02  0.00000000000E+00 0.  1.
</event>
<event>
 7    1  0.2395003E-008  0.4614232E+02  0.7816164E-02  0.1320468E+00
        -11   -1    0    0    0    0  0.00000000000E+00  0.00000000000E+00  0.45593999997E+02  0.45594000000E+02  0.51100000000E-03 0.  1.
         11   -1    0    0    0    0 -0.00000000000E+00 -0.00000000000E+00 -0.45593999997E+02  0.45594000000E+02  0.51100000000E-03 0. -1.
    9900012    2    1    2    0    0 -0.30802136836E+01 -0.12245410854E+02  0.43239746465E+02  0.46142317880E+02  0.10000001084E+02 0.  0.
         12    1    1    2    0    0  0.30802136836E+01  0.12245410854E+02 -0.43239746465E+02  0.45045682120E+02  0.00000000000E+00 0. -1.
         11    1    3    3    0    0 -0.45789386434E+01 -0.43703207903E+01  0.19481685067E+02  0.20484199672E+02  0.51100000000E-03 0.  1.
        -11    1    3    3    0    0 -0.71997963327E+00 -0.65755688372E+01  0.12868370992E+02  0.14468982289E+02  0.51100000000E-03 0. -1.
        -12    1    3    3    0    0  0.22187045930E+01 -0.12995212269E+01  0.10889690405E+02  0.11189135919E+02  0.00000000000E+00 0.  1.
</event>
<event>
 7    1  0.2395003E-008  0.4614232E+02  0.7816164E-02  0.1320468E+00
        -11   -1    0    0    0    0  0.00000000000E+00  0.00000000000E+00  0.45593999997E+02  0.45594000000E+02  0.51100000000E-03 0. -1.
         11   -1    0    0    0    0 -0.00000000000E+00 -0.00000000000E+00 -0.45593999997E+02  0.45594000000E+02  0.51100000000E-03 0.  1.
    9900012    2    1    2    0    0 -0.14739810177E+02  0.42431078301E+02  0.33845215571E+01  0.46142318787E+02  0.10000009351E+02 0.  0.
         12    1    1    2    0    0  0.14739810177E+02 -0.42431078301E+02 -0.33845215571E+01  0.45045681213E+02  0.00000000000E+00 0. -1.
         11    1    3    3    0    0 -0.96054086505E+01  0.24720585723E+02 -0.51903409005E+00  0.26526225334E+02  0.51100000000E-03 0. -1.
        -11    1    3    3    0    0 -0.51825787801E+01  0.11555464327E+02  0.71642917189E+00  0.12684681693E+02  0.51100000000E-03 0.  1.
         12    1    3    3    0    0  0.48177253372E-01  0.61550282509E+01  0.31871264753E+01  0.69314117600E+01  0.00000000000E+00 0. -1.
</event>
<event>
 7    1  0.2395003E-008  0.4614232E+02  0.7816164E-02  0.1320468E+00
        -11   -1    0    0    0    0  0.00000000000E+00  0.00000000000E+00  0.45593999997E+02  0.45594000000E+02  0.51100000000E-03 0.  1.
         11   -1    0    0    0    0 -0.00000000000E+00 -0.00000000000E+00 -0.45593999997E+02  0.45594000000E+02  0.51100000000E-03 0. -1.
    9900012    2    1    2    0    0  0.32017871747E+02  0.30497972937E+02  0.85932068784E+01  0.46142315757E+02  0.99999817236E+01 0.  0.
         12    1    1    2    0    0 -0.32017871747E+02 -0.30497972937E+02 -0.85932068784E+01  0.45045684243E+02  0.00000000000E+00 0. -1.
         11    1    3    3    0    0  0.17440013232E+01  0.81674601234E+00 -0.46788453075E-01  0.19263447471E+01  0.51100000000E-03 0. -1.
        -11    1    3    3    0    0  0.20227501985E+02  0.13507652939E+02  0.47126887902E+01  0.24775349854E+02  0.51100000000E-03 0.  1.
        -12    1    3    3    0    0  0.10046368439E+02  0.16173573985E+02  0.39273065413E+01  0.19440621156E+02  0.00000000000E+00 0.  1.
</event>
<event>
 7    1  0.2395003E-008  0.4614232E+02  0.7816164E-02  0.1320468E+00
        -11   -1    0    0    0    0  0.00000000000E+00  0.00000000000E+00  0.45593999997E+02  0.45594000000E+02  0.51100000000E-03 0.  1.
         11   -1    0    0    0    0 -0.00000000000E+00 -0.00000000000E+00 -0.45593999997E+02  0.45594000000E+02  0.51100000000E-03 0. -1.
    9900012    2    1    2    0    0 -0.29534117995E+02  0.13156797005E+02  0.31364756093E+02  0.46142319209E+02  0.10000013202E+02 0.  0.
         12    1    1    2    0    0  0.29534117995E+02 -0.13156797005E+02 -0.31364756093E+02  0.45045680791E+02  0.00000000000E+00 0. -1.
         11    1    3    3    0    0 -0.15269923281E+02  0.94112880272E+01  0.16412427140E+02  0.24312767515E+02  0.51100000000E-03 0. -1.
        -11    1    3    3    0    0 -0.33705151908E+01  0.10266770405E+01  0.76871874003E+01  0.84561982465E+01  0.51100000000E-03 0.  1.
         12    1    3    3    0    0 -0.10893679523E+02  0.27188319371E+01  0.72651415527E+01  0.13373353448E+02  0.00000000000E+00 0. -1.
</event>
<event>
 7    1  0.2395003E-008  0.4614231E+02  0.7816164E-02  0.1320468E+00
        -11   -1    0    0    0    0  0.00000000000E+00  0.00000000000E+00  0.45593999997E+02  0.45594000000E+02  0.51100000000E-03 0.  1.
         11   -1    0    0    0    0 -0.00000000000E+00 -0.00000000000E+00 -0.45593999997E+02  0.45594000000E+02  0.51100000000E-03 0. -1.
    9900012    2    1    2    0    0 -0.10377911938E+02  0.16232145477E+02  0.40717691547E+02  0.46142311994E+02  0.99999474121E+01 0.  0.
         12    1    1    2    0    0  0.10377911938E+02 -0.16232145477E+02 -0.40717691547E+02  0.45045688006E+02  0.00000000000E+00 0. -1.
         11    1    3    3    0    0 -0.37617294315E+01  0.10999605461E+01  0.90626769742E+01  0.98738359171E+01  0.51100000000E-03 0. -1.
        -11    1    3    3    0    0 -0.77258180297E+00 -0.46139786333E+00  0.29353079626E+01  0.30701471833E+01  0.51100000000E-03 0.  1.
        -12    1    3    3    0    0 -0.58436007040E+01  0.15593582795E+02  0.28719706610E+02  0.33198328894E+02  0.00000000000E+00 0.  1.
</event>
<event>
 7    1  0.2395003E-008  0.4614232E+02  0.7816164E-02  0.1320468E+00
        -11   -1    0    0    0    0  0.00000000000E+00  0.00000000000E+00  0.45593999997E+02  0.45594000000E+02  0.51100000000E-03 0.  1.
         11   -1    0    0    0    0 -0.00000000000E+00 -0.00000000000E+00 -0.45593999997E+02  0.45594000000E+02  0.51100000000E-03 0. -1.
    9900012    2    1    2    0    0  0.26288790243E+02  0.10531047463E+02  0.35030128497E+02  0.46142319234E+02  0.10000013434E+02 0.  0.
         12    1    1    2    0    0 -0.26288790243E+02 -0.10531047463E+02 -0.35030128497E+02  0.45045680766E+02  0.00000000000E+00 0. -1.
         11    1    3    3    0    0  0.33479379618E+01 -0.36850135499E+00  0.52662045068E+01  0.62511912476E+01  0.51100000000E-03 0.  1.
        -11    1    3    3    0    0  0.42266216152E+01  0.36709989091E+01  0.11369067748E+02  0.12672658166E+02  0.51100000000E-03 0. -1.
         12    1    3    3    0    0  0.18714230666E+02  0.72285499094E+01  0.18394856242E+02  0.27218469821E+02  0.00000000000E+00 0. -1.
</event>
<event>
 7    1  0.2395003E-008  0.4614232E+02  0.7816164E-02  0.1320468E+00
        -11   -1    0    0    0    0  0.00000000000E+00  0.00000000000E+00  0.45593999997E+02  0.45594000000E+02  0.51100000000E-03 0. -1.
         11   -1    0    0    0    0 -0.00000000000E+00 -0.00000000000E+00 -0.45593999997E+02  0.45594000000E+02  0.51100000000E-03 0.  1.
    9900012    2    1    2    0    0 -0.19470782496E+02 -0.28716576404E+02 -0.28729086692E+02  0.46142317038E+02  0.99999934063E+01 0.  0.
         12    1    1    2    0    0  0.19470782496E+02  0.28716576404E+02  0.28729086692E+02  0.45045682962E+02  0.00000000000E+00 0. -1.
         11    1    3    3    0    0 -0.31614053626E+01 -0.44590324645E+01 -0.71716791538E+01  0.90172299812E+01  0.51100000000E-03 0. -1.
        -11    1    3    3    0    0 -0.14103154738E+02 -0.14558519618E+02 -0.14879556560E+02  0.25144595259E+02  0.51100000000E-03 0.  1.
         12    1    3    3    0    0 -0.22062223954E+01 -0.96990243215E+01 -0.66778509778E+01  0.11980491798E+02  0.00000000000E+00 0. -1.
</event>
<event>
 7    1  0.2395003E-008  0.4614232E+02  0.7816164E-02  0.1320468E+00
        -11   -1    0    0    0    0  0.00000000000E+00  0.00000000000E+00  0.45593999997E+02  0.45594000000E+02  0.51100000000E-03 0. -1.
         11   -1    0    0    0    0 -0.00000000000E+00 -0.00000000000E+00 -0.45593999997E+02  0.45594000000E+02  0.51100000000E-03 0.  1.
    9900012    2    1    2    0    0  0.16511051526E+02  0.54177174430E+01 -0.41558957596E+02  0.46142318284E+02  0.10000004770E+02 0.  0.
         12    1    1    2    0    0 -0.16511051526E+02 -0.54177174430E+01  0.41558957596E+02  0.45045681716E+02  0.00000000000E+00 0. -1.
         11    1    3    3    0    0  0.22238344045E+01 -0.23756942760E+01 -0.78831119314E+01  0.85283536943E+01  0.51100000000E-03 0. -1.
        -11    1    3    3    0    0  0.76705078578E+01  0.21538978573E+01 -0.18103229469E+02  0.19778849416E+02  0.51100000000E-03 0.  1.
         12    1    3    3    0    0  0.66167092633E+01  0.56395138617E+01 -0.15572616196E+02  0.17835115174E+02  0.00000000000E+00 0. -1.
</event>
<event>
 7    1  0.2395003E-008  0.4614232E+02  0.7816164E-02  0.1320468E+00
        -11   -1    0    0    0    0  0.00000000000E+00  0.00000000000E+00  0.45593999997E+02  0.45594000000E+02  0.51100000000E-03 0.  1.
         11   -1    0    0    0    0 -0.00000000000E+00 -0.00000000000E+00 -0.45593999997E+02  0.45594000000E+02  0.51100000000E-03 0. -1.
    9900012    2    1    2    0    0  0.24255592514E+02  0.30246613656E+02  0.22932989822E+02  0.46142318430E+02  0.10000006104E+02 0.  0.
         12    1    1    2    0    0 -0.24255592514E+02 -0.30246613656E+02 -0.22932989822E+02  0.45045681570E+02  0.00000000000E+00 0. -1.
         11    1    3    3    0    0  0.34087747729E+01  0.39944462410E+01  0.55135793976E+01  0.76141253115E+01  0.51100000000E-03 0. -1.
        -11    1    3    3    0    0  0.47054051952E+01  0.32962000763E+01  0.57733398202E+01  0.81447667821E+01  0.51100000000E-03 0.  1.
        -12    1    3    3    0    0  0.16141412546E+02  0.22955967339E+02  0.11646070604E+02  0.30383426337E+02  0.00000000000E+00 0.  1.
</event>
<event>
 7    1  0.2395003E-008  0.4614232E+02  0.7816164E-02  0.1320468E+00
        -11   -1    0    0    0    0  0.00000000000E+00  0.00000000000E+00  0.45593999997E+02  0.45594000000E+02  0.51100000000E-03 0.  1.
         11   -1    0    0    0    0 -0.00000000000E+00 -0.00000000000E+00 -0.45593999997E+02  0.45594000000E+02  0.51100000000E-03 0. -1.
    9900012    2    1    2    0    0 -0.27172387415E+02  0.16159297120E+02  0.32088190832E+02  0.46142317498E+02  0.99999975979E+01 0.  0.
         12    1    1    2    0    0  0.27172387415E+02 -0.16159297120E+02 -0.32088190832E+02  0.45045682502E+02  0.00000000000E+00 0. -1.
         11    1    3    3    0    0 -0.30313019320E+01  0.18822562692E+01  0.61743100946E+01  0.71311840161E+01  0.51100000000E-03 0.  1.
        -11    1    3    3    0    0 -0.18333555654E+02  0.10969186527E+02  0.14620448961E+02  0.25888218248E+02  0.51100000000E-03 0. -1.
         12    1    3    3    0    0 -0.58075298296E+01  0.33078543238E+01  0.11293431776E+02  0.13122915234E+02  0.00000000000E+00 0. -1.
</event>
<event>
 7    1  0.2395003E-008  0.4614232E+02  0.7816164E-02  0.1320468E+00
        -11   -1    0    0    0    0  0.00000000000E+00  0.00000000000E+00  0.45593999997E+02  0.45594000000E+02  0.51100000000E-03 0.  1.
         11   -1    0    0    0    0 -0.00000000000E+00 -0.00000000000E+00 -0.45593999997E+02  0.45594000000E+02  0.51100000000E-03 0. -1.
    9900012    2    1    2    0    0  0.30776143760E+02  0.32887794315E+02 -0.57913566367E+00  0.46142318323E+02  0.10000005127E+02 0.  0.
         12    1    1    2    0    0 -0.30776143760E+02 -0.32887794315E+02  0.57913566367E+00  0.45045681677E+02  0.00000000000E+00 0. -1.
         11    1    3    3    0    0  0.69779532791E+01  0.29989289630E+01  0.68690759565E+00  0.76260900333E+01  0.51100000000E-03 0.  1.
        -11    1    3    3    0    0  0.87677004782E+01  0.82629519416E+01 -0.17583842684E+01  0.12175420402E+02  0.51100000000E-03 0. -1.
        -12    1    3    3    0    0  0.15030490002E+02  0.21625913410E+02  0.49234100905E+00  0.26340807888E+02  0.00000000000E+00 0.  1.
</event>
<event>
 7    1  0.2395003E-008  0.4614232E+02  0.7816164E-02  0.1320468E+00
        -11   -1    0    0    0    0  0.00000000000E+00  0.00000000000E+00  0.45593999997E+02  0.45594000000E+02  0.51100000000E-03 0.  1.
         11   -1    0    0    0    0 -0.00000000000E+00 -0.00000000000E+00 -0.45593999997E+02  0.45594000000E+02  0.51100000000E-03 0. -1.
    9900012    2    1    2    0    0 -0.44393998320E+02 -0.66026001008E+01  0.38330226348E+01  0.46142317882E+02  0.10000001103E+02 0.  0.
         12    1    1    2    0    0  0.44393998320E+02  0.66026001008E+01 -0.38330226348E+01  0.45045682118E+02  0.00000000000E+00 0. -1.
         11    1    3    3    0    0 -0.10839606860E+02 -0.43150955741E+01  0.28841424231E+01  0.12018128160E+02  0.51100000000E-03 0. -1.
        -11    1    3    3    0    0 -0.32193440764E+02 -0.32372931890E+01  0.34350702639E+00  0.32357621865E+02  0.51100000000E-03 0.  1.
         12    1    3    3    0    0 -0.13609506964E+01  0.94978866224E+00  0.60537318532E+00  0.17665678573E+01  0.00000000000E+00 0. -1.
</event>
<event>
 7    1  0.2395003E-008  0.4614232E+02  0.7816164E-02  0.1320468E+00
        -11   -1    0    0    0    0  0.00000000000E+00  0.00000000000E+00  0.45593999997E+02  0.45594000000E+02  0.51100000000E-03 0.  1.
         11   -1    0    0    0    0 -0.00000000000E+00 -0.00000000000E+00 -0.45593999997E+02  0.45594000000E+02  0.51100000000E-03 0. -1.
    9900012    2    1    2    0    0 -0.43442452829E+02  0.57248967970E+01  0.10444727853E+02  0.46142317731E+02  0.99999997239E+01 0.  0.
         12    1    1    2    0    0  0.43442452829E+02 -0.57248967970E+01 -0.10444727853E+02  0.45045682269E+02  0.00000000000E+00 0. -1.
         11    1    3    3    0    0 -0.56793136442E+01  0.68355979954E+00  0.29508538447E+01  0.64365671086E+01  0.51100000000E-03 0. -1.
        -11    1    3    3    0    0 -0.63942627234E+01 -0.10567244695E+01 -0.11932171591E+01  0.65899188030E+01  0.51100000000E-03 0.  1.
        -12    1    3    3    0    0 -0.31368876462E+02  0.60980614670E+01  0.86870911674E+01  0.33115831819E+02  0.00000000000E+00 0.  1.
</event>
<event>
 7    1  0.2395003E-008  0.4614232E+02  0.7816164E-02  0.1320468E+00
        -11   -1    0    0    0    0  0.00000000000E+00  0.00000000000E+00  0.45593999997E+02  0.45594000000E+02  0.51100000000E-03 0.  1.
         11   -1    0    0    0    0 -0.00000000000E+00 -0.00000000000E+00 -0.45593999997E+02  0.45594000000E+02  0.51100000000E-03 0. -1.
    9900012    2    1    2    0    0  0.13639985677E+02  0.15126739234E+02  0.40177680663E+02  0.46142317937E+02  0.10000001601E+02 0.  0.
         12    1    1    2    0    0 -0.13639985677E+02 -0.15126739234E+02 -0.40177680663E+02  0.45045682063E+02  0.00000000000E+00 0. -1.
         11    1    3    3    0    0  0.18240181071E+01  0.16855082401E+00  0.22149805707E+01  0.28742982840E+01  0.51100000000E-03 0. -1.
        -11    1    3    3    0    0  0.27973206389E+01  0.75032092492E+01  0.90880335036E+01  0.12112617596E+02  0.51100000000E-03 0.  1.
        -12    1    3    3    0    0  0.90186469312E+01  0.74549791603E+01  0.28874666588E+02  0.31155402057E+02  0.00000000000E+00 0.  1.
</event>
<event>
 7    1  0.2395003E-008  0.4614231E+02  0.7816164E-02  0.1320468E+00
        -11   -1    0    0    0    0  0.00000000000E+00  0.00000000000E+00  0.45593999997E+02  0.45594000000E+02  0.51100000000E-03 0.  1.
         11   -1    0    0    0    0 -0.00000000000E+00 -0.00000000000E+00 -0.45593999997E+02  0.45594000000E+02  0.51100000000E-03 0. -1.
    9900012    2    1    2    0    0  0.52833802344E+00 -0.14878739778E+02  0.42514207183E+02  0.46142313737E+02  0.99999633063E+01 0.  0.
         12    1    1    2    0    0 -0.52833802344E+00  0.14878739778E+02 -0.42514207183E+02  0.45045686263E+02  0.00000000000E+00 0. -1.
         11    1    3    3    0    0  0.24717213699E+01 -0.81483738255E+01  0.24611354396E+02  0.26042737337E+02  0.51100000000E-03 0. -1.
        -11    1    3    3    0    0  0.66063536770E-01 -0.60623589458E+01  0.83741907752E+01  0.10338454032E+02  0.51100000000E-03 0.  1.
        -12    1    3    3    0    0 -0.20094468832E+01 -0.66800700692E+00  0.95286620124E+01  0.97611223681E+01  0.00000000000E+00 0.  1.
</event>
<event>
 7    1  0.2395003E-008  0.4614232E+02  0.7816164E-02  0.1320468E+00
        -11   -1    0    0    0    0  0.00000000000E+00  0.00000000000E+00  0.45593999997E+02  0.45594000000E+02  0.51100000000E-03 0.  1.
         11   -1    0    0    0    0 -0.00000000000E+00 -0.00000000000E+00 -0.45593999997E+02  0.45594000000E+02  0.51100000000E-03 0. -1.
    9900012    2    1    2    0    0  0.12039922548E+02  0.42772046342E+02  0.73963390871E+01  0.46142317464E+02  0.99999972938E+01 0.  0.
         12    1    1    2    0    0 -0.12039922548E+02 -0.42772046342E+02 -0.73963390871E+01  0.45045682536E+02  0.00000000000E+00 0. -1.
         11    1    3    3    0    0 -0.28538296444E+00  0.21024738654E+01  0.13740847324E+01  0.25278348253E+01  0.51100000000E-03 0. -1.
        -11    1    3    3    0    0  0.82054125355E+01  0.16111087899E+02  0.46826897453E+01  0.18676818028E+02  0.51100000000E-03 0.  1.
        -12    1    3    3    0    0  0.41198929771E+01  0.24558484578E+02  0.13395646095E+01  0.24937664611E+02  0.00000000000E+00 0.  1.
</event>
<event>
 7    1  0.2395003E-008  0.4614232E+02  0.7816164E-02  0.1320468E+00
        -11   -1    0    0    0    0  0.00000000000E+00  0.00000000000E+00  0.45593999997E+02  0.45594000000E+02  0.51100000000E-03 0.  1.
         11   -1    0    0    0    0 -0.00000000000E+00 -0.00000000000E+00 -0.45593999997E+02  0.45594000000E+02  0.51100000000E-03 0. -1.
    9900012    2    1    2    0    0 -0.75056013821E+01 -0.36127633621E+02  0.25837443586E+02  0.46142318141E+02  0.10000003461E+02 0.  0.
         12    1    1    2    0    0  0.75056013821E+01  0.36127633621E+02 -0.25837443586E+02  0.45045681859E+02  0.00000000000E+00 0. -1.
         11    1    3    3    0    0 -0.42621900178E-01 -0.84901265722E+00  0.25699961125E+01  0.27069391197E+01  0.51100000000E-03 0. -1.
        -11    1    3    3    0    0 -0.85549912418E-01 -0.56116373131E+01  0.64297291555E+01  0.85345889998E+01  0.51100000000E-03 0.  1.
         12    1    3    3    0    0 -0.73774295695E+01 -0.29666983650E+02  0.16837718318E+02  0.34900790021E+02  0.00000000000E+00 0. -1.
</event>
<event>
 7    1  0.2395003E-008  0.4614232E+02  0.7816164E-02  0.1320468E+00
        -11   -1    0    0    0    0  0.00000000000E+00  0.00000000000E+00  0.45593999997E+02  0.45594000000E+02  0.51100000000E-03 0.  1.
         11   -1    0    0    0    0 -0.00000000000E+00 -0.00000000000E+00 -0.45593999997E+02  0.45594000000E+02  0.51100000000E-03 0. -1.
    9900012    2    1    2    0    0 -0.41636812090E+02 -0.11124872507E+02  0.13104452436E+02  0.46142316711E+02  0.99999904282E+01 0.  0.
         12    1    1    2    0    0  0.41636812090E+02  0.11124872507E+02 -0.13104452436E+02  0.45045683289E+02  0.00000000000E+00 0. -1.
         11    1    3    3    0    0 -0.34082884799E+02 -0.66694604141E+01  0.11902060855E+02  0.36712174973E+02  0.51100000000E-03 0. -1.
        -11    1    3    3    0    0 -0.71746063593E+01 -0.28951896891E+01  0.11656146312E+01  0.78240499408E+01  0.51100000000E-03 0.  1.
         12    1    3    3    0    0 -0.37932093180E+00 -0.15602224033E+01  0.36776949619E-01  0.16060917972E+01  0.00000000000E+00 0. -1.
</event>
<event>
 7    1  0.2395003E-008  0.4614232E+02  0.7816164E-02  0.1320468E+00
        -11   -1    0    0    0    0  0.00000000000E+00  0.00000000000E+00  0.45593999997E+02  0.45594000000E+02  0.51100000000E-03 0. -1.
         11   -1    0    0    0    0 -0.00000000000E+00 -0.00000000000E+00 -0.45593999997E+02  0.45594000000E+02  0.51100000000E-03 0.  1.
    9900012    2    1    2    0    0 -0.41902623427E+02  0.14987918079E+02 -0.69746262128E+01  0.46142323746E+02  0.10000054574E+02 0.  0.
         12    1    1    2    0    0  0.41902623427E+02 -0.14987918079E+02  0.69746262128E+01  0.45045676254E+02  0.00000000000E+00 0. -1.
         11    1    3    3    0    0 -0.15281288743E+02  0.54281591677E+01 -0.81999025920E+00  0.16237459219E+02  0.51100000000E-03 0. -1.
        -11    1    3    3    0    0 -0.21047940567E+02  0.54027767627E+01 -0.20404248080E+01  0.21825882171E+02  0.51100000000E-03 0.  1.
         12    1    3    3    0    0 -0.55733941158E+01  0.41569821488E+01 -0.41142111456E+01  0.80789823559E+01  0.00000000000E+00 0. -1.
</event>
<event>
 7    1  0.2395003E-008  0.4614232E+02  0.7816164E-02  0.1320468E+00
        -11   -1    0    0    0    0  0.00000000000E+00  0.00000000000E+00  0.45593999997E+02  0.45594000000E+02  0.51100000000E-03 0. -1.
         11   -1    0    0    0    0 -0.00000000000E+00 -0.00000000000E+00 -0.45593999997E+02  0.45594000000E+02  0.51100000000E-03 0.  1.
    9900012    2    1    2    0    0  0.18349897422E+02  0.31349309368E+02 -0.26638611652E+02  0.46142316922E+02  0.99999923499E+01 0.  0.
         12    1    1    2    0    0 -0.18349897422E+02 -0.31349309368E+02  0.26638611652E+02  0.45045683078E+02  0.00000000000E+00 0. -1.
         11    1    3    3    0    0  0.12050658243E+02  0.18312313025E+02 -0.14820370114E+02  0.26461340537E+02  0.51100000000E-03 0. -1.
        -11    1    3    3    0    0  0.71967749109E+01  0.10663451028E+02 -0.11228504495E+02  0.17075774372E+02  0.51100000000E-03 0.  1.
         12    1    3    3    0    0 -0.89753573212E+00  0.23735453149E+01 -0.58973704209E+00  0.26052020135E+01  0.00000000000E+00 0. -1.
</event>
<event>
 7    1  0.2395003E-008  0.4614232E+02  0.7816164E-02  0.1320468E+00
        -11   -1    0    0    0    0  0.00000000000E+00  0.00000000000E+00  0.45593999997E+02  0.45594000000E+02  0.51100000000E-03 0.  1.
         11   -1    0    0    0    0 -0.00000000000E+00 -0.00000000000E+00 -0.45593999997E+02  0.45594000000E+02  0.51100000000E-03 0. -1.
    9900012    2    1    2    0    0  0.12852252223E+01  0.17379714215E+02  0.41538021626E+02  0.46142317513E+02  0.99999977400E+01 0.  0.
         12    1    1    2    0    0 -0.12852252223E+01 -0.17379714215E+02 -0.41538021626E+02  0.45045682487E+02  0.00000000000E+00 0. -1.
         11    1    3    3    0    0  0.15672317509E+01  0.38667722542E+01  0.62211290313E+01  0.74907002151E+01  0.51100000000E-03 0. -1.
        -11    1    3    3    0    0  0.31543337084E+01  0.10574541418E+02  0.22493990408E+02  0.25054946660E+02  0.51100000000E-03 0.  1.
         12    1    3    3    0    0 -0.34363402370E+01  0.29384005423E+01  0.12822902187E+02  0.13596670639E+02  0.00000000000E+00 0. -1.
</event>
<event>
 7    1  0.2395003E-008  0.4614232E+02  0.7816164E-02  0.1320468E+00
        -11   -1    0    0    0    0  0.00000000000E+00  0.00000000000E+00  0.45593999997E+02  0.45594000000E+02  0.51100000000E-03 0.  1.
         11   -1    0    0    0    0 -0.00000000000E+00 -0.00000000000E+00 -0.45593999997E+02  0.45594000000E+02  0.51100000000E-03 0. -1.
    9900012    2    1    2    0    0 -0.18748500959E+01 -0.78870223900E+01  0.44310194052E+02  0.46142317832E+02  0.10000000647E+02 0.  0.
         12    1    1    2    0    0  0.18748500959E+01  0.78870223900E+01 -0.44310194052E+02  0.45045682168E+02  0.00000000000E+00 0. -1.
         11    1    3    3    0    0 -0.29965719909E+01 -0.11003341961E+01  0.72272646692E+01  0.79008565295E+01  0.51100000000E-03 0. -1.
        -11    1    3    3    0    0 -0.23912130942E+01 -0.23851758926E+01  0.19134618762E+02  0.19430403998E+02  0.51100000000E-03 0.  1.
         12    1    3    3    0    0  0.35129349891E+01 -0.44015123013E+01  0.17948310621E+02  0.18811057305E+02  0.00000000000E+00 0. -1.
</event>
<event>
 7    1  0.2395003E-008  0.4614232E+02  0.7816164E-02  0.1320468E+00
        -11   -1    0    0    0    0  0.00000000000E+00  0.00000000000E+00  0.45593999997E+02  0.45594000000E+02  0.51100000000E-03 0. -1.
         11   -1    0    0    0    0 -0.00000000000E+00 -0.00000000000E+00 -0.45593999997E+02  0.45594000000E+02  0.51100000000E-03 0.  1.
    9900012    2    1    2    0    0 -0.41152966837E+02 -0.11937456837E+02 -0.13894024505E+02  0.46142317941E+02  0.10000001641E+02 0.  0.
         12    1    1    2    0    0  0.41152966837E+02  0.11937456837E+02  0.13894024505E+02  0.45045682059E+02  0.00000000000E+00 0. -1.
         11    1    3    3    0    0 -0.19925317288E+02 -0.10248330088E+02 -0.82577021610E+01  0.23879618588E+02  0.51100000000E-03 0. -1.
        -11    1    3    3    0    0 -0.73384869438E+01 -0.25077670310E+00 -0.41330609533E+00  0.73543933651E+01  0.51100000000E-03 0.  1.
        -12    1    3    3    0    0 -0.13889162605E+02 -0.14383500452E+01 -0.52230162486E+01  0.14908305988E+02  0.00000000000E+00 0.  1.
</event>
<event>
 7    1  0.2395003E-008  0.4614232E+02  0.7816164E-02  0.1320468E+00
        -11   -1    0    0    0    0  0.00000000000E+00  0.00000000000E+00  0.45593999997E+02  0.45594000000E+02  0.51100000000E-03 0. -1.
         11   -1    0    0    0    0 -0.00000000000E+00 -0.00000000000E+00 -0.45593999997E+02  0.45594000000E+02  0.51100000000E-03 0.  1.
    9900012    2    1    2    0    0  0.16715418260E+02 -0.67411392124E+00 -0.41824081694E+02  0.46142318223E+02  0.10000004214E+02 0.  0.
         12    1    1    2    0    0 -0.16715418260E+02  0.67411392124E+00  0.41824081694E+02  0.45045681777E+02  0.00000000000E+00 0. -1.
         11    1    3    3    0    0  0.14054743132E+01 -0.25454457242E+01 -0.30726664409E+01  0.42303582943E+01  0.51100000000E-03 0. -1.
        -11    1    3    3    0    0  0.47397033241E+01  0.10752962515E+01 -0.17517612514E+02  0.18179323367E+02  0.51100000000E-03 0.  1.
         12    1    3    3    0    0  0.10570240623E+02  0.79603555147E+00 -0.21233802739E+02  0.23732636562E+02  0.00000000000E+00 0. -1.
</event>
<event>
 7    1  0.2395003E-008  0.4614232E+02  0.7816164E-02  0.1320468E+00
        -11   -1    0    0    0    0  0.00000000000E+00  0.00000000000E+00  0.45593999997E+02  0.45594000000E+02  0.51100000000E-03 0.  1.
         11   -1    0    0    0    0 -0.00000000000E+00 -0.00000000000E+00 -0.45593999997E+02  0.45594000000E+02  0.51100000000E-03 0. -1.
    9900012    2    1    2    0    0  0.21709188971E+02 -0.26505150283E+02  0.29245539587E+02  0.46142318043E+02  0.10000002568E+02 0.  0.
         12    1    1    2    0    0 -0.21709188971E+02  0.26505150283E+02 -0.29245539587E+02  0.45045681957E+02  0.00000000000E+00 0. -1.
         11    1    3    3    0    0  0.15055981948E+02 -0.13629432457E+02  0.21056902738E+02  0.29254694917E+02  0.51100000000E-03 0. -1.
        -11    1    3    3    0    0  0.80003356836E+00 -0.71523496777E+00 -0.52731683331E-01  0.10744280623E+01  0.51100000000E-03 0.  1.
        -12    1    3    3    0    0  0.58531734543E+01 -0.12160482858E+02  0.82413685321E+01  0.15813195063E+02  0.00000000000E+00 0.  1.
</event>
<event>
 7    1  0.2395003E-008  0.4614232E+02  0.7816164E-02  0.1320468E+00
        -11   -1    0    0    0    0  0.00000000000E+00  0.00000000000E+00  0.45593999997E+02  0.45594000000E+02  0.51100000000E-03 0.  1.
         11   -1    0    0    0    0 -0.00000000000E+00 -0.00000000000E+00 -0.45593999997E+02  0.45594000000E+02  0.51100000000E-03 0. -1.
    9900012    2    1    2    0    0 -0.14881471357E+02 -0.19103848256E+02  0.37982868861E+02  0.46142317245E+02  0.99999952926E+01 0.  0.
         12    1    1    2    0    0  0.14881471357E+02  0.19103848256E+02 -0.37982868861E+02  0.45045682755E+02  0.00000000000E+00 0. -1.
         11    1    3    3    0    0 -0.52308539935E+01 -0.11079377004E+02  0.13044546564E+02  0.17896218137E+02  0.51100000000E-03 0. -1.
        -11    1    3    3    0    0 -0.25371993260E+01 -0.48125235338E+01  0.95209364193E+01  0.10965673429E+02  0.51100000000E-03 0.  1.
        -12    1    3    3    0    0 -0.71134180378E+01 -0.32119477175E+01  0.15417385878E+02  0.17280425679E+02  0.00000000000E+00 0.  1.
</event>
<event>
 7    1  0.3212899E-008  0.4614232E+02  0.7816164E-02  0.1320468E+00
        -11   -1    0    0    0    0  0.00000000000E+00  0.00000000000E+00  0.45593999997E+02  0.45594000000E+02  0.51100000000E-03 0.  1.
         11   -1    0    0    0    0 -0.00000000000E+00 -0.00000000000E+00 -0.45593999997E+02  0.45594000000E+02  0.51100000000E-03 0. -1.
    9900012    2    1    2    0    0  0.22173884603E+02  0.32422582471E+02  0.22050134382E+02  0.46142318312E+02  0.10000005027E+02 0.  0.
         12    1    1    2    0    0 -0.22173884603E+02 -0.32422582471E+02 -0.22050134382E+02  0.45045681688E+02  0.00000000000E+00 0. -1.
         11    1    3    3    0    0  0.20391221391E+01  0.52419916194E+00  0.17432888900E+01  0.27334703720E+01  0.51100000000E-03 0. -1.
        -11    1    3    3    0    0  0.29340967405E+01  0.94176826328E+01  0.33777918095E+01  0.10426463812E+02  0.51100000000E-03 0.  1.
        -12    1    3    3    0    0  0.17200665724E+02  0.22480700676E+02  0.16929053682E+02  0.32982384128E+02  0.00000000000E+00 0.  1.
</event>
<event>
 7    1  0.2395003E-008  0.4614232E+02  0.7816164E-02  0.1320468E+00
        -11   -1    0    0    0    0  0.00000000000E+00  0.00000000000E+00  0.45593999997E+02  0.45594000000E+02  0.51100000000E-03 0.  1.
         11   -1    0    0    0    0 -0.00000000000E+00 -0.00000000000E+00 -0.45593999997E+02  0.45594000000E+02  0.51100000000E-03 0. -1.
    9900012    2    1    2    0    0  0.14332450922E+02  0.38840543364E+02  0.17751234852E+02  0.46142319885E+02  0.10000019371E+02 0.  0.
         12    1    1    2    0    0 -0.14332450922E+02 -0.38840543364E+02 -0.17751234852E+02  0.45045680115E+02  0.00000000000E+00 0. -1.
         11    1    3    3    0    0  0.12110074556E+02  0.25879320381E+02  0.10708761902E+02  0.30513451310E+02  0.51100000000E-03 0. -1.
        -11    1    3    3    0    0 -0.73450968757E+00  0.88913298871E+01  0.45035845885E+01  0.99938744263E+01  0.51100000000E-03 0.  1.
         12    1    3    3    0    0  0.29568860539E+01  0.40698930956E+01  0.25388883618E+01  0.56349941490E+01  0.00000000000E+00 0. -1.
</event>
<event>
 7    1  0.2395003E-008  0.4614232E+02  0.7816164E-02  0.1320468E+00
        -11   -1    0    0    0    0  0.00000000000E+00  0.00000000000E+00  0.45593999997E+02  0.45594000000E+02  0.51100000000E-03 0. -1.
         11   -1    0    0    0    0 -0.00000000000E+00 -0.00000000000E+00 -0.45593999997E+02  0.45594000000E+02  0.51100000000E-03 0.  1.
    9900012    2    1    2    0    0  0.34056529534E+02  0.17847407910E+02 -0.23467772142E+02  0.46142317606E+02  0.99999985858E+01 0.  0.
         12    1    1    2    0    0 -0.34056529534E+02 -0.17847407910E+02  0.23467772142E+02  0.45045682394E+02  0.00000000000E+00 0. -1.
         11    1    3    3    0    0  0.94771043291E+01  0.76166546775E+01 -0.11253815303E+02  0.16567356279E+02  0.51100000000E-03 0. -1.
        -11    1    3    3    0    0  0.95428083382E+01  0.57221273857E+01 -0.37582151256E+01  0.11744450349E+02  0.51100000000E-03 0.  1.
         12    1    3    3    0    0  0.15036616867E+02  0.45086258471E+01 -0.84557417137E+01  0.17830510979E+02  0.00000000000E+00 0. -1.
</event>
<event>
 7    1  0.2395003E-008  0.4614232E+02  0.7816164E-02  0.1320468E+00
        -11   -1    0    0    0    0  0.00000000000E+00  0.00000000000E+00  0.45593999997E+02  0.45594000000E+02  0.51100000000E-03 0.  1.
         11   -1    0    0    0    0 -0.00000000000E+00 -0.00000000000E+00 -0.45593999997E+02  0.45594000000E+02  0.51100000000E-03 0. -1.
    9900012    2    1    2    0    0 -0.13230962047E+02  0.53274203617E+01  0.42727903833E+02  0.46142317295E+02  0.99999957518E+01 0.  0.
         12    1    1    2    0    0  0.13230962047E+02 -0.53274203617E+01 -0.42727903833E+02  0.45045682705E+02  0.00000000000E+00 0. -1.
         11    1    3    3    0    0 -0.26346752435E+01  0.15474381523E+01  0.38185377530E+01  0.48905326199E+01  0.51100000000E-03 0.  1.
        -11    1    3    3    0    0 -0.35907836505E+01  0.51994029749E+00  0.36158981596E+01  0.51223807843E+01  0.51100000000E-03 0. -1.
        -12    1    3    3    0    0 -0.70055031533E+01  0.32600419119E+01  0.35293467920E+02  0.36129403891E+02  0.00000000000E+00 0.  1.
</event>
<event>
 7    1  0.2395003E-008  0.4614232E+02  0.7816164E-02  0.1320468E+00
        -11   -1    0    0    0    0  0.00000000000E+00  0.00000000000E+00  0.45593999997E+02  0.45594000000E+02  0.51100000000E-03 0.  1.
         11   -1    0    0    0    0 -0.00000000000E+00 -0.00000000000E+00 -0.45593999997E+02  0.45594000000E+02  0.51100000000E-03 0. -1.
    9900012    2    1    2    0    0  0.30364160972E+01  0.19260207771E+02  0.40607118110E+02  0.46142317995E+02  0.10000002133E+02 0.  0.
         12    1    1    2    0    0 -0.30364160972E+01 -0.19260207771E+02 -0.40607118110E+02  0.45045682005E+02  0.00000000000E+00 0. -1.
         11    1    3    3    0    0  0.23281345205E+00  0.12527198217E+00 -0.23724809717E-02  0.26438809118E+00  0.51100000000E-03 0. -1.
        -11    1    3    3    0    0  0.33932312549E+01  0.92657344557E+01  0.11595882346E+02  0.15226041541E+02  0.51100000000E-03 0.  1.
         12    1    3    3    0    0 -0.58962860972E+00  0.98692013330E+01  0.29013608245E+02  0.30651888363E+02  0.00000000000E+00 0. -1.
</event>
<event>
 7    1  0.2395003E-008  0.4614232E+02  0.7816164E-02  0.1320468E+00
        -11   -1    0    0    0    0  0.00000000000E+00  0.00000000000E+00  0.45593999997E+02  0.45594000000E+02  0.51100000000E-03 0.  1.
         11   -1    0    0    0    0 -0.00000000000E+00 -0.00000000000E+00 -0.45593999997E+02  0.45594000000E+02  0.51100000000E-03 0. -1.
    9900012    2    1    2    0    0  0.28405958777E+02 -0.10037876931E+02  0.33488147523E+02  0.46142317723E+02  0.99999996481E+01 0.  0.
         12    1    1    2    0    0 -0.28405958777E+02  0.10037876931E+02 -0.33488147523E+02  0.45045682277E+02  0.00000000000E+00 0. -1.
         11    1    3    3    0    0  0.43514530348E+01 -0.24193136350E+01  0.10631104709E+02  0.11739191181E+02  0.51100000000E-03 0. -1.
        -11    1    3    3    0    0  0.19213749216E+02 -0.80823088622E+01  0.18798199584E+02  0.28068918456E+02  0.51100000000E-03 0.  1.
         12    1    3    3    0    0  0.48407565270E+01  0.46374556654E+00  0.40588432300E+01  0.63342080854E+01  0.00000000000E+00 0. -1.
</event>
<event>
 7    1  0.2395003E-008  0.4614232E+02  0.7816164E-02  0.1320468E+00
        -11   -1    0    0    0    0  0.00000000000E+00  0.00000000000E+00  0.45593999997E+02  0.45594000000E+02  0.51100000000E-03 0.  1.
         11   -1    0    0    0    0 -0.00000000000E+00 -0.00000000000E+00 -0.45593999997E+02  0.45594000000E+02  0.51100000000E-03 0. -1.
    9900012    2    1    2    0    0  0.10190979506E+02  0.10472289533E+02  0.42609723085E+02  0.46142318601E+02  0.10000007655E+02 0.  0.
         12    1    1    2    0    0 -0.10190979506E+02 -0.10472289533E+02 -0.42609723085E+02  0.45045681399E+02  0.00000000000E+00 0. -1.
         11    1    3    3    0    0 -0.10145742527E+01 -0.29699351189E+00  0.54459263785E+01  0.55475832974E+01  0.51100000000E-03 0. -1.
        -11    1    3    3    0    0  0.15747550656E+01  0.46831286074E+01  0.11198244873E+02  0.12239780863E+02  0.51100000000E-03 0.  1.
         12    1    3    3    0    0  0.96307986928E+01  0.60861544372E+01  0.25965551833E+02  0.28354954440E+02  0.00000000000E+00 0. -1.
</event>
<event>
 7    1  0.2395003E-008  0.4614232E+02  0.7816164E-02  0.1320468E+00
        -11   -1    0    0    0    0  0.00000000000E+00  0.00000000000E+00  0.45593999997E+02  0.45594000000E+02  0.51100000000E-03 0. -1.
         11   -1    0    0    0    0 -0.00000000000E+00 -0.00000000000E+00 -0.45593999997E+02  0.45594000000E+02  0.51100000000E-03 0.  1.
    9900012    2    1    2    0    0  0.17177637029E+02  0.15074542395E+02 -0.38817521950E+02  0.46142322597E+02  0.10000044101E+02 0.  0.
         12    1    1    2    0    0 -0.17177637029E+02 -0.15074542395E+02  0.38817521950E+02  0.45045677403E+02  0.00000000000E+00 0. -1.
         11    1    3    3    0    0  0.39302949306E+00  0.22197872577E+00  0.53963845350E+00  0.70353156200E+00  0.51100000000E-03 0.  1.
        -11    1    3    3    0    0  0.11462208551E+01  0.36402758096E+00 -0.10379626140E+01  0.15886173163E+01  0.51100000000E-03 0. -1.
        -12    1    3    3    0    0  0.15638386681E+02  0.14488536088E+02 -0.38319197790E+02  0.43850173719E+02  0.00000000000E+00 0.  1.
</event>
<event>
 7    1  0.2395003E-008  0.4614232E+02  0.7816164E-02  0.1320468E+00
        -11   -1    0    0    0    0  0.00000000000E+00  0.00000000000E+00  0.45593999997E+02  0.45594000000E+02  0.51100000000E-03 0.  1.
         11   -1    0    0    0    0 -0.00000000000E+00 -0.00000000000E+00 -0.45593999997E+02  0.45594000000E+02  0.51100000000E-03 0. -1.
    9900012    2    1    2    0    0  0.42040263862E+02  0.15718785456E+02  0.38274474882E+01  0.46142319230E+02  0.10000013393E+02 0.  0.
         12    1    1    2    0    0 -0.42040263862E+02 -0.15718785456E+02 -0.38274474882E+01  0.45045680770E+02  0.00000000000E+00 0. -1.
         11    1    3    3    0    0  0.94120137700E+01  0.24362907834E+01 -0.51996386680E+00  0.97361120922E+01  0.51100000000E-03 0. -1.
        -11    1    3    3    0    0  0.99995042712E+01  0.71782320563E+01  0.40775975904E+01  0.12967031406E+02  0.51100000000E-03 0.  1.
        -12    1    3    3    0    0  0.22628745820E+02  0.61042626165E+01  0.26981376452E+00  0.23439175731E+02  0.00000000000E+00 0.  1.
</event>
<event>
 7    1  0.2395003E-008  0.4614232E+02  0.7816164E-02  0.1320468E+00
        -11   -1    0    0    0    0  0.00000000000E+00  0.00000000000E+00  0.45593999997E+02  0.45594000000E+02  0.51100000000E-03 0. -1.
         11   -1    0    0    0    0 -0.00000000000E+00 -0.00000000000E+00 -0.45593999997E+02  0.45594000000E+02  0.51100000000E-03 0.  1.
    9900012    2    1    2    0    0 -0.15735387381E+02 -0.36047020450E+02 -0.21957306988E+02  0.46142318414E+02  0.10000005956E+02 0.  0.
         12    1    1    2    0    0  0.15735387381E+02  0.36047020450E+02  0.21957306988E+02  0.45045681586E+02  0.00000000000E+00 0. -1.
         11    1    3    3    0    0 -0.27308676105E+01 -0.37179018387E+01 -0.54860232610E+01  0.71677669793E+01  0.51100000000E-03 0. -1.
        -11    1    3    3    0    0 -0.85322963346E+01 -0.26583551911E+02 -0.14348127198E+02  0.31390349907E+02  0.51100000000E-03 0.  1.
         12    1    3    3    0    0 -0.44722234355E+01 -0.57455667004E+01 -0.21231565292E+01  0.75842015277E+01  0.00000000000E+00 0. -1.
</event>
<event>
 7    1  0.2395003E-008  0.4614232E+02  0.7816164E-02  0.1320468E+00
        -11   -1    0    0    0    0  0.00000000000E+00  0.00000000000E+00  0.45593999997E+02  0.45594000000E+02  0.51100000000E-03 0. -1.
         11   -1    0    0    0    0 -0.00000000000E+00 -0.00000000000E+00 -0.45593999997E+02  0.45594000000E+02  0.51100000000E-03 0.  1.
    9900012    2    1    2    0    0  0.24123843383E+01  0.89051023153E+01 -0.44090736609E+02  0.46142317630E+02  0.99999988070E+01 0.  0.
         12    1    1    2    0    0 -0.24123843383E+01 -0.89051023153E+01  0.44090736609E+02  0.45045682370E+02  0.00000000000E+00 0. -1.
         11    1    3    3    0    0  0.49541703787E+00 -0.60293749826E+00 -0.12725417883E+01  0.14927607083E+01  0.51100000000E-03 0. -1.
        -11    1    3    3    0    0 -0.13593378067E+00  0.47558983735E+01 -0.70286499456E+01  0.84875772545E+01  0.51100000000E-03 0.  1.
        -12    1    3    3    0    0  0.20529010811E+01  0.47521414400E+01 -0.35789544875E+02  0.36161979668E+02  0.00000000000E+00 0.  1.
</event>
<event>
 7    1  0.2395003E-008  0.4614232E+02  0.7816164E-02  0.1320468E+00
        -11   -1    0    0    0    0  0.00000000000E+00  0.00000000000E+00  0.45593999997E+02  0.45594000000E+02  0.51100000000E-03 0.  1.
         11   -1    0    0    0    0 -0.00000000000E+00 -0.00000000000E+00 -0.45593999997E+02  0.45594000000E+02  0.51100000000E-03 0. -1.
    9900012    2    1    2    0    0  0.43247055513E+02 -0.30615885306E+01  0.12224253857E+02  0.46142317440E+02  0.99999970735E+01 0.  0.
         12    1    1    2    0    0 -0.43247055513E+02  0.30615885306E+01 -0.12224253857E+02  0.45045682560E+02  0.00000000000E+00 0. -1.
         11    1    3    3    0    0  0.18987328407E+02  0.13696971773E+01  0.19865772825E+01  0.19140041796E+02  0.51100000000E-03 0. -1.
        -11    1    3    3    0    0  0.65059139210E+01 -0.11421208774E+01  0.87457997746E+00  0.66630508361E+01  0.51100000000E-03 0.  1.
        -12    1    3    3    0    0  0.17753813186E+02 -0.32891648305E+01  0.93630965971E+01  0.20339224808E+02  0.00000000000E+00 0.  1.
</event>
<event>
 7    1  0.2395003E-008  0.4614232E+02  0.7816164E-02  0.1320468E+00
        -11   -1    0    0    0    0  0.00000000000E+00  0.00000000000E+00  0.45593999997E+02  0.45594000000E+02  0.51100000000E-03 0.  1.
         11   -1    0    0    0    0 -0.00000000000E+00 -0.00000000000E+00 -0.45593999997E+02  0.45594000000E+02  0.51100000000E-03 0. -1.
    9900012    2    1    2    0    0  0.29847210967E+02 -0.23274058913E+02  0.24424897628E+02  0.46142318243E+02  0.10000004396E+02 0.  0.
         12    1    1    2    0    0 -0.29847210967E+02  0.23274058913E+02 -0.24424897628E+02  0.45045681757E+02  0.00000000000E+00 0. -1.
         11    1    3    3    0    0  0.51294276874E+00 -0.39223985929E+00 -0.43879012561E+00  0.78070444259E+00  0.51100000000E-03 0. -1.
        -11    1    3    3    0    0  0.10705376466E+02 -0.13014251308E+02  0.10586323024E+02  0.19900905955E+02  0.51100000000E-03 0.  1.
        -12    1    3    3    0    0  0.18628891732E+02 -0.98675677454E+01  0.14277364730E+02  0.25460707846E+02  0.00000000000E+00 0.  1.
</event>
<event>
 7    1  0.2395003E-008  0.4614232E+02  0.7816164E-02  0.1320468E+00
        -11   -1    0    0    0    0  0.00000000000E+00  0.00000000000E+00  0.45593999997E+02  0.45594000000E+02  0.51100000000E-03 0. -1.
         11   -1    0    0    0    0 -0.00000000000E+00 -0.00000000000E+00 -0.45593999997E+02  0.45594000000E+02  0.51100000000E-03 0.  1.
    9900012    2    1    2    0    0  0.34419242664E+02  0.27669819378E+02 -0.88775227424E+01  0.46142316744E+02  0.99999907264E+01 0.  0.
         12    1    1    2    0    0 -0.34419242664E+02 -0.27669819378E+02  0.88775227424E+01  0.45045683256E+02  0.00000000000E+00 0. -1.
         11    1    3    3    0    0  0.10026434304E+02  0.83637025579E+01 -0.31186006967E+01  0.13424104286E+02  0.51100000000E-03 0. -1.
        -11    1    3    3    0    0  0.22589889386E+02  0.20014490856E+02 -0.48119114664E+01  0.30562026093E+02  0.51100000000E-03 0.  1.
         12    1    3    3    0    0  0.18029189738E+01 -0.70837403612E+00 -0.94701057924E+00  0.21561863645E+01  0.00000000000E+00 0. -1.
</event>
<event>
 7    1  0.2395003E-008  0.4614232E+02  0.7816164E-02  0.1320468E+00
        -11   -1    0    0    0    0  0.00000000000E+00  0.00000000000E+00  0.45593999997E+02  0.45594000000E+02  0.51100000000E-03 0.  1.
         11   -1    0    0    0    0 -0.00000000000E+00 -0.00000000000E+00 -0.45593999997E+02  0.45594000000E+02  0.51100000000E-03 0. -1.
    9900012    2    1    2    0    0 -0.20325934998E+02  0.39083254771E+02 -0.94057988964E+01  0.46142317744E+02  0.99999998450E+01 0.  0.
         12    1    1    2    0    0  0.20325934998E+02 -0.39083254771E+02  0.94057988964E+01  0.45045682256E+02  0.00000000000E+00 0. -1.
         11    1    3    3    0    0 -0.23732838330E+01  0.21419856199E+01  0.22136149504E+00  0.32046184984E+01  0.51100000000E-03 0. -1.
        -11    1    3    3    0    0 -0.10538593350E+02  0.22438466757E+02 -0.17687821900E+01  0.24853074878E+02  0.51100000000E-03 0.  1.
         12    1    3    3    0    0 -0.74140578150E+01  0.14502802394E+02 -0.78583782015E+01  0.18084624368E+02  0.00000000000E+00 0. -1.
</event>
<event>
 7    1  0.2395003E-008  0.4614232E+02  0.7816164E-02  0.1320468E+00
        -11   -1    0    0    0    0  0.00000000000E+00  0.00000000000E+00  0.45593999997E+02  0.45594000000E+02  0.51100000000E-03 0.  1.
         11   -1    0    0    0    0 -0.00000000000E+00 -0.00000000000E+00 -0.45593999997E+02  0.45594000000E+02  0.51100000000E-03 0. -1.
    9900012    2    1    2    0    0  0.31648124588E+02  0.31541627004E+02  0.57127650155E+01  0.46142315322E+02  0.99999777611E+01 0.  0.
         12    1    1    2    0    0 -0.31648124588E+02 -0.31541627004E+02 -0.57127650155E+01  0.45045684678E+02  0.00000000000E+00 0. -1.
         11    1    3    3    0    0  0.57442758517E+01  0.90910965760E+01  0.48395342994E+01  0.11792617797E+02  0.51100000000E-03 0. -1.
        -11    1    3    3    0    0  0.11179352481E+02  0.92216602585E+01  0.13059136620E+01  0.14550682134E+02  0.51100000000E-03 0.  1.
        -12    1    3    3    0    0  0.14724496255E+02  0.13228870169E+02 -0.43268294593E+00  0.19799015391E+02  0.00000000000E+00 0.  1.
</event>
<event>
 7    1  0.2395003E-008  0.4614232E+02  0.7816164E-02  0.1320468E+00
        -11   -1    0    0    0    0  0.00000000000E+00  0.00000000000E+00  0.45593999997E+02  0.45594000000E+02  0.51100000000E-03 0.  1.
         11   -1    0    0    0    0 -0.00000000000E+00 -0.00000000000E+00 -0.45593999997E+02  0.45594000000E+02  0.51100000000E-03 0. -1.
    9900012    2    1    2    0    0 -0.20411456551E+02  0.17491628242E+02  0.36145938797E+02  0.46142317536E+02  0.99999979508E+01 0.  0.
         12    1    1    2    0    0  0.20411456551E+02 -0.17491628242E+02 -0.36145938797E+02  0.45045682464E+02  0.00000000000E+00 0. -1.
         11    1    3    3    0    0 -0.18242154936E+01  0.32690201574E+01  0.85074335283E+01  0.92946587057E+01  0.51100000000E-03 0. -1.
        -11    1    3    3    0    0 -0.16839813335E+02  0.14719986162E+02  0.26604797636E+02  0.34757338265E+02  0.51100000000E-03 0.  1.
        -12    1    3    3    0    0 -0.17474277225E+01 -0.49737807699E+00  0.10337076325E+01  0.20903205655E+01  0.00000000000E+00 0.  1.
</event>
<event>
 7    1  0.2395003E-008  0.4614232E+02  0.7816164E-02  0.1320468E+00
        -11   -1    0    0    0    0  0.00000000000E+00  0.00000000000E+00  0.45593999997E+02  0.45594000000E+02  0.51100000000E-03 0.  1.
         11   -1    0    0    0    0 -0.00000000000E+00 -0.00000000000E+00 -0.45593999997E+02  0.45594000000E+02  0.51100000000E-03 0. -1.
    9900012    2    1    2    0    0  0.11069412100E+02  0.21023782560E+02  0.38269861097E+02  0.46142316681E+02  0.99999901462E+01 0.  0.
         12    1    1    2    0    0 -0.11069412100E+02 -0.21023782560E+02 -0.38269861097E+02  0.45045683319E+02  0.00000000000E+00 0. -1.
         11    1    3    3    0    0  0.54701341425E+00  0.68804276784E+01  0.14245404986E+02  0.15829436888E+02  0.51100000000E-03 0. -1.
        -11    1    3    3    0    0  0.28624931211E+01  0.85042134773E+01  0.11592272094E+02  0.14659341264E+02  0.51100000000E-03 0.  1.
        -12    1    3    3    0    0  0.76599055649E+01  0.56391414040E+01  0.12432184016E+02  0.15653538528E+02  0.00000000000E+00 0.  1.
</event>
<event>
 7    1  0.2395003E-008  0.4614232E+02  0.7816164E-02  0.1320468E+00
        -11   -1    0    0    0    0  0.00000000000E+00  0.00000000000E+00  0.45593999997E+02  0.45594000000E+02  0.51100000000E-03 0.  1.
         11   -1    0    0    0    0 -0.00000000000E+00 -0.00000000000E+00 -0.45593999997E+02  0.45594000000E+02  0.51100000000E-03 0. -1.
    9900012    2    1    2    0    0 -0.49273649438E+01 -0.12523605674E+02  0.42988298735E+02  0.46142318159E+02  0.10000003628E+02 0.  0.
         12    1    1    2    0    0  0.49273649438E+01  0.12523605674E+02 -0.42988298735E+02  0.45045681841E+02  0.00000000000E+00 0. -1.
         11    1    3    3    0    0 -0.17632421708E+01 -0.69967404073E+01  0.13008170482E+02  0.14875345335E+02  0.51100000000E-03 0. -1.
        -11    1    3    3    0    0  0.16826606635E+01 -0.26132666714E+01  0.13143110514E+02  0.13505623416E+02  0.51100000000E-03 0.  1.
         12    1    3    3    0    0 -0.48467834365E+01 -0.29135985950E+01  0.16837017739E+02  0.17761349408E+02  0.00000000000E+00 0. -1.
</event>
<event>
 7    1  0.2395003E-008  0.4614232E+02  0.7816164E-02  0.1320468E+00
        -11   -1    0    0    0    0  0.00000000000E+00  0.00000000000E+00  0.45593999997E+02  0.45594000000E+02  0.51100000000E-03 0.  1.
         11   -1    0    0    0    0 -0.00000000000E+00 -0.00000000000E+00 -0.45593999997E+02  0.45594000000E+02  0.51100000000E-03 0. -1.
    9900012    2    1    2    0    0  0.80721346227E+01  0.51900475080E+01  0.44011562105E+02  0.46142317083E+02  0.99999938161E+01 0.  0.
         12    1    1    2    0    0 -0.80721346227E+01 -0.51900475080E+01 -0.44011562105E+02  0.45045682917E+02  0.00000000000E+00 0. -1.
         11    1    3    3    0    0  0.50013205171E+00  0.29026542542E+01  0.18841861954E+02  0.19070692067E+02  0.51100000000E-03 0. -1.
        -11    1    3    3    0    0  0.43419529812E+01  0.11516488501E+01  0.21834520105E+02  0.22291817315E+02  0.51100000000E-03 0.  1.
         12    1    3    3    0    0  0.32300495899E+01  0.11357444037E+01  0.33351800473E+01  0.47798077002E+01  0.00000000000E+00 0. -1.
</event>
<event>
 7    1  0.2395003E-008  0.4614232E+02  0.7816164E-02  0.1320468E+00
        -11   -1    0    0    0    0  0.00000000000E+00  0.00000000000E+00  0.45593999997E+02  0.45594000000E+02  0.51100000000E-03 0. -1.
         11   -1    0    0    0    0 -0.00000000000E+00 -0.00000000000E+00 -0.45593999997E+02  0.45594000000E+02  0.51100000000E-03 0.  1.
    9900012    2    1    2    0    0  0.34740241161E+02 -0.25577144617E+02 -0.12962968170E+02  0.46142320668E+02  0.10000026508E+02 0.  0.
         12    1    1    2    0    0 -0.34740241161E+02  0.25577144617E+02  0.12962968170E+02  0.45045679332E+02  0.00000000000E+00 0. -1.
         11    1    3    3    0    0  0.14934108737E+02 -0.11193746656E+02 -0.17725955327E+01  0.18747524187E+02  0.51100000000E-03 0. -1.
        -11    1    3    3    0    0  0.64586800221E+01 -0.71934344912E+01 -0.27887499688E+01  0.10061668552E+02  0.51100000000E-03 0.  1.
         12    1    3    3    0    0  0.13347452403E+02 -0.71899634700E+01 -0.84016226684E+01  0.17333127929E+02  0.00000000000E+00 0. -1.
</event>
<event>
 7    1  0.2395003E-008  0.4614232E+02  0.7816164E-02  0.1320468E+00
        -11   -1    0    0    0    0  0.00000000000E+00  0.00000000000E+00  0.45593999997E+02  0.45594000000E+02  0.51100000000E-03 0.  1.
         11   -1    0    0    0    0 -0.00000000000E+00 -0.00000000000E+00 -0.45593999997E+02  0.45594000000E+02  0.51100000000E-03 0. -1.
    9900012    2    1    2    0    0  0.27704883063E+02 -0.25378891063E+02  0.24848840299E+02  0.46142317395E+02  0.99999966631E+01 0.  0.
         12    1    1    2    0    0 -0.27704883063E+02  0.25378891063E+02 -0.24848840299E+02  0.45045682605E+02  0.00000000000E+00 0. -1.
         11    1    3    3    0    0  0.78445475219E+01 -0.31026883895E+01  0.31862752472E+01  0.90175357652E+01  0.51100000000E-03 0. -1.
        -11    1    3    3    0    0  0.42266557819E+00 -0.17854066341E-01 -0.88150701790E-01  0.43212933946E+00  0.51100000000E-03 0.  1.
        -12    1    3    3    0    0  0.19437669963E+02 -0.22258348607E+02  0.21750715754E+02  0.36692652290E+02  0.00000000000E+00 0.  1.
</event>
<event>
 7    1  0.2395003E-008  0.4614232E+02  0.7816164E-02  0.1320468E+00
        -11   -1    0    0    0    0  0.00000000000E+00  0.00000000000E+00  0.45593999997E+02  0.45594000000E+02  0.51100000000E-03 0.  1.
         11   -1    0    0    0    0 -0.00000000000E+00 -0.00000000000E+00 -0.45593999997E+02  0.45594000000E+02  0.51100000000E-03 0. -1.
    9900012    2    1    2    0    0 -0.23192026109E+02  0.26755925336E+02  0.27845356113E+02  0.46142317935E+02  0.10000001585E+02 0.  0.
         12    1    1    2    0    0  0.23192026109E+02 -0.26755925336E+02 -0.27845356113E+02  0.45045682065E+02  0.00000000000E+00 0. -1.
         11    1    3    3    0    0 -0.37401350417E+01  0.21393522794E+01  0.48424456889E+01  0.64818761803E+01  0.51100000000E-03 0. -1.
        -11    1    3    3    0    0 -0.18919035111E+02  0.21637987918E+02  0.22688443357E+02  0.36618272391E+02  0.51100000000E-03 0.  1.
         12    1    3    3    0    0 -0.53285595582E+00  0.29785851392E+01  0.31446706716E+00  0.30421693637E+01  0.00000000000E+00 0. -1.
</event>
<event>
 7    1  0.2395003E-008  0.4614232E+02  0.7816164E-02  0.1320468E+00
        -11   -1    0    0    0    0  0.00000000000E+00  0.00000000000E+00  0.45593999997E+02  0.45594000000E+02  0.51100000000E-03 0. -1.
         11   -1    0    0    0    0 -0.00000000000E+00 -0.00000000000E+00 -0.45593999997E+02  0.45594000000E+02  0.51100000000E-03 0.  1.
    9900012    2    1    2    0    0 -0.25852354047E+02 -0.36530097375E+02 -0.51304348544E+01  0.46142316680E+02  0.99999901396E+01 0.  0.
         12    1    1    2    0    0  0.25852354047E+02  0.36530097375E+02  0.51304348544E+01  0.45045683320E+02  0.00000000000E+00 0. -1.
         11    1    3    3    0    0 -0.70575166287E+01 -0.65237355984E+01  0.23975031038E+01  0.99053363656E+01  0.51100000000E-03 0. -1.
        -11    1    3    3    0    0 -0.14188852639E+02 -0.21318431958E+02 -0.51810551122E+01  0.26127426446E+02  0.51100000000E-03 0.  1.
         12    1    3    3    0    0 -0.46059847792E+01 -0.86879298189E+01 -0.23468828461E+01  0.10109553868E+02  0.00000000000E+00 0. -1.
</event>
<event>
 7    1  0.2395003E-008  0.4614232E+02  0.7816164E-02  0.1320468E+00
        -11   -1    0    0    0    0  0.00000000000E+00  0.00000000000E+00  0.45593999997E+02  0.45594000000E+02  0.51100000000E-03 0.  1.
         11   -1    0    0    0    0 -0.00000000000E+00 -0.00000000000E+00 -0.45593999997E+02  0.45594000000E+02  0.51100000000E-03 0. -1.
    9900012    2    1    2    0    0  0.39020718978E+02 -0.75548938739E+01  0.21199542014E+02  0.46142317492E+02  0.99999975440E+01 0.  0.
         12    1    1    2    0    0 -0.39020718978E+02  0.75548938739E+01 -0.21199542014E+02  0.45045682508E+02  0.00000000000E+00 0. -1.
         11    1    3    3    0    0  0.13449508095E+02 -0.27334305283E+01  0.11609510136E+02  0.17976140751E+02  0.51100000000E-03 0. -1.
        -11    1    3    3    0    0  0.20754641084E+02 -0.43981245477E+01  0.97044123837E+01  0.23329685940E+02  0.51100000000E-03 0.  1.
         12    1    3    3    0    0  0.48165697996E+01 -0.42333879789E+00 -0.11438050529E+00  0.48364908015E+01  0.00000000000E+00 0. -1.
</event>
<event>
 7    1  0.2395003E-008  0.4614232E+02  0.7816164E-02  0.1320468E+00
        -11   -1    0    0    0    0  0.00000000000E+00  0.00000000000E+00  0.45593999997E+02  0.45594000000E+02  0.51100000000E-03 0.  1.
         11   -1    0    0    0    0 -0.00000000000E+00 -0.00000000000E+00 -0.45593999997E+02  0.45594000000E+02  0.51100000000E-03 0. -1.
    9900012    2    1    2    0    0 -0.40907106436E+02  0.32076823152E+01  0.18585826312E+02  0.46142317382E+02  0.99999965461E+01 0.  0.
         12    1    1    2    0    0  0.40907106436E+02 -0.32076823152E+01 -0.18585826312E+02  0.45045682618E+02  0.00000000000E+00 0. -1.
         11    1    3    3    0    0 -0.17292314062E+02  0.80701577939E+00  0.13153454053E+02  0.21741406438E+02  0.51100000000E-03 0. -1.
        -11    1    3    3    0    0 -0.18609076630E+01  0.60994305422E+00  0.34594933684E+00  0.19886400037E+01  0.51100000000E-03 0.  1.
        -12    1    3    3    0    0 -0.21753884711E+02  0.17907234816E+01  0.50864229219E+01  0.22412270941E+02  0.00000000000E+00 0.  1.
</event>
<event>
 7    1  0.2395003E-008  0.4614232E+02  0.7816164E-02  0.1320468E+00
        -11   -1    0    0    0    0  0.00000000000E+00  0.00000000000E+00  0.45593999997E+02  0.45594000000E+02  0.51100000000E-03 0. -1.
         11   -1    0    0    0    0 -0.00000000000E+00 -0.00000000000E+00 -0.45593999997E+02  0.45594000000E+02  0.51100000000E-03 0.  1.
    9900012    2    1    2    0    0 -0.38119639560E+02  0.14148986148E+02 -0.19385881846E+02  0.46142321582E+02  0.10000034840E+02 0.  0.
         12    1    1    2    0    0  0.38119639560E+02 -0.14148986148E+02  0.19385881846E+02  0.45045678418E+02  0.00000000000E+00 0. -1.
         11    1    3    3    0    0 -0.16394473211E+01  0.11164534097E+01 -0.30638083195E+00  0.20070189859E+01  0.51100000000E-03 0. -1.
        -11    1    3    3    0    0 -0.50776133737E+01 -0.12020749595E+01 -0.36144854090E+01  0.63475701504E+01  0.51100000000E-03 0.  1.
        -12    1    3    3    0    0 -0.31402578865E+02  0.14234607698E+02 -0.15465015605E+02  0.37787732445E+02  0.00000000000E+00 0.  1.
</event>
<event>
 7    1  0.2395003E-008  0.4614232E+02  0.7816164E-02  0.1320468E+00
        -11   -1    0    0    0    0  0.00000000000E+00  0.00000000000E+00  0.45593999997E+02  0.45594000000E+02  0.51100000000E-03 0.  1.
         11   -1    0    0    0    0 -0.00000000000E+00 -0.00000000000E+00 -0.45593999997E+02  0.45594000000E+02  0.51100000000E-03 0. -1.
    9900012    2    1    2    0    0  0.63899493886E+01 -0.31755380472E+02  0.31303000400E+02  0.46142317897E+02  0.10000001237E+02 0.  0.
         12    1    1    2    0    0 -0.63899493886E+01  0.31755380472E+02 -0.31303000400E+02  0.45045682103E+02  0.00000000000E+00 0. -1.
         11    1    3    3    0    0 -0.64570641022E+00 -0.41143721607E+00  0.11420267703E+00  0.77411876578E+00  0.51100000000E-03 0. -1.
        -11    1    3    3    0    0  0.33670558887E+01 -0.26178187496E+02  0.22960076539E+02  0.34982848381E+02  0.51100000000E-03 0.  1.
         12    1    3    3    0    0  0.36685999101E+01 -0.51657557598E+01  0.82287211839E+01  0.10385350750E+02  0.00000000000E+00 0. -1.
</event>
<event>
 7    1  0.2395003E-008  0.4614232E+02  0.7816164E-02  0.1320468E+00
        -11   -1    0    0    0    0  0.00000000000E+00  0.00000000000E+00  0.45593999997E+02  0.45594000000E+02  0.51100000000E-03 0. -1.
         11   -1    0    0    0    0 -0.00000000000E+00 -0.00000000000E+00 -0.45593999997E+02  0.45594000000E+02  0.51100000000E-03 0.  1.
    9900012    2    1    2    0    0  0.18784429186E+02  0.34651382183E+02 -0.21806889574E+02  0.46142317633E+02  0.99999988304E+01 0.  0.
         12    1    1    2    0    0 -0.18784429186E+02 -0.34651382183E+02  0.21806889574E+02  0.45045682367E+02  0.00000000000E+00 0. -1.
         11    1    3    3    0    0  0.69625443763E+01  0.19854459631E+02 -0.12895063129E+02  0.24677099603E+02  0.51100000000E-03 0. -1.
        -11    1    3    3    0    0  0.69169499853E+01  0.86300028022E+01 -0.25802187078E+01  0.11356877841E+02  0.51100000000E-03 0.  1.
         12    1    3    3    0    0  0.49049348244E+01  0.61669197491E+01 -0.63316077381E+01  0.10108340189E+02  0.00000000000E+00 0. -1.
</event>
<event>
 7    1  0.2395003E-008  0.4614232E+02  0.7816164E-02  0.1320468E+00
        -11   -1    0    0    0    0  0.00000000000E+00  0.00000000000E+00  0.45593999997E+02  0.45594000000E+02  0.51100000000E-03 0. -1.
         11   -1    0    0    0    0 -0.00000000000E+00 -0.00000000000E+00 -0.45593999997E+02  0.45594000000E+02  0.51100000000E-03 0.  1.
    9900012    2    1    2    0    0 -0.30405197055E+02  0.19133664378E+02  0.27176103509E+02  0.46142315163E+02  0.99999763114E+01 0.  0.
         12    1    1    2    0    0  0.30405197055E+02 -0.19133664378E+02 -0.27176103509E+02  0.45045684837E+02  0.00000000000E+00 0. -1.
         11    1    3    3    0    0 -0.13102304266E+02  0.67651557525E+01  0.92537592637E+01  0.17408899167E+02  0.51100000000E-03 0.  1.
        -11    1    3    3    0    0 -0.12082374609E+02  0.55959751794E+01  0.76086852409E+01  0.15335931852E+02  0.51100000000E-03 0. -1.
         12    1    3    3    0    0 -0.52205181793E+01  0.67725334462E+01  0.10313659004E+02  0.13397484144E+02  0.00000000000E+00 0. -1.
</event>
<event>
 7    1  0.2395003E-008  0.4614232E+02  0.7816164E-02  0.1320468E+00
        -11   -1    0    0    0    0  0.00000000000E+00  0.00000000000E+00  0.45593999997E+02  0.45594000000E+02  0.51100000000E-03 0. -1.
         11   -1    0    0    0    0 -0.00000000000E+00 -0.00000000000E+00 -0.45593999997E+02  0.45594000000E+02  0.51100000000E-03 0.  1.
    9900012    2    1    2    0    0 -0.96705211869E+01  0.30872454998E+01 -0.43886938660E+02  0.46142318190E+02  0.10000003913E+02 0.  0.
         12    1    1    2    0    0  0.96705211869E+01 -0.30872454998E+01  0.43886938660E+02  0.45045681810E+02  0.00000000000E+00 0. -1.
         11    1    3    3    0    0  0.65270893767E+00  0.21526507737E+01 -0.28845658929E+01  0.36579577584E+01  0.51100000000E-03 0. -1.
        -11    1    3    3    0    0 -0.25094610147E+01  0.16416800058E+01 -0.16045432403E+02  0.16323247504E+02  0.51100000000E-03 0.  1.
        -12    1    3    3    0    0 -0.78137691099E+01 -0.70708527970E+00 -0.24956940364E+02  0.26161112927E+02  0.00000000000E+00 0.  1.
</event>
<event>
 7    1  0.2395003E-008  0.4614232E+02  0.7816164E-02  0.1320468E+00
        -11   -1    0    0    0    0  0.00000000000E+00  0.00000000000E+00  0.45593999997E+02  0.45594000000E+02  0.51100000000E-03 0.  1.
         11   -1    0    0    0    0 -0.00000000000E+00 -0.00000000000E+00 -0.45593999997E+02  0.45594000000E+02  0.51100000000E-03 0. -1.
    9900012    2    1    2    0    0  0.16091698586E+02 -0.20533567084E+02  0.36722517113E+02  0.46142318701E+02  0.10000008573E+02 0.  0.
         12    1    1    2    0    0 -0.16091698586E+02  0.20533567084E+02 -0.36722517113E+02  0.45045681299E+02  0.00000000000E+00 0. -1.
         11    1    3    3    0    0  0.51320694602E+01 -0.17872011428E+01  0.71391068689E+01  0.89721275078E+01  0.51100000000E-03 0. -1.
        -11    1    3    3    0    0  0.10986819153E+02 -0.18394563374E+02  0.26553328030E+02  0.34119633447E+02  0.51100000000E-03 0.  1.
         12    1    3    3    0    0 -0.27190027287E-01 -0.35180256783E+00  0.30300822135E+01  0.30505577465E+01  0.00000000000E+00 0. -1.
</event>
<event>
 7    1  0.2395003E-008  0.4614232E+02  0.7816164E-02  0.1320468E+00
        -11   -1    0    0    0    0  0.00000000000E+00  0.00000000000E+00  0.45593999997E+02  0.45594000000E+02  0.51100000000E-03 0. -1.
         11   -1    0    0    0    0 -0.00000000000E+00 -0.00000000000E+00 -0.45593999997E+02  0.45594000000E+02  0.51100000000E-03 0.  1.
    9900012    2    1    2    0    0 -0.25103394127E+02 -0.36321548512E+02  0.89262640237E+01  0.46142317938E+02  0.10000001614E+02 0.  0.
         12    1    1    2    0    0  0.25103394127E+02  0.36321548512E+02 -0.89262640237E+01  0.45045682062E+02  0.00000000000E+00 0. -1.
         11    1    3    3    0    0 -0.10187659499E+02 -0.22702340170E+02  0.38594772820E+01  0.25180949553E+02  0.51100000000E-03 0. -1.
        -11    1    3    3    0    0 -0.58390371756E+01 -0.50167270602E+01  0.31144811195E+01  0.83043301018E+01  0.51100000000E-03 0.  1.
        -12    1    3    3    0    0 -0.90766974532E+01 -0.86024812818E+01  0.19523056222E+01  0.12657038283E+02  0.00000000000E+00 0.  1.
</event>
<event>
 7    1  0.2395003E-008  0.4614232E+02  0.7816164E-02  0.1320468E+00
        -11   -1    0    0    0    0  0.00000000000E+00  0.00000000000E+00  0.45593999997E+02  0.45594000000E+02  0.51100000000E-03 0. -1.
         11   -1    0    0    0    0 -0.00000000000E+00 -0.00000000000E+00 -0.45593999997E+02  0.45594000000E+02  0.51100000000E-03 0.  1.
    9900012    2    1    2    0    0  0.39077236759E+01  0.38306199762E+02 -0.23376874475E+02  0.46142317580E+02  0.99999983475E+01 0.  0.
         12    1    1    2    0    0 -0.39077236759E+01 -0.38306199762E+02  0.23376874475E+02  0.45045682420E+02  0.00000000000E+00 0. -1.
         11    1    3    3    0    0  0.23579374943E+00 -0.14949862686E+00 -0.44529684309E-01  0.28272192276E+00  0.51100000000E-03 0. -1.
        -11    1    3    3    0    0  0.10143752861E+01  0.79836926074E+01 -0.12745784979E+01  0.81481811148E+01  0.51100000000E-03 0.  1.
        -12    1    3    3    0    0  0.26575546403E+01  0.30472005781E+02 -0.22057766292E+02  0.37711414542E+02  0.00000000000E+00 0.  1.
</event>
<event>
 7    1  0.2395003E-008  0.4614231E+02  0.7816164E-02  0.1320468E+00
        -11   -1    0    0    0    0  0.00000000000E+00  0.00000000000E+00  0.45593999997E+02  0.45594000000E+02  0.51100000000E-03 0. -1.
         11   -1    0    0    0    0 -0.00000000000E+00 -0.00000000000E+00 -0.45593999997E+02  0.45594000000E+02  0.51100000000E-03 0.  1.
    9900012    2    1    2    0    0 -0.23222629397E+02 -0.10664805216E+02 -0.37095623830E+02  0.46142313262E+02  0.99999589708E+01 0.  0.
         12    1    1    2    0    0  0.23222629397E+02  0.10664805216E+02  0.37095623830E+02  0.45045686738E+02  0.00000000000E+00 0. -1.
         11    1    3    3    0    0 -0.36143818653E+01 -0.61188229322E+01 -0.89242575806E+01  0.11408160411E+02  0.51100000000E-03 0. -1.
        -11    1    3    3    0    0 -0.71140320323E+00 -0.58803138492E+00 -0.20860384702E+01  0.22811032829E+01  0.51100000000E-03 0.  1.
         12    1    3    3    0    0 -0.18896844328E+02 -0.39579508987E+01 -0.26085327779E+02  0.32453049567E+02  0.00000000000E+00 0. -1.
</event>
<event>
 7    1  0.2395003E-008  0.4614231E+02  0.7816164E-02  0.1320468E+00
        -11   -1    0    0    0    0  0.00000000000E+00  0.00000000000E+00  0.45593999997E+02  0.45594000000E+02  0.51100000000E-03 0.  1.
         11   -1    0    0    0    0 -0.00000000000E+00 -0.00000000000E+00 -0.45593999997E+02  0.45594000000E+02  0.51100000000E-03 0. -1.
    9900012    2    1    2    0    0 -0.22569706158E+02  0.33582917842E+02  0.19796719529E+02  0.46142310850E+02  0.99999369815E+01 0.  0.
         12    1    1    2    0    0  0.22569706158E+02 -0.33582917842E+02 -0.19796719529E+02  0.45045689150E+02  0.00000000000E+00 0. -1.
         11    1    3    3    0    0 -0.34129986000E+01  0.67079052140E+01  0.45793143703E+00  0.75401759439E+01  0.51100000000E-03 0. -1.
        -11    1    3    3    0    0 -0.16858133389E+02  0.21180601822E+02  0.14058923951E+02  0.30503571886E+02  0.51100000000E-03 0.  1.
        -12    1    3    3    0    0 -0.22985741689E+01  0.56944108061E+01  0.52798641412E+01  0.80985630200E+01  0.00000000000E+00 0.  1.
</event>
<event>
 7    1  0.2395003E-008  0.4614232E+02  0.7816164E-02  0.1320468E+00
        -11   -1    0    0    0    0  0.00000000000E+00  0.00000000000E+00  0.45593999997E+02  0.45594000000E+02  0.51100000000E-03 0.  1.
         11   -1    0    0    0    0 -0.00000000000E+00 -0.00000000000E+00 -0.45593999997E+02  0.45594000000E+02  0.51100000000E-03 0. -1.
    9900012    2    1    2    0    0  0.83200654728E+01  0.90760974792E+01  0.43330295700E+02  0.46142316962E+02  0.99999927130E+01 0.  0.
         12    1    1    2    0    0 -0.83200654728E+01 -0.90760974792E+01 -0.43330295700E+02  0.45045683038E+02  0.00000000000E+00 0. -1.
         11    1    3    3    0    0 -0.11514741825E+01  0.16162503143E+01  0.11802350443E+02  0.11968025489E+02  0.51100000000E-03 0. -1.
        -11    1    3    3    0    0  0.26686820187E+01  0.54290758571E+01  0.13237367746E+02  0.14554196422E+02  0.51100000000E-03 0.  1.
        -12    1    3    3    0    0  0.68028576366E+01  0.20307713078E+01  0.18290577511E+02  0.19620095051E+02  0.00000000000E+00 0.  1.
</event>
<event>
 7    1  0.2395003E-008  0.4614232E+02  0.7816164E-02  0.1320468E+00
        -11   -1    0    0    0    0  0.00000000000E+00  0.00000000000E+00  0.45593999997E+02  0.45594000000E+02  0.51100000000E-03 0.  1.
         11   -1    0    0    0    0 -0.00000000000E+00 -0.00000000000E+00 -0.45593999997E+02  0.45594000000E+02  0.51100000000E-03 0. -1.
    9900012    2    1    2    0    0 -0.18226244716E+02  0.30522480622E+02  0.27663979029E+02  0.46142317016E+02  0.99999932077E+01 0.  0.
         12    1    1    2    0    0  0.18226244716E+02 -0.30522480622E+02 -0.27663979029E+02  0.45045682984E+02  0.00000000000E+00 0. -1.
         11    1    3    3    0    0 -0.19809505884E+01  0.25902152475E+01  0.14462910530E+01  0.35672311858E+01  0.51100000000E-03 0. -1.
        -11    1    3    3    0    0 -0.16384481384E+02  0.27962466018E+02  0.23938543195E+02  0.40291495214E+02  0.51100000000E-03 0.  1.
         12    1    3    3    0    0  0.13918725603E+00 -0.30200643655E-01  0.22791447808E+01  0.22835906163E+01  0.00000000000E+00 0. -1.
</event>
<event>
 7    1  0.2395003E-008  0.4614232E+02  0.7816164E-02  0.1320468E+00
        -11   -1    0    0    0    0  0.00000000000E+00  0.00000000000E+00  0.45593999997E+02  0.45594000000E+02  0.51100000000E-03 0. -1.
         11   -1    0    0    0    0 -0.00000000000E+00 -0.00000000000E+00 -0.45593999997E+02  0.45594000000E+02  0.51100000000E-03 0.  1.
    9900012    2    1    2    0    0  0.17492321893E+02  0.81564507880E+01 -0.40701405037E+02  0.46142318890E+02  0.10000010294E+02 0.  0.
         12    1    1    2    0    0 -0.17492321893E+02 -0.81564507880E+01  0.40701405037E+02  0.45045681110E+02  0.00000000000E+00 0. -1.
         11    1    3    3    0    0 -0.64966139325E+00 -0.79939250050E-01 -0.45792955595E+00  0.79884288125E+00  0.51100000000E-03 0. -1.
        -11    1    3    3    0    0  0.61643561015E+01  0.41233051913E+00 -0.83401150812E+01  0.10379153262E+02  0.51100000000E-03 0.  1.
         12    1    3    3    0    0  0.11977627185E+02  0.78240595189E+01 -0.31903360400E+02  0.34964322747E+02  0.00000000000E+00 0. -1.
</event>
<event>
 7    1  0.2395003E-008  0.4614232E+02  0.7816164E-02  0.1320468E+00
        -11   -1    0    0    0    0  0.00000000000E+00  0.00000000000E+00  0.45593999997E+02  0.45594000000E+02  0.51100000000E-03 0.  1.
         11   -1    0    0    0    0 -0.00000000000E+00 -0.00000000000E+00 -0.45593999997E+02  0.45594000000E+02  0.51100000000E-03 0. -1.
    9900012    2    1    2    0    0  0.43251719536E+02 -0.11139218000E+02  0.58583366347E+01  0.46142317314E+02  0.99999959254E+01 0.  0.
         12    1    1    2    0    0 -0.43251719536E+02  0.11139218000E+02 -0.58583366347E+01  0.45045682686E+02  0.00000000000E+00 0. -1.
         11    1    3    3    0    0  0.20861861851E+02 -0.65076129486E+01  0.26558540026E+01  0.22014083377E+02  0.51100000000E-03 0. -1.
        -11    1    3    3    0    0  0.39326281695E+01 -0.13775785756E+01 -0.20784900864E+01  0.46565446795E+01  0.51100000000E-03 0.  1.
        -12    1    3    3    0    0  0.18457229516E+02 -0.32540264760E+01  0.52809727186E+01  0.19471689258E+02  0.00000000000E+00 0.  1.
</event>
<event>
 7    1  0.2395003E-008  0.4614232E+02  0.7816164E-02  0.1320468E+00
        -11   -1    0    0    0    0  0.00000000000E+00  0.00000000000E+00  0.45593999997E+02  0.45594000000E+02  0.51100000000E-03 0.  1.
         11   -1    0    0    0    0 -0.00000000000E+00 -0.00000000000E+00 -0.45593999997E+02  0.45594000000E+02  0.51100000000E-03 0. -1.
    9900012    2    1    2    0    0 -0.44293496590E+01 -0.24059805861E+02  0.37823539487E+02  0.46142317235E+02  0.99999952009E+01 0.  0.
         12    1    1    2    0    0  0.44293496590E+01  0.24059805861E+02 -0.37823539487E+02  0.45045682765E+02  0.00000000000E+00 0. -1.
         11    1    3    3    0    0 -0.38684829173E+01 -0.49258353901E+01  0.10115478369E+02  0.11897559298E+02  0.51100000000E-03 0. -1.
        -11    1    3    3    0    0  0.57712167233E-01 -0.11045943203E+02  0.20962618834E+02  0.23694885114E+02  0.51100000000E-03 0.  1.
        -12    1    3    3    0    0 -0.61857890891E+00 -0.80880272681E+01  0.67454422841E+01  0.10549872822E+02  0.00000000000E+00 0.  1.
</event>
<event>
 7    1  0.2395003E-008  0.4614232E+02  0.7816164E-02  0.1320468E+00
        -11   -1    0    0    0    0  0.00000000000E+00  0.00000000000E+00  0.45593999997E+02  0.45594000000E+02  0.51100000000E-03 0.  1.
         11   -1    0    0    0    0 -0.00000000000E+00 -0.00000000000E+00 -0.45593999997E+02  0.45594000000E+02  0.51100000000E-03 0. -1.
    9900012    2    1    2    0    0 -0.77274611760E+01 -0.18271480443E+02  0.40441968445E+02  0.46142318015E+02  0.10000002313E+02 0.  0.
         12    1    1    2    0    0  0.77274611760E+01  0.18271480443E+02 -0.40441968445E+02  0.45045681985E+02  0.00000000000E+00 0. -1.
         11    1    3    3    0    0 -0.73036521076E+01 -0.49202052259E+01  0.16846838665E+02  0.19009674559E+02  0.51100000000E-03 0. -1.
        -11    1    3    3    0    0 -0.16094859645E+00 -0.53796298364E+01  0.10519882649E+02  0.11816693820E+02  0.51100000000E-03 0.  1.
         12    1    3    3    0    0 -0.26286047198E+00 -0.79716453806E+01  0.13075247131E+02  0.15315949636E+02  0.00000000000E+00 0. -1.
</event>
<event>
 7    1  0.2395003E-008  0.4614232E+02  0.7816164E-02  0.1320468E+00
        -11   -1    0    0    0    0  0.00000000000E+00  0.00000000000E+00  0.45593999997E+02  0.45594000000E+02  0.51100000000E-03 0.  1.
         11   -1    0    0    0    0 -0.00000000000E+00 -0.00000000000E+00 -0.45593999997E+02  0.45594000000E+02  0.51100000000E-03 0. -1.
    9900012    2    1    2    0    0  0.78103248639E+00 -0.34723048540E+01  0.44904863337E+02  0.46142315811E+02  0.99999822151E+01 0.  0.
         12    1    1    2    0    0 -0.78103248639E+00  0.34723048540E+01 -0.44904863337E+02  0.45045684189E+02  0.00000000000E+00 0. -1.
         11    1    3    3    0    0  0.21021511597E+01  0.54957649501E+00  0.10667051439E+02  0.10886094823E+02  0.51100000000E-03 0. -1.
        -11    1    3    3    0    0 -0.36814675250E+00  0.58807636736E+00 -0.25207592500E-02  0.69381010411E+00  0.51100000000E-03 0.  1.
        -12    1    3    3    0    0 -0.95297192079E+00 -0.46099577164E+01  0.34240332657E+02  0.34562410884E+02  0.00000000000E+00 0.  1.
</event>
<event>
 7    1  0.2395003E-008  0.4614232E+02  0.7816164E-02  0.1320468E+00
        -11   -1    0    0    0    0  0.00000000000E+00  0.00000000000E+00  0.45593999997E+02  0.45594000000E+02  0.51100000000E-03 0. -1.
         11   -1    0    0    0    0 -0.00000000000E+00 -0.00000000000E+00 -0.45593999997E+02  0.45594000000E+02  0.51100000000E-03 0.  1.
    9900012    2    1    2    0    0  0.40776695792E+02  0.92120595255E+00 -0.19118734257E+02  0.46142317191E+02  0.99999948030E+01 0.  0.
         12    1    1    2    0    0 -0.40776695792E+02 -0.92120595255E+00  0.19118734257E+02  0.45045682809E+02  0.00000000000E+00 0. -1.
         11    1    3    3    0    0  0.19808537845E+02  0.38525057963E+01 -0.72358568561E+01  0.21437761011E+02  0.51100000000E-03 0. -1.
        -11    1    3    3    0    0  0.73933989678E+01  0.52631496442E+00 -0.58939400144E+01  0.94698408061E+01  0.51100000000E-03 0.  1.
        -12    1    3    3    0    0  0.13574758979E+02 -0.34576148081E+01 -0.59889373868E+01  0.15234715374E+02  0.00000000000E+00 0.  1.
</event>
<event>
 7    1  0.2395003E-008  0.4614232E+02  0.7816164E-02  0.1320468E+00
        -11   -1    0    0    0    0  0.00000000000E+00  0.00000000000E+00  0.45593999997E+02  0.45594000000E+02  0.51100000000E-03 0.  1.
         11   -1    0    0    0    0 -0.00000000000E+00 -0.00000000000E+00 -0.45593999997E+02  0.45594000000E+02  0.51100000000E-03 0. -1.
    9900012    2    1    2    0    0 -0.14612347428E+02  0.33850474259E+02  0.25879303618E+02  0.46142315848E+02  0.99999825581E+01 0.  0.
         12    1    1    2    0    0  0.14612347428E+02 -0.33850474259E+02 -0.25879303618E+02  0.45045684152E+02  0.00000000000E+00 0. -1.
         11    1    3    3    0    0 -0.73271297064E+00 -0.13469185648E+00  0.74124228734E+00  0.10509284387E+01  0.51100000000E-03 0. -1.
        -11    1    3    3    0    0 -0.73656278974E+01  0.94575325698E+01  0.93572994805E+01  0.15207118414E+02  0.51100000000E-03 0.  1.
        -12    1    3    3    0    0 -0.65140065598E+01  0.24527633546E+02  0.15780761850E+02  0.29884268996E+02  0.00000000000E+00 0.  1.
</event>
<event>
 7    1  0.2395003E-008  0.4614232E+02  0.7816164E-02  0.1320468E+00
        -11   -1    0    0    0    0  0.00000000000E+00  0.00000000000E+00  0.45593999997E+02  0.45594000000E+02  0.51100000000E-03 0. -1.
         11   -1    0    0    0    0 -0.00000000000E+00 -0.00000000000E+00 -0.45593999997E+02  0.45594000000E+02  0.51100000000E-03 0.  1.
    9900012    2    1    2    0    0  0.44260226950E+02  0.52605070646E+01  0.65171167752E+01  0.46142318350E+02  0.10000005371E+02 0.  0.
         12    1    1    2    0    0 -0.44260226950E+02 -0.52605070646E+01 -0.65171167752E+01  0.45045681650E+02  0.00000000000E+00 0. -1.
         11    1    3    3    0    0  0.54222348326E+01 -0.17838542406E+00 -0.17888093698E+01  0.57124680447E+01  0.51100000000E-03 0. -1.
        -11    1    3    3    0    0  0.30719329642E+02  0.63632848216E+01  0.60058298544E+01  0.31941174053E+02  0.51100000000E-03 0.  1.
        -12    1    3    3    0    0  0.81186624749E+01 -0.92439233301E+00  0.23000962906E+01  0.84886762521E+01  0.00000000000E+00 0.  1.
</event>
<event>
 7    1  0.2395003E-008  0.4614232E+02  0.7816164E-02  0.1320468E+00
        -11   -1    0    0    0    0  0.00000000000E+00  0.00000000000E+00  0.45593999997E+02  0.45594000000E+02  0.51100000000E-03 0.  1.
         11   -1    0    0    0    0 -0.00000000000E+00 -0.00000000000E+00 -0.45593999997E+02  0.45594000000E+02  0.51100000000E-03 0. -1.
    9900012    2    1    2    0    0 -0.20509968117E+02  0.31176250250E+02  0.25228875877E+02  0.46142317079E+02  0.99999937815E+01 0.  0.
         12    1    1    2    0    0  0.20509968117E+02 -0.31176250250E+02 -0.25228875877E+02  0.45045682921E+02  0.00000000000E+00 0. -1.
         11    1    3    3    0    0 -0.16208610504E+02  0.24909919481E+02  0.19488691230E+02  0.35539164722E+02  0.51100000000E-03 0. -1.
        -11    1    3    3    0    0 -0.21580751138E+01  0.21837382858E+01 -0.20781251386E+00  0.30772044780E+01  0.51100000000E-03 0.  1.
         12    1    3    3    0    0 -0.21432824993E+01  0.40825924824E+01  0.59479971610E+01  0.75259478790E+01  0.00000000000E+00 0. -1.
</event>
<event>
 7    1  0.2395003E-008  0.4614232E+02  0.7816164E-02  0.1320468E+00
        -11   -1    0    0    0    0  0.00000000000E+00  0.00000000000E+00  0.45593999997E+02  0.45594000000E+02  0.51100000000E-03 0.  1.
         11   -1    0    0    0    0 -0.00000000000E+00 -0.00000000000E+00 -0.45593999997E+02  0.45594000000E+02  0.51100000000E-03 0. -1.
    9900012    2    1    2    0    0  0.27694845019E+02 -0.35395810441E+02  0.30406769567E+01  0.46142317035E+02  0.99999933789E+01 0.  0.
         12    1    1    2    0    0 -0.27694845019E+02  0.35395810441E+02 -0.30406769567E+01  0.45045682965E+02  0.00000000000E+00 0. -1.
         11    1    3    3    0    0  0.59197385857E+00  0.40236031750E-01 -0.70568129176E+00  0.92197523510E+00  0.51100000000E-03 0. -1.
        -11    1    3    3    0    0  0.19764691148E+02 -0.27168494986E+02  0.15633474450E+00  0.33597538255E+02  0.51100000000E-03 0.  1.
         12    1    3    3    0    0  0.73381800124E+01 -0.82675514876E+01  0.35900235039E+01  0.11622803545E+02  0.00000000000E+00 0. -1.
</event>
<event>
 7    1  0.2395003E-008  0.4614232E+02  0.7816164E-02  0.1320468E+00
        -11   -1    0    0    0    0  0.00000000000E+00  0.00000000000E+00  0.45593999997E+02  0.45594000000E+02  0.51100000000E-03 0. -1.
         11   -1    0    0    0    0 -0.00000000000E+00 -0.00000000000E+00 -0.45593999997E+02  0.45594000000E+02  0.51100000000E-03 0.  1.
    9900012    2    1    2    0    0  0.20825186158E+01  0.15930802495E+02 -0.42083084660E+02  0.46142319115E+02  0.10000012342E+02 0.  0.
         12    1    1    2    0    0 -0.20825186158E+01 -0.15930802495E+02  0.42083084660E+02  0.45045680885E+02  0.00000000000E+00 0. -1.
         11    1    3    3    0    0  0.11111396291E+01  0.13483596054E+02 -0.28619488955E+02  0.31656233858E+02  0.51100000000E-03 0. -1.
        -11    1    3    3    0    0  0.11287799210E+00  0.22384132311E+01 -0.13415308733E+02  0.13601240527E+02  0.51100000000E-03 0.  1.
         12    1    3    3    0    0  0.85850099463E+00  0.20879320987E+00 -0.48286973109E-01  0.88484472878E+00  0.00000000000E+00 0. -1.
</event>
<event>
 7    1  0.2395003E-008  0.4614232E+02  0.7816164E-02  0.1320468E+00
        -11   -1    0    0    0    0  0.00000000000E+00  0.00000000000E+00  0.45593999997E+02  0.45594000000E+02  0.51100000000E-03 0.  1.
         11   -1    0    0    0    0 -0.00000000000E+00 -0.00000000000E+00 -0.45593999997E+02  0.45594000000E+02  0.51100000000E-03 0. -1.
    9900012    2    1    2    0    0  0.39373681805E+02 -0.15080234971E+02  0.15856012100E+02  0.46142318460E+02  0.10000006374E+02 0.  0.
         12    1    1    2    0    0 -0.39373681805E+02  0.15080234971E+02 -0.15856012100E+02  0.45045681540E+02  0.00000000000E+00 0. -1.
         11    1    3    3    0    0  0.20458273317E+02 -0.51417608413E+01  0.72747171234E+01  0.22313676549E+02  0.51100000000E-03 0. -1.
        -11    1    3    3    0    0  0.49036793232E+01  0.11655095831E+00  0.27493938077E+01  0.56230615861E+01  0.51100000000E-03 0.  1.
         12    1    3    3    0    0  0.14011729166E+02 -0.10055025088E+02  0.58319011686E+01  0.18205580325E+02  0.00000000000E+00 0. -1.
</event>
<event>
 7    1  0.2395003E-008  0.4614232E+02  0.7816164E-02  0.1320468E+00
        -11   -1    0    0    0    0  0.00000000000E+00  0.00000000000E+00  0.45593999997E+02  0.45594000000E+02  0.51100000000E-03 0. -1.
         11   -1    0    0    0    0 -0.00000000000E+00 -0.00000000000E+00 -0.45593999997E+02  0.45594000000E+02  0.51100000000E-03 0.  1.
    9900012    2    1    2    0    0 -0.35288479086E+02  0.26416526585E+02  0.92738200535E+01  0.46142319060E+02  0.10000011841E+02 0.  0.
         12    1    1    2    0    0  0.35288479086E+02 -0.26416526585E+02 -0.92738200535E+01  0.45045680940E+02  0.00000000000E+00 0. -1.
         11    1    3    3    0    0 -0.64348563669E+01  0.11792774884E+01  0.22720730387E+01  0.69253438912E+01  0.51100000000E-03 0. -1.
        -11    1    3    3    0    0 -0.61575336118E+01  0.65181444663E+01 -0.37989388588E-01  0.89667647967E+01  0.51100000000E-03 0.  1.
        -12    1    3    3    0    0 -0.22696089107E+02  0.18719104630E+02  0.70397364033E+01  0.30250210372E+02  0.00000000000E+00 0.  1.
</event>
<event>
 7    1  0.2395003E-008  0.4614232E+02  0.7816164E-02  0.1320468E+00
        -11   -1    0    0    0    0  0.00000000000E+00  0.00000000000E+00  0.45593999997E+02  0.45594000000E+02  0.51100000000E-03 0.  1.
         11   -1    0    0    0    0 -0.00000000000E+00 -0.00000000000E+00 -0.45593999997E+02  0.45594000000E+02  0.51100000000E-03 0. -1.
    9900012    2    1    2    0    0 -0.19120410602E+02 -0.39672305022E+02 -0.94673926187E+01  0.46142318627E+02  0.10000007894E+02 0.  0.
         12    1    1    2    0    0  0.19120410602E+02  0.39672305022E+02  0.94673926187E+01  0.45045681373E+02  0.00000000000E+00 0. -1.
         11    1    3    3    0    0 -0.85742849346E-01 -0.18995970293E+01  0.13081467214E+01  0.23080443704E+01  0.51100000000E-03 0. -1.
        -11    1    3    3    0    0 -0.23881580637E+01 -0.72283658973E+01 -0.30489979741E+01  0.82005464081E+01  0.51100000000E-03 0.  1.
        -12    1    3    3    0    0 -0.16646509689E+02 -0.30544342096E+02 -0.77265413661E+01  0.35633727848E+02  0.00000000000E+00 0.  1.
</event>
<event>
 7    1  0.2395003E-008  0.4614232E+02  0.7816164E-02  0.1320468E+00
        -11   -1    0    0    0    0  0.00000000000E+00  0.00000000000E+00  0.45593999997E+02  0.45594000000E+02  0.51100000000E-03 0.  1.
         11   -1    0    0    0    0 -0.00000000000E+00 -0.00000000000E+00 -0.45593999997E+02  0.45594000000E+02  0.51100000000E-03 0. -1.
    9900012    2    1    2    0    0 -0.14822558042E+02  0.13973184603E+02  0.40176552707E+02  0.46142317607E+02  0.99999985966E+01 0.  0.
         12    1    1    2    0    0  0.14822558042E+02 -0.13973184603E+02 -0.40176552707E+02  0.45045682393E+02  0.00000000000E+00 0. -1.
         11    1    3    3    0    0 -0.63402167420E+01  0.10437969865E+02  0.25152068500E+02  0.27960259536E+02  0.51100000000E-03 0.  1.
        -11    1    3    3    0    0 -0.46472258041E+01  0.39480873939E+01  0.70335541992E+01  0.93088660254E+01  0.51100000000E-03 0. -1.
         12    1    3    3    0    0 -0.38351154956E+01 -0.41287265624E+00  0.79909300074E+01  0.88731920456E+01  0.00000000000E+00 0. -1.
</event>
<event>
 7    1  0.2395003E-008  0.4614231E+02  0.7816164E-02  0.1320468E+00
        -11   -1    0    0    0    0  0.00000000000E+00  0.00000000000E+00  0.45593999997E+02  0.45594000000E+02  0.51100000000E-03 0.  1.
         11   -1    0    0    0    0 -0.00000000000E+00 -0.00000000000E+00 -0.45593999997E+02  0.45594000000E+02  0.51100000000E-03 0. -1.
    9900012    2    1    2    0    0 -0.24165368751E+02  0.25167765015E+02  0.28490916535E+02  0.46142314661E+02  0.99999717285E+01 0.  0.
         12    1    1    2    0    0  0.24165368751E+02 -0.25167765015E+02 -0.28490916535E+02  0.45045685339E+02  0.00000000000E+00 0. -1.
         11    1    3    3    0    0 -0.26417363454E+01  0.24004526843E+01  0.72410889108E+01  0.80730609365E+01  0.51100000000E-03 0. -1.
        -11    1    3    3    0    0 -0.65194805423E+00  0.90254329971E+00 -0.11329766017E-01  0.11134402983E+01  0.51100000000E-03 0.  1.
        -12    1    3    3    0    0 -0.20871684351E+02  0.21864769031E+02  0.21261157390E+02  0.36955813426E+02  0.00000000000E+00 0.  1.
</event>
<event>
 7    1  0.2395003E-008  0.4614232E+02  0.7816164E-02  0.1320468E+00
        -11   -1    0    0    0    0  0.00000000000E+00  0.00000000000E+00  0.45593999997E+02  0.45594000000E+02  0.51100000000E-03 0. -1.
         11   -1    0    0    0    0 -0.00000000000E+00 -0.00000000000E+00 -0.45593999997E+02  0.45594000000E+02  0.51100000000E-03 0.  1.
    9900012    2    1    2    0    0  0.18518335683E+02 -0.18896401918E+02 -0.36456971627E+02  0.46142317164E+02  0.99999945589E+01 0.  0.
         12    1    1    2    0    0 -0.18518335683E+02  0.18896401918E+02  0.36456971627E+02  0.45045682836E+02  0.00000000000E+00 0. -1.
         11    1    3    3    0    0  0.41197262369E+01 -0.42036531105E+01 -0.32290232152E+01  0.67133773115E+01  0.51100000000E-03 0. -1.
        -11    1    3    3    0    0  0.10077854122E+01 -0.35924599235E+01 -0.74451114636E+01  0.83277298651E+01  0.51100000000E-03 0.  1.
         12    1    3    3    0    0  0.13390824034E+02 -0.11100288884E+02 -0.25782836948E+02  0.31101209988E+02  0.00000000000E+00 0. -1.
</event>
<event>
 7    1  0.2395003E-008  0.4614232E+02  0.7816164E-02  0.1320468E+00
        -11   -1    0    0    0    0  0.00000000000E+00  0.00000000000E+00  0.45593999997E+02  0.45594000000E+02  0.51100000000E-03 0.  1.
         11   -1    0    0    0    0 -0.00000000000E+00 -0.00000000000E+00 -0.45593999997E+02  0.45594000000E+02  0.51100000000E-03 0. -1.
    9900012    2    1    2    0    0 -0.18229505227E+02 -0.22985414789E+02  0.34182880242E+02  0.46142318126E+02  0.10000003325E+02 0.  0.
         12    1    1    2    0    0  0.18229505227E+02  0.22985414789E+02 -0.34182880242E+02  0.45045681874E+02  0.00000000000E+00 0. -1.
         11    1    3    3    0    0  0.32063849549E+00  0.10991887269E+00  0.34864025429E-01  0.34074472080E+00  0.51100000000E-03 0. -1.
        -11    1    3    3    0    0 -0.69148434069E+01 -0.38458408546E+01  0.10721829071E+02  0.13325283115E+02  0.51100000000E-03 0.  1.
        -12    1    3    3    0    0 -0.11635300316E+02 -0.19249492807E+02  0.23426187146E+02  0.32476290290E+02  0.00000000000E+00 0.  1.
</event>
<event>
 7    1  0.2395003E-008  0.4614232E+02  0.7816164E-02  0.1320468E+00
        -11   -1    0    0    0    0  0.00000000000E+00  0.00000000000E+00  0.45593999997E+02  0.45594000000E+02  0.51100000000E-03 0.  1.
         11   -1    0    0    0    0 -0.00000000000E+00 -0.00000000000E+00 -0.45593999997E+02  0.45594000000E+02  0.51100000000E-03 0. -1.
    9900012    2    1    2    0    0 -0.21313267038E+02  0.36268426582E+02  0.16107740947E+02  0.46142318332E+02  0.10000005205E+02 0.  0.
         12    1    1    2    0    0  0.21313267038E+02 -0.36268426582E+02 -0.16107740947E+02  0.45045681668E+02  0.00000000000E+00 0. -1.
         11    1    3    3    0    0 -0.11254867673E+02  0.20356872662E+02  0.97254682195E+01  0.25212279612E+02  0.51100000000E-03 0. -1.
        -11    1    3    3    0    0 -0.68777722705E+01  0.14391946665E+02  0.33920760875E+01  0.16307607448E+02  0.51100000000E-03 0.  1.
         12    1    3    3    0    0 -0.31806270937E+01  0.15196072548E+01  0.29901966398E+01  0.46224312718E+01  0.00000000000E+00 0. -1.
</event>
<event>
 7    1  0.2395003E-008  0.4614232E+02  0.7816164E-02  0.1320468E+00
        -11   -1    0    0    0    0  0.00000000000E+00  0.00000000000E+00  0.45593999997E+02  0.45594000000E+02  0.51100000000E-03 0. -1.
         11   -1    0    0    0    0 -0.00000000000E+00 -0.00000000000E+00 -0.45593999997E+02  0.45594000000E+02  0.51100000000E-03 0.  1.
    9900012    2    1    2    0    0  0.21974093587E+02 -0.95665660476E+01 -0.38140969295E+02  0.46142317480E+02  0.99999974396E+01 0.  0.
         12    1    1    2    0    0 -0.21974093587E+02  0.95665660476E+01  0.38140969295E+02  0.45045682520E+02  0.00000000000E+00 0. -1.
         11    1    3    3    0    0  0.11826506066E+01 -0.10083711796E+01 -0.51004415788E+01  0.53319770679E+01  0.51100000000E-03 0. -1.
        -11    1    3    3    0    0  0.21250897747E+02 -0.91758662675E+01 -0.32334568766E+02  0.39765833505E+02  0.51100000000E-03 0.  1.
        -12    1    3    3    0    0 -0.45945476654E+00  0.61767139949E+00 -0.70595894991E+00  0.10445069072E+01  0.00000000000E+00 0.  1.
</event>
<event>
 7    1  0.2395003E-008  0.4614232E+02  0.7816164E-02  0.1320468E+00
        -11   -1    0    0    0    0  0.00000000000E+00  0.00000000000E+00  0.45593999997E+02  0.45594000000E+02  0.51100000000E-03 0.  1.
         11   -1    0    0    0    0 -0.00000000000E+00 -0.00000000000E+00 -0.45593999997E+02  0.45594000000E+02  0.51100000000E-03 0. -1.
    9900012    2    1    2    0    0 -0.31579146629E+02 -0.18712969808E+01  0.32068197184E+02  0.46142317356E+02  0.99999963080E+01 0.  0.
         12    1    1    2    0    0  0.31579146629E+02  0.18712969808E+01 -0.32068197184E+02  0.45045682644E+02  0.00000000000E+00 0. -1.
         11    1    3    3    0    0 -0.47480650661E+01  0.15940132795E+01  0.32895829941E+01  0.59921913140E+01  0.51100000000E-03 0. -1.
        -11    1    3    3    0    0 -0.19501734657E+02 -0.56245397351E+01  0.19713834648E+02  0.28294670500E+02  0.51100000000E-03 0.  1.
         12    1    3    3    0    0 -0.73293469060E+01  0.21592294749E+01  0.90647795412E+01  0.11855455543E+02  0.00000000000E+00 0. -1.
</event>
<event>
 7    1  0.2395003E-008  0.4614232E+02  0.7816164E-02  0.1320468E+00
        -11   -1    0    0    0    0  0.00000000000E+00  0.00000000000E+00  0.45593999997E+02  0.45594000000E+02  0.51100000000E-03 0.  1.
         11   -1    0    0    0    0 -0.00000000000E+00 -0.00000000000E+00 -0.45593999997E+02  0.45594000000E+02  0.51100000000E-03 0. -1.
    9900012    2    1    2    0    0 -0.29307174668E+02 -0.34110894642E+02 -0.25787139371E+01  0.46142318898E+02  0.10000010371E+02 0.  0.
         12    1    1    2    0    0  0.29307174668E+02  0.34110894642E+02  0.25787139371E+01  0.45045681102E+02  0.00000000000E+00 0. -1.
         11    1    3    3    0    0 -0.13930352484E+02 -0.17769933482E+02 -0.34424543872E+01  0.22840222169E+02  0.51100000000E-03 0.  1.
        -11    1    3    3    0    0 -0.79584362006E+01 -0.52393068838E+01 -0.17738952274E+01  0.96919424225E+01  0.51100000000E-03 0. -1.
        -12    1    3    3    0    0 -0.74183859843E+01 -0.11101654277E+02  0.26376356775E+01  0.13610154307E+02  0.00000000000E+00 0.  1.
</event>
<event>
 7    1  0.2395003E-008  0.4614232E+02  0.7816164E-02  0.1320468E+00
        -11   -1    0    0    0    0  0.00000000000E+00  0.00000000000E+00  0.45593999997E+02  0.45594000000E+02  0.51100000000E-03 0. -1.
         11   -1    0    0    0    0 -0.00000000000E+00 -0.00000000000E+00 -0.45593999997E+02  0.45594000000E+02  0.51100000000E-03 0.  1.
    9900012    2    1    2    0    0 -0.24915906073E+02  0.29071400304E+02 -0.23731090695E+02  0.46142319223E+02  0.10000013334E+02 0.  0.
         12    1    1    2    0    0  0.24915906073E+02 -0.29071400304E+02  0.23731090695E+02  0.45045680777E+02  0.00000000000E+00 0. -1.
         11    1    3    3    0    0 -0.66497510544E+01  0.57416609902E+01 -0.35253594144E+01  0.94664681521E+01  0.51100000000E-03 0. -1.
        -11    1    3    3    0    0 -0.15208764459E+02  0.13616705157E+02 -0.13008204709E+02  0.24206085303E+02  0.51100000000E-03 0.  1.
         12    1    3    3    0    0 -0.30573905595E+01  0.97130341569E+01 -0.71975265710E+01  0.12469765768E+02  0.00000000000E+00 0. -1.
</event>
<event>
 7    1  0.2395003E-008  0.4614232E+02  0.7816164E-02  0.1320468E+00
        -11   -1    0    0    0    0  0.00000000000E+00  0.00000000000E+00  0.45593999997E+02  0.45594000000E+02  0.51100000000E-03 0. -1.
         11   -1    0    0    0    0 -0.00000000000E+00 -0.00000000000E+00 -0.45593999997E+02  0.45594000000E+02  0.51100000000E-03 0.  1.
    9900012    2    1    2    0    0  0.29553420464E+02  0.36736261645E+01 -0.33796643751E+02  0.46142319639E+02  0.10000017128E+02 0.  0.
         12    1    1    2    0    0 -0.29553420464E+02 -0.36736261645E+01  0.33796643751E+02  0.45045680361E+02  0.00000000000E+00 0. -1.
         11    1    3    3    0    0  0.25341555751E+01  0.23376264157E+01 -0.34955059260E+01  0.49096846821E+01  0.51100000000E-03 0. -1.
        -11    1    3    3    0    0  0.25211708466E+02  0.30776416143E+01 -0.26786183292E+02  0.36913435729E+02  0.51100000000E-03 0.  1.
         12    1    3    3    0    0  0.18075564231E+01 -0.17416418655E+01 -0.35149545325E+01  0.43191992285E+01  0.00000000000E+00 0. -1.
</event>
<event>
 7    1  0.2395003E-008  0.4614232E+02  0.7816164E-02  0.1320468E+00
        -11   -1    0    0    0    0  0.00000000000E+00  0.00000000000E+00  0.45593999997E+02  0.45594000000E+02  0.51100000000E-03 0.  1.
         11   -1    0    0    0    0 -0.00000000000E+00 -0.00000000000E+00 -0.45593999997E+02  0.45594000000E+02  0.51100000000E-03 0. -1.
    9900012    2    1    2    0    0  0.88220047112E+01  0.83997955027E+01  0.43367370789E+02  0.46142321175E+02  0.10000031131E+02 0.  0.
         12    1    1    2    0    0 -0.88220047112E+01 -0.83997955027E+01 -0.43367370789E+02  0.45045678825E+02  0.00000000000E+00 0. -1.
         11    1    3    3    0    0  0.44862843094E+00  0.24198614559E+01  0.19280668292E+02  0.19437107989E+02  0.51100000000E-03 0. -1.
        -11    1    3    3    0    0  0.42677405277E+01  0.49090494548E+01  0.18991900187E+02  0.20074975685E+02  0.51100000000E-03 0.  1.
         12    1    3    3    0    0  0.41056357525E+01  0.10708845920E+01  0.50948023103E+01  0.66302375012E+01  0.00000000000E+00 0. -1.
</event>
<event>
 7    1  0.2395003E-008  0.4614232E+02  0.7816164E-02  0.1320468E+00
        -11   -1    0    0    0    0  0.00000000000E+00  0.00000000000E+00  0.45593999997E+02  0.45594000000E+02  0.51100000000E-03 0.  1.
         11   -1    0    0    0    0 -0.00000000000E+00 -0.00000000000E+00 -0.45593999997E+02  0.45594000000E+02  0.51100000000E-03 0. -1.
    9900012    2    1    2    0    0  0.14334563390E+02 -0.35548550450E+02  0.23662932282E+02  0.46142317512E+02  0.99999977249E+01 0.  0.
         12    1    1    2    0    0 -0.14334563390E+02  0.35548550450E+02 -0.23662932282E+02  0.45045682488E+02  0.00000000000E+00 0. -1.
         11    1    3    3    0    0  0.17528883663E+01 -0.89177169710E+01  0.28025128633E+01  0.95106452047E+01  0.51100000000E-03 0. -1.
        -11    1    3    3    0    0  0.22310084508E+01 -0.21646831774E+01  0.43742556101E+01  0.53663175800E+01  0.51100000000E-03 0.  1.
        -12    1    3    3    0    0  0.10350666573E+02 -0.24466150301E+02  0.16486163808E+02  0.31265354727E+02  0.00000000000E+00 0.  1.
</event>
<event>
 7    1  0.2395003E-008  0.4614231E+02  0.7816164E-02  0.1320468E+00
        -11   -1    0    0    0    0  0.00000000000E+00  0.00000000000E+00  0.45593999997E+02  0.45594000000E+02  0.51100000000E-03 0.  1.
         11   -1    0    0    0    0 -0.00000000000E+00 -0.00000000000E+00 -0.45593999997E+02  0.45594000000E+02  0.51100000000E-03 0. -1.
    9900012    2    1    2    0    0 -0.21418861517E+02 -0.29528455370E+02  0.26427570358E+02  0.46142314521E+02  0.99999704523E+01 0.  0.
         12    1    1    2    0    0  0.21418861517E+02  0.29528455370E+02 -0.26427570358E+02  0.45045685479E+02  0.00000000000E+00 0. -1.
         11    1    3    3    0    0 -0.13359007869E+02 -0.18114032143E+02  0.19165589649E+02  0.29561817917E+02  0.51100000000E-03 0.  1.
        -11    1    3    3    0    0 -0.81161064175E+01 -0.98852459360E+01  0.77733445828E+01  0.14967102487E+02  0.51100000000E-03 0. -1.
         12    1    3    3    0    0  0.56252769373E-01 -0.15291772919E+01 -0.51136387371E+00  0.16133941166E+01  0.00000000000E+00 0. -1.
</event>
<event>
 7    1  0.2395003E-008  0.4614232E+02  0.7816164E-02  0.1320468E+00
        -11   -1    0    0    0    0  0.00000000000E+00  0.00000000000E+00  0.45593999997E+02  0.45594000000E+02  0.51100000000E-03 0.  1.
         11   -1    0    0    0    0 -0.00000000000E+00 -0.00000000000E+00 -0.45593999997E+02  0.45594000000E+02  0.51100000000E-03 0. -1.
    9900012    2    1    2    0    0  0.22258288302E+02  0.23431802146E+02  0.31378857555E+02  0.46142318171E+02  0.10000003740E+02 0.  0.
         12    1    1    2    0    0 -0.22258288302E+02 -0.23431802146E+02 -0.31378857555E+02  0.45045681829E+02  0.00000000000E+00 0. -1.
         11    1    3    3    0    0  0.98449741225E+01  0.11949423081E+02  0.95533562279E+01  0.18192823940E+02  0.51100000000E-03 0. -1.
        -11    1    3    3    0    0  0.61987091011E+00  0.10105902111E+00  0.26533330132E+01  0.27266516482E+01  0.51100000000E-03 0.  1.
         12    1    3    3    0    0  0.11793443270E+02  0.11381320044E+02  0.19172168314E+02  0.25222842583E+02  0.00000000000E+00 0. -1.
</event>
<event>
 7    1  0.2395003E-008  0.4614232E+02  0.7816164E-02  0.1320468E+00
        -11   -1    0    0    0    0  0.00000000000E+00  0.00000000000E+00  0.45593999997E+02  0.45594000000E+02  0.51100000000E-03 0.  1.
         11   -1    0    0    0    0 -0.00000000000E+00 -0.00000000000E+00 -0.45593999997E+02  0.45594000000E+02  0.51100000000E-03 0. -1.
    9900012    2    1    2    0    0 -0.18489299830E+01 -0.73347300689E+01  0.44406043395E+02  0.46142317663E+02  0.99999991010E+01 0.  0.
         12    1    1    2    0    0  0.18489299830E+01  0.73347300689E+01 -0.44406043395E+02  0.45045682337E+02  0.00000000000E+00 0. -1.
         11    1    3    3    0    0  0.31475205791E+00  0.19114510140E+01  0.79920037235E+01  0.82234322284E+01  0.51100000000E-03 0. -1.
        -11    1    3    3    0    0 -0.17796385512E+01 -0.43750123150E+01  0.25870728733E+02  0.26298335529E+02  0.51100000000E-03 0.  1.
         12    1    3    3    0    0 -0.38404348970E+00 -0.48711687680E+01  0.10543310938E+02  0.11620549905E+02  0.00000000000E+00 0. -1.
</event>
<event>
 7    1  0.2395003E-008  0.4614232E+02  0.7816164E-02  0.1320468E+00
        -11   -1    0    0    0    0  0.00000000000E+00  0.00000000000E+00  0.45593999997E+02  0.45594000000E+02  0.51100000000E-03 0.  1.
         11   -1    0    0    0    0 -0.00000000000E+00 -0.00000000000E+00 -0.45593999997E+02  0.45594000000E+02  0.51100000000E-03 0. -1.
    9900012    2    1    2    0    0 -0.44308277503E+02 -0.81109739420E+01 -0.31958642645E+00  0.46142317754E+02  0.99999999343E+01 0.  0.
         12    1    1    2    0    0  0.44308277503E+02  0.81109739420E+01  0.31958642645E+00  0.45045682246E+02  0.00000000000E+00 0. -1.
         11    1    3    3    0    0 -0.54644176257E+01 -0.17783402529E+01  0.28839371308E+01  0.64295760108E+01  0.51100000000E-03 0. -1.
        -11    1    3    3    0    0 -0.11089649855E+02  0.10917371911E+00 -0.10336343802E+01  0.11138251797E+02  0.51100000000E-03 0.  1.
        -12    1    3    3    0    0 -0.27754210022E+02 -0.64418074081E+01 -0.21698891770E+01  0.28574489946E+02  0.00000000000E+00 0.  1.
</event>
<event>
 7    1  0.2395003E-008  0.4614232E+02  0.7816164E-02  0.1320468E+00
        -11   -1    0    0    0    0  0.00000000000E+00  0.00000000000E+00  0.45593999997E+02  0.45594000000E+02  0.51100000000E-03 0.  1.
         11   -1    0    0    0    0 -0.00000000000E+00 -0.00000000000E+00 -0.45593999997E+02  0.45594000000E+02  0.51100000000E-03 0. -1.
    9900012    2    1    2    0    0  0.37646124775E+02  0.19135039554E+01  0.24662143505E+02  0.46142317296E+02  0.99999957604E+01 0.  0.
         12    1    1    2    0    0 -0.37646124775E+02 -0.19135039554E+01 -0.24662143505E+02  0.45045682704E+02  0.00000000000E+00 0. -1.
         11    1    3    3    0    0  0.10126774838E+02 -0.32436639455E+01  0.43587850389E+01  0.11492255291E+02  0.51100000000E-03 0. -1.
        -11    1    3    3    0    0  0.17561080667E+02  0.22527997434E+01  0.12882026614E+02  0.21895508005E+02  0.51100000000E-03 0.  1.
         12    1    3    3    0    0  0.99582692712E+01  0.29043681575E+01  0.74213318522E+01  0.12754554000E+02  0.00000000000E+00 0. -1.
</event>
<event>
 7    1  0.2395003E-008  0.4614231E+02  0.7816164E-02  0.1320468E+00
        -11   -1    0    0    0    0  0.00000000000E+00  0.00000000000E+00  0.45593999997E+02  0.45594000000E+02  0.51100000000E-03 0.  1.
         11   -1    0    0    0    0 -0.00000000000E+00 -0.00000000000E+00 -0.45593999997E+02  0.45594000000E+02  0.51100000000E-03 0. -1.
    9900012    2    1    2    0    0  0.86634114090E+01  0.12808197461E+02  0.42308509454E+02  0.46142305515E+02  0.99998883260E+01 0.  0.
         12    1    1    2    0    0 -0.86634114090E+01 -0.12808197461E+02 -0.42308509454E+02  0.45045694485E+02  0.00000000000E+00 0. -1.
         11    1    3    3    0    0 -0.12282130140E-01  0.13673228529E+01  0.63726089445E-01  0.13688622686E+01  0.51100000000E-03 0. -1.
        -11    1    3    3    0    0  0.24676278518E+01  0.63209160099E+01  0.19613088313E+02  0.20753708099E+02  0.51100000000E-03 0.  1.
        -12    1    3    3    0    0  0.62080656873E+01  0.51199585980E+01  0.22631695051E+02  0.24019735147E+02  0.00000000000E+00 0.  1.
</event>
<event>
 7    1  0.2395003E-008  0.4614232E+02  0.7816164E-02  0.1320468E+00
        -11   -1    0    0    0    0  0.00000000000E+00  0.00000000000E+00  0.45593999997E+02  0.45594000000E+02  0.51100000000E-03 0. -1.
         11   -1    0    0    0    0 -0.00000000000E+00 -0.00000000000E+00 -0.45593999997E+02  0.45594000000E+02  0.51100000000E-03 0.  1.
    9900012    2    1    2    0    0 -0.28506696529E+02 -0.34806484752E+02  0.22338429984E+01  0.46142321158E+02  0.10000030976E+02 0.  0.
         12    1    1    2    0    0  0.28506696529E+02  0.34806484752E+02 -0.22338429984E+01  0.45045678842E+02  0.00000000000E+00 0. -1.
         11    1    3    3    0    0 -0.84854802400E+01 -0.78092779664E+01  0.22810291178E+01  0.11755479206E+02  0.51100000000E-03 0. -1.
        -11    1    3    3    0    0 -0.16002147253E+02 -0.16122988576E+02  0.10610173780E+01  0.22740827502E+02  0.51100000000E-03 0.  1.
        -12    1    3    3    0    0 -0.40190690359E+01 -0.10874218210E+02 -0.11082034975E+01  0.11646014450E+02  0.00000000000E+00 0.  1.
</event>
<event>
 7    1  0.2395003E-008  0.4614232E+02  0.7816164E-02  0.1320468E+00
        -11   -1    0    0    0    0  0.00000000000E+00  0.00000000000E+00  0.45593999997E+02  0.45594000000E+02  0.51100000000E-03 0.  1.
         11   -1    0    0    0    0 -0.00000000000E+00 -0.00000000000E+00 -0.45593999997E+02  0.45594000000E+02  0.51100000000E-03 0. -1.
    9900012    2    1    2    0    0 -0.93892437373E+01  0.39530912751E+02  0.19448965635E+02  0.46142320683E+02  0.10000026643E+02 0.  0.
         12    1    1    2    0    0  0.93892437373E+01 -0.39530912751E+02 -0.19448965635E+02  0.45045679317E+02  0.00000000000E+00 0. -1.
         11    1    3    3    0    0 -0.60239122053E+01  0.14188424799E+02  0.43186536539E+01  0.16007800792E+02  0.51100000000E-03 0. -1.
        -11    1    3    3    0    0 -0.20314806773E+01  0.79786482559E+01  0.24428530599E+01  0.85879725819E+01  0.51100000000E-03 0.  1.
        -12    1    3    3    0    0 -0.13338508547E+01  0.17363839695E+02  0.12687458922E+02  0.21546547309E+02  0.00000000000E+00 0.  1.
</event>
<event>
 7    1  0.2395003E-008  0.4614232E+02  0.7816164E-02  0.1320468E+00
        -11   -1    0    0    0    0  0.00000000000E+00  0.00000000000E+00  0.45593999997E+02  0.45594000000E+02  0.51100000000E-03 0. -1.
         11   -1    0    0    0    0 -0.00000000000E+00 -0.00000000000E+00 -0.45593999997E+02  0.45594000000E+02  0.51100000000E-03 0.  1.
    9900012    2    1    2    0    0 -0.30867369194E+02 -0.32764009459E+02 -0.16848808526E+01  0.46142316297E+02  0.99999866463E+01 0.  0.
         12    1    1    2    0    0  0.30867369194E+02  0.32764009459E+02  0.16848808526E+01  0.45045683703E+02  0.00000000000E+00 0. -1.
         11    1    3    3    0    0 -0.11242321368E+02 -0.16773229565E+02 -0.26057993178E+01  0.20359793961E+02  0.51100000000E-03 0. -1.
        -11    1    3    3    0    0 -0.70497200854E+01 -0.88105641907E+01  0.26891676853E+00  0.11287024016E+02  0.51100000000E-03 0.  1.
         12    1    3    3    0    0 -0.12575327741E+02 -0.71802157031E+01  0.65200169670E+00  0.14495498320E+02  0.00000000000E+00 0. -1.
</event>
<event>
 7    1  0.2395003E-008  0.4614232E+02  0.7816164E-02  0.1320468E+00
        -11   -1    0    0    0    0  0.00000000000E+00  0.00000000000E+00  0.45593999997E+02  0.45594000000E+02  0.51100000000E-03 0.  1.
         11   -1    0    0    0    0 -0.00000000000E+00 -0.00000000000E+00 -0.45593999997E+02  0.45594000000E+02  0.51100000000E-03 0. -1.
    9900012    2    1    2    0    0  0.37358560708E+02 -0.28807921152E+01  0.25003048201E+02  0.46142318290E+02  0.10000004821E+02 0.  0.
         12    1    1    2    0    0 -0.37358560708E+02  0.28807921152E+01 -0.25003048201E+02  0.45045681710E+02  0.00000000000E+00 0. -1.
         11    1    3    3    0    0  0.16250734553E+02 -0.26560300289E+00  0.11854532811E+02  0.20116830439E+02  0.51100000000E-03 0.  1.
        -11    1    3    3    0    0  0.16535093191E+02 -0.36276344904E+01  0.12992360055E+02  0.21339410931E+02  0.51100000000E-03 0. -1.
         12    1    3    3    0    0  0.45727329648E+01  0.10124453781E+01  0.15615533409E+00  0.46860769199E+01  0.00000000000E+00 0. -1.
</event>
<event>
 7    1  0.2395003E-008  0.4614232E+02  0.7816164E-02  0.1320468E+00
        -11   -1    0    0    0    0  0.00000000000E+00  0.00000000000E+00  0.45593999997E+02  0.45594000000E+02  0.51100000000E-03 0.  1.
         11   -1    0    0    0    0 -0.00000000000E+00 -0.00000000000E+00 -0.45593999997E+02  0.45594000000E+02  0.51100000000E-03 0. -1.
    9900012    2    1    2    0    0 -0.61184660851E+01  0.16004553699E+02  0.41659719494E+02  0.46142316581E+02  0.99999892418E+01 0.  0.
         12    1    1    2    0    0  0.61184660851E+01 -0.16004553699E+02 -0.41659719494E+02  0.45045683419E+02  0.00000000000E+00 0. -1.
         11    1    3    3    0    0 -0.36257319289E+00  0.41428598097E+01  0.13904328833E+02  0.14512928969E+02  0.51100000000E-03 0. -1.
        -11    1    3    3    0    0  0.17094438270E+01  0.34508138928E+01  0.84729707956E+01  0.93070698442E+01  0.51100000000E-03 0.  1.
        -12    1    3    3    0    0 -0.74653367192E+01  0.84108799964E+01  0.19282419866E+02  0.22322317768E+02  0.00000000000E+00 0.  1.
</event>
<event>
 7    1  0.2395003E-008  0.4614232E+02  0.7816164E-02  0.1320468E+00
        -11   -1    0    0    0    0  0.00000000000E+00  0.00000000000E+00  0.45593999997E+02  0.45594000000E+02  0.51100000000E-03 0.  1.
         11   -1    0    0    0    0 -0.00000000000E+00 -0.00000000000E+00 -0.45593999997E+02  0.45594000000E+02  0.51100000000E-03 0. -1.
    9900012    2    1    2    0    0  0.35241315253E+02 -0.27248945607E+02  0.66826795234E+01  0.46142317154E+02  0.99999944632E+01 0.  0.
         12    1    1    2    0    0 -0.35241315253E+02  0.27248945607E+02 -0.66826795234E+01  0.45045682846E+02  0.00000000000E+00 0. -1.
         11    1    3    3    0    0  0.67230640028E+01 -0.19469081028E+01  0.21872820947E+01  0.73330923879E+01  0.51100000000E-03 0. -1.
        -11    1    3    3    0    0  0.12637786876E+02 -0.78614138565E+01  0.54534103956E+00  0.14893383835E+02  0.51100000000E-03 0.  1.
        -12    1    3    3    0    0  0.15880464374E+02 -0.17440623647E+02  0.39500563891E+01  0.23915840931E+02  0.00000000000E+00 0.  1.
</event>
<event>
 7    1  0.2395003E-008  0.4614232E+02  0.7816164E-02  0.1320468E+00
        -11   -1    0    0    0    0  0.00000000000E+00  0.00000000000E+00  0.45593999997E+02  0.45594000000E+02  0.51100000000E-03 0.  1.
         11   -1    0    0    0    0 -0.00000000000E+00 -0.00000000000E+00 -0.45593999997E+02  0.45594000000E+02  0.51100000000E-03 0. -1.
    9900012    2    1    2    0    0  0.16231143665E+02 -0.41878788748E+02 -0.34395455503E+01  0.46142318240E+02  0.10000004363E+02 0.  0.
         12    1    1    2    0    0 -0.16231143665E+02  0.41878788748E+02  0.34395455503E+01  0.45045681760E+02  0.00000000000E+00 0. -1.
         11    1    3    3    0    0  0.44560216211E-01 -0.62315757755E+01  0.52010299866E-01  0.62319521493E+01  0.51100000000E-03 0. -1.
        -11    1    3    3    0    0  0.31862072132E+01 -0.88380858943E+01 -0.37464512154E+01  0.10114325269E+02  0.51100000000E-03 0.  1.
         12    1    3    3    0    0  0.13000376236E+02 -0.26809127078E+02  0.25489536524E+00  0.29796040821E+02  0.00000000000E+00 0. -1.
</event>
<event>
 7    1  0.2395003E-008  0.4614232E+02  0.7816164E-02  0.1320468E+00
        -11   -1    0    0    0    0  0.00000000000E+00  0.00000000000E+00  0.45593999997E+02  0.45594000000E+02  0.51100000000E-03 0. -1.
         11   -1    0    0    0    0 -0.00000000000E+00 -0.00000000000E+00 -0.45593999997E+02  0.45594000000E+02  0.51100000000E-03 0.  1.
    9900012    2    1    2    0    0  0.34497099772E+02 -0.23190057598E+02 -0.17357557638E+02  0.46142317951E+02  0.10000001736E+02 0.  0.
         12    1    1    2    0    0 -0.34497099772E+02  0.23190057598E+02  0.17357557638E+02  0.45045682049E+02  0.00000000000E+00 0. -1.
         11    1    3    3    0    0  0.42890872813E+01 -0.57490294529E+01 -0.36521123533E+01  0.80489461583E+01  0.51100000000E-03 0. -1.
        -11    1    3    3    0    0  0.41608290287E+01 -0.37865567269E+01 -0.47157296877E+01  0.73408866495E+01  0.51100000000E-03 0.  1.
        -12    1    3    3    0    0  0.26047183462E+02 -0.13654471418E+02 -0.89897155971E+01  0.30752485144E+02  0.00000000000E+00 0.  1.
</event>
<event>
 7    1  0.2395003E-008  0.4614232E+02  0.7816164E-02  0.1320468E+00
        -11   -1    0    0    0    0  0.00000000000E+00  0.00000000000E+00  0.45593999997E+02  0.45594000000E+02  0.51100000000E-03 0. -1.
         11   -1    0    0    0    0 -0.00000000000E+00 -0.00000000000E+00 -0.45593999997E+02  0.45594000000E+02  0.51100000000E-03 0.  1.
    9900012    2    1    2    0    0 -0.19099098090E+02  0.22338704551E+02 -0.34136786515E+02  0.46142318049E+02  0.10000002625E+02 0.  0.
         12    1    1    2    0    0  0.19099098090E+02 -0.22338704551E+02  0.34136786515E+02  0.45045681951E+02  0.00000000000E+00 0. -1.
         11    1    3    3    0    0  0.74681077598E-02  0.72838827754E+00 -0.86409362044E+00  0.11301607414E+01  0.51100000000E-03 0.  1.
        -11    1    3    3    0    0 -0.59838000146E+01  0.11815281908E+02 -0.10188287768E+02  0.16709516961E+02  0.51100000000E-03 0. -1.
        -12    1    3    3    0    0 -0.13122766183E+02  0.97950343653E+01 -0.23084405127E+02  0.28302640346E+02  0.00000000000E+00 0.  1.
</event>
<event>
 7    1  0.2395003E-008  0.4614232E+02  0.7816164E-02  0.1320468E+00
        -11   -1    0    0    0    0  0.00000000000E+00  0.00000000000E+00  0.45593999997E+02  0.45594000000E+02  0.51100000000E-03 0.  1.
         11   -1    0    0    0    0 -0.00000000000E+00 -0.00000000000E+00 -0.45593999997E+02  0.45594000000E+02  0.51100000000E-03 0. -1.
    9900012    2    1    2    0    0  0.20897196101E+01 -0.44377794277E+02  0.74402874249E+01  0.46142318410E+02  0.10000005919E+02 0.  0.
         12    1    1    2    0    0 -0.20897196101E+01  0.44377794277E+02 -0.74402874249E+01  0.45045681590E+02  0.00000000000E+00 0. -1.
         11    1    3    3    0    0  0.51449143033E+00 -0.17511415187E+01 -0.48705344045E-01  0.18258068140E+01  0.51100000000E-03 0. -1.
        -11    1    3    3    0    0  0.47053073218E+01 -0.33577208108E+02  0.40688599344E+01  0.34148564286E+02  0.51100000000E-03 0.  1.
         12    1    3    3    0    0 -0.31300791420E+01 -0.90494446498E+01  0.34201328346E+01  0.10167947311E+02  0.00000000000E+00 0. -1.
</event>
<event>
 7    1  0.2395003E-008  0.4614232E+02  0.7816164E-02  0.1320468E+00
        -11   -1    0    0    0    0  0.00000000000E+00  0.00000000000E+00  0.45593999997E+02  0.45594000000E+02  0.51100000000E-03 0. -1.
         11   -1    0    0    0    0 -0.00000000000E+00 -0.00000000000E+00 -0.45593999997E+02  0.45594000000E+02  0.51100000000E-03 0.  1.
    9900012    2    1    2    0    0 -0.42538416392E+01 -0.90910027500E+01 -0.43913232178E+02  0.46142318076E+02  0.10000002874E+02 0.  0.
         12    1    1    2    0    0  0.42538416392E+01  0.90910027500E+01  0.43913232178E+02  0.45045681924E+02  0.00000000000E+00 0. -1.
         11    1    3    3    0    0 -0.55485382777E+00 -0.33649495128E+01 -0.14893681925E+02  0.15279152776E+02  0.51100000000E-03 0. -1.
        -11    1    3    3    0    0  0.20868609430E+01 -0.20145960142E+01 -0.14646361103E+02  0.14930823136E+02  0.51100000000E-03 0.  1.
         12    1    3    3    0    0 -0.57858487544E+01 -0.37114572230E+01 -0.14373189149E+02  0.15932342164E+02  0.00000000000E+00 0. -1.
</event>
<event>
 7    1  0.2395003E-008  0.4614232E+02  0.7816164E-02  0.1320468E+00
        -11   -1    0    0    0    0  0.00000000000E+00  0.00000000000E+00  0.45593999997E+02  0.45594000000E+02  0.51100000000E-03 0.  1.
         11   -1    0    0    0    0 -0.00000000000E+00 -0.00000000000E+00 -0.45593999997E+02  0.45594000000E+02  0.51100000000E-03 0. -1.
    9900012    2    1    2    0    0  0.38039843638E+02 -0.10001475286E+02  0.21955732976E+02  0.46142318493E+02  0.10000006671E+02 0.  0.
         12    1    1    2    0    0 -0.38039843638E+02  0.10001475286E+02 -0.21955732976E+02  0.45045681507E+02  0.00000000000E+00 0. -1.
         11    1    3    3    0    0  0.18135680914E+01 -0.64883824325E+00  0.19383499090E+01  0.27326216201E+01  0.51100000000E-03 0. -1.
        -11    1    3    3    0    0  0.12227145629E+02 -0.31679463268E+01  0.20441207570E+01  0.12795210201E+02  0.51100000000E-03 0.  1.
        -12    1    3    3    0    0  0.23999129918E+02 -0.61846907160E+01  0.17973262310E+02  0.30614486671E+02  0.00000000000E+00 0.  1.
</event>
<event>
 7    1  0.2395003E-008  0.4614232E+02  0.7816164E-02  0.1320468E+00
        -11   -1    0    0    0    0  0.00000000000E+00  0.00000000000E+00  0.45593999997E+02  0.45594000000E+02  0.51100000000E-03 0.  1.
         11   -1    0    0    0    0 -0.00000000000E+00 -0.00000000000E+00 -0.45593999997E+02  0.45594000000E+02  0.51100000000E-03 0. -1.
    9900012    2    1    2    0    0 -0.17645893987E+02  0.55307719215E+00  0.41441888041E+02  0.46142317039E+02  0.99999934193E+01 0.  0.
         12    1    1    2    0    0  0.17645893987E+02 -0.55307719215E+00 -0.41441888041E+02  0.45045682961E+02  0.00000000000E+00 0. -1.
         11    1    3    3    0    0 -0.11809456604E+01 -0.17605821477E+01  0.22890674341E+01  0.31199538667E+01  0.51100000000E-03 0. -1.
        -11    1    3    3    0    0 -0.47131590795E+01 -0.93563574464E+00  0.17763494450E+02  0.18401929738E+02  0.51100000000E-03 0.  1.
        -12    1    3    3    0    0 -0.11751789247E+02  0.32492950845E+01  0.21389326157E+02  0.24620433435E+02  0.00000000000E+00 0.  1.
</event>
<event>
 7    1  0.2395003E-008  0.4614232E+02  0.7816164E-02  0.1320468E+00
        -11   -1    0    0    0    0  0.00000000000E+00  0.00000000000E+00  0.45593999997E+02  0.45594000000E+02  0.51100000000E-03 0.  1.
         11   -1    0    0    0    0 -0.00000000000E+00 -0.00000000000E+00 -0.45593999997E+02  0.45594000000E+02  0.51100000000E-03 0. -1.
    9900012    2    1    2    0    0 -0.19554347258E+02  0.21901607727E+02  0.34162267289E+02  0.46142318475E+02  0.10000006513E+02 0.  0.
         12    1    1    2    0    0  0.19554347258E+02 -0.21901607727E+02 -0.34162267289E+02  0.45045681525E+02  0.00000000000E+00 0. -1.
         11    1    3    3    0    0 -0.91493975523E+01  0.14461854459E+02  0.19944624032E+02  0.26280120585E+02  0.51100000000E-03 0. -1.
        -11    1    3    3    0    0 -0.50555608477E+01  0.52843201348E+01  0.11137508741E+02  0.13323919693E+02  0.51100000000E-03 0.  1.
         12    1    3    3    0    0 -0.53493888576E+01  0.21554331331E+01  0.30801345166E+01  0.65382781970E+01  0.00000000000E+00 0. -1.
</event>
<event>
 7    1  0.2395003E-008  0.4614232E+02  0.7816164E-02  0.1320468E+00
        -11   -1    0    0    0    0  0.00000000000E+00  0.00000000000E+00  0.45593999997E+02  0.45594000000E+02  0.51100000000E-03 0.  1.
         11   -1    0    0    0    0 -0.00000000000E+00 -0.00000000000E+00 -0.45593999997E+02  0.45594000000E+02  0.51100000000E-03 0. -1.
    9900012    2    1    2    0    0 -0.75110906978E+01 -0.17063901661E+02  0.41006342472E+02  0.46142319338E+02  0.10000014379E+02 0.  0.
         12    1    1    2    0    0  0.75110906978E+01  0.17063901661E+02 -0.41006342472E+02  0.45045680662E+02  0.00000000000E+00 0. -1.
         11    1    3    3    0    0 -0.25653160762E+01 -0.32754034319E+01  0.39048953069E+01  0.57059023679E+01  0.51100000000E-03 0. -1.
        -11    1    3    3    0    0 -0.40496720753E+01 -0.46283574546E+01  0.92864841785E+01  0.11138237082E+02  0.51100000000E-03 0.  1.
        -12    1    3    3    0    0 -0.89610254635E+00 -0.91601407747E+01  0.27814962987E+02  0.29298179888E+02  0.00000000000E+00 0.  1.
</event>
<event>
 7    1  0.2395003E-008  0.4614232E+02  0.7816164E-02  0.1320468E+00
        -11   -1    0    0    0    0  0.00000000000E+00  0.00000000000E+00  0.45593999997E+02  0.45594000000E+02  0.51100000000E-03 0.  1.
         11   -1    0    0    0    0 -0.00000000000E+00 -0.00000000000E+00 -0.45593999997E+02  0.45594000000E+02  0.51100000000E-03 0. -1.
    9900012    2    1    2    0    0 -0.14810107869E+02 -0.28371805068E+02  0.31698814980E+02  0.46142317754E+02  0.99999999329E+01 0.  0.
         12    1    1    2    0    0  0.14810107869E+02  0.28371805068E+02 -0.31698814980E+02  0.45045682246E+02  0.00000000000E+00 0. -1.
         11    1    3    3    0    0 -0.75844912398E+00 -0.97307092341E+01  0.12705313554E+02  0.16021452495E+02  0.51100000000E-03 0. -1.
        -11    1    3    3    0    0 -0.80161103201E+01 -0.11644792579E+02  0.11587154909E+02  0.18278987336E+02  0.51100000000E-03 0.  1.
         12    1    3    3    0    0 -0.60355484250E+01 -0.69963032552E+01  0.74063465161E+01  0.11841877923E+02  0.00000000000E+00 0. -1.
</event>
<event>
 7    1  0.2395003E-008  0.4614232E+02  0.7816164E-02  0.1320468E+00
        -11   -1    0    0    0    0  0.00000000000E+00  0.00000000000E+00  0.45593999997E+02  0.45594000000E+02  0.51100000000E-03 0.  1.
         11   -1    0    0    0    0 -0.00000000000E+00 -0.00000000000E+00 -0.45593999997E+02  0.45594000000E+02  0.51100000000E-03 0. -1.
    9900012    2    1    2    0    0 -0.43247230311E+02  0.33963153344E+01  0.12134886277E+02  0.46142319270E+02  0.10000013763E+02 0.  0.
         12    1    1    2    0    0  0.43247230311E+02 -0.33963153344E+01 -0.12134886277E+02  0.45045680730E+02  0.00000000000E+00 0. -1.
         11    1    3    3    0    0 -0.18651120850E+02  0.43140162298E+01  0.79381019241E+01  0.20724104502E+02  0.51100000000E-03 0. -1.
        -11    1    3    3    0    0 -0.11941837254E+02  0.40983869815E-01 -0.32453811498E+00  0.11946316668E+02  0.51100000000E-03 0.  1.
         12    1    3    3    0    0 -0.12654272207E+02 -0.95868476519E+00  0.45213224680E+01  0.13471898101E+02  0.00000000000E+00 0. -1.
</event>
<event>
 7    1  0.2395003E-008  0.4614232E+02  0.7816164E-02  0.1320468E+00
        -11   -1    0    0    0    0  0.00000000000E+00  0.00000000000E+00  0.45593999997E+02  0.45594000000E+02  0.51100000000E-03 0. -1.
         11   -1    0    0    0    0 -0.00000000000E+00 -0.00000000000E+00 -0.45593999997E+02  0.45594000000E+02  0.51100000000E-03 0.  1.
    9900012    2    1    2    0    0 -0.10059342734E+02 -0.43857173072E+02  0.21145929367E+01  0.46142317528E+02  0.99999978716E+01 0.  0.
         12    1    1    2    0    0  0.10059342734E+02  0.43857173072E+02 -0.21145929367E+01  0.45045682472E+02  0.00000000000E+00 0. -1.
         11    1    3    3    0    0 -0.17382221546E+01 -0.15035881101E+01 -0.81255667677E-01  0.22997382913E+01  0.51100000000E-03 0. -1.
        -11    1    3    3    0    0  0.21264775443E+00 -0.12875274124E+02 -0.13596230156E+01  0.12948609109E+02  0.51100000000E-03 0.  1.
         12    1    3    3    0    0 -0.85337683341E+01 -0.29478310838E+02  0.35554716200E+01  0.30893970128E+02  0.00000000000E+00 0. -1.
</event>
<event>
 7    1  0.2395003E-008  0.4614232E+02  0.7816164E-02  0.1320468E+00
        -11   -1    0    0    0    0  0.00000000000E+00  0.00000000000E+00  0.45593999997E+02  0.45594000000E+02  0.51100000000E-03 0. -1.
         11   -1    0    0    0    0 -0.00000000000E+00 -0.00000000000E+00 -0.45593999997E+02  0.45594000000E+02  0.51100000000E-03 0.  1.
    9900012    2    1    2    0    0  0.25043415248E+02  0.32665277593E+02 -0.18300828624E+02  0.46142319454E+02  0.10000015436E+02 0.  0.
         12    1    1    2    0    0 -0.25043415248E+02 -0.32665277593E+02  0.18300828624E+02  0.45045680546E+02  0.00000000000E+00 0. -1.
         11    1    3    3    0    0  0.35584925636E+00  0.32759288551E+01 -0.19679670344E+01  0.38381288497E+01  0.51100000000E-03 0. -1.
        -11    1    3    3    0    0  0.15295910984E+02  0.13886550396E+02 -0.63594887488E+01  0.21615833830E+02  0.51100000000E-03 0.  1.
        -12    1    3    3    0    0  0.93916550078E+01  0.15502798342E+02 -0.99733728404E+01  0.20688356774E+02  0.00000000000E+00 0.  1.
</event>
<event>
 7    1  0.2395003E-008  0.4614232E+02  0.7816164E-02  0.1320468E+00
        -11   -1    0    0    0    0  0.00000000000E+00  0.00000000000E+00  0.45593999997E+02  0.45594000000E+02  0.51100000000E-03 0. -1.
         11   -1    0    0    0    0 -0.00000000000E+00 -0.00000000000E+00 -0.45593999997E+02  0.45594000000E+02  0.51100000000E-03 0.  1.
    9900012    2    1    2    0    0  0.18251535227E+02 -0.40423231129E+02 -0.78712942536E+01  0.46142318450E+02  0.10000006285E+02 0.  0.
         12    1    1    2    0    0 -0.18251535227E+02  0.40423231129E+02  0.78712942536E+01  0.45045681550E+02  0.00000000000E+00 0. -1.
         11    1    3    3    0    0  0.11224739497E+02 -0.25820249822E+02 -0.53165059473E+01  0.28652143260E+02  0.51100000000E-03 0. -1.
        -11    1    3    3    0    0  0.57281435429E+01 -0.12361091154E+02 -0.43917438611E+01  0.14314175400E+02  0.51100000000E-03 0.  1.
         12    1    3    3    0    0  0.12986521870E+01 -0.22418901530E+01  0.18369555547E+01  0.31759997908E+01  0.00000000000E+00 0. -1.
</event>
<event>
 7    1  0.2441617E-008  0.4614232E+02  0.7816164E-02  0.1320468E+00
        -11   -1    0    0    0    0  0.00000000000E+00  0.00000000000E+00  0.45593999997E+02  0.45594000000E+02  0.51100000000E-03 0. -1.
         11   -1    0    0    0    0 -0.00000000000E+00 -0.00000000000E+00 -0.45593999997E+02  0.45594000000E+02  0.51100000000E-03 0.  1.
    9900012    2    1    2    0    0  0.36095743267E+02  0.14137573949E+02 -0.22942097870E+02  0.46142317256E+02  0.99999953948E+01 0.  0.
         12    1    1    2    0    0 -0.36095743267E+02 -0.14137573949E+02  0.22942097870E+02  0.45045682744E+02  0.00000000000E+00 0. -1.
         11    1    3    3    0    0  0.93222957865E+00 -0.53533021395E+00  0.14326619879E+00  0.10845072107E+01  0.51100000000E-03 0. -1.
        -11    1    3    3    0    0  0.23376998109E+02  0.62202956235E+01 -0.14382281178E+02  0.28142958806E+02  0.51100000000E-03 0.  1.
        -12    1    3    3    0    0  0.11786515580E+02  0.84526085396E+01 -0.87030828916E+01  0.16914851239E+02  0.00000000000E+00 0.  1.
</event>
<event>
 7    1  0.2395003E-008  0.4614232E+02  0.7816164E-02  0.1320468E+00
        -11   -1    0    0    0    0  0.00000000000E+00  0.00000000000E+00  0.45593999997E+02  0.45594000000E+02  0.51100000000E-03 0. -1.
         11   -1    0    0    0    0 -0.00000000000E+00 -0.00000000000E+00 -0.45593999997E+02  0.45594000000E+02  0.51100000000E-03 0.  1.
    9900012    2    1    2    0    0  0.26331811368E+02  0.33200461838E+02  0.15279999067E+02  0.46142319545E+02  0.10000016264E+02 0.  0.
         12    1    1    2    0    0 -0.26331811368E+02 -0.33200461838E+02 -0.15279999067E+02  0.45045680455E+02  0.00000000000E+00 0. -1.
         11    1    3    3    0    0  0.10644373513E+02  0.18443987118E+02  0.74582837367E+01  0.22563451528E+02  0.51100000000E-03 0. -1.
        -11    1    3    3    0    0  0.14156746357E+02  0.14677392649E+02  0.61244988512E+01  0.21291989311E+02  0.51100000000E-03 0.  1.
         12    1    3    3    0    0  0.15306914984E+01  0.79082070773E-01  0.16972164791E+01  0.22868787055E+01  0.00000000000E+00 0. -1.
</event>
<event>
 7    1  0.2395003E-008  0.4614232E+02  0.7816164E-02  0.1320468E+00
        -11   -1    0    0    0    0  0.00000000000E+00  0.00000000000E+00  0.45593999997E+02  0.45594000000E+02  0.51100000000E-03 0. -1.
         11   -1    0    0    0    0 -0.00000000000E+00 -0.00000000000E+00 -0.45593999997E+02  0.45594000000E+02  0.51100000000E-03 0.  1.
    9900012    2    1    2    0    0  0.76562433279E+01 -0.18157874831E+02 -0.40506627585E+02  0.46142319202E+02  0.10000013138E+02 0.  0.
         12    1    1    2    0    0 -0.76562433279E+01  0.18157874831E+02  0.40506627585E+02  0.45045680798E+02  0.00000000000E+00 0. -1.
         11    1    3    3    0    0  0.12188494809E+01 -0.10514519714E+00 -0.16540394189E+01  0.20573031449E+01  0.51100000000E-03 0. -1.
        -11    1    3    3    0    0  0.74764170156E+01 -0.15654781644E+02 -0.28137460854E+02  0.33055796818E+02  0.51100000000E-03 0.  1.
        -12    1    3    3    0    0 -0.10390231686E+01 -0.23979479896E+01 -0.10715127312E+02  0.11029219239E+02  0.00000000000E+00 0.  1.
</event>
<event>
 7    1  0.2395003E-008  0.4614232E+02  0.7816164E-02  0.1320468E+00
        -11   -1    0    0    0    0  0.00000000000E+00  0.00000000000E+00  0.45593999997E+02  0.45594000000E+02  0.51100000000E-03 0.  1.
         11   -1    0    0    0    0 -0.00000000000E+00 -0.00000000000E+00 -0.45593999997E+02  0.45594000000E+02  0.51100000000E-03 0. -1.
    9900012    2    1    2    0    0 -0.11880824144E+02  0.26423120027E+02  0.34493161826E+02  0.46142317997E+02  0.10000002154E+02 0.  0.
         12    1    1    2    0    0  0.11880824144E+02 -0.26423120027E+02 -0.34493161826E+02  0.45045682003E+02  0.00000000000E+00 0. -1.
         11    1    3    3    0    0 -0.66413209104E+01  0.21774231508E+02  0.27154543252E+02  0.35434355090E+02  0.51100000000E-03 0. -1.
        -11    1    3    3    0    0 -0.71692909901E+00  0.21400735492E+01  0.38720447058E+01  0.44818113072E+01  0.51100000000E-03 0.  1.
        -12    1    3    3    0    0 -0.45225741345E+01  0.25088149707E+01  0.34665738687E+01  0.62261516000E+01  0.00000000000E+00 0.  1.
</event>
<event>
 7    1  0.2395003E-008  0.4614232E+02  0.7816164E-02  0.1320468E+00
        -11   -1    0    0    0    0  0.00000000000E+00  0.00000000000E+00  0.45593999997E+02  0.45594000000E+02  0.51100000000E-03 0. -1.
         11   -1    0    0    0    0 -0.00000000000E+00 -0.00000000000E+00 -0.45593999997E+02  0.45594000000E+02  0.51100000000E-03 0.  1.
    9900012    2    1    2    0    0  0.32931861007E+02 -0.27743620918E+02 -0.13224883403E+02  0.46142317499E+02  0.99999976084E+01 0.  0.
         12    1    1    2    0    0 -0.32931861007E+02  0.27743620918E+02  0.13224883403E+02  0.45045682501E+02  0.00000000000E+00 0. -1.
         11    1    3    3    0    0  0.28411179109E+00 -0.18916894387E+01  0.28638868139E+00  0.19342252144E+01  0.51100000000E-03 0. -1.
        -11    1    3    3    0    0  0.31465741772E+01 -0.15465195531E+01 -0.28688329438E+01  0.45302157235E+01  0.51100000000E-03 0.  1.
        -12    1    3    3    0    0  0.29501175038E+02 -0.24305411926E+02 -0.10642439140E+02  0.39677876561E+02  0.00000000000E+00 0.  1.
</event>
<event>
 7    1  0.2395003E-008  0.4614232E+02  0.7816164E-02  0.1320468E+00
        -11   -1    0    0    0    0  0.00000000000E+00  0.00000000000E+00  0.45593999997E+02  0.45594000000E+02  0.51100000000E-03 0. -1.
         11   -1    0    0    0    0 -0.00000000000E+00 -0.00000000000E+00 -0.45593999997E+02  0.45594000000E+02  0.51100000000E-03 0.  1.
    9900012    2    1    2    0    0 -0.61425964403E+01  0.42394679681E+02 -0.13931014674E+02  0.46142317342E+02  0.99999961753E+01 0.  0.
         12    1    1    2    0    0  0.61425964403E+01 -0.42394679681E+02  0.13931014674E+02  0.45045682658E+02  0.00000000000E+00 0. -1.
         11    1    3    3    0    0  0.90739840765E+00  0.37183841714E+00 -0.13390752899E+00  0.98973085539E+00  0.51100000000E-03 0. -1.
        -11    1    3    3    0    0 -0.39888891727E+00  0.16482959941E+02 -0.37184934976E+01  0.16901901518E+02  0.51100000000E-03 0.  1.
         12    1    3    3    0    0 -0.66511059307E+01  0.25539881323E+02 -0.10078613648E+02  0.28250684968E+02  0.00000000000E+00 0. -1.
</event>
<event>
 7    1  0.2395003E-008  0.4614232E+02  0.7816164E-02  0.1320468E+00
        -11   -1    0    0    0    0  0.00000000000E+00  0.00000000000E+00  0.45593999997E+02  0.45594000000E+02  0.51100000000E-03 0.  1.
         11   -1    0    0    0    0 -0.00000000000E+00 -0.00000000000E+00 -0.45593999997E+02  0.45594000000E+02  0.51100000000E-03 0. -1.
    9900012    2    1    2    0    0 -0.58029256338E+01  0.33302452247E+02  0.29772238895E+02  0.46142317850E+02  0.10000000812E+02 0.  0.
         12    1    1    2    0    0  0.58029256338E+01 -0.33302452247E+02 -0.29772238895E+02  0.45045682150E+02  0.00000000000E+00 0. -1.
         11    1    3    3    0    0  0.38658078359E+00  0.93444857767E+01  0.91120202103E+01  0.13057479531E+02  0.51100000000E-03 0. -1.
        -11    1    3    3    0    0 -0.44657859800E+01  0.13770075739E+02  0.16489297923E+02  0.21942086878E+02  0.51100000000E-03 0.  1.
         12    1    3    3    0    0 -0.17237204374E+01  0.10187890731E+02  0.41709207609E+01  0.11142751441E+02  0.00000000000E+00 0. -1.
</event>
<event>
 7    1  0.2395003E-008  0.4614232E+02  0.7816164E-02  0.1320468E+00
        -11   -1    0    0    0    0  0.00000000000E+00  0.00000000000E+00  0.45593999997E+02  0.45594000000E+02  0.51100000000E-03 0.  1.
         11   -1    0    0    0    0 -0.00000000000E+00 -0.00000000000E+00 -0.45593999997E+02  0.45594000000E+02  0.51100000000E-03 0. -1.
    9900012    2    1    2    0    0 -0.97927892980E+01  0.21017006102E+02  0.38619945636E+02  0.46142317980E+02  0.10000001999E+02 0.  0.
         12    1    1    2    0    0  0.97927892980E+01 -0.21017006102E+02 -0.38619945636E+02  0.45045682020E+02  0.00000000000E+00 0. -1.
         11    1    3    3    0    0 -0.15217298174E+01  0.66915242622E+01  0.13173007724E+02  0.14853292273E+02  0.51100000000E-03 0. -1.
        -11    1    3    3    0    0 -0.67597293014E+01  0.13398153260E+02  0.25415870318E+02  0.29515604607E+02  0.51100000000E-03 0.  1.
         12    1    3    3    0    0 -0.15113301792E+01  0.92732858000E+00  0.31067593494E-01  0.17734211009E+01  0.00000000000E+00 0. -1.
</event>
<event>
 7    1  0.2395003E-008  0.4614232E+02  0.7816164E-02  0.1320468E+00
        -11   -1    0    0    0    0  0.00000000000E+00  0.00000000000E+00  0.45593999997E+02  0.45594000000E+02  0.51100000000E-03 0.  1.
         11   -1    0    0    0    0 -0.00000000000E+00 -0.00000000000E+00 -0.45593999997E+02  0.45594000000E+02  0.51100000000E-03 0. -1.
    9900012    2    1    2    0    0  0.16185934584E+02  0.26064655792E+02  0.32981248294E+02  0.46142317644E+02  0.99999989279E+01 0.  0.
         12    1    1    2    0    0 -0.16185934584E+02 -0.26064655792E+02 -0.32981248294E+02  0.45045682356E+02  0.00000000000E+00 0. -1.
         11    1    3    3    0    0  0.74006895043E+01  0.62467028982E+01  0.68897434679E+01  0.11885287862E+02  0.51100000000E-03 0. -1.
        -11    1    3    3    0    0  0.24956604466E+01  0.42052152603E+01  0.32024774964E+01  0.58453416347E+01  0.51100000000E-03 0.  1.
         12    1    3    3    0    0  0.62895846331E+01  0.15612737634E+02  0.22889027330E+02  0.28411688147E+02  0.00000000000E+00 0. -1.
</event>
<event>
 7    1  0.2395003E-008  0.4614233E+02  0.7816164E-02  0.1320468E+00
        -11   -1    0    0    0    0  0.00000000000E+00  0.00000000000E+00  0.45593999997E+02  0.45594000000E+02  0.51100000000E-03 0.  1.
         11   -1    0    0    0    0 -0.00000000000E+00 -0.00000000000E+00 -0.45593999997E+02  0.45594000000E+02  0.51100000000E-03 0. -1.
    9900012    2    1    2    0    0 -0.28388310969E+02 -0.30314694706E+02  0.17442356024E+02  0.46142326529E+02  0.10000079950E+02 0.  0.
         12    1    1    2    0    0  0.28388310969E+02  0.30314694706E+02 -0.17442356024E+02  0.45045673471E+02  0.00000000000E+00 0. -1.
         11    1    3    3    0    0 -0.29354449929E+01 -0.42825104437E+01 -0.82939344550E+00  0.52578157780E+01  0.51100000000E-03 0. -1.
        -11    1    3    3    0    0 -0.54207119069E+01 -0.75957731715E+01  0.41099314493E+01  0.10196637898E+02  0.51100000000E-03 0.  1.
        -12    1    3    3    0    0 -0.20032154070E+02 -0.18436411091E+02  0.14161818020E+02  0.30687872853E+02  0.00000000000E+00 0.  1.
</event>
<event>
 7    1  0.2395003E-008  0.4614232E+02  0.7816164E-02  0.1320468E+00
        -11   -1    0    0    0    0  0.00000000000E+00  0.00000000000E+00  0.45593999997E+02  0.45594000000E+02  0.51100000000E-03 0.  1.
         11   -1    0    0    0    0 -0.00000000000E+00 -0.00000000000E+00 -0.45593999997E+02  0.45594000000E+02  0.51100000000E-03 0. -1.
    9900012    2    1    2    0    0  0.19263654667E+02  0.67355925245E+00  0.40713283983E+02  0.46142316901E+02  0.99999921570E+01 0.  0.
         12    1    1    2    0    0 -0.19263654667E+02 -0.67355925245E+00 -0.40713283983E+02  0.45045683099E+02  0.00000000000E+00 0. -1.
         11    1    3    3    0    0  0.31530557532E+01 -0.62270108221E-01  0.12752094645E+02  0.13136268734E+02  0.51100000000E-03 0. -1.
        -11    1    3    3    0    0  0.48789740134E+01 -0.45166835166E+00  0.15172675574E+02  0.15944230181E+02  0.51100000000E-03 0.  1.
         12    1    3    3    0    0  0.11231624900E+02  0.11874977123E+01  0.12788513764E+02  0.17061817986E+02  0.00000000000E+00 0. -1.
</event>
<event>
 7    1  0.2395003E-008  0.4614232E+02  0.7816164E-02  0.1320468E+00
        -11   -1    0    0    0    0  0.00000000000E+00  0.00000000000E+00  0.45593999997E+02  0.45594000000E+02  0.51100000000E-03 0.  1.
         11   -1    0    0    0    0 -0.00000000000E+00 -0.00000000000E+00 -0.45593999997E+02  0.45594000000E+02  0.51100000000E-03 0. -1.
    9900012    2    1    2    0    0 -0.56761867298E+01 -0.32112663576E+02  0.31075249734E+02  0.46142318700E+02  0.10000008559E+02 0.  0.
         12    1    1    2    0    0  0.56761867298E+01  0.32112663576E+02 -0.31075249734E+02  0.45045681300E+02  0.00000000000E+00 0. -1.
         11    1    3    3    0    0 -0.30498046131E+01 -0.66442148870E+01  0.10193317963E+02  0.12543947983E+02  0.51100000000E-03 0. -1.
        -11    1    3    3    0    0  0.19698346030E+01 -0.89665539464E+01  0.77433527466E+01  0.12009947962E+02  0.51100000000E-03 0.  1.
         12    1    3    3    0    0 -0.45962167197E+01 -0.16501894743E+02  0.13138579025E+02  0.21588422755E+02  0.00000000000E+00 0. -1.
</event>
<event>
 7    1  0.2395003E-008  0.4614232E+02  0.7816164E-02  0.1320468E+00
        -11   -1    0    0    0    0  0.00000000000E+00  0.00000000000E+00  0.45593999997E+02  0.45594000000E+02  0.51100000000E-03 0.  1.
         11   -1    0    0    0    0 -0.00000000000E+00 -0.00000000000E+00 -0.45593999997E+02  0.45594000000E+02  0.51100000000E-03 0. -1.
    9900012    2    1    2    0    0  0.15555540834E+02  0.40253495966E+02  0.12914900989E+02  0.46142318124E+02  0.10000003307E+02 0.  0.
         12    1    1    2    0    0 -0.15555540834E+02 -0.40253495966E+02 -0.12914900989E+02  0.45045681876E+02  0.00000000000E+00 0. -1.
         11    1    3    3    0    0  0.35166965517E+01  0.63417284404E+01  0.53721374493E+00  0.72714010422E+01  0.51100000000E-03 0. -1.
        -11    1    3    3    0    0  0.13032112206E+02  0.28543957070E+02  0.10213241131E+02  0.32998541307E+02  0.51100000000E-03 0.  1.
         12    1    3    3    0    0 -0.99326792323E+00  0.53678104559E+01  0.21644461128E+01  0.58723757741E+01  0.00000000000E+00 0. -1.
</event>
<event>
 7    1  0.2395003E-008  0.4614232E+02  0.7816164E-02  0.1320468E+00
        -11   -1    0    0    0    0  0.00000000000E+00  0.00000000000E+00  0.45593999997E+02  0.45594000000E+02  0.51100000000E-03 0.  1.
         11   -1    0    0    0    0 -0.00000000000E+00 -0.00000000000E+00 -0.45593999997E+02  0.45594000000E+02  0.51100000000E-03 0. -1.
    9900012    2    1    2    0    0  0.10354674720E+01  0.36084975764E+02  0.26942823795E+02  0.46142318489E+02  0.10000006638E+02 0.  0.
         12    1    1    2    0    0 -0.10354674720E+01 -0.36084975764E+02 -0.26942823795E+02  0.45045681511E+02  0.00000000000E+00 0. -1.
         11    1    3    3    0    0  0.80456069135E+00  0.29178994637E+02  0.19556175412E+02  0.35135523945E+02  0.51100000000E-03 0. -1.
        -11    1    3    3    0    0  0.93020609157E+00  0.72478886574E+01  0.61768641714E+01  0.95682195113E+01  0.51100000000E-03 0.  1.
         12    1    3    3    0    0 -0.69929931095E+00 -0.34190753033E+00  0.12097842114E+01  0.14385750324E+01  0.00000000000E+00 0. -1.
</event>
<event>
 7    1  0.2395003E-008  0.4614232E+02  0.7816164E-02  0.1320468E+00
        -11   -1    0    0    0    0  0.00000000000E+00  0.00000000000E+00  0.45593999997E+02  0.45594000000E+02  0.51100000000E-03 0.  1.
         11   -1    0    0    0    0 -0.00000000000E+00 -0.00000000000E+00 -0.45593999997E+02  0.45594000000E+02  0.51100000000E-03 0. -1.
    9900012    2    1    2    0    0 -0.43828525156E+01 -0.11094143549E+02  0.43437587725E+02  0.46142318247E+02  0.10000004428E+02 0.  0.
         12    1    1    2    0    0  0.43828525156E+01  0.11094143549E+02 -0.43437587725E+02  0.45045681753E+02  0.00000000000E+00 0. -1.
         11    1    3    3    0    0  0.82904338967E+00 -0.29663038231E+01  0.19022356480E+02  0.19270088677E+02  0.51100000000E-03 0. -1.
        -11    1    3    3    0    0 -0.34077942048E+01 -0.40854834876E+01  0.19695630190E+02  0.20401521647E+02  0.51100000000E-03 0.  1.
         12    1    3    3    0    0 -0.18041017004E+01 -0.40423562378E+01  0.47196010551E+01  0.64707079225E+01  0.00000000000E+00 0. -1.
</event>
<event>
 7    1  0.2395003E-008  0.4614232E+02  0.7816164E-02  0.1320468E+00
        -11   -1    0    0    0    0  0.00000000000E+00  0.00000000000E+00  0.45593999997E+02  0.45594000000E+02  0.51100000000E-03 0. -1.
         11   -1    0    0    0    0 -0.00000000000E+00 -0.00000000000E+00 -0.45593999997E+02  0.45594000000E+02  0.51100000000E-03 0.  1.
    9900012    2    1    2    0    0 -0.38779412061E+02 -0.16650698672E+02 -0.15748808257E+02  0.46142317325E+02  0.99999960273E+01 0.  0.
         12    1    1    2    0    0  0.38779412061E+02  0.16650698672E+02  0.15748808257E+02  0.45045682675E+02  0.00000000000E+00 0. -1.
         11    1    3    3    0    0 -0.23468763377E+02 -0.13706553505E+02 -0.63583995895E+01  0.27912035200E+02  0.51100000000E-03 0. -1.
        -11    1    3    3    0    0 -0.44016646845E+01 -0.10506547783E+01 -0.32296362186E+01  0.55595933146E+01  0.51100000000E-03 0.  1.
         12    1    3    3    0    0 -0.10908984000E+02 -0.18934903890E+01 -0.61607724493E+01  0.12670688811E+02  0.00000000000E+00 0. -1.
</event>
<event>
 7    1  0.2395003E-008  0.4614232E+02  0.7816164E-02  0.1320468E+00
        -11   -1    0    0    0    0  0.00000000000E+00  0.00000000000E+00  0.45593999997E+02  0.45594000000E+02  0.51100000000E-03 0.  1.
         11   -1    0    0    0    0 -0.00000000000E+00 -0.00000000000E+00 -0.45593999997E+02  0.45594000000E+02  0.51100000000E-03 0. -1.
    9900012    2    1    2    0    0  0.34097334517E+01 -0.39391619198E+02  0.21582111406E+02  0.46142317876E+02  0.10000001050E+02 0.  0.
         12    1    1    2    0    0 -0.34097334517E+01  0.39391619198E+02 -0.21582111406E+02  0.45045682124E+02  0.00000000000E+00 0. -1.
         11    1    3    3    0    0 -0.13199855760E+01 -0.11969853073E+02  0.92573632144E+01  0.15189421268E+02  0.51100000000E-03 0. -1.
        -11    1    3    3    0    0  0.51434971851E+01 -0.27391854662E+02  0.12442165891E+02  0.30521742373E+02  0.51100000000E-03 0.  1.
         12    1    3    3    0    0 -0.41377815740E+00 -0.29911463208E-01 -0.11741769949E+00  0.43115423612E+00  0.00000000000E+00 0. -1.
</event>
<event>
 7    1  0.2395003E-008  0.4614232E+02  0.7816164E-02  0.1320468E+00
        -11   -1    0    0    0    0  0.00000000000E+00  0.00000000000E+00  0.45593999997E+02  0.45594000000E+02  0.51100000000E-03 0. -1.
         11   -1    0    0    0    0 -0.00000000000E+00 -0.00000000000E+00 -0.45593999997E+02  0.45594000000E+02  0.51100000000E-03 0.  1.
    9900012    2    1    2    0    0  0.30174666710E+02  0.24316317364E+02 -0.22963442536E+02  0.46142317695E+02  0.99999994002E+01 0.  0.
         12    1    1    2    0    0 -0.30174666710E+02 -0.24316317364E+02  0.22963442536E+02  0.45045682305E+02  0.00000000000E+00 0. -1.
         11    1    3    3    0    0  0.25411519203E+01  0.44029243565E+01 -0.18395328322E+01  0.54062072910E+01  0.51100000000E-03 0. -1.
        -11    1    3    3    0    0  0.20278189126E+02  0.15214756787E+02 -0.19192543590E+02  0.31796973252E+02  0.51100000000E-03 0.  1.
        -12    1    3    3    0    0  0.73553256637E+01  0.46986362208E+01 -0.19313661134E+01  0.89391371518E+01  0.00000000000E+00 0.  1.
</event>
<event>
 7    1  0.2395003E-008  0.4614232E+02  0.7816164E-02  0.1320468E+00
        -11   -1    0    0    0    0  0.00000000000E+00  0.00000000000E+00  0.45593999997E+02  0.45594000000E+02  0.51100000000E-03 0.  1.
         11   -1    0    0    0    0 -0.00000000000E+00 -0.00000000000E+00 -0.45593999997E+02  0.45594000000E+02  0.51100000000E-03 0. -1.
    9900012    2    1    2    0    0  0.52519854602E+01  0.43920133202E+02 -0.85177503036E+01  0.46142317388E+02  0.99999965964E+01 0.  0.
         12    1    1    2    0    0 -0.52519854602E+01 -0.43920133202E+02  0.85177503036E+01  0.45045682612E+02  0.00000000000E+00 0. -1.
         11    1    3    3    0    0 -0.50973418196E+00  0.69000947931E+01  0.67982291205E+00  0.69522152256E+01  0.51100000000E-03 0. -1.
        -11    1    3    3    0    0  0.54359953355E+01  0.37034813196E+02 -0.84486238955E+01  0.38373254745E+02  0.51100000000E-03 0.  1.
        -12    1    3    3    0    0  0.32572430664E+00 -0.14774787304E-01 -0.74894932014E+00  0.81684741685E+00  0.00000000000E+00 0.  1.
</event>
<event>
 7    1  0.2395003E-008  0.4614232E+02  0.7816164E-02  0.1320468E+00
        -11   -1    0    0    0    0  0.00000000000E+00  0.00000000000E+00  0.45593999997E+02  0.45594000000E+02  0.51100000000E-03 0. -1.
         11   -1    0    0    0    0 -0.00000000000E+00 -0.00000000000E+00 -0.45593999997E+02  0.45594000000E+02  0.51100000000E-03 0.  1.
    9900012    2    1    2    0    0  0.33326690016E+02  0.30140280696E+02  0.31636573082E+01  0.46142317461E+02  0.99999972623E+01 0.  0.
         12    1    1    2    0    0 -0.33326690016E+02 -0.30140280696E+02 -0.31636573082E+01  0.45045682539E+02  0.00000000000E+00 0. -1.
         11    1    3    3    0    0  0.14124003689E+02  0.10758497713E+02  0.40615509570E+01  0.18213427730E+02  0.51100000000E-03 0. -1.
        -11    1    3    3    0    0  0.61646815761E+01  0.85328968007E+01  0.20186210301E+01  0.10718603354E+02  0.51100000000E-03 0.  1.
        -12    1    3    3    0    0  0.13038004751E+02  0.10848886182E+02 -0.29165146788E+01  0.17210286376E+02  0.00000000000E+00 0.  1.
</event>
<event>
 7    1  0.2395003E-008  0.4614232E+02  0.7816164E-02  0.1320468E+00
        -11   -1    0    0    0    0  0.00000000000E+00  0.00000000000E+00  0.45593999997E+02  0.45594000000E+02  0.51100000000E-03 0. -1.
         11   -1    0    0    0    0 -0.00000000000E+00 -0.00000000000E+00 -0.45593999997E+02  0.45594000000E+02  0.51100000000E-03 0.  1.
    9900012    2    1    2    0    0 -0.44118610779E+02  0.80374504703E+01  0.42498518294E+01  0.46142315771E+02  0.99999818499E+01 0.  0.
         12    1    1    2    0    0  0.44118610779E+02 -0.80374504703E+01 -0.42498518294E+01  0.45045684229E+02  0.00000000000E+00 0. -1.
         11    1    3    3    0    0 -0.11273936097E+02  0.62260864419E+01  0.18349303177E+01  0.13008949114E+02  0.51100000000E-03 0. -1.
        -11    1    3    3    0    0 -0.75846773457E+01 -0.67786844779E+00 -0.19329067031E+00  0.76173615915E+01  0.51100000000E-03 0.  1.
        -12    1    3    3    0    0 -0.25259997336E+02  0.24892324762E+01  0.26082121820E+01  0.25516005066E+02  0.00000000000E+00 0.  1.
</event>
<event>
 7    1  0.2395003E-008  0.4614232E+02  0.7816164E-02  0.1320468E+00
        -11   -1    0    0    0    0  0.00000000000E+00  0.00000000000E+00  0.45593999997E+02  0.45594000000E+02  0.51100000000E-03 0.  1.
         11   -1    0    0    0    0 -0.00000000000E+00 -0.00000000000E+00 -0.45593999997E+02  0.45594000000E+02  0.51100000000E-03 0. -1.
    9900012    2    1    2    0    0 -0.28552782375E+01  0.19781414714E+02  0.40369006710E+02  0.46142315582E+02  0.99999801315E+01 0.  0.
         12    1    1    2    0    0  0.28552782375E+01 -0.19781414714E+02 -0.40369006710E+02  0.45045684418E+02  0.00000000000E+00 0. -1.
         11    1    3    3    0    0 -0.12329431688E+01  0.12143421575E+00  0.30534425142E+01  0.32952096405E+01  0.51100000000E-03 0. -1.
        -11    1    3    3    0    0 -0.44051307393E+01  0.14348582168E+02  0.27981630023E+02  0.31753088135E+02  0.51100000000E-03 0.  1.
        -12    1    3    3    0    0  0.27827956706E+01  0.53113983299E+01  0.93339341728E+01  0.11094017807E+02  0.00000000000E+00 0.  1.
</event>
<event>
 7    1  0.2395003E-008  0.4614232E+02  0.7816164E-02  0.1320468E+00
        -11   -1    0    0    0    0  0.00000000000E+00  0.00000000000E+00  0.45593999997E+02  0.45594000000E+02  0.51100000000E-03 0. -1.
         11   -1    0    0    0    0 -0.00000000000E+00 -0.00000000000E+00 -0.45593999997E+02  0.45594000000E+02  0.51100000000E-03 0.  1.
    9900012    2    1    2    0    0  0.10935613381E+02  0.43453673947E+02 -0.46156327546E+01  0.46142317796E+02  0.10000000320E+02 0.  0.
         12    1    1    2    0    0 -0.10935613381E+02 -0.43453673947E+02  0.46156327546E+01  0.45045682204E+02  0.00000000000E+00 0. -1.
         11    1    3    3    0    0  0.24812544132E+01  0.66056670487E+01 -0.36662952009E+01  0.79519294125E+01  0.51100000000E-03 0. -1.
        -11    1    3    3    0    0  0.12067108992E+01  0.56422627962E+01 -0.20820827773E+01  0.61340320841E+01  0.51100000000E-03 0.  1.
        -12    1    3    3    0    0  0.72476480687E+01  0.31205744102E+02  0.11327452236E+01  0.32056356300E+02  0.00000000000E+00 0.  1.
</event>
<event>
 7    1  0.2395003E-008  0.4614232E+02  0.7816164E-02  0.1320468E+00
        -11   -1    0    0    0    0  0.00000000000E+00  0.00000000000E+00  0.45593999997E+02  0.45594000000E+02  0.51100000000E-03 0. -1.
         11   -1    0    0    0    0 -0.00000000000E+00 -0.00000000000E+00 -0.45593999997E+02  0.45594000000E+02  0.51100000000E-03 0.  1.
    9900012    2    1    2    0    0 -0.32929596766E+02 -0.96749493988E+01 -0.29174483386E+02  0.46142317966E+02  0.10000001868E+02 0.  0.
         12    1    1    2    0    0  0.32929596766E+02  0.96749493988E+01  0.29174483386E+02  0.45045682034E+02  0.00000000000E+00 0. -1.
         11    1    3    3    0    0 -0.10838467018E+02 -0.22015165748E+01 -0.13618954960E+02  0.17544086668E+02  0.51100000000E-03 0. -1.
        -11    1    3    3    0    0 -0.29087559427E+01  0.81918446769E+00 -0.27691452304E+01  0.40987912723E+01  0.51100000000E-03 0.  1.
         12    1    3    3    0    0 -0.19182373805E+02 -0.82926172916E+01 -0.12786383196E+02  0.24499440026E+02  0.00000000000E+00 0. -1.
</event>
<event>
 7    1  0.2395003E-008  0.4614231E+02  0.7816164E-02  0.1320468E+00
        -11   -1    0    0    0    0  0.00000000000E+00  0.00000000000E+00  0.45593999997E+02  0.45594000000E+02  0.51100000000E-03 0.  1.
         11   -1    0    0    0    0 -0.00000000000E+00 -0.00000000000E+00 -0.45593999997E+02  0.45594000000E+02  0.51100000000E-03 0. -1.
    9900012    2    1    2    0    0 -0.31090370865E+02 -0.28918581841E+02  0.15040552893E+02  0.46142314662E+02  0.99999717438E+01 0.  0.
         12    1    1    2    0    0  0.31090370865E+02  0.28918581841E+02 -0.15040552893E+02  0.45045685338E+02  0.00000000000E+00 0. -1.
         11    1    3    3    0    0 -0.10792856505E+02 -0.96775215730E+01  0.39043185293E+01  0.15012790506E+02  0.51100000000E-03 0. -1.
        -11    1    3    3    0    0 -0.20382579501E+02 -0.16230663665E+02  0.98591071981E+01  0.27858319855E+02  0.51100000000E-03 0.  1.
         12    1    3    3    0    0  0.85065141446E-01 -0.30103966036E+01  0.12771271653E+01  0.32712043020E+01  0.00000000000E+00 0. -1.
</event>
<event>
 7    1  0.2395003E-008  0.4614231E+02  0.7816164E-02  0.1320468E+00
        -11   -1    0    0    0    0  0.00000000000E+00  0.00000000000E+00  0.45593999997E+02  0.45594000000E+02  0.51100000000E-03 0.  1.
         11   -1    0    0    0    0 -0.00000000000E+00 -0.00000000000E+00 -0.45593999997E+02  0.45594000000E+02  0.51100000000E-03 0. -1.
    9900012    2    1    2    0    0 -0.49017680681E+01 -0.32252731732E+02  0.31062002591E+02  0.46142311645E+02  0.99999442313E+01 0.  0.
         12    1    1    2    0    0  0.49017680681E+01  0.32252731732E+02 -0.31062002591E+02  0.45045688355E+02  0.00000000000E+00 0. -1.
         11    1    3    3    0    0  0.14607143009E+01 -0.25983581667E+01  0.12178129023E+01  0.32199720430E+01  0.51100000000E-03 0. -1.
        -11    1    3    3    0    0 -0.23631811141E+01 -0.27366503367E+01  0.30189432554E+01  0.47104032401E+01  0.51100000000E-03 0.  1.
        -12    1    3    3    0    0 -0.39993012550E+01 -0.26917723229E+02  0.26825246433E+02  0.38211936362E+02  0.00000000000E+00 0.  1.
</event>
<event>
 7    1  0.2395003E-008  0.4614232E+02  0.7816164E-02  0.1320468E+00
        -11   -1    0    0    0    0  0.00000000000E+00  0.00000000000E+00  0.45593999997E+02  0.45594000000E+02  0.51100000000E-03 0. -1.
         11   -1    0    0    0    0 -0.00000000000E+00 -0.00000000000E+00 -0.45593999997E+02  0.45594000000E+02  0.51100000000E-03 0.  1.
    9900012    2    1    2    0    0 -0.21043253349E+01  0.44984317551E+02  0.10471456198E+01  0.46142317359E+02  0.99999963298E+01 0.  0.
         12    1    1    2    0    0  0.21043253349E+01 -0.44984317551E+02 -0.10471456198E+01  0.45045682641E+02  0.00000000000E+00 0. -1.
         11    1    3    3    0    0 -0.75898456065E+00  0.66674299864E+01 -0.17039115084E+01  0.69234380821E+01  0.51100000000E-03 0. -1.
        -11    1    3    3    0    0  0.69785267267E+00  0.30713189566E+02 -0.43769290471E+00  0.30724234522E+02  0.51100000000E-03 0.  1.
        -12    1    3    3    0    0 -0.20431934470E+01  0.76036979994E+01  0.31887500329E+01  0.84946447542E+01  0.00000000000E+00 0.  1.
</event>
<event>
 7    1  0.2395003E-008  0.4614232E+02  0.7816164E-02  0.1320468E+00
        -11   -1    0    0    0    0  0.00000000000E+00  0.00000000000E+00  0.45593999997E+02  0.45594000000E+02  0.51100000000E-03 0.  1.
         11   -1    0    0    0    0 -0.00000000000E+00 -0.00000000000E+00 -0.45593999997E+02  0.45594000000E+02  0.51100000000E-03 0. -1.
    9900012    2    1    2    0    0  0.34769008142E+02 -0.33683348109E+01  0.28440884122E+02  0.46142317674E+02  0.99999992017E+01 0.  0.
         12    1    1    2    0    0 -0.34769008142E+02  0.33683348109E+01 -0.28440884122E+02  0.45045682326E+02  0.00000000000E+00 0. -1.
         11    1    3    3    0    0  0.11890508586E+02  0.13387566759E+01  0.58411852465E+01  0.13315251001E+02  0.51100000000E-03 0. -1.
        -11    1    3    3    0    0  0.67343687682E+01 -0.72702377192E-01  0.43133372716E+01  0.79976175841E+01  0.51100000000E-03 0.  1.
        -12    1    3    3    0    0  0.16144130788E+02 -0.46343891096E+01  0.18286361604E+02  0.24829449088E+02  0.00000000000E+00 0.  1.
</event>
<event>
 7    1  0.2395003E-008  0.4614232E+02  0.7816164E-02  0.1320468E+00
        -11   -1    0    0    0    0  0.00000000000E+00  0.00000000000E+00  0.45593999997E+02  0.45594000000E+02  0.51100000000E-03 0.  1.
         11   -1    0    0    0    0 -0.00000000000E+00 -0.00000000000E+00 -0.45593999997E+02  0.45594000000E+02  0.51100000000E-03 0. -1.
    9900012    2    1    2    0    0  0.12670447078E+02  0.62052989650E+01  0.42779290242E+02  0.46142316100E+02  0.99999848561E+01 0.  0.
         12    1    1    2    0    0 -0.12670447078E+02 -0.62052989650E+01 -0.42779290242E+02  0.45045683900E+02  0.00000000000E+00 0. -1.
         11    1    3    3    0    0  0.11497950670E+02  0.76593967759E+01  0.30548838189E+02  0.33527611659E+02  0.51100000000E-03 0.  1.
        -11    1    3    3    0    0  0.42000375679E+00  0.37724043504E+00  0.69891117293E+01  0.70118753931E+01  0.51100000000E-03 0. -1.
        -12    1    3    3    0    0  0.75249265081E+00 -0.18313382460E+01  0.52413403236E+01  0.56028290487E+01  0.00000000000E+00 0.  1.
</event>
<event>
 7    1  0.2395003E-008  0.4614232E+02  0.7816164E-02  0.1320468E+00
        -11   -1    0    0    0    0  0.00000000000E+00  0.00000000000E+00  0.45593999997E+02  0.45594000000E+02  0.51100000000E-03 0.  1.
         11   -1    0    0    0    0 -0.00000000000E+00 -0.00000000000E+00 -0.45593999997E+02  0.45594000000E+02  0.51100000000E-03 0. -1.
    9900012    2    1    2    0    0 -0.30816330995E+02 -0.18526374761E+02  0.27133756575E+02  0.46142316925E+02  0.99999923792E+01 0.  0.
         12    1    1    2    0    0  0.30816330995E+02  0.18526374761E+02 -0.27133756575E+02  0.45045683075E+02  0.00000000000E+00 0. -1.
         11    1    3    3    0    0 -0.35190163660E+00 -0.29474790799E+01  0.32724516639E+01  0.44181905620E+01  0.51100000000E-03 0. -1.
        -11    1    3    3    0    0 -0.17284329466E+02 -0.91820822848E+01  0.14015690212E+02  0.24072769939E+02  0.51100000000E-03 0.  1.
         12    1    3    3    0    0 -0.13180099893E+02 -0.63968133961E+01  0.98456146997E+01  0.17651356425E+02  0.00000000000E+00 0. -1.
</event>
<event>
 7    1  0.2395003E-008  0.4614232E+02  0.7816164E-02  0.1320468E+00
        -11   -1    0    0    0    0  0.00000000000E+00  0.00000000000E+00  0.45593999997E+02  0.45594000000E+02  0.51100000000E-03 0.  1.
         11   -1    0    0    0    0 -0.00000000000E+00 -0.00000000000E+00 -0.45593999997E+02  0.45594000000E+02  0.51100000000E-03 0. -1.
    9900012    2    1    2    0    0  0.30358581518E+02 -0.14125553263E+02  0.30132023395E+02  0.46142316959E+02  0.99999926874E+01 0.  0.
         12    1    1    2    0    0 -0.30358581518E+02  0.14125553263E+02 -0.30132023395E+02  0.45045683041E+02  0.00000000000E+00 0. -1.
         11    1    3    3    0    0  0.10002833382E+01  0.11337468934E+00  0.40806070117E+01  0.42029483012E+01  0.51100000000E-03 0.  1.
        -11    1    3    3    0    0  0.14892446660E+02 -0.82147804348E+01  0.11309246206E+02  0.20424657528E+02  0.51100000000E-03 0. -1.
        -12    1    3    3    0    0  0.14465851519E+02 -0.60241475173E+01  0.14742170177E+02  0.21514711130E+02  0.00000000000E+00 0.  1.
</event>
<event>
 7    1  0.2395003E-008  0.4614231E+02  0.7816164E-02  0.1320468E+00
        -11   -1    0    0    0    0  0.00000000000E+00  0.00000000000E+00  0.45593999997E+02  0.45594000000E+02  0.51100000000E-03 0.  1.
         11   -1    0    0    0    0 -0.00000000000E+00 -0.00000000000E+00 -0.45593999997E+02  0.45594000000E+02  0.51100000000E-03 0. -1.
    9900012    2    1    2    0    0 -0.98415861626E+01  0.17637042608E+02  0.40264028606E+02  0.46142311086E+02  0.99999391297E+01 0.  0.
         12    1    1    2    0    0  0.98415861626E+01 -0.17637042608E+02 -0.40264028606E+02  0.45045688914E+02  0.00000000000E+00 0. -1.
         11    1    3    3    0    0 -0.20296421690E+01  0.88460101588E+01  0.14826126683E+02  0.17383479967E+02  0.51100000000E-03 0. -1.
        -11    1    3    3    0    0 -0.31881208048E+01  0.81112692966E+01  0.17411769342E+02  0.19471171401E+02  0.51100000000E-03 0.  1.
         12    1    3    3    0    0 -0.46238231888E+01  0.67976315264E+00  0.80261325809E+01  0.92876597177E+01  0.00000000000E+00 0. -1.
</event>
<event>
 7    1  0.2395003E-008  0.4614232E+02  0.7816164E-02  0.1320468E+00
        -11   -1    0    0    0    0  0.00000000000E+00  0.00000000000E+00  0.45593999997E+02  0.45594000000E+02  0.51100000000E-03 0. -1.
         11   -1    0    0    0    0 -0.00000000000E+00 -0.00000000000E+00 -0.45593999997E+02  0.45594000000E+02  0.51100000000E-03 0.  1.
    9900012    2    1    2    0    0 -0.37554738121E+02  0.23182547832E+02 -0.90180151196E+01  0.46142317898E+02  0.10000001247E+02 0.  0.
         12    1    1    2    0    0  0.37554738121E+02 -0.23182547832E+02  0.90180151196E+01  0.45045682102E+02  0.00000000000E+00 0. -1.
         11    1    3    3    0    0 -0.12197640725E+02  0.74395894587E+01  0.11470361684E+00  0.14287865052E+02  0.51100000000E-03 0. -1.
        -11    1    3    3    0    0 -0.27501839355E+01  0.16602204387E+01  0.98947779250E+00  0.33613851530E+01  0.51100000000E-03 0.  1.
         12    1    3    3    0    0 -0.22606913461E+02  0.14082737935E+02 -0.10122196529E+02  0.28493067693E+02  0.00000000000E+00 0. -1.
</event>
<event>
 7    1  0.2395003E-008  0.4614233E+02  0.7816164E-02  0.1320468E+00
        -11   -1    0    0    0    0  0.00000000000E+00  0.00000000000E+00  0.45593999997E+02  0.45594000000E+02  0.51100000000E-03 0. -1.
         11   -1    0    0    0    0 -0.00000000000E+00 -0.00000000000E+00 -0.45593999997E+02  0.45594000000E+02  0.51100000000E-03 0.  1.
    9900012    2    1    2    0    0 -0.25525976123E+02 -0.41966805078E+01 -0.36877158787E+02  0.46142329570E+02  0.10000107680E+02 0.  0.
         12    1    1    2    0    0  0.25525976123E+02  0.41966805078E+01  0.36877158787E+02  0.45045670430E+02  0.00000000000E+00 0. -1.
         11    1    3    3    0    0  0.12513677779E+00 -0.18534812492E+01 -0.17677461313E+01  0.25643670954E+01  0.51100000000E-03 0. -1.
        -11    1    3    3    0    0 -0.68742927607E+01 -0.22536165648E-01 -0.10129879203E+02  0.12242175533E+02  0.51100000000E-03 0.  1.
         12    1    3    3    0    0 -0.18776820140E+02 -0.23206630929E+01 -0.24979533453E+02  0.31335786942E+02  0.00000000000E+00 0. -1.
</event>
<event>
 7    1  0.2395003E-008  0.4614232E+02  0.7816164E-02  0.1320468E+00
        -11   -1    0    0    0    0  0.00000000000E+00  0.00000000000E+00  0.45593999997E+02  0.45594000000E+02  0.51100000000E-03 0. -1.
         11   -1    0    0    0    0 -0.00000000000E+00 -0.00000000000E+00 -0.45593999997E+02  0.45594000000E+02  0.51100000000E-03 0.  1.
    9900012    2    1    2    0    0  0.23223532519E+02 -0.38137201497E+02 -0.59443306412E+01  0.46142315773E+02  0.99999818704E+01 0.  0.
         12    1    1    2    0    0 -0.23223532519E+02  0.38137201497E+02  0.59443306412E+01  0.45045684227E+02  0.00000000000E+00 0. -1.
         11    1    3    3    0    0  0.18896508805E+01 -0.15406756566E+01  0.20497415282E+00  0.24467277318E+01  0.51100000000E-03 0. -1.
        -11    1    3    3    0    0  0.59339773997E+01 -0.43095183048E+01 -0.24548187660E+01  0.77337035911E+01  0.51100000000E-03 0.  1.
        -12    1    3    3    0    0  0.15399904239E+02 -0.32287007536E+02 -0.36944860280E+01  0.35961884450E+02  0.00000000000E+00 0.  1.
</event>
<event>
 7    1  0.2395003E-008  0.4614232E+02  0.7816164E-02  0.1320468E+00
        -11   -1    0    0    0    0  0.00000000000E+00  0.00000000000E+00  0.45593999997E+02  0.45594000000E+02  0.51100000000E-03 0.  1.
         11   -1    0    0    0    0 -0.00000000000E+00 -0.00000000000E+00 -0.45593999997E+02  0.45594000000E+02  0.51100000000E-03 0. -1.
    9900012    2    1    2    0    0 -0.31614104590E+02 -0.22122379071E+02 -0.23243536266E+02  0.46142320486E+02  0.10000024846E+02 0.  0.
         12    1    1    2    0    0  0.31614104590E+02  0.22122379071E+02  0.23243536266E+02  0.45045679514E+02  0.00000000000E+00 0. -1.
         11    1    3    3    0    0 -0.15778479696E+02 -0.14752773212E+02 -0.84209159311E+01  0.23184403472E+02  0.51100000000E-03 0. -1.
        -11    1    3    3    0    0 -0.20727048355E+01 -0.14294341059E+01 -0.25646302383E+01  0.35939832663E+01  0.51100000000E-03 0.  1.
         12    1    3    3    0    0 -0.13762920058E+02 -0.59401717528E+01 -0.12257990096E+02  0.19363933748E+02  0.00000000000E+00 0. -1.
</event>
<event>
 7    1  0.2395003E-008  0.4614232E+02  0.7816164E-02  0.1320468E+00
        -11   -1    0    0    0    0  0.00000000000E+00  0.00000000000E+00  0.45593999997E+02  0.45594000000E+02  0.51100000000E-03 0.  1.
         11   -1    0    0    0    0 -0.00000000000E+00 -0.00000000000E+00 -0.45593999997E+02  0.45594000000E+02  0.51100000000E-03 0. -1.
    9900012    2    1    2    0    0 -0.14096642333E+02  0.13281389457E+02  0.40669435197E+02  0.46142316631E+02  0.99999896919E+01 0.  0.
         12    1    1    2    0    0  0.14096642333E+02 -0.13281389457E+02 -0.40669435197E+02  0.45045683369E+02  0.00000000000E+00 0. -1.
         11    1    3    3    0    0  0.60878050816E+00  0.96306868244E+00  0.87735288416E+01  0.88471986295E+01  0.51100000000E-03 0. -1.
        -11    1    3    3    0    0 -0.35553683763E+01  0.42568018365E+01  0.99994134522E+01  0.11434564960E+02  0.51100000000E-03 0.  1.
        -12    1    3    3    0    0 -0.11150054465E+02  0.80615189382E+01  0.21896492903E+02  0.25860553042E+02  0.00000000000E+00 0.  1.
</event>
<event>
 7    1  0.2395003E-008  0.4614232E+02  0.7816164E-02  0.1320468E+00
        -11   -1    0    0    0    0  0.00000000000E+00  0.00000000000E+00  0.45593999997E+02  0.45594000000E+02  0.51100000000E-03 0.  1.
         11   -1    0    0    0    0 -0.00000000000E+00 -0.00000000000E+00 -0.45593999997E+02  0.45594000000E+02  0.51100000000E-03 0. -1.
    9900012    2    1    2    0    0  0.49706818758E+01 -0.40987933722E+01  0.44582571671E+02  0.46142317829E+02  0.10000000622E+02 0.  0.
         12    1    1    2    0    0 -0.49706818758E+01  0.40987933722E+01 -0.44582571671E+02  0.45045682171E+02  0.00000000000E+00 0. -1.
         11    1    3    3    0    0  0.65225070613E-01  0.22244058976E+01  0.34876411226E+01  0.41371338833E+01  0.51100000000E-03 0. -1.
        -11    1    3    3    0    0  0.36704165914E+01 -0.24641799232E+01  0.26134141185E+02  0.26505423528E+02  0.51100000000E-03 0.  1.
         12    1    3    3    0    0  0.12350402138E+01 -0.38590193466E+01  0.14960789364E+02  0.15499760418E+02  0.00000000000E+00 0. -1.
</event>
<event>
 7    1  0.2395003E-008  0.4614232E+02  0.7816164E-02  0.1320468E+00
        -11   -1    0    0    0    0  0.00000000000E+00  0.00000000000E+00  0.45593999997E+02  0.45594000000E+02  0.51100000000E-03 0. -1.
         11   -1    0    0    0    0 -0.00000000000E+00 -0.00000000000E+00 -0.45593999997E+02  0.45594000000E+02  0.51100000000E-03 0.  1.
    9900012    2    1    2    0    0  0.37073984084E+02 -0.18387031862E+02 -0.17791864664E+02  0.46142315581E+02  0.99999801180E+01 0.  0.
         12    1    1    2    0    0 -0.37073984084E+02  0.18387031862E+02  0.17791864664E+02  0.45045684419E+02  0.00000000000E+00 0. -1.
         11    1    3    3    0    0  0.40441072158E+01 -0.29851671029E+01  0.72325858055E-01  0.50270525257E+01  0.51100000000E-03 0. -1.
        -11    1    3    3    0    0  0.27465541338E+02 -0.15311356372E+02 -0.14671138724E+02  0.34699220548E+02  0.51100000000E-03 0.  1.
         12    1    3    3    0    0  0.55643355304E+01 -0.90508387185E-01 -0.31930517988E+01  0.64160425071E+01  0.00000000000E+00 0. -1.
</event>
<event>
 7    1  0.2395003E-008  0.4614232E+02  0.7816164E-02  0.1320468E+00
        -11   -1    0    0    0    0  0.00000000000E+00  0.00000000000E+00  0.45593999997E+02  0.45594000000E+02  0.51100000000E-03 0.  1.
         11   -1    0    0    0    0 -0.00000000000E+00 -0.00000000000E+00 -0.45593999997E+02  0.45594000000E+02  0.51100000000E-03 0. -1.
    9900012    2    1    2    0    0 -0.35800770647E+02 -0.23800362200E+02  0.13452171779E+02  0.46142319349E+02  0.10000014483E+02 0.  0.
         12    1    1    2    0    0  0.35800770647E+02  0.23800362200E+02 -0.13452171779E+02  0.45045680651E+02  0.00000000000E+00 0. -1.
         11    1    3    3    0    0 -0.12522469343E+02 -0.40478413418E+01  0.57593738207E+01  0.14365501907E+02  0.51100000000E-03 0. -1.
        -11    1    3    3    0    0 -0.11984847630E+02 -0.82648793541E+01  0.20193479575E+01  0.14697706280E+02  0.51100000000E-03 0.  1.
        -12    1    3    3    0    0 -0.11293453674E+02 -0.11487641504E+02  0.56734500004E+01  0.17079111163E+02  0.00000000000E+00 0.  1.
</event>
<event>
 7    1  0.2395003E-008  0.4614232E+02  0.7816164E-02  0.1320468E+00
        -11   -1    0    0    0    0  0.00000000000E+00  0.00000000000E+00  0.45593999997E+02  0.45594000000E+02  0.51100000000E-03 0. -1.
         11   -1    0    0    0    0 -0.00000000000E+00 -0.00000000000E+00 -0.45593999997E+02  0.45594000000E+02  0.51100000000E-03 0.  1.
    9900012    2    1    2    0    0  0.37702514186E+02 -0.78653649941E+01  0.23361718695E+02  0.46142318266E+02  0.10000004606E+02 0.  0.
         12    1    1    2    0    0 -0.37702514186E+02  0.78653649941E+01 -0.23361718695E+02  0.45045681734E+02  0.00000000000E+00 0. -1.
         11    1    3    3    0    0  0.58695765625E+01 -0.89706589845E+00  0.67982150530E+01  0.90262054274E+01  0.51100000000E-03 0. -1.
        -11    1    3    3    0    0  0.10773482420E+02 -0.29184774925E+01  0.24032330760E+01  0.11417572588E+02  0.51100000000E-03 0.  1.
        -12    1    3    3    0    0  0.21059455204E+02 -0.40498216032E+01  0.14160270566E+02  0.25698540251E+02  0.00000000000E+00 0.  1.
</event>
<event>
 7    1  0.2395003E-008  0.4614232E+02  0.7816164E-02  0.1320468E+00
        -11   -1    0    0    0    0  0.00000000000E+00  0.00000000000E+00  0.45593999997E+02  0.45594000000E+02  0.51100000000E-03 0.  1.
         11   -1    0    0    0    0 -0.00000000000E+00 -0.00000000000E+00 -0.45593999997E+02  0.45594000000E+02  0.51100000000E-03 0. -1.
    9900012    2    1    2    0    0  0.44010645230E+01  0.44827246432E+02 -0.51195113016E+00  0.46142317792E+02  0.10000000285E+02 0.  0.
         12    1    1    2    0    0 -0.44010645230E+01 -0.44827246432E+02  0.51195113016E+00  0.45045682208E+02  0.00000000000E+00 0. -1.
         11    1    3    3    0    0 -0.69281775404E+00  0.19816069242E+02 -0.36553811730E+01  0.20162301665E+02  0.51100000000E-03 0. -1.
        -11    1    3    3    0    0  0.49570700399E+01  0.25126060606E+02  0.31281785860E+01  0.25800716394E+02  0.51100000000E-03 0.  1.
         12    1    3    3    0    0  0.13681223716E+00 -0.11488341560E+00  0.15251456871E-01  0.17929973328E+00  0.00000000000E+00 0. -1.
</event>
<event>
 7    1  0.2395003E-008  0.4614232E+02  0.7816164E-02  0.1320468E+00
        -11   -1    0    0    0    0  0.00000000000E+00  0.00000000000E+00  0.45593999997E+02  0.45594000000E+02  0.51100000000E-03 0. -1.
         11   -1    0    0    0    0 -0.00000000000E+00 -0.00000000000E+00 -0.45593999997E+02  0.45594000000E+02  0.51100000000E-03 0.  1.
    9900012    2    1    2    0    0 -0.27633356859E+02  0.32767457291E+02  0.13849353515E+02  0.46142320281E+02  0.10000022974E+02 0.  0.
         12    1    1    2    0    0  0.27633356859E+02 -0.32767457291E+02 -0.13849353515E+02  0.45045679719E+02  0.00000000000E+00 0. -1.
         11    1    3    3    0    0 -0.15966661621E+01  0.45585007900E+00 -0.26451315652E+00  0.16814010821E+01  0.51100000000E-03 0. -1.
        -11    1    3    3    0    0 -0.23648374772E+01  0.74488722364E+01  0.21365519974E+01  0.81020373108E+01  0.51100000000E-03 0.  1.
        -12    1    3    3    0    0 -0.23671853220E+02  0.24862734975E+02  0.11977314674E+02  0.36358881888E+02  0.00000000000E+00 0.  1.
</event>
<event>
 7    1  0.2395003E-008  0.4614232E+02  0.7816164E-02  0.1320468E+00
        -11   -1    0    0    0    0  0.00000000000E+00  0.00000000000E+00  0.45593999997E+02  0.45594000000E+02  0.51100000000E-03 0.  1.
         11   -1    0    0    0    0 -0.00000000000E+00 -0.00000000000E+00 -0.45593999997E+02  0.45594000000E+02  0.51100000000E-03 0. -1.
    9900012    2    1    2    0    0  0.13767972948E+02  0.44249878954E+01  0.42661172370E+02  0.46142320685E+02  0.10000026658E+02 0.  0.
         12    1    1    2    0    0 -0.13767972948E+02 -0.44249878954E+01 -0.42661172370E+02  0.45045679315E+02  0.00000000000E+00 0. -1.
         11    1    3    3    0    0  0.19561794914E+01 -0.27988222168E+00  0.99607401238E+00  0.22129473469E+01  0.51100000000E-03 0. -1.
        -11    1    3    3    0    0  0.96259103071E+01  0.44650177278E+01  0.25563032899E+02  0.27677846444E+02  0.51100000000E-03 0.  1.
        -12    1    3    3    0    0  0.21858831497E+01  0.23985238926E+00  0.16102065459E+02  0.16251526893E+02  0.00000000000E+00 0.  1.
</event>
<event>
 7    1  0.2395003E-008  0.4614232E+02  0.7816164E-02  0.1320468E+00
        -11   -1    0    0    0    0  0.00000000000E+00  0.00000000000E+00  0.45593999997E+02  0.45594000000E+02  0.51100000000E-03 0.  1.
         11   -1    0    0    0    0 -0.00000000000E+00 -0.00000000000E+00 -0.45593999997E+02  0.45594000000E+02  0.51100000000E-03 0. -1.
    9900012    2    1    2    0    0 -0.19465612488E+02 -0.18286733855E+02  0.36273941133E+02  0.46142317521E+02  0.99999978113E+01 0.  0.
         12    1    1    2    0    0  0.19465612488E+02  0.18286733855E+02 -0.36273941133E+02  0.45045682479E+02  0.00000000000E+00 0. -1.
         11    1    3    3    0    0 -0.76771804993E+01 -0.34756534983E+01  0.11608783330E+02  0.14345142673E+02  0.51100000000E-03 0. -1.
        -11    1    3    3    0    0 -0.62573166411E+01 -0.36496405470E+01  0.12108229497E+02  0.14109681410E+02  0.51100000000E-03 0.  1.
         12    1    3    3    0    0 -0.55311153480E+01 -0.11161439810E+02  0.12556928307E+02  0.17687493438E+02  0.00000000000E+00 0. -1.
</event>
<event>
 7    1  0.2395003E-008  0.4614232E+02  0.7816164E-02  0.1320468E+00
        -11   -1    0    0    0    0  0.00000000000E+00  0.00000000000E+00  0.45593999997E+02  0.45594000000E+02  0.51100000000E-03 0.  1.
         11   -1    0    0    0    0 -0.00000000000E+00 -0.00000000000E+00 -0.45593999997E+02  0.45594000000E+02  0.51100000000E-03 0. -1.
    9900012    2    1    2    0    0 -0.30320875797E+02 -0.20017477018E+02  0.26628147477E+02  0.46142321702E+02  0.10000035938E+02 0.  0.
         12    1    1    2    0    0  0.30320875797E+02  0.20017477018E+02 -0.26628147477E+02  0.45045678298E+02  0.00000000000E+00 0. -1.
         11    1    3    3    0    0 -0.42348946801E+00 -0.10749491728E+01  0.24714407672E+01  0.27281639945E+01  0.51100000000E-03 0. -1.
        -11    1    3    3    0    0 -0.25839958354E+02 -0.18787780247E+02  0.22220661573E+02  0.38915831423E+02  0.51100000000E-03 0.  1.
         12    1    3    3    0    0 -0.40574279754E+01 -0.15474759797E+00  0.19360451368E+01  0.44983262851E+01  0.00000000000E+00 0. -1.
</event>
<event>
 7    1  0.2395003E-008  0.4614232E+02  0.7816164E-02  0.1320468E+00
        -11   -1    0    0    0    0  0.00000000000E+00  0.00000000000E+00  0.45593999997E+02  0.45594000000E+02  0.51100000000E-03 0.  1.
         11   -1    0    0    0    0 -0.00000000000E+00 -0.00000000000E+00 -0.45593999997E+02  0.45594000000E+02  0.51100000000E-03 0. -1.
    9900012    2    1    2    0    0 -0.31564245077E+02  0.29979109426E+02 -0.11578633760E+02  0.46142319530E+02  0.10000016133E+02 0.  0.
         12    1    1    2    0    0  0.31564245077E+02 -0.29979109426E+02  0.11578633760E+02  0.45045680470E+02  0.00000000000E+00 0. -1.
         11    1    3    3    0    0 -0.11545989936E+02  0.13240580387E+02 -0.66040653698E+01  0.18767965586E+02  0.51100000000E-03 0.  1.
        -11    1    3    3    0    0  0.40736497843E+00  0.11618764255E+01 -0.21937517351E+00  0.12506113631E+01  0.51100000000E-03 0. -1.
         12    1    3    3    0    0 -0.20425620119E+02  0.15576652614E+02 -0.47551932162E+01  0.26123742581E+02  0.00000000000E+00 0. -1.
</event>
<event>
 7    1  0.2395003E-008  0.4614232E+02  0.7816164E-02  0.1320468E+00
        -11   -1    0    0    0    0  0.00000000000E+00  0.00000000000E+00  0.45593999997E+02  0.45594000000E+02  0.51100000000E-03 0.  1.
         11   -1    0    0    0    0 -0.00000000000E+00 -0.00000000000E+00 -0.45593999997E+02  0.45594000000E+02  0.51100000000E-03 0. -1.
    9900012    2    1    2    0    0 -0.23960343280E+02  0.12025838152E+01  0.38125703605E+02  0.46142317262E+02  0.99999954528E+01 0.  0.
         12    1    1    2    0    0  0.23960343280E+02 -0.12025838152E+01 -0.38125703605E+02  0.45045682738E+02  0.00000000000E+00 0. -1.
         11    1    3    3    0    0 -0.28844858436E+00 -0.12313850228E+01  0.76192089537E+00  0.14764942845E+01  0.51100000000E-03 0. -1.
        -11    1    3    3    0    0 -0.14362993551E+02 -0.10384699479E+01  0.19740829083E+02  0.24435104599E+02  0.51100000000E-03 0.  1.
        -12    1    3    3    0    0 -0.93089011447E+01  0.34724387859E+01  0.17622953626E+02  0.20230718379E+02  0.00000000000E+00 0.  1.
</event>
<event>
 7    1  0.2395003E-008  0.4614231E+02  0.7816164E-02  0.1320468E+00
        -11   -1    0    0    0    0  0.00000000000E+00  0.00000000000E+00  0.45593999997E+02  0.45594000000E+02  0.51100000000E-03 0. -1.
         11   -1    0    0    0    0 -0.00000000000E+00 -0.00000000000E+00 -0.45593999997E+02  0.45594000000E+02  0.51100000000E-03 0.  1.
    9900012    2    1    2    0    0 -0.16638222871E+02 -0.20909670076E+02 -0.36263885728E+02  0.46142310183E+02  0.99999308945E+01 0.  0.
         12    1    1    2    0    0  0.16638222871E+02  0.20909670076E+02  0.36263885728E+02  0.45045689817E+02  0.00000000000E+00 0. -1.
         11    1    3    3    0    0 -0.32680202347E+01 -0.39952239110E+01 -0.25923784517E+01  0.57760017877E+01  0.51100000000E-03 0. -1.
        -11    1    3    3    0    0 -0.32168253126E+01 -0.96846892207E+00 -0.50482833673E+01  0.60639147720E+01  0.51100000000E-03 0.  1.
        -12    1    3    3    0    0 -0.10153377324E+02 -0.15945977243E+02 -0.28623223909E+02  0.34302393623E+02  0.00000000000E+00 0.  1.
</event>
<event>
 7    1  0.2395003E-008  0.4614232E+02  0.7816164E-02  0.1320468E+00
        -11   -1    0    0    0    0  0.00000000000E+00  0.00000000000E+00  0.45593999997E+02  0.45594000000E+02  0.51100000000E-03 0. -1.
         11   -1    0    0    0    0 -0.00000000000E+00 -0.00000000000E+00 -0.45593999997E+02  0.45594000000E+02  0.51100000000E-03 0.  1.
    9900012    2    1    2    0    0  0.42622920951E+02  0.62489176460E+01 -0.13166284760E+02  0.46142318558E+02  0.10000007268E+02 0.  0.
         12    1    1    2    0    0 -0.42622920951E+02 -0.62489176460E+01  0.13166284760E+02  0.45045681442E+02  0.00000000000E+00 0. -1.
         11    1    3    3    0    0  0.25936228844E+01  0.25158146558E+01 -0.22596167023E+01  0.42616981300E+01  0.51100000000E-03 0. -1.
        -11    1    3    3    0    0  0.88343820993E+01 -0.92936259052E+00 -0.28021734775E+01  0.93146228244E+01  0.51100000000E-03 0.  1.
         12    1    3    3    0    0  0.31194915968E+02  0.46624655808E+01 -0.81044945801E+01  0.32565997604E+02  0.00000000000E+00 0. -1.
</event>
<event>
 7    1  0.2395003E-008  0.4614232E+02  0.7816164E-02  0.1320468E+00
        -11   -1    0    0    0    0  0.00000000000E+00  0.00000000000E+00  0.45593999997E+02  0.45594000000E+02  0.51100000000E-03 0.  1.
         11   -1    0    0    0    0 -0.00000000000E+00 -0.00000000000E+00 -0.45593999997E+02  0.45594000000E+02  0.51100000000E-03 0. -1.
    9900012    2    1    2    0    0 -0.10652845185E+01  0.75181703622E+01  0.44401078286E+02  0.46142317968E+02  0.10000001891E+02 0.  0.
         12    1    1    2    0    0  0.10652845185E+01 -0.75181703622E+01 -0.44401078286E+02  0.45045682032E+02  0.00000000000E+00 0. -1.
         11    1    3    3    0    0 -0.80570628266E+00 -0.12455483657E+01  0.24416114412E+01  0.28569249266E+01  0.51100000000E-03 0. -1.
        -11    1    3    3    0    0  0.15948674076E+01  0.17938704200E+00  0.10543838573E+02  0.10665285457E+02  0.51100000000E-03 0.  1.
         12    1    3    3    0    0 -0.18544456435E+01  0.85843316859E+01  0.31415628272E+02  0.32620107585E+02  0.00000000000E+00 0. -1.
</event>
<event>
 7    1  0.2395003E-008  0.4614232E+02  0.7816164E-02  0.1320468E+00
        -11   -1    0    0    0    0  0.00000000000E+00  0.00000000000E+00  0.45593999997E+02  0.45594000000E+02  0.51100000000E-03 0.  1.
         11   -1    0    0    0    0 -0.00000000000E+00 -0.00000000000E+00 -0.45593999997E+02  0.45594000000E+02  0.51100000000E-03 0. -1.
    9900012    2    1    2    0    0 -0.25271952007E+02 -0.34200321693E+02  0.14858664881E+02  0.46142317807E+02  0.10000000418E+02 0.  0.
         12    1    1    2    0    0  0.25271952007E+02  0.34200321693E+02 -0.14858664881E+02  0.45045682193E+02  0.00000000000E+00 0. -1.
         11    1    3    3    0    0 -0.61747688256E+01 -0.56340428549E+01  0.50053929138E+01  0.97429034391E+01  0.51100000000E-03 0.  1.
        -11    1    3    3    0    0 -0.45146955881E+01 -0.12610083375E+02  0.45103604502E+01  0.14132941330E+02  0.51100000000E-03 0. -1.
         12    1    3    3    0    0 -0.14582487593E+02 -0.15956195463E+02  0.53429115173E+01  0.22266473038E+02  0.00000000000E+00 0. -1.
</event>
<event>
 7    1  0.2395003E-008  0.4614232E+02  0.7816164E-02  0.1320468E+00
        -11   -1    0    0    0    0  0.00000000000E+00  0.00000000000E+00  0.45593999997E+02  0.45594000000E+02  0.51100000000E-03 0. -1.
         11   -1    0    0    0    0 -0.00000000000E+00 -0.00000000000E+00 -0.45593999997E+02  0.45594000000E+02  0.51100000000E-03 0.  1.
    9900012    2    1    2    0    0  0.28577738059E+02  0.21778284096E+02 -0.27168590442E+02  0.46142322324E+02  0.10000041605E+02 0.  0.
         12    1    1    2    0    0 -0.28577738059E+02 -0.21778284096E+02  0.27168590442E+02  0.45045677676E+02  0.00000000000E+00 0. -1.
         11    1    3    3    0    0  0.14524493610E+02  0.12248421132E+02 -0.19009865095E+02  0.26876750288E+02  0.51100000000E-03 0. -1.
        -11    1    3    3    0    0  0.98943381094E+01  0.56169199701E+01 -0.72296097677E+01  0.13480169666E+02  0.51100000000E-03 0.  1.
         12    1    3    3    0    0  0.41589063398E+01  0.39129429940E+01 -0.92911557839E+00  0.57854023694E+01  0.00000000000E+00 0. -1.
</event>
<event>
 7    1  0.2395003E-008  0.4614232E+02  0.7816164E-02  0.1320468E+00
        -11   -1    0    0    0    0  0.00000000000E+00  0.00000000000E+00  0.45593999997E+02  0.45594000000E+02  0.51100000000E-03 0.  1.
         11   -1    0    0    0    0 -0.00000000000E+00 -0.00000000000E+00 -0.45593999997E+02  0.45594000000E+02  0.51100000000E-03 0. -1.
    9900012    2    1    2    0    0 -0.21531398748E+02  0.39329528213E+02  0.43244081011E+01  0.46142318443E+02  0.10000006221E+02 0.  0.
         12    1    1    2    0    0  0.21531398748E+02 -0.39329528213E+02 -0.43244081011E+01  0.45045681557E+02  0.00000000000E+00 0. -1.
         11    1    3    3    0    0 -0.11838279554E+02  0.24061919206E+02  0.72222687806E+01  0.27771964015E+02  0.51100000000E-03 0. -1.
        -11    1    3    3    0    0 -0.31401770141E+01  0.52378838272E+01 -0.31967509104E+00  0.61154174912E+01  0.51100000000E-03 0.  1.
         12    1    3    3    0    0 -0.65529421800E+01  0.10029725180E+02 -0.25781855885E+01  0.12254936937E+02  0.00000000000E+00 0. -1.
</event>
<event>
 7    1  0.2395003E-008  0.4614232E+02  0.7816164E-02  0.1320468E+00
        -11   -1    0    0    0    0  0.00000000000E+00  0.00000000000E+00  0.45593999997E+02  0.45594000000E+02  0.51100000000E-03 0.  1.
         11   -1    0    0    0    0 -0.00000000000E+00 -0.00000000000E+00 -0.45593999997E+02  0.45594000000E+02  0.51100000000E-03 0. -1.
    9900012    2    1    2    0    0  0.26345907611E+01 -0.25546424071E+02  0.37007467436E+02  0.46142317662E+02  0.99999990956E+01 0.  0.
         12    1    1    2    0    0 -0.26345907611E+01  0.25546424071E+02 -0.37007467436E+02  0.45045682338E+02  0.00000000000E+00 0. -1.
         11    1    3    3    0    0  0.40432117179E+00 -0.29894257978E+01  0.42054348673E+01  0.51755023809E+01  0.51100000000E-03 0. -1.
        -11    1    3    3    0    0  0.17863524933E+01 -0.13906486028E+02  0.27343025651E+02  0.30728203021E+02  0.51100000000E-03 0.  1.
         12    1    3    3    0    0  0.44391709601E+00 -0.86505122450E+01  0.54590069176E+01  0.10238612260E+02  0.00000000000E+00 0. -1.
</event>
<event>
 7    1  0.2395003E-008  0.4614232E+02  0.7816164E-02  0.1320468E+00
        -11   -1    0    0    0    0  0.00000000000E+00  0.00000000000E+00  0.45593999997E+02  0.45594000000E+02  0.51100000000E-03 0.  1.
         11   -1    0    0    0    0 -0.00000000000E+00 -0.00000000000E+00 -0.45593999997E+02  0.45594000000E+02  0.51100000000E-03 0. -1.
    9900012    2    1    2    0    0 -0.20081226866E+02  0.33208620538E+02 -0.22870185954E+02  0.46142317010E+02  0.99999931472E+01 0.  0.
         12    1    1    2    0    0  0.20081226866E+02 -0.33208620538E+02  0.22870185954E+02  0.45045682990E+02  0.00000000000E+00 0. -1.
         11    1    3    3    0    0 -0.23168037960E+01  0.38681777662E+01 -0.41597095706E+01  0.61346200398E+01  0.51100000000E-03 0. -1.
        -11    1    3    3    0    0 -0.13354154751E+02  0.20936939350E+02 -0.17631982400E+02  0.30456127168E+02  0.51100000000E-03 0.  1.
         12    1    3    3    0    0 -0.44102683191E+01  0.84035034218E+01 -0.10784939839E+01  0.95515698019E+01  0.00000000000E+00 0. -1.
</event>
<event>
 7    1  0.2395003E-008  0.4614232E+02  0.7816164E-02  0.1320468E+00
        -11   -1    0    0    0    0  0.00000000000E+00  0.00000000000E+00  0.45593999997E+02  0.45594000000E+02  0.51100000000E-03 0.  1.
         11   -1    0    0    0    0 -0.00000000000E+00 -0.00000000000E+00 -0.45593999997E+02  0.45594000000E+02  0.51100000000E-03 0. -1.
    9900012    2    1    2    0    0 -0.16034580088E+02 -0.33406352902E+02  0.25612908882E+02  0.46142320138E+02  0.10000021675E+02 0.  0.
         12    1    1    2    0    0  0.16034580088E+02  0.33406352902E+02 -0.25612908882E+02  0.45045679862E+02  0.00000000000E+00 0. -1.
         11    1    3    3    0    0 -0.18810590140E+01 -0.16787545001E+01 -0.32836184377E-01  0.25214436662E+01  0.51100000000E-03 0. -1.
        -11    1    3    3    0    0 -0.27219676889E+01 -0.13122501362E+02  0.10858854803E+02  0.17248880485E+02  0.51100000000E-03 0.  1.
         12    1    3    3    0    0 -0.11431553385E+02 -0.18605097040E+02  0.14786890264E+02  0.26371995987E+02  0.00000000000E+00 0. -1.
</event>
<event>
 7    1  0.2395003E-008  0.4614232E+02  0.7816164E-02  0.1320468E+00
        -11   -1    0    0    0    0  0.00000000000E+00  0.00000000000E+00  0.45593999997E+02  0.45594000000E+02  0.51100000000E-03 0.  1.
         11   -1    0    0    0    0 -0.00000000000E+00 -0.00000000000E+00 -0.45593999997E+02  0.45594000000E+02  0.51100000000E-03 0. -1.
    9900012    2    1    2    0    0 -0.41925497093E+02 -0.18364919869E+01  0.16370506833E+02  0.46142317596E+02  0.99999984930E+01 0.  0.
         12    1    1    2    0    0  0.41925497093E+02  0.18364919869E+01 -0.16370506833E+02  0.45045682404E+02  0.00000000000E+00 0. -1.
         11    1    3    3    0    0 -0.10425425154E+01 -0.59414134967E+00  0.67995561189E-01  0.12018828966E+01  0.51100000000E-03 0. -1.
        -11    1    3    3    0    0 -0.34014386357E+02 -0.12944291896E+01  0.16978569859E+02  0.38038478687E+02  0.51100000000E-03 0.  1.
        -12    1    3    3    0    0 -0.68685682206E+01  0.52078552350E-01 -0.67605858662E+00  0.69019560118E+01  0.00000000000E+00 0.  1.
</event>
<event>
 7    1  0.2395003E-008  0.4614232E+02  0.7816164E-02  0.1320468E+00
        -11   -1    0    0    0    0  0.00000000000E+00  0.00000000000E+00  0.45593999997E+02  0.45594000000E+02  0.51100000000E-03 0. -1.
         11   -1    0    0    0    0 -0.00000000000E+00 -0.00000000000E+00 -0.45593999997E+02  0.45594000000E+02  0.51100000000E-03 0.  1.
    9900012    2    1    2    0    0 -0.40698615522E+02 -0.15463787749E+02 -0.11558867693E+02  0.46142318084E+02  0.10000002943E+02 0.  0.
         12    1    1    2    0    0  0.40698615522E+02  0.15463787749E+02  0.11558867693E+02  0.45045681916E+02  0.00000000000E+00 0. -1.
         11    1    3    3    0    0 -0.85172491123E+01 -0.82364736047E+00 -0.32229361041E+01  0.91438090973E+01  0.51100000000E-03 0. -1.
        -11    1    3    3    0    0 -0.28236947952E+01  0.51077835145E+00  0.20125477876E+00  0.28765692357E+01  0.51100000000E-03 0.  1.
        -12    1    3    3    0    0 -0.29357671614E+02 -0.15150918740E+02 -0.85371863676E+01  0.34121939751E+02  0.00000000000E+00 0.  1.
</event>
<event>
 7    1  0.2395003E-008  0.4614232E+02  0.7816164E-02  0.1320468E+00
        -11   -1    0    0    0    0  0.00000000000E+00  0.00000000000E+00  0.45593999997E+02  0.45594000000E+02  0.51100000000E-03 0.  1.
         11   -1    0    0    0    0 -0.00000000000E+00 -0.00000000000E+00 -0.45593999997E+02  0.45594000000E+02  0.51100000000E-03 0. -1.
    9900012    2    1    2    0    0  0.35471309344E+01  0.38912926027E+02  0.22412396081E+02  0.46142318210E+02  0.10000004089E+02 0.  0.
         12    1    1    2    0    0 -0.35471309344E+01 -0.38912926027E+02 -0.22412396081E+02  0.45045681790E+02  0.00000000000E+00 0. -1.
         11    1    3    3    0    0  0.27561398948E+01  0.13704758878E+02  0.12324786962E+02  0.18636445394E+02  0.51100000000E-03 0. -1.
        -11    1    3    3    0    0 -0.85037052555E+00  0.19424476247E+02  0.88743661395E+01  0.21372594184E+02  0.51100000000E-03 0.  1.
         12    1    3    3    0    0  0.16413615651E+01  0.57836909027E+01  0.12132429794E+01  0.61332786315E+01  0.00000000000E+00 0. -1.
</event>
<event>
 7    1  0.2395003E-008  0.4614232E+02  0.7816164E-02  0.1320468E+00
        -11   -1    0    0    0    0  0.00000000000E+00  0.00000000000E+00  0.45593999997E+02  0.45594000000E+02  0.51100000000E-03 0.  1.
         11   -1    0    0    0    0 -0.00000000000E+00 -0.00000000000E+00 -0.45593999997E+02  0.45594000000E+02  0.51100000000E-03 0. -1.
    9900012    2    1    2    0    0 -0.65545739298E+01  0.37045202211E+02  0.24775066842E+02  0.46142318928E+02  0.10000010638E+02 0.  0.
         12    1    1    2    0    0  0.65545739298E+01 -0.37045202211E+02 -0.24775066842E+02  0.45045681072E+02  0.00000000000E+00 0. -1.
         11    1    3    3    0    0 -0.40249544125E+00  0.47085864886E+01  0.20092923348E+01  0.51351772364E+01  0.51100000000E-03 0. -1.
        -11    1    3    3    0    0 -0.49596649383E+01  0.23151036928E+02  0.20850457740E+02  0.31548539988E+02  0.51100000000E-03 0.  1.
         12    1    3    3    0    0 -0.11924135503E+01  0.91855787947E+01  0.19153167667E+01  0.94586017035E+01  0.00000000000E+00 0. -1.
</event>
<event>
 7    1  0.2395003E-008  0.4614232E+02  0.7816164E-02  0.1320468E+00
        -11   -1    0    0    0    0  0.00000000000E+00  0.00000000000E+00  0.45593999997E+02  0.45594000000E+02  0.51100000000E-03 0.  1.
         11   -1    0    0    0    0 -0.00000000000E+00 -0.00000000000E+00 -0.45593999997E+02  0.45594000000E+02  0.51100000000E-03 0. -1.
    9900012    2    1    2    0    0  0.21418889931E+02  0.37794339507E+02  0.11913544795E+02  0.46142317696E+02  0.99999994056E+01 0.  0.
         12    1    1    2    0    0 -0.21418889931E+02 -0.37794339507E+02 -0.11913544795E+02  0.45045682304E+02  0.00000000000E+00 0. -1.
         11    1    3    3    0    0  0.24001730438E+01  0.29129324979E+01  0.61639463378E+00  0.38243887071E+01  0.51100000000E-03 0. -1.
        -11    1    3    3    0    0  0.93559600211E+01  0.83970551944E+01  0.40751706153E+01  0.13215579430E+02  0.51100000000E-03 0.  1.
         12    1    3    3    0    0  0.96627568663E+01  0.26484351815E+02  0.72219795455E+01  0.29102349559E+02  0.00000000000E+00 0. -1.
</event>
<event>
 7    1  0.2395003E-008  0.4614232E+02  0.7816164E-02  0.1320468E+00
        -11   -1    0    0    0    0  0.00000000000E+00  0.00000000000E+00  0.45593999997E+02  0.45594000000E+02  0.51100000000E-03 0. -1.
         11   -1    0    0    0    0 -0.00000000000E+00 -0.00000000000E+00 -0.45593999997E+02  0.45594000000E+02  0.51100000000E-03 0.  1.
    9900012    2    1    2    0    0 -0.12753330850E+02 -0.72333292343E+01 -0.42592781360E+02  0.46142317371E+02  0.99999964412E+01 0.  0.
         12    1    1    2    0    0  0.12753330850E+02  0.72333292343E+01  0.42592781360E+02  0.45045682629E+02  0.00000000000E+00 0. -1.
         11    1    3    3    0    0 -0.52390814334E+00 -0.37340884164E+01 -0.58959516983E+01  0.69985814802E+01  0.51100000000E-03 0. -1.
        -11    1    3    3    0    0 -0.10074363090E+02 -0.95691003755E+00 -0.24702665199E+02  0.26695133202E+02  0.51100000000E-03 0.  1.
         12    1    3    3    0    0 -0.21550596167E+01 -0.25423307804E+01 -0.11994164462E+02  0.12448602689E+02  0.00000000000E+00 0. -1.
</event>
<event>
 7    1  0.2395003E-008  0.4614232E+02  0.7816164E-02  0.1320468E+00
        -11   -1    0    0    0    0  0.00000000000E+00  0.00000000000E+00  0.45593999997E+02  0.45594000000E+02  0.51100000000E-03 0.  1.
         11   -1    0    0    0    0 -0.00000000000E+00 -0.00000000000E+00 -0.45593999997E+02  0.45594000000E+02  0.51100000000E-03 0. -1.
    9900012    2    1    2    0    0  0.35887882092E+02  0.15283609161E+02  0.22529640149E+02  0.46142317906E+02  0.10000001323E+02 0.  0.
         12    1    1    2    0    0 -0.35887882092E+02 -0.15283609161E+02 -0.22529640149E+02  0.45045682094E+02  0.00000000000E+00 0. -1.
         11    1    3    3    0    0  0.20483074716E+01 -0.12990200946E+01  0.11152183759E+01  0.26695934131E+01  0.51100000000E-03 0. -1.
        -11    1    3    3    0    0  0.25654586462E+02  0.12301790854E+02  0.14491890393E+02  0.31929715818E+02  0.51100000000E-03 0.  1.
         12    1    3    3    0    0  0.81849881588E+01  0.42808384009E+01  0.69225313801E+01  0.11543008676E+02  0.00000000000E+00 0. -1.
</event>
<event>
 7    1  0.2395003E-008  0.4614232E+02  0.7816164E-02  0.1320468E+00
        -11   -1    0    0    0    0  0.00000000000E+00  0.00000000000E+00  0.45593999997E+02  0.45594000000E+02  0.51100000000E-03 0.  1.
         11   -1    0    0    0    0 -0.00000000000E+00 -0.00000000000E+00 -0.45593999997E+02  0.45594000000E+02  0.51100000000E-03 0. -1.
    9900012    2    1    2    0    0 -0.55171100430E+01  0.13949378636E+02  0.42474578340E+02  0.46142317935E+02  0.10000001585E+02 0.  0.
         12    1    1    2    0    0  0.55171100430E+01 -0.13949378636E+02 -0.42474578340E+02  0.45045682065E+02  0.00000000000E+00 0. -1.
         11    1    3    3    0    0 -0.33562389912E+01  0.26942048947E+00  0.81728170760E+01  0.88392232003E+01  0.51100000000E-03 0. -1.
        -11    1    3    3    0    0 -0.11724038963E+01  0.23863826526E+01  0.29846312284E+01  0.39971711111E+01  0.51100000000E-03 0.  1.
        -12    1    3    3    0    0 -0.98846715553E+00  0.11293575493E+02  0.31317130036E+02  0.33305923623E+02  0.00000000000E+00 0.  1.
</event>
<event>
 7    1  0.2395003E-008  0.4614232E+02  0.7816164E-02  0.1320468E+00
        -11   -1    0    0    0    0  0.00000000000E+00  0.00000000000E+00  0.45593999997E+02  0.45594000000E+02  0.51100000000E-03 0. -1.
         11   -1    0    0    0    0 -0.00000000000E+00 -0.00000000000E+00 -0.45593999997E+02  0.45594000000E+02  0.51100000000E-03 0.  1.
    9900012    2    1    2    0    0 -0.41086666591E+02  0.17984174170E+02 -0.41914986012E+01  0.46142319267E+02  0.10000013733E+02 0.  0.
         12    1    1    2    0    0  0.41086666591E+02 -0.17984174170E+02  0.41914986012E+01  0.45045680733E+02  0.00000000000E+00 0. -1.
         11    1    3    3    0    0 -0.12868387654E+02  0.58742950786E+01 -0.10166774864E+01  0.14182255704E+02  0.51100000000E-03 0. -1.
        -11    1    3    3    0    0 -0.75855451579E+01  0.70564841700E+01 -0.27255336109E+01  0.10712749316E+02  0.51100000000E-03 0.  1.
         12    1    3    3    0    0 -0.20632733780E+02  0.50533949216E+01 -0.44928750385E+00  0.21247314247E+02  0.00000000000E+00 0. -1.
</event>
<event>
 7    1  0.2395003E-008  0.4614232E+02  0.7816164E-02  0.1320468E+00
        -11   -1    0    0    0    0  0.00000000000E+00  0.00000000000E+00  0.45593999997E+02  0.45594000000E+02  0.51100000000E-03 0.  1.
         11   -1    0    0    0    0 -0.00000000000E+00 -0.00000000000E+00 -0.45593999997E+02  0.45594000000E+02  0.51100000000E-03 0. -1.
    9900012    2    1    2    0    0  0.28250863981E+02 -0.31248266379E+01  0.34946207435E+02  0.46142320171E+02  0.10000021973E+02 0.  0.
         12    1    1    2    0    0 -0.28250863981E+02  0.31248266379E+01 -0.34946207435E+02  0.45045679829E+02  0.00000000000E+00 0. -1.
         11    1    3    3    0    0  0.40955134135E+00  0.13101087618E+01  0.13986668738E+01  0.19596904230E+01  0.51100000000E-03 0. -1.
        -11    1    3    3    0    0  0.47277345432E+00 -0.77336788332E-01  0.25849171469E+01  0.26289337450E+01  0.51100000000E-03 0.  1.
         12    1    3    3    0    0  0.27368539185E+02 -0.43575986113E+01  0.30962623414E+02  0.41553696003E+02  0.00000000000E+00 0. -1.
</event>
<event>
 7    1  0.2395003E-008  0.4614232E+02  0.7816164E-02  0.1320468E+00
        -11   -1    0    0    0    0  0.00000000000E+00  0.00000000000E+00  0.45593999997E+02  0.45594000000E+02  0.51100000000E-03 0.  1.
         11   -1    0    0    0    0 -0.00000000000E+00 -0.00000000000E+00 -0.45593999997E+02  0.45594000000E+02  0.51100000000E-03 0. -1.
    9900012    2    1    2    0    0 -0.23726554495E+02  0.38288421895E+02 -0.40128987804E+00  0.46142315712E+02  0.99999813122E+01 0.  0.
         12    1    1    2    0    0  0.23726554495E+02 -0.38288421895E+02  0.40128987804E+00  0.45045684288E+02  0.00000000000E+00 0. -1.
         11    1    3    3    0    0 -0.93554756367E+01  0.12408667442E+02 -0.12335389912E+01  0.15589149136E+02  0.51100000000E-03 0. -1.
        -11    1    3    3    0    0 -0.12511191977E+02  0.16815696946E+02  0.26408950098E+01  0.21125148880E+02  0.51100000000E-03 0.  1.
        -12    1    3    3    0    0 -0.18598868812E+01  0.90640575072E+01 -0.18086458967E+01  0.94280176964E+01  0.00000000000E+00 0.  1.
</event>
<event>
 7    1  0.2395003E-008  0.4614232E+02  0.7816164E-02  0.1320468E+00
        -11   -1    0    0    0    0  0.00000000000E+00  0.00000000000E+00  0.45593999997E+02  0.45594000000E+02  0.51100000000E-03 0.  1.
         11   -1    0    0    0    0 -0.00000000000E+00 -0.00000000000E+00 -0.45593999997E+02  0.45594000000E+02  0.51100000000E-03 0. -1.
    9900012    2    1    2    0    0 -0.18666492399E+02  0.21673066027E+02  0.34798759301E+02  0.46142318982E+02  0.10000011136E+02 0.  0.
         12    1    1    2    0    0  0.18666492399E+02 -0.21673066027E+02 -0.34798759301E+02  0.45045681018E+02  0.00000000000E+00 0. -1.
         11    1    3    3    0    0 -0.49300525738E+01  0.86745414337E+01  0.96564328102E+01  0.13885236129E+02  0.51100000000E-03 0. -1.
        -11    1    3    3    0    0 -0.11607749400E+02  0.82115078711E+01  0.14047471561E+02  0.19987500223E+02  0.51100000000E-03 0.  1.
         12    1    3    3    0    0 -0.21286904245E+01  0.47870167225E+01  0.11094854929E+02  0.12269582631E+02  0.00000000000E+00 0. -1.
</event>
<event>
 7    1  0.2395003E-008  0.4614232E+02  0.7816164E-02  0.1320468E+00
        -11   -1    0    0    0    0  0.00000000000E+00  0.00000000000E+00  0.45593999997E+02  0.45594000000E+02  0.51100000000E-03 0. -1.
         11   -1    0    0    0    0 -0.00000000000E+00 -0.00000000000E+00 -0.45593999997E+02  0.45594000000E+02  0.51100000000E-03 0.  1.
    9900012    2    1    2    0    0 -0.41942320360E+02  0.33971223124E+01  0.16075288351E+02  0.46142316824E+02  0.99999914549E+01 0.  0.
         12    1    1    2    0    0  0.41942320360E+02 -0.33971223124E+01 -0.16075288351E+02  0.45045683176E+02  0.00000000000E+00 0. -1.
         11    1    3    3    0    0 -0.13397616628E+02  0.18760771085E+00  0.44778109456E+01  0.14127353577E+02  0.51100000000E-03 0. -1.
        -11    1    3    3    0    0 -0.22666744052E+02  0.11330300393E+01  0.56250134750E+01  0.23381741164E+02  0.51100000000E-03 0.  1.
         12    1    3    3    0    0 -0.58779596805E+01  0.20764845622E+01  0.59724639303E+01  0.86332220834E+01  0.00000000000E+00 0. -1.
</event>
<event>
 7    1  0.2395003E-008  0.4614232E+02  0.7816164E-02  0.1320468E+00
        -11   -1    0    0    0    0  0.00000000000E+00  0.00000000000E+00  0.45593999997E+02  0.45594000000E+02  0.51100000000E-03 0. -1.
         11   -1    0    0    0    0 -0.00000000000E+00 -0.00000000000E+00 -0.45593999997E+02  0.45594000000E+02  0.51100000000E-03 0.  1.
    9900012    2    1    2    0    0  0.41134400537E+02 -0.10760369189E+02 -0.14875784973E+02  0.46142318395E+02  0.10000005784E+02 0.  0.
         12    1    1    2    0    0 -0.41134400537E+02  0.10760369189E+02  0.14875784973E+02  0.45045681605E+02  0.00000000000E+00 0. -1.
         11    1    3    3    0    0  0.15461062591E+02 -0.42749355014E+01 -0.63601657236E+01  0.17256049324E+02  0.51100000000E-03 0.  1.
        -11    1    3    3    0    0  0.81435335463E+01 -0.52406390980E+01 -0.52358880450E+01  0.11008903699E+02  0.51100000000E-03 0. -1.
         12    1    3    3    0    0  0.17529804400E+02 -0.12447945900E+01 -0.32797312044E+01  0.17877365372E+02  0.00000000000E+00 0. -1.
</event>
<event>
 7    1  0.2887986E-008  0.4614232E+02  0.7816164E-02  0.1320468E+00
        -11   -1    0    0    0    0  0.00000000000E+00  0.00000000000E+00  0.45593999997E+02  0.45594000000E+02  0.51100000000E-03 0. -1.
         11   -1    0    0    0    0 -0.00000000000E+00 -0.00000000000E+00 -0.45593999997E+02  0.45594000000E+02  0.51100000000E-03 0.  1.
    9900012    2    1    2    0    0 -0.18074062028E+02  0.38623810884E+02 -0.14513540743E+02  0.46142319294E+02  0.10000013976E+02 0.  0.
         12    1    1    2    0    0  0.18074062028E+02 -0.38623810884E+02  0.14513540743E+02  0.45045680706E+02  0.00000000000E+00 0. -1.
         11    1    3    3    0    0 -0.82315655841E+00  0.13272542251E+01  0.86105528280E+00  0.17834256247E+01  0.51100000000E-03 0. -1.
        -11    1    3    3    0    0 -0.39129844880E+01  0.15323969578E+02 -0.72777522232E+01  0.17409800944E+02  0.51100000000E-03 0.  1.
        -12    1    3    3    0    0 -0.13337920981E+02  0.21972587082E+02 -0.80968438022E+01  0.26949092725E+02  0.00000000000E+00 0.  1.
</event>
<event>
 7    1  0.2395003E-008  0.4614232E+02  0.7816164E-02  0.1320468E+00
        -11   -1    0    0    0    0  0.00000000000E+00  0.00000000000E+00  0.45593999997E+02  0.45594000000E+02  0.51100000000E-03 0.  1.
         11   -1    0    0    0    0 -0.00000000000E+00 -0.00000000000E+00 -0.45593999997E+02  0.45594000000E+02  0.51100000000E-03 0. -1.
    9900012    2    1    2    0    0 -0.41398397870E+02 -0.13991725973E+02  0.10932416525E+02  0.46142317932E+02  0.10000001557E+02 0.  0.
         12    1    1    2    0    0  0.41398397870E+02  0.13991725973E+02 -0.10932416525E+02  0.45045682068E+02  0.00000000000E+00 0. -1.
         11    1    3    3    0    0  0.34480563059E+00  0.16281587987E-01 -0.41488718571E+00  0.53971071046E+00  0.51100000000E-03 0. -1.
        -11    1    3    3    0    0 -0.35291212931E+02 -0.10812378278E+02  0.86217667408E+01  0.37903985228E+02  0.51100000000E-03 0.  1.
         12    1    3    3    0    0 -0.64519905700E+01 -0.31956292829E+01  0.27255369701E+01  0.76986219939E+01  0.00000000000E+00 0. -1.
</event>
<event>
 7    1  0.2395003E-008  0.4614231E+02  0.7816164E-02  0.1320468E+00
        -11   -1    0    0    0    0  0.00000000000E+00  0.00000000000E+00  0.45593999997E+02  0.45594000000E+02  0.51100000000E-03 0. -1.
         11   -1    0    0    0    0 -0.00000000000E+00 -0.00000000000E+00 -0.45593999997E+02  0.45594000000E+02  0.51100000000E-03 0.  1.
    9900012    2    1    2    0    0 -0.11196848891E+01 -0.83424285752E+01 -0.44252277398E+02  0.46142313595E+02  0.99999620063E+01 0.  0.
         12    1    1    2    0    0  0.11196848891E+01  0.83424285752E+01  0.44252277398E+02  0.45045686405E+02  0.00000000000E+00 0. -1.
         11    1    3    3    0    0  0.54159417426E+00 -0.41622363129E+00 -0.18056798585E+01  0.19305559752E+01  0.51100000000E-03 0. -1.
        -11    1    3    3    0    0  0.54872979060E+00 -0.11649481734E+01 -0.28744167111E+02  0.28772996921E+02  0.51100000000E-03 0.  1.
         12    1    3    3    0    0 -0.22100088540E+01 -0.67612567706E+01 -0.13702430429E+02  0.15438760699E+02  0.00000000000E+00 0. -1.
</event>
<event>
 7    1  0.2395003E-008  0.4614230E+02  0.7816164E-02  0.1320468E+00
        -11   -1    0    0    0    0  0.00000000000E+00  0.00000000000E+00  0.45593999997E+02  0.45594000000E+02  0.51100000000E-03 0.  1.
         11   -1    0    0    0    0 -0.00000000000E+00 -0.00000000000E+00 -0.45593999997E+02  0.45594000000E+02  0.51100000000E-03 0. -1.
    9900012    2    1    2    0    0 -0.43245019532E+02 -0.11320021678E+02  0.55533837376E+01  0.46142304579E+02  0.99998797900E+01 0.  0.
         12    1    1    2    0    0  0.43245019532E+02  0.11320021678E+02 -0.55533837376E+01  0.45045695421E+02  0.00000000000E+00 0. -1.
         11    1    3    3    0    0 -0.17200021252E+02 -0.37873194291E+01  0.39614137864E+01  0.18052072429E+02  0.51100000000E-03 0. -1.
        -11    1    3    3    0    0 -0.73865340688E+01 -0.15567876762E+01  0.36600373742E+01  0.83892995691E+01  0.51100000000E-03 0.  1.
         12    1    3    3    0    0 -0.18658464211E+02 -0.59759145723E+01 -0.20680674230E+01  0.19700932581E+02  0.00000000000E+00 0. -1.
</event>
<event>
 7    1  0.2395003E-008  0.4614232E+02  0.7816164E-02  0.1320468E+00
        -11   -1    0    0    0    0  0.00000000000E+00  0.00000000000E+00  0.45593999997E+02  0.45594000000E+02  0.51100000000E-03 0. -1.
         11   -1    0    0    0    0 -0.00000000000E+00 -0.00000000000E+00 -0.45593999997E+02  0.45594000000E+02  0.51100000000E-03 0.  1.
    9900012    2    1    2    0    0  0.12666022471E+02 -0.25864863161E+02 -0.34636603358E+02  0.46142316925E+02  0.99999923712E+01 0.  0.
         12    1    1    2    0    0 -0.12666022471E+02  0.25864863161E+02  0.34636603358E+02  0.45045683075E+02  0.00000000000E+00 0. -1.
         11    1    3    3    0    0  0.15589628773E+01  0.22848826091E+00 -0.78178435403E+00  0.17589085182E+01  0.51100000000E-03 0. -1.
        -11    1    3    3    0    0  0.38156598189E+01 -0.10061120420E+02 -0.16181367165E+02  0.19432499776E+02  0.51100000000E-03 0.  1.
         12    1    3    3    0    0  0.72913997746E+01 -0.16032231002E+02 -0.17673451839E+02  0.24950908630E+02  0.00000000000E+00 0. -1.
</event>
<event>
 7    1  0.2395003E-008  0.4614232E+02  0.7816164E-02  0.1320468E+00
        -11   -1    0    0    0    0  0.00000000000E+00  0.00000000000E+00  0.45593999997E+02  0.45594000000E+02  0.51100000000E-03 0. -1.
         11   -1    0    0    0    0 -0.00000000000E+00 -0.00000000000E+00 -0.45593999997E+02  0.45594000000E+02  0.51100000000E-03 0.  1.
    9900012    2    1    2    0    0  0.30375885555E+01  0.43995205451E+02 -0.91819641994E+01  0.46142317483E+02  0.99999974623E+01 0.  0.
         12    1    1    2    0    0 -0.30375885555E+01 -0.43995205451E+02  0.91819641994E+01  0.45045682517E+02  0.00000000000E+00 0. -1.
         11    1    3    3    0    0  0.99318191420E+00  0.13291205632E+02 -0.10814111578E+01  0.13372060717E+02  0.51100000000E-03 0. -1.
        -11    1    3    3    0    0  0.10123954022E+01  0.30694637498E+02 -0.76894097868E+01  0.31659323093E+02  0.51100000000E-03 0.  1.
         12    1    3    3    0    0  0.10320112390E+01  0.93623213494E-02 -0.41114325474E+00  0.11109336733E+01  0.00000000000E+00 0. -1.
</event>
<event>
 7    1  0.2395003E-008  0.4614231E+02  0.7816164E-02  0.1320468E+00
        -11   -1    0    0    0    0  0.00000000000E+00  0.00000000000E+00  0.45593999997E+02  0.45594000000E+02  0.51100000000E-03 0.  1.
         11   -1    0    0    0    0 -0.00000000000E+00 -0.00000000000E+00 -0.45593999997E+02  0.45594000000E+02  0.51100000000E-03 0. -1.
    9900012    2    1    2    0    0  0.29633241478E+02  0.33266984557E+02  0.66553246298E+01  0.46142305334E+02  0.99998866761E+01 0.  0.
         12    1    1    2    0    0 -0.29633241478E+02 -0.33266984557E+02 -0.66553246298E+01  0.45045694666E+02  0.00000000000E+00 0. -1.
         11    1    3    3    0    0  0.85025909948E+01  0.76592426841E+01  0.54680548732E+01  0.12682967968E+02  0.51100000000E-03 0. -1.
        -11    1    3    3    0    0  0.83001580298E+01  0.11960688826E+02  0.20819031975E+01  0.14706631895E+02  0.51100000000E-03 0.  1.
        -12    1    3    3    0    0  0.12830492454E+02  0.13647053048E+02 -0.89463344096E+00  0.18752705471E+02  0.00000000000E+00 0.  1.
</event>
<event>
 7    1  0.2395003E-008  0.4614232E+02  0.7816164E-02  0.1320468E+00
        -11   -1    0    0    0    0  0.00000000000E+00  0.00000000000E+00  0.45593999997E+02  0.45594000000E+02  0.51100000000E-03 0.  1.
         11   -1    0    0    0    0 -0.00000000000E+00 -0.00000000000E+00 -0.45593999997E+02  0.45594000000E+02  0.51100000000E-03 0. -1.
    9900012    2    1    2    0    0  0.26775953814E+02  0.41021394110E+01  0.35990752078E+02  0.46142317793E+02  0.10000000288E+02 0.  0.
         12    1    1    2    0    0 -0.26775953814E+02 -0.41021394110E+01 -0.35990752078E+02  0.45045682207E+02  0.00000000000E+00 0. -1.
         11    1    3    3    0    0  0.15590250541E+02  0.13884290782E+01  0.17191308480E+02  0.23249187830E+02  0.51100000000E-03 0. -1.
        -11    1    3    3    0    0  0.11506446838E+02  0.16945483375E+01  0.15204647051E+02  0.19142912660E+02  0.51100000000E-03 0.  1.
        -12    1    3    3    0    0 -0.32074356462E+00  0.10191619953E+01  0.35947965472E+01  0.37502173033E+01  0.00000000000E+00 0.  1.
</event>
<event>
 7    1  0.2395003E-008  0.4614232E+02  0.7816164E-02  0.1320468E+00
        -11   -1    0    0    0    0  0.00000000000E+00  0.00000000000E+00  0.45593999997E+02  0.45594000000E+02  0.51100000000E-03 0.  1.
         11   -1    0    0    0    0 -0.00000000000E+00 -0.00000000000E+00 -0.45593999997E+02  0.45594000000E+02  0.51100000000E-03 0. -1.
    9900012    2    1    2    0    0  0.26718567408E+02 -0.12830220021E+02  0.33920744696E+02  0.46142319732E+02  0.10000017968E+02 0.  0.
         12    1    1    2    0    0 -0.26718567408E+02  0.12830220021E+02 -0.33920744696E+02  0.45045680268E+02  0.00000000000E+00 0. -1.
         11    1    3    3    0    0  0.60825454363E+01 -0.45491206334E+01  0.96864908881E+01  0.12309344560E+02  0.51100000000E-03 0. -1.
        -11    1    3    3    0    0  0.43375936283E+01 -0.16250421630E+01  0.10592642010E+02  0.11561122157E+02  0.51100000000E-03 0.  1.
         12    1    3    3    0    0  0.16298428343E+02 -0.66560572245E+01  0.13641611798E+02  0.22271853014E+02  0.00000000000E+00 0. -1.
</event>
<event>
 7    1  0.2395003E-008  0.4614232E+02  0.7816164E-02  0.1320468E+00
        -11   -1    0    0    0    0  0.00000000000E+00  0.00000000000E+00  0.45593999997E+02  0.45594000000E+02  0.51100000000E-03 0.  1.
         11   -1    0    0    0    0 -0.00000000000E+00 -0.00000000000E+00 -0.45593999997E+02  0.45594000000E+02  0.51100000000E-03 0. -1.
    9900012    2    1    2    0    0  0.30747549772E+01 -0.26542977605E+02  0.36264717709E+02  0.46142317312E+02  0.99999959057E+01 0.  0.
         12    1    1    2    0    0 -0.30747549772E+01  0.26542977605E+02 -0.36264717709E+02  0.45045682688E+02  0.00000000000E+00 0. -1.
         11    1    3    3    0    0  0.27232938425E+01 -0.16131519573E+01  0.57839067986E+01  0.65933426050E+01  0.51100000000E-03 0. -1.
        -11    1    3    3    0    0  0.33785972333E+00 -0.15911459451E+01  0.86492146629E+00  0.18422768563E+01  0.51100000000E-03 0.  1.
        -12    1    3    3    0    0  0.13601411358E-01 -0.23338679702E+02  0.29615889444E+02  0.37706697851E+02  0.00000000000E+00 0.  1.
</event>
<event>
 7    1  0.2395003E-008  0.4614232E+02  0.7816164E-02  0.1320468E+00
        -11   -1    0    0    0    0  0.00000000000E+00  0.00000000000E+00  0.45593999997E+02  0.45594000000E+02  0.51100000000E-03 0.  1.
         11   -1    0    0    0    0 -0.00000000000E+00 -0.00000000000E+00 -0.45593999997E+02  0.45594000000E+02  0.51100000000E-03 0. -1.
    9900012    2    1    2    0    0  0.39624631134E+01 -0.44867206556E+02 -0.58830576006E+00  0.46142318279E+02  0.10000004719E+02 0.  0.
         12    1    1    2    0    0 -0.39624631134E+01  0.44867206556E+02  0.58830576006E+00  0.45045681721E+02  0.00000000000E+00 0. -1.
         11    1    3    3    0    0 -0.25072927585E+01 -0.65202081461E+01 -0.11913591194E+01  0.70865342769E+01  0.51100000000E-03 0. -1.
        -11    1    3    3    0    0  0.23845770289E+01 -0.23964281596E+02 -0.18602179693E+00  0.24083347034E+02  0.51100000000E-03 0.  1.
         12    1    3    3    0    0  0.40851788430E+01 -0.14382716814E+02  0.78907515628E+00  0.14972436967E+02  0.00000000000E+00 0. -1.
</event>
<event>
 7    1  0.2395003E-008  0.4614232E+02  0.7816164E-02  0.1320468E+00
        -11   -1    0    0    0    0  0.00000000000E+00  0.00000000000E+00  0.45593999997E+02  0.45594000000E+02  0.51100000000E-03 0.  1.
         11   -1    0    0    0    0 -0.00000000000E+00 -0.00000000000E+00 -0.45593999997E+02  0.45594000000E+02  0.51100000000E-03 0. -1.
    9900012    2    1    2    0    0  0.20440668121E+02  0.16465556407E+02  0.36608440814E+02  0.46142318744E+02  0.10000008963E+02 0.  0.
         12    1    1    2    0    0 -0.20440668121E+02 -0.16465556407E+02 -0.36608440814E+02  0.45045681256E+02  0.00000000000E+00 0. -1.
         11    1    3    3    0    0  0.54117891998E+00  0.30327126637E+01  0.17289769283E+01  0.35326452134E+01  0.51100000000E-03 0. -1.
        -11    1    3    3    0    0  0.10012002619E+02  0.93153767929E+01  0.21343332978E+02  0.25348654878E+02  0.51100000000E-03 0.  1.
        -12    1    3    3    0    0  0.98874865818E+01  0.41174669500E+01  0.13536130907E+02  0.17261018653E+02  0.00000000000E+00 0.  1.
</event>
<event>
 7    1  0.2395003E-008  0.4614232E+02  0.7816164E-02  0.1320468E+00
        -11   -1    0    0    0    0  0.00000000000E+00  0.00000000000E+00  0.45593999997E+02  0.45594000000E+02  0.51100000000E-03 0.  1.
         11   -1    0    0    0    0 -0.00000000000E+00 -0.00000000000E+00 -0.45593999997E+02  0.45594000000E+02  0.51100000000E-03 0. -1.
    9900012    2    1    2    0    0 -0.20924280331E+01  0.15415506194E+02  0.42274076294E+02  0.46142316380E+02  0.99999874041E+01 0.  0.
         12    1    1    2    0    0  0.20924280331E+01 -0.15415506194E+02 -0.42274076294E+02  0.45045683620E+02  0.00000000000E+00 0. -1.
         11    1    3    3    0    0 -0.99586466622E+00  0.58154880083E+01  0.12849872006E+02  0.14139690875E+02  0.51100000000E-03 0. -1.
        -11    1    3    3    0    0 -0.29503971031E+01  0.10108643158E+02  0.26357507592E+02  0.28383229490E+02  0.51100000000E-03 0.  1.
         12    1    3    3    0    0  0.18538337363E+01 -0.50862497265E+00  0.30666966955E+01  0.36193960141E+01  0.00000000000E+00 0. -1.
</event>
<event>
 7    1  0.2395003E-008  0.4614232E+02  0.7816164E-02  0.1320468E+00
        -11   -1    0    0    0    0  0.00000000000E+00  0.00000000000E+00  0.45593999997E+02  0.45594000000E+02  0.51100000000E-03 0. -1.
         11   -1    0    0    0    0 -0.00000000000E+00 -0.00000000000E+00 -0.45593999997E+02  0.45594000000E+02  0.51100000000E-03 0.  1.
    9900012    2    1    2    0    0 -0.15651979151E+02 -0.37816717484E+02 -0.18815550942E+02  0.46142317300E+02  0.99999957982E+01 0.  0.
         12    1    1    2    0    0  0.15651979151E+02  0.37816717484E+02  0.18815550942E+02  0.45045682700E+02  0.00000000000E+00 0. -1.
         11    1    3    3    0    0  0.95061384070E-01 -0.49212316521E+01 -0.41792340205E+01  0.64570546614E+01  0.51100000000E-03 0. -1.
        -11    1    3    3    0    0 -0.54749525712E+01 -0.11429777331E+02 -0.79741845165E+01  0.14973394220E+02  0.51100000000E-03 0.  1.
         12    1    3    3    0    0 -0.10272087964E+02 -0.21465708501E+02 -0.66621324050E+01  0.24711868419E+02  0.00000000000E+00 0. -1.
</event>
<event>
 7    1  0.2395003E-008  0.4614232E+02  0.7816164E-02  0.1320468E+00
        -11   -1    0    0    0    0  0.00000000000E+00  0.00000000000E+00  0.45593999997E+02  0.45594000000E+02  0.51100000000E-03 0.  1.
         11   -1    0    0    0    0 -0.00000000000E+00 -0.00000000000E+00 -0.45593999997E+02  0.45594000000E+02  0.51100000000E-03 0. -1.
    9900012    2    1    2    0    0 -0.39428500153E+02  0.20504981269E+02  0.73520419085E+01  0.46142318727E+02  0.10000008806E+02 0.  0.
         12    1    1    2    0    0  0.39428500153E+02 -0.20504981269E+02 -0.73520419085E+01  0.45045681273E+02  0.00000000000E+00 0. -1.
         11    1    3    3    0    0 -0.12276882078E+02  0.94368146176E+01  0.63704720261E+01  0.16743900913E+02  0.51100000000E-03 0. -1.
        -11    1    3    3    0    0 -0.22823753398E+02  0.99063838033E+01  0.12217464530E+01  0.24910897693E+02  0.51100000000E-03 0.  1.
         12    1    3    3    0    0 -0.43278646773E+01  0.11617828477E+01 -0.24017657056E+00  0.44875201209E+01  0.00000000000E+00 0. -1.
</event>
<event>
 7    1  0.2395003E-008  0.4614232E+02  0.7816164E-02  0.1320468E+00
        -11   -1    0    0    0    0  0.00000000000E+00  0.00000000000E+00  0.45593999997E+02  0.45594000000E+02  0.51100000000E-03 0. -1.
         11   -1    0    0    0    0 -0.00000000000E+00 -0.00000000000E+00 -0.45593999997E+02  0.45594000000E+02  0.51100000000E-03 0.  1.
    9900012    2    1    2    0    0 -0.15452426839E+01 -0.68958278844E+00 -0.45013888754E+02  0.46142317853E+02  0.10000000835E+02 0.  0.
         12    1    1    2    0    0  0.15452426839E+01  0.68958278844E+00  0.45013888754E+02  0.45045682147E+02  0.00000000000E+00 0. -1.
         11    1    3    3    0    0 -0.11284335107E+01  0.19014020736E+01 -0.49474066065E+01  0.54189966253E+01  0.51100000000E-03 0.  1.
        -11    1    3    3    0    0 -0.32286852511E+01 -0.24477734863E+01 -0.16542655645E+02  0.17031601790E+02  0.51100000000E-03 0. -1.
        -12    1    3    3    0    0  0.28118760779E+01 -0.14321137573E+00 -0.23523826502E+02  0.23691719437E+02  0.00000000000E+00 0.  1.
</event>
<event>
 7    1  0.2395003E-008  0.4614232E+02  0.7816164E-02  0.1320468E+00
        -11   -1    0    0    0    0  0.00000000000E+00  0.00000000000E+00  0.45593999997E+02  0.45594000000E+02  0.51100000000E-03 0.  1.
         11   -1    0    0    0    0 -0.00000000000E+00 -0.00000000000E+00 -0.45593999997E+02  0.45594000000E+02  0.51100000000E-03 0. -1.
    9900012    2    1    2    0    0 -0.33026784090E+01 -0.43138762648E+02  0.12540050601E+02  0.46142318781E+02  0.10000009296E+02 0.  0.
         12    1    1    2    0    0  0.33026784090E+01  0.43138762648E+02 -0.12540050601E+02  0.45045681219E+02  0.00000000000E+00 0. -1.
         11    1    3    3    0    0 -0.76078762069E+00 -0.69705743330E-01  0.30381928804E+00  0.82216976067E+00  0.51100000000E-03 0. -1.
        -11    1    3    3    0    0  0.19503746357E+01 -0.78027915026E+01  0.14848709866E+01  0.81787748814E+01  0.51100000000E-03 0.  1.
        -12    1    3    3    0    0 -0.44922654240E+01 -0.35266265402E+02  0.10751360326E+02  0.37141374138E+02  0.00000000000E+00 0.  1.
</event>
<event>
 7    1  0.2395003E-008  0.4614231E+02  0.7816164E-02  0.1320468E+00
        -11   -1    0    0    0    0  0.00000000000E+00  0.00000000000E+00  0.45593999997E+02  0.45594000000E+02  0.51100000000E-03 0.  1.
         11   -1    0    0    0    0 -0.00000000000E+00 -0.00000000000E+00 -0.45593999997E+02  0.45594000000E+02  0.51100000000E-03 0. -1.
    9900012    2    1    2    0    0  0.21070861417E+02 -0.34882424522E+02  0.19192423303E+02  0.46142313706E+02  0.99999630259E+01 0.  0.
         12    1    1    2    0    0 -0.21070861417E+02  0.34882424522E+02 -0.19192423303E+02  0.45045686294E+02  0.00000000000E+00 0. -1.
         11    1    3    3    0    0  0.62957539965E+00 -0.38786245398E+01  0.43534437468E+01  0.58645175609E+01  0.51100000000E-03 0. -1.
        -11    1    3    3    0    0  0.79044093297E+01 -0.12574274221E+02  0.84631550566E+01  0.17094357338E+02  0.51100000000E-03 0.  1.
         12    1    3    3    0    0  0.12536876688E+02 -0.18429525761E+02  0.63758245000E+01  0.23183438807E+02  0.00000000000E+00 0. -1.
</event>
<event>
 7    1  0.2395003E-008  0.4614232E+02  0.7816164E-02  0.1320468E+00
        -11   -1    0    0    0    0  0.00000000000E+00  0.00000000000E+00  0.45593999997E+02  0.45594000000E+02  0.51100000000E-03 0.  1.
         11   -1    0    0    0    0 -0.00000000000E+00 -0.00000000000E+00 -0.45593999997E+02  0.45594000000E+02  0.51100000000E-03 0. -1.
    9900012    2    1    2    0    0 -0.19016004459E+02 -0.24126404548E+02  0.32945737978E+02  0.46142317933E+02  0.10000001566E+02 0.  0.
         12    1    1    2    0    0  0.19016004459E+02  0.24126404548E+02 -0.32945737978E+02  0.45045682067E+02  0.00000000000E+00 0. -1.
         11    1    3    3    0    0 -0.13564567496E+02 -0.20423036988E+02  0.21496808892E+02  0.32606912211E+02  0.51100000000E-03 0. -1.
        -11    1    3    3    0    0 -0.33058320001E+01 -0.23216224904E+01  0.40989720042E+01  0.57550002566E+01  0.51100000000E-03 0.  1.
         12    1    3    3    0    0 -0.21456049636E+01 -0.13817450693E+01  0.73499570819E+01  0.77804054651E+01  0.00000000000E+00 0. -1.
</event>
<event>
 7    1  0.2395003E-008  0.4614232E+02  0.7816164E-02  0.1320468E+00
        -11   -1    0    0    0    0  0.00000000000E+00  0.00000000000E+00  0.45593999997E+02  0.45594000000E+02  0.51100000000E-03 0.  1.
         11   -1    0    0    0    0 -0.00000000000E+00 -0.00000000000E+00 -0.45593999997E+02  0.45594000000E+02  0.51100000000E-03 0. -1.
    9900012    2    1    2    0    0 -0.22019924510E+02  0.61987227565E+01  0.38804796883E+02  0.46142317627E+02  0.99999987797E+01 0.  0.
         12    1    1    2    0    0  0.22019924510E+02 -0.61987227565E+01 -0.38804796883E+02  0.45045682373E+02  0.00000000000E+00 0. -1.
         11    1    3    3    0    0 -0.11053381583E+00  0.29783837961E+00  0.10061198380E+01  0.10550842688E+01  0.51100000000E-03 0. -1.
        -11    1    3    3    0    0 -0.11875504573E+01 -0.12524895483E+01  0.45552333311E+00  0.17850792490E+01  0.51100000000E-03 0.  1.
        -12    1    3    3    0    0 -0.20721840237E+02  0.71533739252E+01  0.37343153712E+02  0.43302154109E+02  0.00000000000E+00 0.  1.
</event>
<event>
 7    1  0.2395003E-008  0.4614232E+02  0.7816164E-02  0.1320468E+00
        -11   -1    0    0    0    0  0.00000000000E+00  0.00000000000E+00  0.45593999997E+02  0.45594000000E+02  0.51100000000E-03 0. -1.
         11   -1    0    0    0    0 -0.00000000000E+00 -0.00000000000E+00 -0.45593999997E+02  0.45594000000E+02  0.51100000000E-03 0.  1.
    9900012    2    1    2    0    0 -0.85321056074E+01 -0.44026745234E+02 -0.42382045460E+01  0.46142317634E+02  0.99999988432E+01 0.  0.
         12    1    1    2    0    0  0.85321056074E+01  0.44026745234E+02  0.42382045460E+01  0.45045682366E+02  0.00000000000E+00 0. -1.
         11    1    3    3    0    0 -0.36601559526E+01 -0.21622883614E+02  0.29822972438E+00  0.21932505069E+02  0.51100000000E-03 0.  1.
        -11    1    3    3    0    0 -0.51418464504E+01 -0.14135455123E+02 -0.61375515154E+00  0.15054114790E+02  0.51100000000E-03 0. -1.
         12    1    3    3    0    0  0.26989679562E+00 -0.82684064979E+01 -0.39226791188E+01  0.91556977759E+01  0.00000000000E+00 0. -1.
</event>
<event>
 7    1  0.2395003E-008  0.4614232E+02  0.7816164E-02  0.1320468E+00
        -11   -1    0    0    0    0  0.00000000000E+00  0.00000000000E+00  0.45593999997E+02  0.45594000000E+02  0.51100000000E-03 0.  1.
         11   -1    0    0    0    0 -0.00000000000E+00 -0.00000000000E+00 -0.45593999997E+02  0.45594000000E+02  0.51100000000E-03 0. -1.
    9900012    2    1    2    0    0  0.28686438881E+02  0.33145689894E+02  0.10371322222E+02  0.46142324748E+02  0.10000063714E+02 0.  0.
         12    1    1    2    0    0 -0.28686438881E+02 -0.33145689894E+02 -0.10371322222E+02  0.45045675252E+02  0.00000000000E+00 0. -1.
         11    1    3    3    0    0  0.12900545521E+02  0.12953407803E+02  0.99148964011E+00  0.18308410647E+02  0.51100000000E-03 0. -1.
        -11    1    3    3    0    0  0.78358922602E+01  0.83432431917E+01  0.15286636422E+01  0.11547628642E+02  0.51100000000E-03 0.  1.
         12    1    3    3    0    0  0.79500011000E+01  0.11849038900E+02  0.78511689393E+01  0.16286285459E+02  0.00000000000E+00 0. -1.
</event>
<event>
 7    1  0.2395003E-008  0.4614232E+02  0.7816164E-02  0.1320468E+00
        -11   -1    0    0    0    0  0.00000000000E+00  0.00000000000E+00  0.45593999997E+02  0.45594000000E+02  0.51100000000E-03 0. -1.
         11   -1    0    0    0    0 -0.00000000000E+00 -0.00000000000E+00 -0.45593999997E+02  0.45594000000E+02  0.51100000000E-03 0.  1.
    9900012    2    1    2    0    0 -0.25879653607E+02 -0.28365539925E+02 -0.23553198182E+02  0.46142317958E+02  0.10000001792E+02 0.  0.
         12    1    1    2    0    0  0.25879653607E+02  0.28365539925E+02  0.23553198182E+02  0.45045682042E+02  0.00000000000E+00 0. -1.
         11    1    3    3    0    0 -0.13677699983E+01  0.13285322328E+00 -0.12867653838E+01  0.18826072775E+01  0.51100000000E-03 0. -1.
        -11    1    3    3    0    0 -0.19616185282E+02 -0.20160331013E+02 -0.19416254942E+02  0.34179301160E+02  0.51100000000E-03 0.  1.
        -12    1    3    3    0    0 -0.48956983261E+01 -0.83380621353E+01 -0.28501778567E+01  0.10080409520E+02  0.00000000000E+00 0.  1.
</event>
<event>
 7    1  0.2395003E-008  0.4614232E+02  0.7816164E-02  0.1320468E+00
        -11   -1    0    0    0    0  0.00000000000E+00  0.00000000000E+00  0.45593999997E+02  0.45594000000E+02  0.51100000000E-03 0.  1.
         11   -1    0    0    0    0 -0.00000000000E+00 -0.00000000000E+00 -0.45593999997E+02  0.45594000000E+02  0.51100000000E-03 0. -1.
    9900012    2    1    2    0    0  0.36661560754E+02 -0.93638387055E+01  0.24440989916E+02  0.46142317629E+02  0.99999987949E+01 0.  0.
         12    1    1    2    0    0 -0.36661560754E+02  0.93638387055E+01 -0.24440989916E+02  0.45045682371E+02  0.00000000000E+00 0. -1.
         11    1    3    3    0    0  0.16069064249E+02 -0.51979514165E+01  0.91594363035E+01  0.19212724909E+02  0.51100000000E-03 0. -1.
        -11    1    3    3    0    0  0.19301890742E+02 -0.49416989275E+01  0.11849596755E+02  0.23181810068E+02  0.51100000000E-03 0.  1.
         12    1    3    3    0    0  0.12906057619E+01  0.77581163851E+00  0.34319568575E+01  0.37477826515E+01  0.00000000000E+00 0. -1.
</event>
<event>
 7    1  0.2395003E-008  0.4614232E+02  0.7816164E-02  0.1320468E+00
        -11   -1    0    0    0    0  0.00000000000E+00  0.00000000000E+00  0.45593999997E+02  0.45594000000E+02  0.51100000000E-03 0.  1.
         11   -1    0    0    0    0 -0.00000000000E+00 -0.00000000000E+00 -0.45593999997E+02  0.45594000000E+02  0.51100000000E-03 0. -1.
    9900012    2    1    2    0    0  0.31028123664E+02 -0.81141072124E+01  0.31631157940E+02  0.46142319335E+02  0.10000014351E+02 0.  0.
         12    1    1    2    0    0 -0.31028123664E+02  0.81141072124E+01 -0.31631157940E+02  0.45045680665E+02  0.00000000000E+00 0. -1.
         11    1    3    3    0    0  0.19503211057E+02 -0.59584949013E+01  0.25449600343E+02  0.32612283896E+02  0.51100000000E-03 0. -1.
        -11    1    3    3    0    0  0.33559194813E+01 -0.42856754501E+00  0.32206502982E+01  0.46710228334E+01  0.51100000000E-03 0.  1.
         12    1    3    3    0    0  0.81689931260E+01 -0.17270447660E+01  0.29609072985E+01  0.88590126056E+01  0.00000000000E+00 0. -1.
</event>
<event>
 7    1  0.2395003E-008  0.4614232E+02  0.7816164E-02  0.1320468E+00
        -11   -1    0    0    0    0  0.00000000000E+00  0.00000000000E+00  0.45593999997E+02  0.45594000000E+02  0.51100000000E-03 0.  1.
         11   -1    0    0    0    0 -0.00000000000E+00 -0.00000000000E+00 -0.45593999997E+02  0.45594000000E+02  0.51100000000E-03 0. -1.
    9900012    2    1    2    0    0  0.78465195797E+01  0.40983361001E+02  0.16967903833E+02  0.46142317533E+02  0.99999979184E+01 0.  0.
         12    1    1    2    0    0 -0.78465195797E+01 -0.40983361001E+02 -0.16967903833E+02  0.45045682467E+02  0.00000000000E+00 0. -1.
         11    1    3    3    0    0  0.11081441323E+01  0.24655328418E+00  0.58663305346E+00  0.12778538807E+01  0.51100000000E-03 0. -1.
        -11    1    3    3    0    0  0.23376773910E+01  0.40969165320E+01  0.30983047463E+01  0.56434876820E+01  0.51100000000E-03 0.  1.
        -12    1    3    3    0    0  0.44006980564E+01  0.36639891185E+02  0.13282966033E+02  0.39220975970E+02  0.00000000000E+00 0.  1.
</event>
<event>
 7    1  0.2395003E-008  0.4614232E+02  0.7816164E-02  0.1320468E+00
        -11   -1    0    0    0    0  0.00000000000E+00  0.00000000000E+00  0.45593999997E+02  0.45594000000E+02  0.51100000000E-03 0.  1.
         11   -1    0    0    0    0 -0.00000000000E+00 -0.00000000000E+00 -0.45593999997E+02  0.45594000000E+02  0.51100000000E-03 0. -1.
    9900012    2    1    2    0    0 -0.91129827986E+00  0.34892473222E+02  0.28474519926E+02  0.46142318330E+02  0.10000005185E+02 0.  0.
         12    1    1    2    0    0  0.91129827986E+00 -0.34892473222E+02 -0.28474519926E+02  0.45045681670E+02  0.00000000000E+00 0. -1.
         11    1    3    3    0    0  0.16773502567E+01  0.17889840007E+01  0.26518567273E+01  0.36119678849E+01  0.51100000000E-03 0. -1.
        -11    1    3    3    0    0 -0.10903124909E+01  0.15135074711E+02  0.15776890342E+02  0.21889941456E+02  0.51100000000E-03 0.  1.
        -12    1    3    3    0    0 -0.14983360456E+01  0.17968414511E+02  0.10045772857E+02  0.20640408989E+02  0.00000000000E+00 0.  1.
</event>
<event>
 7    1  0.2395003E-008  0.4614232E+02  0.7816164E-02  0.1320468E+00
        -11   -1    0    0    0    0  0.00000000000E+00  0.00000000000E+00  0.45593999997E+02  0.45594000000E+02  0.51100000000E-03 0. -1.
         11   -1    0    0    0    0 -0.00000000000E+00 -0.00000000000E+00 -0.45593999997E+02  0.45594000000E+02  0.51100000000E-03 0.  1.
    9900012    2    1    2    0    0 -0.16876654240E+02 -0.40547656468E+02 -0.10008977211E+02  0.46142317319E+02  0.99999959691E+01 0.  0.
         12    1    1    2    0    0  0.16876654240E+02  0.40547656468E+02  0.10008977211E+02  0.45045682681E+02  0.00000000000E+00 0. -1.
         11    1    3    3    0    0 -0.16160974233E+00 -0.31719819187E+01 -0.20050429979E+01  0.37560331050E+01  0.51100000000E-03 0. -1.
        -11    1    3    3    0    0 -0.17378918807E+02 -0.36526091922E+02 -0.73124638386E+01  0.41105405212E+02  0.51100000000E-03 0.  1.
        -12    1    3    3    0    0  0.66387430913E+00 -0.84958262699E+00 -0.69147037468E+00  0.12808790019E+01  0.00000000000E+00 0.  1.
</event>
<event>
 7    1  0.2395003E-008  0.4614232E+02  0.7816164E-02  0.1320468E+00
        -11   -1    0    0    0    0  0.00000000000E+00  0.00000000000E+00  0.45593999997E+02  0.45594000000E+02  0.51100000000E-03 0.  1.
         11   -1    0    0    0    0 -0.00000000000E+00 -0.00000000000E+00 -0.45593999997E+02  0.45594000000E+02  0.51100000000E-03 0. -1.
    9900012    2    1    2    0    0  0.24586129711E+02  0.13401966789E+02  0.35284881285E+02  0.46142319461E+02  0.10000015498E+02 0.  0.
         12    1    1    2    0    0 -0.24586129711E+02 -0.13401966789E+02 -0.35284881285E+02  0.45045680539E+02  0.00000000000E+00 0. -1.
         11    1    3    3    0    0  0.67215343394E+01  0.19463382863E+01  0.12011627765E+02  0.13901311393E+02  0.51100000000E-03 0. -1.
        -11    1    3    3    0    0  0.24851361490E+01  0.49832687962E+01  0.48479210388E+01  0.73831706085E+01  0.51100000000E-03 0.  1.
        -12    1    3    3    0    0  0.15379459223E+02  0.64723597060E+01  0.18425332481E+02  0.24857837460E+02  0.00000000000E+00 0.  1.
</event>
<event>
 7    1  0.3985111E-008  0.4614232E+02  0.7816164E-02  0.1320468E+00
        -11   -1    0    0    0    0  0.00000000000E+00  0.00000000000E+00  0.45593999997E+02  0.45594000000E+02  0.51100000000E-03 0.  1.
         11   -1    0    0    0    0 -0.00000000000E+00 -0.00000000000E+00 -0.45593999997E+02  0.45594000000E+02  0.51100000000E-03 0. -1.
    9900012    2    1    2    0    0  0.44299611294E+02 -0.81441781415E+01  0.57474033572E+00  0.46142317356E+02  0.99999963102E+01 0.  0.
         12    1    1    2    0    0 -0.44299611294E+02  0.81441781415E+01 -0.57474033572E+00  0.45045682644E+02  0.00000000000E+00 0. -1.
         11    1    3    3    0    0  0.80183575949E-01  0.64074894001E+00 -0.13385513372E+00  0.65947408434E+00  0.51100000000E-03 0. -1.
        -11    1    3    3    0    0  0.65171385167E-01  0.12464204547E-01  0.45518629541E+00  0.45999727226E+00  0.51100000000E-03 0.  1.
        -12    1    3    3    0    0  0.44154256333E+02 -0.87973912860E+01  0.25340917403E+00  0.45022846000E+02  0.00000000000E+00 0.  1.
</event>
<event>
 7    1  0.2395003E-008  0.4614232E+02  0.7816164E-02  0.1320468E+00
        -11   -1    0    0    0    0  0.00000000000E+00  0.00000000000E+00  0.45593999997E+02  0.45594000000E+02  0.51100000000E-03 0.  1.
         11   -1    0    0    0    0 -0.00000000000E+00 -0.00000000000E+00 -0.45593999997E+02  0.45594000000E+02  0.51100000000E-03 0. -1.
    9900012    2    1    2    0    0  0.52257968002E+01  0.44471151119E+02  0.49113354165E+01  0.46142318192E+02  0.10000003925E+02 0.  0.
         12    1    1    2    0    0 -0.52257968002E+01 -0.44471151119E+02 -0.49113354165E+01  0.45045681808E+02  0.00000000000E+00 0. -1.
         11    1    3    3    0    0  0.30856165609E-01 -0.34536975525E+00  0.26992182604E+00  0.43942055493E+00  0.51100000000E-03 0. -1.
        -11    1    3    3    0    0  0.24407198094E+01  0.38445751530E+02  0.37495502136E+01  0.38705194108E+02  0.51100000000E-03 0.  1.
        -12    1    3    3    0    0  0.27542208252E+01  0.63707693444E+01  0.89186337688E+00  0.69977035288E+01  0.00000000000E+00 0.  1.
</event>
<event>
 7    1  0.2395003E-008  0.4614232E+02  0.7816164E-02  0.1320468E+00
        -11   -1    0    0    0    0  0.00000000000E+00  0.00000000000E+00  0.45593999997E+02  0.45594000000E+02  0.51100000000E-03 0. -1.
         11   -1    0    0    0    0 -0.00000000000E+00 -0.00000000000E+00 -0.45593999997E+02  0.45594000000E+02  0.51100000000E-03 0.  1.
    9900012    2    1    2    0    0  0.28538911900E+02  0.29098892096E+02 -0.19180673655E+02  0.46142320346E+02  0.10000023567E+02 0.  0.
         12    1    1    2    0    0 -0.28538911900E+02 -0.29098892096E+02  0.19180673655E+02  0.45045679654E+02  0.00000000000E+00 0. -1.
         11    1    3    3    0    0  0.70023120161E+01  0.84663903451E+01 -0.41118519324E+01  0.11731132325E+02  0.51100000000E-03 0. -1.
        -11    1    3    3    0    0  0.18468019554E+01 -0.15495476607E+00 -0.25729803952E+01  0.31709488828E+01  0.51100000000E-03 0.  1.
        -12    1    3    3    0    0  0.19689797928E+02  0.20787456517E+02 -0.12495841328E+02  0.31240239138E+02  0.00000000000E+00 0.  1.
</event>
<event>
 7    1  0.2395003E-008  0.4614231E+02  0.7816164E-02  0.1320468E+00
        -11   -1    0    0    0    0  0.00000000000E+00  0.00000000000E+00  0.45593999997E+02  0.45594000000E+02  0.51100000000E-03 0.  1.
         11   -1    0    0    0    0 -0.00000000000E+00 -0.00000000000E+00 -0.45593999997E+02  0.45594000000E+02  0.51100000000E-03 0. -1.
    9900012    2    1    2    0    0 -0.20026051910E+02 -0.73280029975E+01  0.39678348987E+02  0.46142314731E+02  0.99999723711E+01 0.  0.
         12    1    1    2    0    0  0.20026051910E+02  0.73280029975E+01 -0.39678348987E+02  0.45045685269E+02  0.00000000000E+00 0. -1.
         11    1    3    3    0    0 -0.13729940028E+02 -0.22627005876E+01  0.26235119837E+02  0.29697012985E+02  0.51100000000E-03 0. -1.
        -11    1    3    3    0    0 -0.66404206163E+01 -0.29170112706E+01  0.96402355628E+01  0.12063924846E+02  0.51100000000E-03 0.  1.
         12    1    3    3    0    0  0.34430873395E+00 -0.21482911393E+01  0.38029935864E+01  0.43813769002E+01  0.00000000000E+00 0. -1.
</event>
<event>
 7    1  0.2395003E-008  0.4614232E+02  0.7816164E-02  0.1320468E+00
        -11   -1    0    0    0    0  0.00000000000E+00  0.00000000000E+00  0.45593999997E+02  0.45594000000E+02  0.51100000000E-03 0.  1.
         11   -1    0    0    0    0 -0.00000000000E+00 -0.00000000000E+00 -0.45593999997E+02  0.45594000000E+02  0.51100000000E-03 0. -1.
    9900012    2    1    2    0    0 -0.38186001043E+02 -0.15035371007E+02  0.18570955032E+02  0.46142318433E+02  0.10000006131E+02 0.  0.
         12    1    1    2    0    0  0.38186001043E+02  0.15035371007E+02 -0.18570955032E+02  0.45045681567E+02  0.00000000000E+00 0. -1.
         11    1    3    3    0    0 -0.95370113777E+01 -0.53529387764E+01  0.87483425698E+01  0.14005071851E+02  0.51100000000E-03 0. -1.
        -11    1    3    3    0    0 -0.82655441177E+01 -0.25196333711E+01  0.65018871784E+00  0.86654784932E+01  0.51100000000E-03 0.  1.
        -12    1    3    3    0    0 -0.20383445548E+02 -0.71627988597E+01  0.91724237446E+01  0.23471768090E+02  0.00000000000E+00 0.  1.
</event>
<event>
 7    1  0.2395003E-008  0.4614232E+02  0.7816164E-02  0.1320468E+00
        -11   -1    0    0    0    0  0.00000000000E+00  0.00000000000E+00  0.45593999997E+02  0.45594000000E+02  0.51100000000E-03 0.  1.
         11   -1    0    0    0    0 -0.00000000000E+00 -0.00000000000E+00 -0.45593999997E+02  0.45594000000E+02  0.51100000000E-03 0. -1.
    9900012    2    1    2    0    0 -0.29070381075E+02 -0.62387544764E+01  0.33839390669E+02  0.46142317920E+02  0.10000001445E+02 0.  0.
         12    1    1    2    0    0  0.29070381075E+02  0.62387544764E+01 -0.33839390669E+02  0.45045682080E+02  0.00000000000E+00 0. -1.
         11    1    3    3    0    0 -0.40428051442E+01 -0.23911697823E+01  0.24097956613E+01  0.52791175164E+01  0.51100000000E-03 0. -1.
        -11    1    3    3    0    0 -0.23415792206E+01  0.14634475971E+01  0.25694717335E+01  0.37718506553E+01  0.51100000000E-03 0.  1.
        -12    1    3    3    0    0 -0.22685996710E+02 -0.53110322912E+01  0.28860123274E+02  0.37091349748E+02  0.00000000000E+00 0.  1.
</event>
<event>
 7    1  0.2395003E-008  0.4614231E+02  0.7816164E-02  0.1320468E+00
        -11   -1    0    0    0    0  0.00000000000E+00  0.00000000000E+00  0.45593999997E+02  0.45594000000E+02  0.51100000000E-03 0.  1.
         11   -1    0    0    0    0 -0.00000000000E+00 -0.00000000000E+00 -0.45593999997E+02  0.45594000000E+02  0.51100000000E-03 0. -1.
    9900012    2    1    2    0    0  0.11773373585E+02 -0.25122715766E+02  0.35487330338E+02  0.46142314440E+02  0.99999697177E+01 0.  0.
         12    1    1    2    0    0 -0.11773373585E+02  0.25122715766E+02 -0.35487330338E+02  0.45045685560E+02  0.00000000000E+00 0. -1.
         11    1    3    3    0    0  0.24110234683E+01 -0.10952359885E+02  0.11059593250E+02  0.15750613459E+02  0.51100000000E-03 0. -1.
        -11    1    3    3    0    0  0.57463337196E+01 -0.13051990832E+02  0.18500083741E+02  0.23358679642E+02  0.51100000000E-03 0.  1.
         12    1    3    3    0    0  0.36160163969E+01 -0.11183650485E+01  0.59276533461E+01  0.70330213391E+01  0.00000000000E+00 0. -1.
</event>
<event>
 7    1  0.2395003E-008  0.4614232E+02  0.7816164E-02  0.1320468E+00
        -11   -1    0    0    0    0  0.00000000000E+00  0.00000000000E+00  0.45593999997E+02  0.45594000000E+02  0.51100000000E-03 0.  1.
         11   -1    0    0    0    0 -0.00000000000E+00 -0.00000000000E+00 -0.45593999997E+02  0.45594000000E+02  0.51100000000E-03 0. -1.
    9900012    2    1    2    0    0  0.43184275229E+02 -0.43339409880E+00  0.12807976939E+02  0.46142315071E+02  0.99999754653E+01 0.  0.
         12    1    1    2    0    0 -0.43184275229E+02  0.43339409880E+00 -0.12807976939E+02  0.45045684929E+02  0.00000000000E+00 0. -1.
         11    1    3    3    0    0  0.64726292908E+01 -0.30033315898E+01  0.37671412646E+01  0.80688465187E+01  0.51100000000E-03 0. -1.
        -11    1    3    3    0    0  0.18515958437E+02  0.22078988361E+01  0.62182022623E+01  0.19656591102E+02  0.51100000000E-03 0.  1.
        -12    1    3    3    0    0  0.18195687501E+02  0.36203865491E+00  0.28226334121E+01  0.18416877450E+02  0.00000000000E+00 0.  1.
</event>
<event>
 7    1  0.2395003E-008  0.4614232E+02  0.7816164E-02  0.1320468E+00
        -11   -1    0    0    0    0  0.00000000000E+00  0.00000000000E+00  0.45593999997E+02  0.45594000000E+02  0.51100000000E-03 0.  1.
         11   -1    0    0    0    0 -0.00000000000E+00 -0.00000000000E+00 -0.45593999997E+02  0.45594000000E+02  0.51100000000E-03 0. -1.
    9900012    2    1    2    0    0  0.42090874720E+02  0.13905166450E+02 -0.80073829514E+01  0.46142316850E+02  0.99999916920E+01 0.  0.
         12    1    1    2    0    0 -0.42090874720E+02 -0.13905166450E+02  0.80073829514E+01  0.45045683150E+02  0.00000000000E+00 0. -1.
         11    1    3    3    0    0  0.12120864960E+02  0.47485854188E+01 -0.40824692797E+01  0.13642983052E+02  0.51100000000E-03 0. -1.
        -11    1    3    3    0    0  0.21783473870E+02  0.59617388434E+01 -0.62031728487E+01  0.23420961072E+02  0.51100000000E-03 0.  1.
         12    1    3    3    0    0  0.81865358902E+01  0.31948421881E+01  0.22782591770E+01  0.90783727268E+01  0.00000000000E+00 0. -1.
</event>
<event>
 7    1  0.2395003E-008  0.4614232E+02  0.7816164E-02  0.1320468E+00
        -11   -1    0    0    0    0  0.00000000000E+00  0.00000000000E+00  0.45593999997E+02  0.45594000000E+02  0.51100000000E-03 0.  1.
         11   -1    0    0    0    0 -0.00000000000E+00 -0.00000000000E+00 -0.45593999997E+02  0.45594000000E+02  0.51100000000E-03 0. -1.
    9900012    2    1    2    0    0 -0.20127680752E+01 -0.43508863038E+02  0.11490913432E+02  0.46142317747E+02  0.99999998676E+01 0.  0.
         12    1    1    2    0    0  0.20127680752E+01  0.43508863038E+02 -0.11490913432E+02  0.45045682253E+02  0.00000000000E+00 0. -1.
         11    1    3    3    0    0 -0.42565983684E+00 -0.19138665815E+01  0.31011349384E+01  0.36689385054E+01  0.51100000000E-03 0. -1.
        -11    1    3    3    0    0 -0.87428285415E+00 -0.17914524177E+02  0.31665240434E+01  0.18213221071E+02  0.51100000000E-03 0.  1.
         12    1    3    3    0    0 -0.71282538421E+00 -0.23680472280E+02  0.52232544506E+01  0.24260158171E+02  0.00000000000E+00 0. -1.
</event>
<event>
 7    1  0.2395003E-008  0.4614232E+02  0.7816164E-02  0.1320468E+00
        -11   -1    0    0    0    0  0.00000000000E+00  0.00000000000E+00  0.45593999997E+02  0.45594000000E+02  0.51100000000E-03 0.  1.
         11   -1    0    0    0    0 -0.00000000000E+00 -0.00000000000E+00 -0.45593999997E+02  0.45594000000E+02  0.51100000000E-03 0. -1.
    9900012    2    1    2    0    0  0.11583868450E+02 -0.42762208650E+02 -0.81437715990E+01  0.46142317490E+02  0.99999975294E+01 0.  0.
         12    1    1    2    0    0 -0.11583868450E+02  0.42762208650E+02  0.81437715990E+01  0.45045682510E+02  0.00000000000E+00 0. -1.
         11    1    3    3    0    0  0.20811849060E+01 -0.52900742576E+01  0.73449429999E+00  0.57319890441E+01  0.51100000000E-03 0. -1.
        -11    1    3    3    0    0  0.10652877049E+02 -0.30461488874E+02 -0.80374138852E+01  0.33256369556E+02  0.51100000000E-03 0.  1.
         12    1    3    3    0    0 -0.11501935049E+01 -0.70106455191E+01 -0.84085201381E+00  0.71539588902E+01  0.00000000000E+00 0. -1.
</event>
<event>
 7    1  0.2395003E-008  0.4614232E+02  0.7816164E-02  0.1320468E+00
        -11   -1    0    0    0    0  0.00000000000E+00  0.00000000000E+00  0.45593999997E+02  0.45594000000E+02  0.51100000000E-03 0.  1.
         11   -1    0    0    0    0 -0.00000000000E+00 -0.00000000000E+00 -0.45593999997E+02  0.45594000000E+02  0.51100000000E-03 0. -1.
    9900012    2    1    2    0    0 -0.18039810732E+02 -0.23908378779E+02  0.33646221577E+02  0.46142316817E+02  0.99999913870E+01 0.  0.
         12    1    1    2    0    0  0.18039810732E+02  0.23908378779E+02 -0.33646221577E+02  0.45045683183E+02  0.00000000000E+00 0. -1.
         11    1    3    3    0    0 -0.39949902308E+01 -0.43221014050E+01  0.86927522403E+01  0.10497830694E+02  0.51100000000E-03 0.  1.
        -11    1    3    3    0    0 -0.14599299054E+02 -0.17860933728E+02  0.24729176612E+02  0.33818407158E+02  0.51100000000E-03 0. -1.
         12    1    3    3    0    0  0.55447855335E+00 -0.17253436454E+01  0.22429272456E+00  0.18260789652E+01  0.00000000000E+00 0. -1.
</event>
<event>
 7    1  0.2395003E-008  0.4614232E+02  0.7816164E-02  0.1320468E+00
        -11   -1    0    0    0    0  0.00000000000E+00  0.00000000000E+00  0.45593999997E+02  0.45594000000E+02  0.51100000000E-03 0.  1.
         11   -1    0    0    0    0 -0.00000000000E+00 -0.00000000000E+00 -0.45593999997E+02  0.45594000000E+02  0.51100000000E-03 0. -1.
    9900012    2    1    2    0    0  0.36907493816E+02 -0.19131940997E+02  0.17347023651E+02  0.46142317681E+02  0.99999992661E+01 0.  0.
         12    1    1    2    0    0 -0.36907493816E+02  0.19131940997E+02 -0.17347023651E+02  0.45045682319E+02  0.00000000000E+00 0. -1.
         11    1    3    3    0    0  0.15541322849E+02 -0.85465333227E+01  0.68722658408E+01  0.19021145753E+02  0.51100000000E-03 0.  1.
        -11    1    3    3    0    0  0.22774958282E+01  0.16557098800E+00 -0.87785254284E+00  0.24464313494E+01  0.51100000000E-03 0. -1.
         12    1    3    3    0    0  0.19088675139E+02 -0.10750978662E+02  0.11352610353E+02  0.24674740578E+02  0.00000000000E+00 0. -1.
</event>
<event>
 7    1  0.2395003E-008  0.4614232E+02  0.7816164E-02  0.1320468E+00
        -11   -1    0    0    0    0  0.00000000000E+00  0.00000000000E+00  0.45593999997E+02  0.45594000000E+02  0.51100000000E-03 0.  1.
         11   -1    0    0    0    0 -0.00000000000E+00 -0.00000000000E+00 -0.45593999997E+02  0.45594000000E+02  0.51100000000E-03 0. -1.
    9900012    2    1    2    0    0 -0.24223362776E+02  0.27951387696E+02  0.25711123992E+02  0.46142320126E+02  0.10000021569E+02 0.  0.
         12    1    1    2    0    0  0.24223362776E+02 -0.27951387696E+02 -0.25711123992E+02  0.45045679874E+02  0.00000000000E+00 0. -1.
         11    1    3    3    0    0 -0.23633481157E+02  0.26227383590E+02  0.21641965806E+02  0.41410044262E+02  0.51100000000E-03 0. -1.
        -11    1    3    3    0    0 -0.10621553816E+01  0.13504966337E+01  0.35217638647E+01  0.39185247469E+01  0.51100000000E-03 0.  1.
         12    1    3    3    0    0  0.47227376205E+00  0.37350747249E+00  0.54739432154E+00  0.81375111771E+00  0.00000000000E+00 0. -1.
</event>
<event>
 7    1  0.2395003E-008  0.4614232E+02  0.7816164E-02  0.1320468E+00
        -11   -1    0    0    0    0  0.00000000000E+00  0.00000000000E+00  0.45593999997E+02  0.45594000000E+02  0.51100000000E-03 0.  1.
         11   -1    0    0    0    0 -0.00000000000E+00 -0.00000000000E+00 -0.45593999997E+02  0.45594000000E+02  0.51100000000E-03 0. -1.
    9900012    2    1    2    0    0  0.64851991447E+01  0.30813159755E+02  0.32211874907E+02  0.46142317554E+02  0.99999981082E+01 0.  0.
         12    1    1    2    0    0 -0.64851991447E+01 -0.30813159755E+02 -0.32211874907E+02  0.45045682446E+02  0.00000000000E+00 0. -1.
         11    1    3    3    0    0 -0.11770092299E+01  0.52462339927E+01  0.26039138070E+01  0.59740011056E+01  0.51100000000E-03 0. -1.
        -11    1    3    3    0    0  0.55640379781E+00  0.99815657533E+01  0.11648791275E+02  0.15350426004E+02  0.51100000000E-03 0.  1.
         12    1    3    3    0    0  0.71058045768E+01  0.15585360009E+02  0.17959169825E+02  0.24817890444E+02  0.00000000000E+00 0. -1.
</event>
<event>
 7    1  0.2395003E-008  0.4614232E+02  0.7816164E-02  0.1320468E+00
        -11   -1    0    0    0    0  0.00000000000E+00  0.00000000000E+00  0.45593999997E+02  0.45594000000E+02  0.51100000000E-03 0.  1.
         11   -1    0    0    0    0 -0.00000000000E+00 -0.00000000000E+00 -0.45593999997E+02  0.45594000000E+02  0.51100000000E-03 0. -1.
    9900012    2    1    2    0    0 -0.42485597208E+02 -0.77707566138E+01 -0.12794621975E+02  0.46142323404E+02  0.10000051457E+02 0.  0.
         12    1    1    2    0    0  0.42485597208E+02  0.77707566138E+01  0.12794621975E+02  0.45045676596E+02  0.00000000000E+00 0. -1.
         11    1    3    3    0    0 -0.37259489762E+02 -0.34231609494E+01 -0.11700891217E+02  0.39203296593E+02  0.51100000000E-03 0.  1.
        -11    1    3    3    0    0 -0.20287627362E+01 -0.12602133914E+01 -0.13482323763E+00  0.23921106994E+01  0.51100000000E-03 0. -1.
        -12    1    3    3    0    0 -0.31973447100E+01 -0.30873822730E+01 -0.95890752008E+00  0.45469161116E+01  0.00000000000E+00 0.  1.
</event>
<event>
 7    1  0.2395003E-008  0.4614232E+02  0.7816164E-02  0.1320468E+00
        -11   -1    0    0    0    0  0.00000000000E+00  0.00000000000E+00  0.45593999997E+02  0.45594000000E+02  0.51100000000E-03 0. -1.
         11   -1    0    0    0    0 -0.00000000000E+00 -0.00000000000E+00 -0.45593999997E+02  0.45594000000E+02  0.51100000000E-03 0.  1.
    9900012    2    1    2    0    0 -0.13511948750E+02  0.30883840607E+02 -0.29878574332E+02  0.46142316814E+02  0.99999913608E+01 0.  0.
         12    1    1    2    0    0  0.13511948750E+02 -0.30883840607E+02  0.29878574332E+02  0.45045683186E+02  0.00000000000E+00 0. -1.
         11    1    3    3    0    0 -0.99408943504E+01  0.14661822264E+02 -0.12817311800E+02  0.21864900975E+02  0.51100000000E-03 0. -1.
        -11    1    3    3    0    0 -0.27167822942E+01  0.12551103220E+02 -0.10010654589E+02  0.16282638105E+02  0.51100000000E-03 0.  1.
        -12    1    3    3    0    0 -0.85427210494E+00  0.36709151220E+01 -0.70506079425E+01  0.79947777343E+01  0.00000000000E+00 0.  1.
</event>
<event>
 7    1  0.2395003E-008  0.4614232E+02  0.7816164E-02  0.1320468E+00
        -11   -1    0    0    0    0  0.00000000000E+00  0.00000000000E+00  0.45593999997E+02  0.45594000000E+02  0.51100000000E-03 0. -1.
         11   -1    0    0    0    0 -0.00000000000E+00 -0.00000000000E+00 -0.45593999997E+02  0.45594000000E+02  0.51100000000E-03 0.  1.
    9900012    2    1    2    0    0  0.85228626188E+01 -0.99838548469E+01 -0.43090567962E+02  0.46142316610E+02  0.99999895031E+01 0.  0.
         12    1    1    2    0    0 -0.85228626188E+01  0.99838548469E+01  0.43090567962E+02  0.45045683390E+02  0.00000000000E+00 0. -1.
         11    1    3    3    0    0 -0.20215451297E+00 -0.37320279842E+01 -0.71337880607E+01  0.80535601866E+01  0.51100000000E-03 0. -1.
        -11    1    3    3    0    0  0.63551150188E+01 -0.40074480157E+01 -0.13980471095E+02  0.15871379864E+02  0.51100000000E-03 0.  1.
        -12    1    3    3    0    0  0.23699021130E+01 -0.22443788470E+01 -0.21976308806E+02  0.22217376559E+02  0.00000000000E+00 0.  1.
</event>
<event>
 7    1  0.2395003E-008  0.4614232E+02  0.7816164E-02  0.1320468E+00
        -11   -1    0    0    0    0  0.00000000000E+00  0.00000000000E+00  0.45593999997E+02  0.45594000000E+02  0.51100000000E-03 0. -1.
         11   -1    0    0    0    0 -0.00000000000E+00 -0.00000000000E+00 -0.45593999997E+02  0.45594000000E+02  0.51100000000E-03 0.  1.
    9900012    2    1    2    0    0  0.30055357173E+02 -0.31104632336E+02 -0.12581366863E+02  0.46142318302E+02  0.10000004930E+02 0.  0.
         12    1    1    2    0    0 -0.30055357173E+02  0.31104632336E+02  0.12581366863E+02  0.45045681698E+02  0.00000000000E+00 0. -1.
         11    1    3    3    0    0  0.23511489858E+01 -0.44254406883E+01  0.36214776925E+00  0.50242987677E+01  0.51100000000E-03 0. -1.
        -11    1    3    3    0    0  0.11924413722E+02 -0.76119434205E+01 -0.31008093058E+01  0.14482691181E+02  0.51100000000E-03 0.  1.
         12    1    3    3    0    0  0.15779794465E+02 -0.19067248227E+02 -0.98427053266E+01  0.26635328353E+02  0.00000000000E+00 0. -1.
</event>
<event>
 7    1  0.2395003E-008  0.4614232E+02  0.7816164E-02  0.1320468E+00
        -11   -1    0    0    0    0  0.00000000000E+00  0.00000000000E+00  0.45593999997E+02  0.45594000000E+02  0.51100000000E-03 0.  1.
         11   -1    0    0    0    0 -0.00000000000E+00 -0.00000000000E+00 -0.45593999997E+02  0.45594000000E+02  0.51100000000E-03 0. -1.
    9900012    2    1    2    0    0  0.19719191509E+02 -0.28166239221E+02  0.29102060700E+02  0.46142317825E+02  0.10000000581E+02 0.  0.
         12    1    1    2    0    0 -0.19719191509E+02  0.28166239221E+02 -0.29102060700E+02  0.45045682175E+02  0.00000000000E+00 0. -1.
         11    1    3    3    0    0  0.60504249801E+01 -0.37882251259E+01  0.80933866762E+01  0.10791719057E+02  0.51100000000E-03 0. -1.
        -11    1    3    3    0    0  0.12174946721E+01 -0.48850873211E+01  0.57409816461E+01  0.76357869230E+01  0.51100000000E-03 0.  1.
        -12    1    3    3    0    0  0.12451271857E+02 -0.19492926774E+02  0.15267692378E+02  0.27714811845E+02  0.00000000000E+00 0.  1.
</event>
<event>
 7    1  0.2855402E-008  0.4614232E+02  0.7816164E-02  0.1320468E+00
        -11   -1    0    0    0    0  0.00000000000E+00  0.00000000000E+00  0.45593999997E+02  0.45594000000E+02  0.51100000000E-03 0. -1.
         11   -1    0    0    0    0 -0.00000000000E+00 -0.00000000000E+00 -0.45593999997E+02  0.45594000000E+02  0.51100000000E-03 0.  1.
    9900012    2    1    2    0    0 -0.30645769303E+02  0.36693781712E+01 -0.32809842308E+02  0.46142320244E+02  0.10000022643E+02 0.  0.
         12    1    1    2    0    0  0.30645769303E+02 -0.36693781712E+01  0.32809842308E+02  0.45045679756E+02  0.00000000000E+00 0. -1.
         11    1    3    3    0    0 -0.42689329453E+01  0.69377475453E+00 -0.16030300265E+01  0.46124632712E+01  0.51100000000E-03 0. -1.
        -11    1    3    3    0    0 -0.16885072570E+01  0.18073200623E+01 -0.15283479160E+01  0.29074576829E+01  0.51100000000E-03 0.  1.
        -12    1    3    3    0    0 -0.24688329101E+02  0.11682833544E+01 -0.29678464366E+02  0.38622399290E+02  0.00000000000E+00 0.  1.
</event>
<event>
 7    1  0.2395003E-008  0.4614232E+02  0.7816164E-02  0.1320468E+00
        -11   -1    0    0    0    0  0.00000000000E+00  0.00000000000E+00  0.45593999997E+02  0.45594000000E+02  0.51100000000E-03 0.  1.
         11   -1    0    0    0    0 -0.00000000000E+00 -0.00000000000E+00 -0.45593999997E+02  0.45594000000E+02  0.51100000000E-03 0. -1.
    9900012    2    1    2    0    0 -0.17265264665E+02 -0.28792560032E+02  0.30033524843E+02  0.46142317724E+02  0.99999996658E+01 0.  0.
         12    1    1    2    0    0  0.17265264665E+02  0.28792560032E+02 -0.30033524843E+02  0.45045682276E+02  0.00000000000E+00 0. -1.
         11    1    3    3    0    0  0.62760272359E-02  0.17350406671E+00 -0.95184433191E-02  0.17387901416E+00  0.51100000000E-03 0. -1.
        -11    1    3    3    0    0 -0.35052533403E+01 -0.39001520345E+01  0.91708769106E+01  0.10564230708E+02  0.51100000000E-03 0.  1.
        -12    1    3    3    0    0 -0.13766287352E+02 -0.25065912064E+02  0.20872166376E+02  0.35404208003E+02  0.00000000000E+00 0.  1.
</event>
<event>
 7    1  0.2395003E-008  0.4614232E+02  0.7816164E-02  0.1320468E+00
        -11   -1    0    0    0    0  0.00000000000E+00  0.00000000000E+00  0.45593999997E+02  0.45594000000E+02  0.51100000000E-03 0.  1.
         11   -1    0    0    0    0 -0.00000000000E+00 -0.00000000000E+00 -0.45593999997E+02  0.45594000000E+02  0.51100000000E-03 0. -1.
    9900012    2    1    2    0    0  0.64129084201E+00  0.17762507254E+02  0.41390766632E+02  0.46142317851E+02  0.10000000820E+02 0.  0.
         12    1    1    2    0    0 -0.64129084201E+00 -0.17762507254E+02 -0.41390766632E+02  0.45045682149E+02  0.00000000000E+00 0. -1.
         11    1    3    3    0    0 -0.39269601842E+00 -0.18282199222E+00  0.93069380202E+00  0.10265599145E+01  0.51100000000E-03 0. -1.
        -11    1    3    3    0    0 -0.11351491094E+01  0.70247519236E+01  0.25456231844E+02  0.26432091159E+02  0.51100000000E-03 0.  1.
        -12    1    3    3    0    0  0.21691359699E+01  0.10920577323E+02  0.15003840985E+02  0.18683666777E+02  0.00000000000E+00 0.  1.
</event>
<event>
 7    1  0.2395003E-008  0.4614232E+02  0.7816164E-02  0.1320468E+00
        -11   -1    0    0    0    0  0.00000000000E+00  0.00000000000E+00  0.45593999997E+02  0.45594000000E+02  0.51100000000E-03 0.  1.
         11   -1    0    0    0    0 -0.00000000000E+00 -0.00000000000E+00 -0.45593999997E+02  0.45594000000E+02  0.51100000000E-03 0. -1.
    9900012    2    1    2    0    0  0.35029697316E+02 -0.26520830021E+02 -0.99337516146E+01  0.46142317186E+02  0.99999947532E+01 0.  0.
         12    1    1    2    0    0 -0.35029697316E+02  0.26520830021E+02  0.99337516146E+01  0.45045682814E+02  0.00000000000E+00 0. -1.
         11    1    3    3    0    0  0.10819117550E+02 -0.71542419218E+01 -0.59959759629E+01  0.14289444007E+02  0.51100000000E-03 0. -1.
        -11    1    3    3    0    0  0.85189691979E+01 -0.32636628030E+01 -0.98330211360E+00  0.91755770606E+01  0.51100000000E-03 0.  1.
         12    1    3    3    0    0  0.15691610569E+02 -0.16102925296E+02 -0.29544735381E+01  0.22677296118E+02  0.00000000000E+00 0. -1.
</event>
<event>
 7    1  0.2395003E-008  0.4614232E+02  0.7816164E-02  0.1320468E+00
        -11   -1    0    0    0    0  0.00000000000E+00  0.00000000000E+00  0.45593999997E+02  0.45594000000E+02  0.51100000000E-03 0. -1.
         11   -1    0    0    0    0 -0.00000000000E+00 -0.00000000000E+00 -0.45593999997E+02  0.45594000000E+02  0.51100000000E-03 0.  1.
    9900012    2    1    2    0    0 -0.36384082823E+02  0.25460607868E+02 -0.75544485969E+01  0.46142315085E+02  0.99999755991E+01 0.  0.
         12    1    1    2    0    0  0.36384082823E+02 -0.25460607868E+02  0.75544485969E+01  0.45045684915E+02  0.00000000000E+00 0. -1.
         11    1    3    3    0    0 -0.21934829317E+01  0.36867931888E+01 -0.14347288760E+01  0.45235228083E+01  0.51100000000E-03 0. -1.
        -11    1    3    3    0    0 -0.18496640780E+02  0.14882637488E+02 -0.59618886768E+01  0.24477800873E+02  0.51100000000E-03 0.  1.
        -12    1    3    3    0    0 -0.15693959111E+02  0.68911771908E+01 -0.15783104413E+00  0.17140991404E+02  0.00000000000E+00 0.  1.
</event>
<event>
 7    1  0.2395003E-008  0.4614232E+02  0.7816164E-02  0.1320468E+00
        -11   -1    0    0    0    0  0.00000000000E+00  0.00000000000E+00  0.45593999997E+02  0.45594000000E+02  0.51100000000E-03 0.  1.
         11   -1    0    0    0    0 -0.00000000000E+00 -0.00000000000E+00 -0.45593999997E+02  0.45594000000E+02  0.51100000000E-03 0. -1.
    9900012    2    1    2    0    0 -0.23283596490E+02  0.36972416654E+02 -0.10955737846E+02  0.46142315962E+02  0.99999835909E+01 0.  0.
         12    1    1    2    0    0  0.23283596490E+02 -0.36972416654E+02  0.10955737846E+02  0.45045684038E+02  0.00000000000E+00 0. -1.
         11    1    3    3    0    0 -0.10048754553E+02  0.12678456400E+02 -0.65297232186E+01  0.17445859403E+02  0.51100000000E-03 0. -1.
        -11    1    3    3    0    0 -0.40233099194E+01  0.13183162181E+02 -0.35708837760E+01  0.14238468984E+02  0.51100000000E-03 0.  1.
        -12    1    3    3    0    0 -0.92115320183E+01  0.11110798073E+02 -0.85513085161E+00  0.14457987575E+02  0.00000000000E+00 0.  1.
</event>
<event>
 7    1  0.2395003E-008  0.4614232E+02  0.7816164E-02  0.1320468E+00
        -11   -1    0    0    0    0  0.00000000000E+00  0.00000000000E+00  0.45593999997E+02  0.45594000000E+02  0.51100000000E-03 0. -1.
         11   -1    0    0    0    0 -0.00000000000E+00 -0.00000000000E+00 -0.45593999997E+02  0.45594000000E+02  0.51100000000E-03 0.  1.
    9900012    2    1    2    0    0 -0.39953522001E+02 -0.20771562227E+02 -0.11712262412E+01  0.46142317760E+02  0.99999999872E+01 0.  0.
         12    1    1    2    0    0  0.39953522001E+02  0.20771562227E+02  0.11712262412E+01  0.45045682240E+02  0.00000000000E+00 0. -1.
         11    1    3    3    0    0 -0.20877677966E+02 -0.12230715437E+02  0.36450229415E+01  0.24469450951E+02  0.51100000000E-03 0. -1.
        -11    1    3    3    0    0 -0.11078496121E+02 -0.43924961180E+01 -0.12478153365E+01  0.11982660048E+02  0.51100000000E-03 0.  1.
         12    1    3    3    0    0 -0.79973479139E+01 -0.41483506712E+01 -0.35684338462E+01  0.96902067606E+01  0.00000000000E+00 0. -1.
</event>
<event>
 7    1  0.2395003E-008  0.4614231E+02  0.7816164E-02  0.1320468E+00
        -11   -1    0    0    0    0  0.00000000000E+00  0.00000000000E+00  0.45593999997E+02  0.45594000000E+02  0.51100000000E-03 0. -1.
         11   -1    0    0    0    0 -0.00000000000E+00 -0.00000000000E+00 -0.45593999997E+02  0.45594000000E+02  0.51100000000E-03 0.  1.
    9900012    2    1    2    0    0  0.30578915018E+02 -0.93540619517E+00 -0.33063105607E+02  0.46142312295E+02  0.99999501547E+01 0.  0.
         12    1    1    2    0    0 -0.30578915018E+02  0.93540619517E+00  0.33063105607E+02  0.45045687705E+02  0.00000000000E+00 0. -1.
         11    1    3    3    0    0  0.17665874461E+02 -0.77001577153E+00 -0.12598709187E+02  0.21711828992E+02  0.51100000000E-03 0. -1.
        -11    1    3    3    0    0  0.65392756819E+01 -0.43947871839E+00 -0.73568886986E+01  0.98528716409E+01  0.51100000000E-03 0.  1.
         12    1    3    3    0    0  0.63737648751E+01  0.27408829476E+00 -0.13107507722E+02  0.14577611662E+02  0.00000000000E+00 0. -1.
</event>
<event>
 7    1  0.2395003E-008  0.4614232E+02  0.7816164E-02  0.1320468E+00
        -11   -1    0    0    0    0  0.00000000000E+00  0.00000000000E+00  0.45593999997E+02  0.45594000000E+02  0.51100000000E-03 0.  1.
         11   -1    0    0    0    0 -0.00000000000E+00 -0.00000000000E+00 -0.45593999997E+02  0.45594000000E+02  0.51100000000E-03 0. -1.
    9900012    2    1    2    0    0  0.22886176905E+02  0.35516555803E+02  0.15617642157E+02  0.46142316789E+02  0.99999911355E+01 0.  0.
         12    1    1    2    0    0 -0.22886176905E+02 -0.35516555803E+02 -0.15617642157E+02  0.45045683211E+02  0.00000000000E+00 0. -1.
         11    1    3    3    0    0  0.10411691758E+02  0.13518817700E+02  0.26680593057E+01  0.17270793207E+02  0.51100000000E-03 0. -1.
        -11    1    3    3    0    0  0.10945728744E+02  0.15279792792E+02  0.10677279872E+02  0.21616784017E+02  0.51100000000E-03 0.  1.
        -12    1    3    3    0    0  0.15287564032E+01  0.67179453098E+01  0.22723029790E+01  0.72547395649E+01  0.00000000000E+00 0.  1.
</event>
<event>
 7    1  0.2395003E-008  0.4614232E+02  0.7816164E-02  0.1320468E+00
        -11   -1    0    0    0    0  0.00000000000E+00  0.00000000000E+00  0.45593999997E+02  0.45594000000E+02  0.51100000000E-03 0. -1.
         11   -1    0    0    0    0 -0.00000000000E+00 -0.00000000000E+00 -0.45593999997E+02  0.45594000000E+02  0.51100000000E-03 0.  1.
    9900012    2    1    2    0    0 -0.41576819087E+02 -0.14795820187E+02 -0.90313568178E+01  0.46142316673E+02  0.99999900791E+01 0.  0.
         12    1    1    2    0    0  0.41576819087E+02  0.14795820187E+02  0.90313568178E+01  0.45045683327E+02  0.00000000000E+00 0. -1.
         11    1    3    3    0    0 -0.11087673268E+02 -0.50258642940E+01  0.83721468253E+00  0.12202325151E+02  0.51100000000E-03 0. -1.
        -11    1    3    3    0    0 -0.18771861315E+02 -0.33342307035E+01 -0.49746089596E+01  0.19703974375E+02  0.51100000000E-03 0.  1.
         12    1    3    3    0    0 -0.11717284504E+02 -0.64357251897E+01 -0.48939625407E+01  0.14236017147E+02  0.00000000000E+00 0. -1.
</event>
<event>
 7    1  0.2395003E-008  0.4614232E+02  0.7816164E-02  0.1320468E+00
        -11   -1    0    0    0    0  0.00000000000E+00  0.00000000000E+00  0.45593999997E+02  0.45594000000E+02  0.51100000000E-03 0. -1.
         11   -1    0    0    0    0 -0.00000000000E+00 -0.00000000000E+00 -0.45593999997E+02  0.45594000000E+02  0.51100000000E-03 0.  1.
    9900012    2    1    2    0    0 -0.20109713146E+01 -0.15792837922E+02 -0.42138530323E+02  0.46142317931E+02  0.10000001549E+02 0.  0.
         12    1    1    2    0    0  0.20109713146E+01  0.15792837922E+02  0.42138530323E+02  0.45045682069E+02  0.00000000000E+00 0. -1.
         11    1    3    3    0    0  0.15077276664E+01 -0.68286974606E+01 -0.13352306774E+02  0.15072771748E+02  0.51100000000E-03 0.  1.
        -11    1    3    3    0    0 -0.39821944680E+01 -0.44258199827E+01 -0.91947694586E+01  0.10953973752E+02  0.51100000000E-03 0. -1.
         12    1    3    3    0    0  0.46349548703E+00 -0.45383204788E+01 -0.19591454091E+02  0.20115572431E+02  0.00000000000E+00 0. -1.
</event>
<event>
 7    1  0.2395003E-008  0.4614232E+02  0.7816164E-02  0.1320468E+00
        -11   -1    0    0    0    0  0.00000000000E+00  0.00000000000E+00  0.45593999997E+02  0.45594000000E+02  0.51100000000E-03 0.  1.
         11   -1    0    0    0    0 -0.00000000000E+00 -0.00000000000E+00 -0.45593999997E+02  0.45594000000E+02  0.51100000000E-03 0. -1.
    9900012    2    1    2    0    0 -0.14374779325E+02  0.25666161968E+02  0.34113448157E+02  0.46142317677E+02  0.99999992344E+01 0.  0.
         12    1    1    2    0    0  0.14374779325E+02 -0.25666161968E+02 -0.34113448157E+02  0.45045682323E+02  0.00000000000E+00 0. -1.
         11    1    3    3    0    0 -0.47147568130E+01  0.53217527157E+01  0.90964585953E+01  0.11545368899E+02  0.51100000000E-03 0. -1.
        -11    1    3    3    0    0 -0.29807624707E+01  0.98841386225E+01  0.16779582972E+02  0.19701155961E+02  0.51100000000E-03 0.  1.
        -12    1    3    3    0    0 -0.66792600413E+01  0.10460270630E+02  0.82374065889E+01  0.14895792817E+02  0.00000000000E+00 0.  1.
</event>
<event>
 7    1  0.2395003E-008  0.4614232E+02  0.7816164E-02  0.1320468E+00
        -11   -1    0    0    0    0  0.00000000000E+00  0.00000000000E+00  0.45593999997E+02  0.45594000000E+02  0.51100000000E-03 0. -1.
         11   -1    0    0    0    0 -0.00000000000E+00 -0.00000000000E+00 -0.45593999997E+02  0.45594000000E+02  0.51100000000E-03 0.  1.
    9900012    2    1    2    0    0  0.37796378781E+02  0.21667221152E+02  0.11448962354E+02  0.46142318071E+02  0.10000002829E+02 0.  0.
         12    1    1    2    0    0 -0.37796378781E+02 -0.21667221152E+02 -0.11448962354E+02  0.45045681929E+02  0.00000000000E+00 0. -1.
         11    1    3    3    0    0  0.66113156527E+01  0.16847600402E+01  0.54909047773E+00  0.68446630061E+01  0.51100000000E-03 0. -1.
        -11    1    3    3    0    0  0.27949217425E+02  0.14747602357E+02  0.91597820382E+01  0.32902160068E+02  0.51100000000E-03 0.  1.
        -12    1    3    3    0    0  0.32358457039E+01  0.52348587557E+01  0.17400898378E+01  0.63954949968E+01  0.00000000000E+00 0.  1.
</event>
<event>
 7    1  0.2395003E-008  0.4614232E+02  0.7816164E-02  0.1320468E+00
        -11   -1    0    0    0    0  0.00000000000E+00  0.00000000000E+00  0.45593999997E+02  0.45594000000E+02  0.51100000000E-03 0.  1.
         11   -1    0    0    0    0 -0.00000000000E+00 -0.00000000000E+00 -0.45593999997E+02  0.45594000000E+02  0.51100000000E-03 0. -1.
    9900012    2    1    2    0    0 -0.36822330372E+02 -0.10430401702E+01  0.25925693384E+02  0.46142317362E+02  0.99999963639E+01 0.  0.
         12    1    1    2    0    0  0.36822330372E+02  0.10430401702E+01 -0.25925693384E+02  0.45045682638E+02  0.00000000000E+00 0. -1.
         11    1    3    3    0    0 -0.13821533664E+02 -0.32531520139E+01  0.11829605488E+02  0.18481270441E+02  0.51100000000E-03 0. -1.
        -11    1    3    3    0    0 -0.17917760601E+02  0.74852912279E+00  0.13267160516E+02  0.22307487291E+02  0.51100000000E-03 0.  1.
         12    1    3    3    0    0 -0.50830361074E+01  0.14615827209E+01  0.82892738009E+00  0.53535596308E+01  0.00000000000E+00 0. -1.
</event>
<event>
 7    1  0.2395003E-008  0.4614232E+02  0.7816164E-02  0.1320468E+00
        -11   -1    0    0    0    0  0.00000000000E+00  0.00000000000E+00  0.45593999997E+02  0.45594000000E+02  0.51100000000E-03 0. -1.
         11   -1    0    0    0    0 -0.00000000000E+00 -0.00000000000E+00 -0.45593999997E+02  0.45594000000E+02  0.51100000000E-03 0.  1.
    9900012    2    1    2    0    0 -0.17765085340E+02 -0.17604684071E+02 -0.37464521689E+02  0.46142317146E+02  0.99999943880E+01 0.  0.
         12    1    1    2    0    0  0.17765085340E+02  0.17604684071E+02  0.37464521689E+02  0.45045682854E+02  0.00000000000E+00 0. -1.
         11    1    3    3    0    0 -0.35273133437E+01 -0.34068404547E+01 -0.33034518471E+01  0.59128077658E+01  0.51100000000E-03 0. -1.
        -11    1    3    3    0    0  0.77360780149E+00 -0.54540968349E+00 -0.17823930317E+01  0.20181342705E+01  0.51100000000E-03 0.  1.
         12    1    3    3    0    0 -0.15011379798E+02 -0.13652433933E+02 -0.32378676811E+02  0.38211375109E+02  0.00000000000E+00 0. -1.
</event>
<event>
 7    1  0.2395003E-008  0.4614232E+02  0.7816164E-02  0.1320468E+00
        -11   -1    0    0    0    0  0.00000000000E+00  0.00000000000E+00  0.45593999997E+02  0.45594000000E+02  0.51100000000E-03 0.  1.
         11   -1    0    0    0    0 -0.00000000000E+00 -0.00000000000E+00 -0.45593999997E+02  0.45594000000E+02  0.51100000000E-03 0. -1.
    9900012    2    1    2    0    0  0.38888930198E+02  0.21307876838E+02 -0.79208007469E+01  0.46142316613E+02  0.99999895328E+01 0.  0.
         12    1    1    2    0    0 -0.38888930198E+02 -0.21307876838E+02  0.79208007469E+01  0.45045683387E+02  0.00000000000E+00 0. -1.
         11    1    3    3    0    0  0.10776170308E+02  0.99820127600E+01 -0.51201256848E+01  0.15555774250E+02  0.51100000000E-03 0. -1.
        -11    1    3    3    0    0  0.76366353625E+01  0.35631644971E+01  0.49598804578E+00  0.84415842882E+01  0.51100000000E-03 0.  1.
         12    1    3    3    0    0  0.20476124528E+02  0.77626995805E+01 -0.32966631079E+01  0.22144958075E+02  0.00000000000E+00 0. -1.
</event>
<event>
 7    1  0.2395003E-008  0.4614232E+02  0.7816164E-02  0.1320468E+00
        -11   -1    0    0    0    0  0.00000000000E+00  0.00000000000E+00  0.45593999997E+02  0.45594000000E+02  0.51100000000E-03 0.  1.
         11   -1    0    0    0    0 -0.00000000000E+00 -0.00000000000E+00 -0.45593999997E+02  0.45594000000E+02  0.51100000000E-03 0. -1.
    9900012    2    1    2    0    0  0.20680425015E+02 -0.49113727919E+01  0.39715387425E+02  0.46142316968E+02  0.99999927699E+01 0.  0.
         12    1    1    2    0    0 -0.20680425015E+02  0.49113727919E+01 -0.39715387425E+02  0.45045683032E+02  0.00000000000E+00 0. -1.
         11    1    3    3    0    0  0.13651511343E+01  0.27546939063E-01  0.31332004276E+01  0.34177977754E+01  0.51100000000E-03 0. -1.
        -11    1    3    3    0    0  0.19757945052E+02 -0.38548649416E+01  0.36318369867E+02  0.41524214219E+02  0.51100000000E-03 0.  1.
         12    1    3    3    0    0 -0.44267117169E+00 -0.10840547893E+01  0.26381712982E+00  0.12003049739E+01  0.00000000000E+00 0. -1.
</event>
<event>
 7    1  0.2395003E-008  0.4614232E+02  0.7816164E-02  0.1320468E+00
        -11   -1    0    0    0    0  0.00000000000E+00  0.00000000000E+00  0.45593999997E+02  0.45594000000E+02  0.51100000000E-03 0.  1.
         11   -1    0    0    0    0 -0.00000000000E+00 -0.00000000000E+00 -0.45593999997E+02  0.45594000000E+02  0.51100000000E-03 0. -1.
    9900012    2    1    2    0    0 -0.79127279533E+01 -0.10597460837E+01  0.44332596828E+02  0.46142317999E+02  0.10000002169E+02 0.  0.
         12    1    1    2    0    0  0.79127279533E+01  0.10597460837E+01 -0.44332596828E+02  0.45045682001E+02  0.00000000000E+00 0. -1.
         11    1    3    3    0    0 -0.21595572856E+01  0.37635389287E+01  0.17121022146E+02  0.17662313340E+02  0.51100000000E-03 0. -1.
        -11    1    3    3    0    0 -0.26749501798E+01 -0.17020862721E+01  0.56639769389E+01  0.64910007832E+01  0.51100000000E-03 0.  1.
        -12    1    3    3    0    0 -0.30782204879E+01 -0.31211987404E+01  0.21547597743E+02  0.21989003876E+02  0.00000000000E+00 0.  1.
</event>
<event>
 7    1  0.2395003E-008  0.4614232E+02  0.7816164E-02  0.1320468E+00
        -11   -1    0    0    0    0  0.00000000000E+00  0.00000000000E+00  0.45593999997E+02  0.45594000000E+02  0.51100000000E-03 0.  1.
         11   -1    0    0    0    0 -0.00000000000E+00 -0.00000000000E+00 -0.45593999997E+02  0.45594000000E+02  0.51100000000E-03 0. -1.
    9900012    2    1    2    0    0  0.19719936390E+02  0.21194798318E+02  0.34511130567E+02  0.46142317632E+02  0.99999988236E+01 0.  0.
         12    1    1    2    0    0 -0.19719936390E+02 -0.21194798318E+02 -0.34511130567E+02  0.45045682368E+02  0.00000000000E+00 0. -1.
         11    1    3    3    0    0  0.39386073001E+01  0.37891551649E+01  0.23989711723E+01  0.59687006354E+01  0.51100000000E-03 0. -1.
        -11    1    3    3    0    0  0.70558281049E+00 -0.35215515202E+00  0.62319077689E+00  0.10051006711E+01  0.51100000000E-03 0.  1.
        -12    1    3    3    0    0  0.15075746280E+02  0.17757798305E+02  0.31488968618E+02  0.39168516326E+02  0.00000000000E+00 0.  1.
</event>
<event>
 7    1  0.2395003E-008  0.4614232E+02  0.7816164E-02  0.1320468E+00
        -11   -1    0    0    0    0  0.00000000000E+00  0.00000000000E+00  0.45593999997E+02  0.45594000000E+02  0.51100000000E-03 0.  1.
         11   -1    0    0    0    0 -0.00000000000E+00 -0.00000000000E+00 -0.45593999997E+02  0.45594000000E+02  0.51100000000E-03 0. -1.
    9900012    2    1    2    0    0  0.17398846311E+02 -0.13434552419E+02  0.39318016534E+02  0.46142317900E+02  0.10000001269E+02 0.  0.
         12    1    1    2    0    0 -0.17398846311E+02  0.13434552419E+02 -0.39318016534E+02  0.45045682100E+02  0.00000000000E+00 0. -1.
         11    1    3    3    0    0  0.22481117649E+01 -0.26698280111E+01  0.28633493293E+01  0.45145052618E+01  0.51100000000E-03 0. -1.
        -11    1    3    3    0    0  0.73074383493E+01 -0.10439001702E+01  0.10635967478E+02  0.12946512551E+02  0.51100000000E-03 0.  1.
        -12    1    3    3    0    0  0.78432961968E+01 -0.97208242375E+01  0.25818699727E+02  0.28681300087E+02  0.00000000000E+00 0.  1.
</event>
<event>
 7    1  0.2395003E-008  0.4614232E+02  0.7816164E-02  0.1320468E+00
        -11   -1    0    0    0    0  0.00000000000E+00  0.00000000000E+00  0.45593999997E+02  0.45594000000E+02  0.51100000000E-03 0. -1.
         11   -1    0    0    0    0 -0.00000000000E+00 -0.00000000000E+00 -0.45593999997E+02  0.45594000000E+02  0.51100000000E-03 0.  1.
    9900012    2    1    2    0    0  0.17574122626E+02  0.33352594803E+02 -0.24654981543E+02  0.46142317843E+02  0.10000000744E+02 0.  0.
         12    1    1    2    0    0 -0.17574122626E+02 -0.33352594803E+02  0.24654981543E+02  0.45045682157E+02  0.00000000000E+00 0. -1.
         11    1    3    3    0    0  0.11584941085E+01  0.77373788121E+00 -0.28484333098E+00  0.14219405376E+01  0.51100000000E-03 0. -1.
        -11    1    3    3    0    0  0.42796962320E+01  0.23759616648E+01 -0.24165734810E+01  0.54590128522E+01  0.51100000000E-03 0.  1.
        -12    1    3    3    0    0  0.12135932286E+02  0.30202895257E+02 -0.21953564731E+02  0.39261364453E+02  0.00000000000E+00 0.  1.
</event>
<event>
 7    1  0.2395003E-008  0.4614232E+02  0.7816164E-02  0.1320468E+00
        -11   -1    0    0    0    0  0.00000000000E+00  0.00000000000E+00  0.45593999997E+02  0.45594000000E+02  0.51100000000E-03 0. -1.
         11   -1    0    0    0    0 -0.00000000000E+00 -0.00000000000E+00 -0.45593999997E+02  0.45594000000E+02  0.51100000000E-03 0.  1.
    9900012    2    1    2    0    0 -0.82257892664E+01  0.26867549027E+02 -0.35207739030E+02  0.46142315552E+02  0.99999798599E+01 0.  0.
         12    1    1    2    0    0  0.82257892664E+01 -0.26867549027E+02  0.35207739030E+02  0.45045684448E+02  0.00000000000E+00 0. -1.
         11    1    3    3    0    0 -0.17136650002E+01  0.29056057162E+01 -0.47958535828E+01  0.58633952758E+01  0.51100000000E-03 0. -1.
        -11    1    3    3    0    0 -0.44705542509E+00 -0.77592003101E+00 -0.15079804700E+01  0.17538288989E+01  0.51100000000E-03 0.  1.
        -12    1    3    3    0    0 -0.60650688411E+01  0.24737863341E+02 -0.28903904977E+02  0.38525091378E+02  0.00000000000E+00 0.  1.
</event>
<event>
 7    1  0.2395003E-008  0.4614232E+02  0.7816164E-02  0.1320468E+00
        -11   -1    0    0    0    0  0.00000000000E+00  0.00000000000E+00  0.45593999997E+02  0.45594000000E+02  0.51100000000E-03 0. -1.
         11   -1    0    0    0    0 -0.00000000000E+00 -0.00000000000E+00 -0.45593999997E+02  0.45594000000E+02  0.51100000000E-03 0.  1.
    9900012    2    1    2    0    0 -0.43075094074E+02  0.10080118413E+02 -0.84876957183E+01  0.46142317684E+02  0.99999992935E+01 0.  0.
         12    1    1    2    0    0  0.43075094074E+02 -0.10080118413E+02  0.84876957183E+01  0.45045682316E+02  0.00000000000E+00 0. -1.
         11    1    3    3    0    0 -0.27221271384E+02  0.47429844863E+01 -0.40010199929E+01  0.27919557283E+02  0.51100000000E-03 0.  1.
        -11    1    3    3    0    0 -0.49568132347E+01  0.14448546302E+01  0.12429779069E+01  0.53106117052E+01  0.51100000000E-03 0. -1.
        -12    1    3    3    0    0 -0.10897009456E+02  0.38922792968E+01 -0.57296536323E+01  0.12912148696E+02  0.00000000000E+00 0.  1.
</event>
<event>
 7    1  0.2395003E-008  0.4614232E+02  0.7816164E-02  0.1320468E+00
        -11   -1    0    0    0    0  0.00000000000E+00  0.00000000000E+00  0.45593999997E+02  0.45594000000E+02  0.51100000000E-03 0.  1.
         11   -1    0    0    0    0 -0.00000000000E+00 -0.00000000000E+00 -0.45593999997E+02  0.45594000000E+02  0.51100000000E-03 0. -1.
    9900012    2    1    2    0    0  0.10049250932E+02  0.32526312983E+02  0.29498559024E+02  0.46142318019E+02  0.10000002355E+02 0.  0.
         12    1    1    2    0    0 -0.10049250932E+02 -0.32526312983E+02 -0.29498559024E+02  0.45045681981E+02  0.00000000000E+00 0. -1.
         11    1    3    3    0    0  0.13611314036E+01  0.12761511581E+02  0.70194305806E+01  0.14628098388E+02  0.51100000000E-03 0. -1.
        -11    1    3    3    0    0  0.13235451316E+01  0.40925782537E+01  0.73678463859E+01  0.85314787174E+01  0.51100000000E-03 0.  1.
        -12    1    3    3    0    0  0.73645743964E+01  0.15672223149E+02  0.15111282058E+02  0.22982740914E+02  0.00000000000E+00 0.  1.
</event>
<event>
 7    1  0.2395003E-008  0.4614232E+02  0.7816164E-02  0.1320468E+00
        -11   -1    0    0    0    0  0.00000000000E+00  0.00000000000E+00  0.45593999997E+02  0.45594000000E+02  0.51100000000E-03 0.  1.
         11   -1    0    0    0    0 -0.00000000000E+00 -0.00000000000E+00 -0.45593999997E+02  0.45594000000E+02  0.51100000000E-03 0. -1.
    9900012    2    1    2    0    0 -0.12782395539E+02  0.17348346988E+02  0.39557031823E+02  0.46142317126E+02  0.99999942068E+01 0.  0.
         12    1    1    2    0    0  0.12782395539E+02 -0.17348346988E+02 -0.39557031823E+02  0.45045682874E+02  0.00000000000E+00 0. -1.
         11    1    3    3    0    0 -0.78679619742E+01  0.76133797098E+01  0.15365611573E+02  0.18867177731E+02  0.51100000000E-03 0. -1.
        -11    1    3    3    0    0 -0.60488045520E+00  0.55592944609E+01  0.63995480913E+01  0.84985793697E+01  0.51100000000E-03 0.  1.
        -12    1    3    3    0    0 -0.43095531097E+01  0.41756728169E+01  0.17791872159E+02  0.18776560026E+02  0.00000000000E+00 0.  1.
</event>
<event>
 7    1  0.2395003E-008  0.4614232E+02  0.7816164E-02  0.1320468E+00
        -11   -1    0    0    0    0  0.00000000000E+00  0.00000000000E+00  0.45593999997E+02  0.45594000000E+02  0.51100000000E-03 0.  1.
         11   -1    0    0    0    0 -0.00000000000E+00 -0.00000000000E+00 -0.45593999997E+02  0.45594000000E+02  0.51100000000E-03 0. -1.
    9900012    2    1    2    0    0  0.41705404657E+02 -0.12170306723E+02 -0.11901947943E+02  0.46142317541E+02  0.99999979918E+01 0.  0.
         12    1    1    2    0    0 -0.41705404657E+02  0.12170306723E+02  0.11901947943E+02  0.45045682459E+02  0.00000000000E+00 0. -1.
         11    1    3    3    0    0  0.69854779309E+01 -0.40074621806E+01 -0.29612688864E+01  0.85805459460E+01  0.51100000000E-03 0. -1.
        -11    1    3    3    0    0  0.20736859777E+02 -0.70897417552E+01 -0.85738244691E+01  0.23532791119E+02  0.51100000000E-03 0.  1.
         12    1    3    3    0    0  0.13983066949E+02 -0.10731027874E+01 -0.36685458780E+00  0.14028980476E+02  0.00000000000E+00 0. -1.
</event>
<event>
 7    1  0.2395003E-008  0.4614232E+02  0.7816164E-02  0.1320468E+00
        -11   -1    0    0    0    0  0.00000000000E+00  0.00000000000E+00  0.45593999997E+02  0.45594000000E+02  0.51100000000E-03 0.  1.
         11   -1    0    0    0    0 -0.00000000000E+00 -0.00000000000E+00 -0.45593999997E+02  0.45594000000E+02  0.51100000000E-03 0. -1.
    9900012    2    1    2    0    0 -0.16548306332E+02  0.41788386696E+02 -0.29996648483E+01  0.46142315475E+02  0.99999791577E+01 0.  0.
         12    1    1    2    0    0  0.16548306332E+02 -0.41788386696E+02  0.29996648483E+01  0.45045684525E+02  0.00000000000E+00 0. -1.
         11    1    3    3    0    0 -0.12695058281E+02  0.20225330767E+02 -0.37596780302E+01  0.24173615545E+02  0.51100000000E-03 0. -1.
        -11    1    3    3    0    0 -0.46114953713E+00  0.55043504637E+01  0.58696631121E+00  0.55547333540E+01  0.51100000000E-03 0.  1.
         12    1    3    3    0    0 -0.33920985143E+01  0.16058705465E+02  0.17304687070E+00  0.16413966576E+02  0.00000000000E+00 0. -1.
</event>
<event>
 7    1  0.2395003E-008  0.4614232E+02  0.7816164E-02  0.1320468E+00
        -11   -1    0    0    0    0  0.00000000000E+00  0.00000000000E+00  0.45593999997E+02  0.45594000000E+02  0.51100000000E-03 0. -1.
         11   -1    0    0    0    0 -0.00000000000E+00 -0.00000000000E+00 -0.45593999997E+02  0.45594000000E+02  0.51100000000E-03 0.  1.
    9900012    2    1    2    0    0  0.43224158497E+02 -0.59811473088E+01  0.11180850024E+02  0.46142318651E+02  0.10000008115E+02 0.  0.
         12    1    1    2    0    0 -0.43224158497E+02  0.59811473088E+01 -0.11180850024E+02  0.45045681349E+02  0.00000000000E+00 0. -1.
         11    1    3    3    0    0  0.69898592670E+01 -0.43254055344E+01  0.34784399161E+01  0.89256265954E+01  0.51100000000E-03 0. -1.
        -11    1    3    3    0    0  0.52940354990E+01  0.85992174881E+00  0.91399750333E+00  0.54407415832E+01  0.51100000000E-03 0.  1.
         12    1    3    3    0    0  0.30940263731E+02 -0.25156635232E+01  0.67884126047E+01  0.31775950472E+02  0.00000000000E+00 0. -1.
</event>
<event>
 7    1  0.2395003E-008  0.4614231E+02  0.7816164E-02  0.1320468E+00
        -11   -1    0    0    0    0  0.00000000000E+00  0.00000000000E+00  0.45593999997E+02  0.45594000000E+02  0.51100000000E-03 0.  1.
         11   -1    0    0    0    0 -0.00000000000E+00 -0.00000000000E+00 -0.45593999997E+02  0.45594000000E+02  0.51100000000E-03 0. -1.
    9900012    2    1    2    0    0  0.41672503079E+02 -0.17099998437E+02 -0.32619651303E+00  0.46142313596E+02  0.99999620212E+01 0.  0.
         12    1    1    2    0    0 -0.41672503079E+02  0.17099998437E+02  0.32619651303E+00  0.45045686404E+02  0.00000000000E+00 0. -1.
         11    1    3    3    0    0  0.40270239346E+01 -0.17615013781E+01 -0.21041508671E+01  0.48731160470E+01  0.51100000000E-03 0. -1.
        -11    1    3    3    0    0  0.37240750442E+02 -0.14436758774E+02  0.90638624541E+00  0.39951408407E+02  0.51100000000E-03 0.  1.
        -12    1    3    3    0    0  0.40472870243E+00 -0.90173828404E+00  0.87156810866E+00  0.13177891423E+01  0.00000000000E+00 0.  1.
</event>
<event>
 7    1  0.2395003E-008  0.4614232E+02  0.7816164E-02  0.1320468E+00
        -11   -1    0    0    0    0  0.00000000000E+00  0.00000000000E+00  0.45593999997E+02  0.45594000000E+02  0.51100000000E-03 0.  1.
         11   -1    0    0    0    0 -0.00000000000E+00 -0.00000000000E+00 -0.45593999997E+02  0.45594000000E+02  0.51100000000E-03 0. -1.
    9900012    2    1    2    0    0 -0.32101962989E+02  0.21461786023E+02  0.23194160911E+02  0.46142318881E+02  0.10000010216E+02 0.  0.
         12    1    1    2    0    0  0.32101962989E+02 -0.21461786023E+02 -0.23194160911E+02  0.45045681119E+02  0.00000000000E+00 0. -1.
         11    1    3    3    0    0 -0.34660954590E+01  0.29730505964E+00  0.22202431612E+01  0.41269465692E+01  0.51100000000E-03 0. -1.
        -11    1    3    3    0    0 -0.10958308030E+02  0.79810296133E+01  0.12344438611E+02  0.18334844244E+02  0.51100000000E-03 0.  1.
         12    1    3    3    0    0 -0.17677559501E+02  0.13183451350E+02  0.86294791392E+01  0.23680528069E+02  0.00000000000E+00 0. -1.
</event>
<event>
 7    1  0.2395003E-008  0.4614233E+02  0.7816164E-02  0.1320468E+00
        -11   -1    0    0    0    0  0.00000000000E+00  0.00000000000E+00  0.45593999997E+02  0.45594000000E+02  0.51100000000E-03 0. -1.
         11   -1    0    0    0    0 -0.00000000000E+00 -0.00000000000E+00 -0.45593999997E+02  0.45594000000E+02  0.51100000000E-03 0.  1.
    9900012    2    1    2    0    0  0.31277171507E+02 -0.18726298586E+02 -0.26460856879E+02  0.46142326923E+02  0.10000083542E+02 0.  0.
         12    1    1    2    0    0 -0.31277171507E+02  0.18726298586E+02  0.26460856879E+02  0.45045673077E+02  0.00000000000E+00 0. -1.
         11    1    3    3    0    0  0.71293365441E+01 -0.15301145815E+01 -0.71195023477E+01  0.10190976603E+02  0.51100000000E-03 0. -1.
        -11    1    3    3    0    0  0.85971640125E+01 -0.77128012730E+01 -0.42826295585E+01  0.12318256724E+02  0.51100000000E-03 0.  1.
        -12    1    3    3    0    0  0.15550670950E+02 -0.94833827318E+01 -0.15058724973E+02  0.23633093595E+02  0.00000000000E+00 0.  1.
</event>
<event>
 7    1  0.2395003E-008  0.4614231E+02  0.7816164E-02  0.1320468E+00
        -11   -1    0    0    0    0  0.00000000000E+00  0.00000000000E+00  0.45593999997E+02  0.45594000000E+02  0.51100000000E-03 0.  1.
         11   -1    0    0    0    0 -0.00000000000E+00 -0.00000000000E+00 -0.45593999997E+02  0.45594000000E+02  0.51100000000E-03 0. -1.
    9900012    2    1    2    0    0  0.31941228570E+02 -0.97159244103E+00  0.31747878841E+02  0.46142313354E+02  0.99999598161E+01 0.  0.
         12    1    1    2    0    0 -0.31941228570E+02  0.97159244103E+00 -0.31747878841E+02  0.45045686646E+02  0.00000000000E+00 0. -1.
         11    1    3    3    0    0  0.82782967042E+01  0.17194429477E+01  0.13969566925E+02  0.16328976719E+02  0.51100000000E-03 0. -1.
        -11    1    3    3    0    0  0.14131957990E+02 -0.44915837499E+00  0.10709739809E+02  0.17737319609E+02  0.51100000000E-03 0.  1.
         12    1    3    3    0    0  0.95309738759E+01 -0.22418770137E+01  0.70685721069E+01  0.12076017025E+02  0.00000000000E+00 0. -1.
</event>
<event>
 7    1  0.2395003E-008  0.4614232E+02  0.7816164E-02  0.1320468E+00
        -11   -1    0    0    0    0  0.00000000000E+00  0.00000000000E+00  0.45593999997E+02  0.45594000000E+02  0.51100000000E-03 0.  1.
         11   -1    0    0    0    0 -0.00000000000E+00 -0.00000000000E+00 -0.45593999997E+02  0.45594000000E+02  0.51100000000E-03 0. -1.
    9900012    2    1    2    0    0 -0.36391911773E+02  0.25291774299E+02  0.80664910263E+01  0.46142319107E+02  0.10000012270E+02 0.  0.
         12    1    1    2    0    0  0.36391911773E+02 -0.25291774299E+02 -0.80664910263E+01  0.45045680893E+02  0.00000000000E+00 0. -1.
         11    1    3    3    0    0 -0.34339123169E+01  0.55114038534E+00  0.24906634353E+01  0.42777230080E+01  0.51100000000E-03 0. -1.
        -11    1    3    3    0    0 -0.12158478494E+02  0.67131332385E+01  0.65995296346E+00  0.13904326497E+02  0.51100000000E-03 0.  1.
        -12    1    3    3    0    0 -0.20799520962E+02  0.18027500675E+02  0.49158746276E+01  0.27960269601E+02  0.00000000000E+00 0.  1.
</event>
<event>
 7    1  0.2395003E-008  0.4614232E+02  0.7816164E-02  0.1320468E+00
        -11   -1    0    0    0    0  0.00000000000E+00  0.00000000000E+00  0.45593999997E+02  0.45594000000E+02  0.51100000000E-03 0.  1.
         11   -1    0    0    0    0 -0.00000000000E+00 -0.00000000000E+00 -0.45593999997E+02  0.45594000000E+02  0.51100000000E-03 0. -1.
    9900012    2    1    2    0    0 -0.23631319763E+02 -0.33779322809E+01  0.38200311451E+02  0.46142317685E+02  0.99999993063E+01 0.  0.
         12    1    1    2    0    0  0.23631319763E+02  0.33779322809E+01 -0.38200311451E+02  0.45045682315E+02  0.00000000000E+00 0. -1.
         11    1    3    3    0    0 -0.38580896603E+01  0.21201215202E+01  0.48695365573E+01  0.65644617167E+01  0.51100000000E-03 0. -1.
        -11    1    3    3    0    0 -0.47473632443E+01 -0.39920871770E+01  0.86597410213E+01  0.10652010731E+02  0.51100000000E-03 0.  1.
         12    1    3    3    0    0 -0.15025866859E+02 -0.15059666241E+01  0.24671033873E+02  0.28925845237E+02  0.00000000000E+00 0. -1.
</event>
<event>
 7    1  0.2395003E-008  0.4614232E+02  0.7816164E-02  0.1320468E+00
        -11   -1    0    0    0    0  0.00000000000E+00  0.00000000000E+00  0.45593999997E+02  0.45594000000E+02  0.51100000000E-03 0.  1.
         11   -1    0    0    0    0 -0.00000000000E+00 -0.00000000000E+00 -0.45593999997E+02  0.45594000000E+02  0.51100000000E-03 0. -1.
    9900012    2    1    2    0    0 -0.33800587728E+02  0.10275325099E+02  0.27947298303E+02  0.46142317420E+02  0.99999968931E+01 0.  0.
         12    1    1    2    0    0  0.33800587728E+02 -0.10275325099E+02 -0.27947298303E+02  0.45045682580E+02  0.00000000000E+00 0. -1.
         11    1    3    3    0    0 -0.23111092703E+02  0.86990883004E+01  0.14880225819E+02  0.28830849170E+02  0.51100000000E-03 0. -1.
        -11    1    3    3    0    0 -0.43934942281E+01  0.22720553010E+01  0.47571945897E+01  0.68626472624E+01  0.51100000000E-03 0.  1.
         12    1    3    3    0    0 -0.62960007974E+01 -0.69581850262E+00  0.83098778943E+01  0.10448820988E+02  0.00000000000E+00 0. -1.
</event>
<event>
 7    1  0.2395003E-008  0.4614232E+02  0.7816164E-02  0.1320468E+00
        -11   -1    0    0    0    0  0.00000000000E+00  0.00000000000E+00  0.45593999997E+02  0.45594000000E+02  0.51100000000E-03 0.  1.
         11   -1    0    0    0    0 -0.00000000000E+00 -0.00000000000E+00 -0.45593999997E+02  0.45594000000E+02  0.51100000000E-03 0. -1.
    9900012    2    1    2    0    0  0.31372242454E+02  0.27266645809E+02  0.17361623341E+02  0.46142317240E+02  0.99999952463E+01 0.  0.
         12    1    1    2    0    0 -0.31372242454E+02 -0.27266645809E+02 -0.17361623341E+02  0.45045682760E+02  0.00000000000E+00 0. -1.
         11    1    3    3    0    0  0.14160591034E+02  0.91890007004E+01  0.30010939046E+01  0.17145455292E+02  0.51100000000E-03 0. -1.
        -11    1    3    3    0    0  0.10456883688E+02  0.96688148508E+01  0.97916586494E+01  0.17283199254E+02  0.51100000000E-03 0.  1.
         12    1    3    3    0    0  0.67547677325E+01  0.84088302583E+01  0.45688707869E+01  0.11713662694E+02  0.00000000000E+00 0. -1.
</event>
<event>
 7    1  0.2395003E-008  0.4614232E+02  0.7816164E-02  0.1320468E+00
        -11   -1    0    0    0    0  0.00000000000E+00  0.00000000000E+00  0.45593999997E+02  0.45594000000E+02  0.51100000000E-03 0.  1.
         11   -1    0    0    0    0 -0.00000000000E+00 -0.00000000000E+00 -0.45593999997E+02  0.45594000000E+02  0.51100000000E-03 0. -1.
    9900012    2    1    2    0    0 -0.42343381295E+02 -0.77834399851E+01 -0.13250272941E+02  0.46142316406E+02  0.99999876410E+01 0.  0.
         12    1    1    2    0    0  0.42343381295E+02  0.77834399851E+01  0.13250272941E+02  0.45045683594E+02  0.00000000000E+00 0. -1.
         11    1    3    3    0    0 -0.63521787592E+01  0.11863898291E+01 -0.81900822837E+00  0.65137140370E+01  0.51100000000E-03 0. -1.
        -11    1    3    3    0    0 -0.18000901999E+02 -0.51332317743E+01 -0.95351031143E+01  0.21007159086E+02  0.51100000000E-03 0.  1.
        -12    1    3    3    0    0 -0.17990300537E+02 -0.38365980399E+01 -0.28961615980E+01  0.18621443283E+02  0.00000000000E+00 0.  1.
</event>
<event>
 7    1  0.2395003E-008  0.4614232E+02  0.7816164E-02  0.1320468E+00
        -11   -1    0    0    0    0  0.00000000000E+00  0.00000000000E+00  0.45593999997E+02  0.45594000000E+02  0.51100000000E-03 0.  1.
         11   -1    0    0    0    0 -0.00000000000E+00 -0.00000000000E+00 -0.45593999997E+02  0.45594000000E+02  0.51100000000E-03 0. -1.
    9900012    2    1    2    0    0  0.21182712219E+02  0.20573273817E+02  0.34016857613E+02  0.46142317694E+02  0.99999993920E+01 0.  0.
         12    1    1    2    0    0 -0.21182712219E+02 -0.20573273817E+02 -0.34016857613E+02  0.45045682306E+02  0.00000000000E+00 0. -1.
         11    1    3    3    0    0  0.54628146774E+00  0.31557867559E+01  0.34030975663E+01  0.46731666777E+01  0.51100000000E-03 0. -1.
        -11    1    3    3    0    0  0.17330212033E+02  0.17371589769E+02  0.28164137452E+02  0.37354076336E+02  0.51100000000E-03 0.  1.
         12    1    3    3    0    0  0.33062187182E+01  0.45897292115E-01  0.24496225948E+01  0.41150746811E+01  0.00000000000E+00 0. -1.
</event>
<event>
 7    1  0.2395003E-008  0.4614232E+02  0.7816164E-02  0.1320468E+00
        -11   -1    0    0    0    0  0.00000000000E+00  0.00000000000E+00  0.45593999997E+02  0.45594000000E+02  0.51100000000E-03 0.  1.
         11   -1    0    0    0    0 -0.00000000000E+00 -0.00000000000E+00 -0.45593999997E+02  0.45594000000E+02  0.51100000000E-03 0. -1.
    9900012    2    1    2    0    0 -0.24546310416E+02 -0.33514899101E+02 -0.17416763007E+02  0.46142318182E+02  0.10000003842E+02 0.  0.
         12    1    1    2    0    0  0.24546310416E+02  0.33514899101E+02  0.17416763007E+02  0.45045681818E+02  0.00000000000E+00 0. -1.
         11    1    3    3    0    0 -0.16548305732E+02 -0.20157491320E+02 -0.89602896361E+01  0.27576396965E+02  0.51100000000E-03 0. -1.
        -11    1    3    3    0    0 -0.28933432170E+01 -0.13209567607E+01 -0.39215929983E+00  0.32047076173E+01  0.51100000000E-03 0.  1.
         12    1    3    3    0    0 -0.51046614668E+01 -0.12036451020E+02 -0.80643140714E+01  0.15361213601E+02  0.00000000000E+00 0. -1.
</event>
<event>
 7    1  0.2395003E-008  0.4614232E+02  0.7816164E-02  0.1320468E+00
        -11   -1    0    0    0    0  0.00000000000E+00  0.00000000000E+00  0.45593999997E+02  0.45594000000E+02  0.51100000000E-03 0. -1.
         11   -1    0    0    0    0 -0.00000000000E+00 -0.00000000000E+00 -0.45593999997E+02  0.45594000000E+02  0.51100000000E-03 0.  1.
    9900012    2    1    2    0    0  0.32568295851E+02 -0.30854449636E+02 -0.40524598584E+01  0.46142318877E+02  0.10000010171E+02 0.  0.
         12    1    1    2    0    0 -0.32568295851E+02  0.30854449636E+02  0.40524598584E+01  0.45045681123E+02  0.00000000000E+00 0. -1.
         11    1    3    3    0    0  0.92485931204E+01 -0.91897182125E+01 -0.38227296546E+01  0.13586782467E+02  0.51100000000E-03 0. -1.
        -11    1    3    3    0    0  0.14679958858E+01 -0.38796549334E+01  0.12784320303E+01  0.43406362483E+01  0.51100000000E-03 0.  1.
         12    1    3    3    0    0  0.21851706844E+02 -0.17785076490E+02 -0.15081622340E+01  0.28214900161E+02  0.00000000000E+00 0. -1.
</event>
<event>
 7    1  0.2395003E-008  0.4614232E+02  0.7816164E-02  0.1320468E+00
        -11   -1    0    0    0    0  0.00000000000E+00  0.00000000000E+00  0.45593999997E+02  0.45594000000E+02  0.51100000000E-03 0.  1.
         11   -1    0    0    0    0 -0.00000000000E+00 -0.00000000000E+00 -0.45593999997E+02  0.45594000000E+02  0.51100000000E-03 0. -1.
    9900012    2    1    2    0    0  0.35537238519E+02  0.11019733600E+02  0.25392591217E+02  0.46142317201E+02  0.99999948912E+01 0.  0.
         12    1    1    2    0    0 -0.35537238519E+02 -0.11019733600E+02 -0.25392591217E+02  0.45045682799E+02  0.00000000000E+00 0. -1.
         11    1    3    3    0    0  0.19054010342E+02  0.15933238683E+01  0.97582219271E+01  0.21466645907E+02  0.51100000000E-03 0. -1.
        -11    1    3    3    0    0  0.80599391334E+01  0.43589834593E+01  0.87898940961E+01  0.12697464082E+02  0.51100000000E-03 0.  1.
         12    1    3    3    0    0  0.84232890435E+01  0.50674262728E+01  0.68444751933E+01  0.11978207212E+02  0.00000000000E+00 0. -1.
</event>
<event>
 7    1  0.2395003E-008  0.4614232E+02  0.7816164E-02  0.1320468E+00
        -11   -1    0    0    0    0  0.00000000000E+00  0.00000000000E+00  0.45593999997E+02  0.45594000000E+02  0.51100000000E-03 0.  1.
         11   -1    0    0    0    0 -0.00000000000E+00 -0.00000000000E+00 -0.45593999997E+02  0.45594000000E+02  0.51100000000E-03 0. -1.
    9900012    2    1    2    0    0  0.38415435667E+02 -0.23511275696E+02 -0.76661074278E+00  0.46142317916E+02  0.10000001414E+02 0.  0.
         12    1    1    2    0    0 -0.38415435667E+02  0.23511275696E+02  0.76661074278E+00  0.45045682084E+02  0.00000000000E+00 0. -1.
         11    1    3    3    0    0  0.20816555979E+02 -0.11696165776E+02 -0.42471776906E+01  0.24252171352E+02  0.51100000000E-03 0. -1.
        -11    1    3    3    0    0  0.39872225994E+01 -0.46726680837E+01  0.19383560380E+01  0.64411951894E+01  0.51100000000E-03 0.  1.
        -12    1    3    3    0    0  0.13611657089E+02 -0.71424418366E+01  0.15422109098E+01  0.15448951375E+02  0.00000000000E+00 0.  1.
</event>
<event>
 7    1  0.2395003E-008  0.4614232E+02  0.7816164E-02  0.1320468E+00
        -11   -1    0    0    0    0  0.00000000000E+00  0.00000000000E+00  0.45593999997E+02  0.45594000000E+02  0.51100000000E-03 0.  1.
         11   -1    0    0    0    0 -0.00000000000E+00 -0.00000000000E+00 -0.45593999997E+02  0.45594000000E+02  0.51100000000E-03 0. -1.
    9900012    2    1    2    0    0  0.35505731054E+02 -0.17410804074E+01  0.27666317812E+02  0.46142318299E+02  0.10000004901E+02 0.  0.
         12    1    1    2    0    0 -0.35505731054E+02  0.17410804074E+01 -0.27666317812E+02  0.45045681701E+02  0.00000000000E+00 0. -1.
         11    1    3    3    0    0  0.15911420343E+01 -0.39681599090E+00  0.17622579664E+01  0.24072285528E+01  0.51100000000E-03 0. -1.
        -11    1    3    3    0    0  0.30575448262E+02  0.16664478487E+01  0.23738573455E+02  0.38744740995E+02  0.51100000000E-03 0.  1.
         12    1    3    3    0    0  0.33391407583E+01 -0.30107122652E+01  0.21654863904E+01  0.49903487508E+01  0.00000000000E+00 0. -1.
</event>
<event>
 7    1  0.2395003E-008  0.4614232E+02  0.7816164E-02  0.1320468E+00
        -11   -1    0    0    0    0  0.00000000000E+00  0.00000000000E+00  0.45593999997E+02  0.45594000000E+02  0.51100000000E-03 0.  1.
         11   -1    0    0    0    0 -0.00000000000E+00 -0.00000000000E+00 -0.45593999997E+02  0.45594000000E+02  0.51100000000E-03 0. -1.
    9900012    2    1    2    0    0  0.42390566378E+02  0.57239844883E+01  0.14120513004E+02  0.46142323141E+02  0.10000049054E+02 0.  0.
         12    1    1    2    0    0 -0.42390566378E+02 -0.57239844883E+01 -0.14120513004E+02  0.45045676859E+02  0.00000000000E+00 0. -1.
         11    1    3    3    0    0  0.25924132287E+02  0.25293075975E+01  0.54665128475E+01  0.26614672546E+02  0.51100000000E-03 0. -1.
        -11    1    3    3    0    0  0.13737687999E+02  0.61689874201E+00  0.67848656335E+01  0.15334243951E+02  0.51100000000E-03 0.  1.
        -12    1    3    3    0    0  0.27287460918E+01  0.25777781488E+01  0.18691345226E+01  0.41934066440E+01  0.00000000000E+00 0.  1.
</event>
<event>
 7    1  0.2395003E-008  0.4614232E+02  0.7816164E-02  0.1320468E+00
        -11   -1    0    0    0    0  0.00000000000E+00  0.00000000000E+00  0.45593999997E+02  0.45594000000E+02  0.51100000000E-03 0. -1.
         11   -1    0    0    0    0 -0.00000000000E+00 -0.00000000000E+00 -0.45593999997E+02  0.45594000000E+02  0.51100000000E-03 0.  1.
    9900012    2    1    2    0    0 -0.27821662240E+02  0.11074288740E+02 -0.33651577624E+02  0.46142318326E+02  0.10000005155E+02 0.  0.
         12    1    1    2    0    0  0.27821662240E+02 -0.11074288740E+02  0.33651577624E+02  0.45045681674E+02  0.00000000000E+00 0. -1.
         11    1    3    3    0    0 -0.12560678191E+02  0.84071893849E+01 -0.20460752972E+02  0.25438040066E+02  0.51100000000E-03 0. -1.
        -11    1    3    3    0    0 -0.11179688053E+02  0.18224120386E+01 -0.11681604851E+02  0.16271647205E+02  0.51100000000E-03 0.  1.
         12    1    3    3    0    0 -0.40812959955E+01  0.84468731678E+00 -0.15092198005E+01  0.44326310553E+01  0.00000000000E+00 0. -1.
</event>
<event>
 7    1  0.2395003E-008  0.4614232E+02  0.7816164E-02  0.1320468E+00
        -11   -1    0    0    0    0  0.00000000000E+00  0.00000000000E+00  0.45593999997E+02  0.45594000000E+02  0.51100000000E-03 0.  1.
         11   -1    0    0    0    0 -0.00000000000E+00 -0.00000000000E+00 -0.45593999997E+02  0.45594000000E+02  0.51100000000E-03 0. -1.
    9900012    2    1    2    0    0  0.21810363086E+00 -0.24913041090E+02  0.37528739808E+02  0.46142317664E+02  0.99999991133E+01 0.  0.
         12    1    1    2    0    0 -0.21810363086E+00  0.24913041090E+02 -0.37528739808E+02  0.45045682336E+02  0.00000000000E+00 0. -1.
         11    1    3    3    0    0  0.26409695438E+01 -0.75450318000E+01  0.68257994118E+01  0.10511601346E+02  0.51100000000E-03 0. -1.
        -11    1    3    3    0    0 -0.22169984150E+01 -0.37912205055E+01  0.59119743516E+01  0.73647726298E+01  0.51100000000E-03 0.  1.
        -12    1    3    3    0    0 -0.20586749797E+00 -0.13576788784E+02  0.24790966045E+02  0.28265943688E+02  0.00000000000E+00 0.  1.
</event>
<event>
 7    1  0.2395003E-008  0.4614232E+02  0.7816164E-02  0.1320468E+00
        -11   -1    0    0    0    0  0.00000000000E+00  0.00000000000E+00  0.45593999997E+02  0.45594000000E+02  0.51100000000E-03 0. -1.
         11   -1    0    0    0    0 -0.00000000000E+00 -0.00000000000E+00 -0.45593999997E+02  0.45594000000E+02  0.51100000000E-03 0.  1.
    9900012    2    1    2    0    0 -0.11913149449E+02 -0.27466981225E+02 -0.33656432217E+02  0.46142316334E+02  0.99999869823E+01 0.  0.
         12    1    1    2    0    0  0.11913149449E+02  0.27466981225E+02  0.33656432217E+02  0.45045683666E+02  0.00000000000E+00 0. -1.
         11    1    3    3    0    0 -0.53493815403E+01 -0.73446630699E+01 -0.68198293878E+01  0.11360899243E+02  0.51100000000E-03 0. -1.
        -11    1    3    3    0    0 -0.26230613225E+01 -0.47826774259E+01 -0.31840776191E+01  0.63160750951E+01  0.51100000000E-03 0.  1.
        -12    1    3    3    0    0 -0.39407065866E+01 -0.15339640729E+02 -0.23652525210E+02  0.28465341995E+02  0.00000000000E+00 0.  1.
</event>
<event>
 7    1  0.2395003E-008  0.4614231E+02  0.7816164E-02  0.1320468E+00
        -11   -1    0    0    0    0  0.00000000000E+00  0.00000000000E+00  0.45593999997E+02  0.45594000000E+02  0.51100000000E-03 0.  1.
         11   -1    0    0    0    0 -0.00000000000E+00 -0.00000000000E+00 -0.45593999997E+02  0.45594000000E+02  0.51100000000E-03 0. -1.
    9900012    2    1    2    0    0  0.23427501426E+02 -0.27096526237E+02  0.27313809687E+02  0.46142314781E+02  0.99999728260E+01 0.  0.
         12    1    1    2    0    0 -0.23427501426E+02  0.27096526237E+02 -0.27313809687E+02  0.45045685219E+02  0.00000000000E+00 0. -1.
         11    1    3    3    0    0  0.19103058230E+02 -0.22459823792E+02  0.20911823998E+02  0.36147958472E+02  0.51100000000E-03 0. -1.
        -11    1    3    3    0    0  0.44321976630E+01 -0.17276119118E+01  0.37681256238E+01  0.60685904475E+01  0.51100000000E-03 0.  1.
         12    1    3    3    0    0 -0.10775446654E+00 -0.29090905329E+01  0.26338600658E+01  0.39257658615E+01  0.00000000000E+00 0. -1.
</event>
<event>
 7    1  0.2395003E-008  0.4614232E+02  0.7816164E-02  0.1320468E+00
        -11   -1    0    0    0    0  0.00000000000E+00  0.00000000000E+00  0.45593999997E+02  0.45594000000E+02  0.51100000000E-03 0.  1.
         11   -1    0    0    0    0 -0.00000000000E+00 -0.00000000000E+00 -0.45593999997E+02  0.45594000000E+02  0.51100000000E-03 0. -1.
    9900012    2    1    2    0    0  0.87719427493E+01 -0.15080168091E+02  0.41530170034E+02  0.46142317940E+02  0.10000001627E+02 0.  0.
         12    1    1    2    0    0 -0.87719427493E+01  0.15080168091E+02 -0.41530170034E+02  0.45045682060E+02  0.00000000000E+00 0. -1.
         11    1    3    3    0    0  0.42102442247E+01 -0.27829993749E+01  0.43681172101E+01  0.66747052500E+01  0.51100000000E-03 0. -1.
        -11    1    3    3    0    0  0.12186148534E+01 -0.61777487464E+01  0.16502783821E+02  0.17663280439E+02  0.51100000000E-03 0.  1.
         12    1    3    3    0    0  0.33430836712E+01 -0.61194199698E+01  0.20659269002E+02  0.21804332251E+02  0.00000000000E+00 0. -1.
</event>
<event>
 7    1  0.2395003E-008  0.4614232E+02  0.7816164E-02  0.1320468E+00
        -11   -1    0    0    0    0  0.00000000000E+00  0.00000000000E+00  0.45593999997E+02  0.45594000000E+02  0.51100000000E-03 0.  1.
         11   -1    0    0    0    0 -0.00000000000E+00 -0.00000000000E+00 -0.45593999997E+02  0.45594000000E+02  0.51100000000E-03 0. -1.
    9900012    2    1    2    0    0  0.25024410946E+02  0.28814356968E+02  0.23929588301E+02  0.46142317555E+02  0.99999981237E+01 0.  0.
         12    1    1    2    0    0 -0.25024410946E+02 -0.28814356968E+02 -0.23929588301E+02  0.45045682445E+02  0.00000000000E+00 0. -1.
         11    1    3    3    0    0  0.10604225412E+01  0.19037757781E+01  0.32541815660E+01  0.39164468725E+01  0.51100000000E-03 0. -1.
        -11    1    3    3    0    0  0.23223579684E+02  0.22599168656E+02  0.17572162006E+02  0.36862419279E+02  0.51100000000E-03 0.  1.
        -12    1    3    3    0    0  0.74040872001E+00  0.43114125341E+01  0.31032447292E+01  0.53634514038E+01  0.00000000000E+00 0.  1.
</event>
<event>
 7    1  0.2395003E-008  0.4614232E+02  0.7816164E-02  0.1320468E+00
        -11   -1    0    0    0    0  0.00000000000E+00  0.00000000000E+00  0.45593999997E+02  0.45594000000E+02  0.51100000000E-03 0. -1.
         11   -1    0    0    0    0 -0.00000000000E+00 -0.00000000000E+00 -0.45593999997E+02  0.45594000000E+02  0.51100000000E-03 0.  1.
    9900012    2    1    2    0    0 -0.37087553278E+02  0.16618008548E+02 -0.19428550633E+02  0.46142318787E+02  0.10000009351E+02 0.  0.
         12    1    1    2    0    0  0.37087553278E+02 -0.16618008548E+02  0.19428550633E+02  0.45045681213E+02  0.00000000000E+00 0. -1.
         11    1    3    3    0    0 -0.59953835975E+01  0.17576745453E+01 -0.33319518436E-02  0.62477240377E+01  0.51100000000E-03 0. -1.
        -11    1    3    3    0    0 -0.11008760872E+02  0.76493585565E+01 -0.60243422896E+01  0.14696877306E+02  0.51100000000E-03 0.  1.
         12    1    3    3    0    0 -0.20083408809E+02  0.72109754464E+01 -0.13400876392E+02  0.25197717443E+02  0.00000000000E+00 0. -1.
</event>
<event>
 7    1  0.2395003E-008  0.4614232E+02  0.7816164E-02  0.1320468E+00
        -11   -1    0    0    0    0  0.00000000000E+00  0.00000000000E+00  0.45593999997E+02  0.45594000000E+02  0.51100000000E-03 0.  1.
         11   -1    0    0    0    0 -0.00000000000E+00 -0.00000000000E+00 -0.45593999997E+02  0.45594000000E+02  0.51100000000E-03 0. -1.
    9900012    2    1    2    0    0  0.27530671756E+02 -0.40529929783E+01  0.35422432958E+02  0.46142318786E+02  0.10000009343E+02 0.  0.
         12    1    1    2    0    0 -0.27530671756E+02  0.40529929783E+01 -0.35422432958E+02  0.45045681214E+02  0.00000000000E+00 0. -1.
         11    1    3    3    0    0  0.80329111845E+00 -0.55188441649E+00 -0.47099869160E+00  0.10824477164E+01  0.51100000000E-03 0. -1.
        -11    1    3    3    0    0  0.16854354902E+02 -0.35623850731E+01  0.24968543080E+02  0.30334600877E+02  0.51100000000E-03 0.  1.
         12    1    3    3    0    0  0.98730257357E+01  0.61276511321E-01  0.10924888570E+02  0.14725270193E+02  0.00000000000E+00 0. -1.
</event>
<event>
 7    1  0.2395003E-008  0.4614232E+02  0.7816164E-02  0.1320468E+00
        -11   -1    0    0    0    0  0.00000000000E+00  0.00000000000E+00  0.45593999997E+02  0.45594000000E+02  0.51100000000E-03 0.  1.
         11   -1    0    0    0    0 -0.00000000000E+00 -0.00000000000E+00 -0.45593999997E+02  0.45594000000E+02  0.51100000000E-03 0. -1.
    9900012    2    1    2    0    0 -0.52556448134E+01  0.40130000836E+02  0.19775611454E+02  0.46142316768E+02  0.99999909419E+01 0.  0.
         12    1    1    2    0    0  0.52556448134E+01 -0.40130000836E+02 -0.19775611454E+02  0.45045683232E+02  0.00000000000E+00 0. -1.
         11    1    3    3    0    0  0.20197534784E+01  0.13162521883E+02  0.46183538328E+01  0.14094700381E+02  0.51100000000E-03 0. -1.
        -11    1    3    3    0    0 -0.29001262352E+01  0.16221032284E+02  0.72263175204E+01  0.17993117732E+02  0.51100000000E-03 0.  1.
        -12    1    3    3    0    0 -0.43752720566E+01  0.10746446668E+02  0.79309401004E+01  0.14054498655E+02  0.00000000000E+00 0.  1.
</event>
<event>
 7    1  0.2395003E-008  0.4614232E+02  0.7816164E-02  0.1320468E+00
        -11   -1    0    0    0    0  0.00000000000E+00  0.00000000000E+00  0.45593999997E+02  0.45594000000E+02  0.51100000000E-03 0.  1.
         11   -1    0    0    0    0 -0.00000000000E+00 -0.00000000000E+00 -0.45593999997E+02  0.45594000000E+02  0.51100000000E-03 0. -1.
    9900012    2    1    2    0    0  0.37680238413E+02 -0.16855806827E+02  0.18033162212E+02  0.46142317299E+02  0.99999957828E+01 0.  0.
         12    1    1    2    0    0 -0.37680238413E+02  0.16855806827E+02 -0.18033162212E+02  0.45045682701E+02  0.00000000000E+00 0. -1.
         11    1    3    3    0    0  0.23189646019E+02 -0.11906576968E+02  0.65141952425E+01  0.26869331913E+02  0.51100000000E-03 0. -1.
        -11    1    3    3    0    0  0.61015438572E+01 -0.24238421589E+01  0.37338751012E+01  0.75528585175E+01  0.51100000000E-03 0.  1.
         12    1    3    3    0    0  0.83890485376E+01 -0.25253877005E+01  0.77850918679E+01  0.11720126868E+02  0.00000000000E+00 0. -1.
</event>
<event>
 7    1  0.2395003E-008  0.4614232E+02  0.7816164E-02  0.1320468E+00
        -11   -1    0    0    0    0  0.00000000000E+00  0.00000000000E+00  0.45593999997E+02  0.45594000000E+02  0.51100000000E-03 0. -1.
         11   -1    0    0    0    0 -0.00000000000E+00 -0.00000000000E+00 -0.45593999997E+02  0.45594000000E+02  0.51100000000E-03 0.  1.
    9900012    2    1    2    0    0  0.32075902379E+02 -0.31278267129E+02  0.46818803767E+01  0.46142317500E+02  0.99999976205E+01 0.  0.
         12    1    1    2    0    0 -0.32075902379E+02  0.31278267129E+02 -0.46818803767E+01  0.45045682500E+02  0.00000000000E+00 0. -1.
         11    1    3    3    0    0  0.13474631098E+02 -0.93863111054E+01  0.25671158027E+01  0.16621028945E+02  0.51100000000E-03 0. -1.
        -11    1    3    3    0    0  0.13960011357E+02 -0.14297013547E+02  0.41079345730E+01  0.20400040200E+02  0.51100000000E-03 0.  1.
         12    1    3    3    0    0  0.46412599241E+01 -0.75949424769E+01 -0.19931699990E+01  0.91212483551E+01  0.00000000000E+00 0. -1.
</event>
<event>
 7    1  0.2395003E-008  0.4614232E+02  0.7816164E-02  0.1320468E+00
        -11   -1    0    0    0    0  0.00000000000E+00  0.00000000000E+00  0.45593999997E+02  0.45594000000E+02  0.51100000000E-03 0.  1.
         11   -1    0    0    0    0 -0.00000000000E+00 -0.00000000000E+00 -0.45593999997E+02  0.45594000000E+02  0.51100000000E-03 0. -1.
    9900012    2    1    2    0    0  0.38578141876E+02 -0.37042455105E+01  0.22959072032E+02  0.46142318142E+02  0.10000003477E+02 0.  0.
         12    1    1    2    0    0 -0.38578141876E+02  0.37042455105E+01 -0.22959072032E+02  0.45045681858E+02  0.00000000000E+00 0. -1.
         11    1    3    3    0    0  0.50268175224E+01 -0.32548290103E+01  0.56460883020E+01  0.82304993570E+01  0.51100000000E-03 0. -1.
        -11    1    3    3    0    0  0.14981239788E+02  0.10319507058E+01  0.64180748446E+01  0.16330773185E+02  0.51100000000E-03 0.  1.
        -12    1    3    3    0    0  0.18570084565E+02 -0.14813672060E+01  0.10894908886E+02  0.21581045600E+02  0.00000000000E+00 0.  1.
</event>
<event>
 7    1  0.2395003E-008  0.4614232E+02  0.7816164E-02  0.1320468E+00
        -11   -1    0    0    0    0  0.00000000000E+00  0.00000000000E+00  0.45593999997E+02  0.45594000000E+02  0.51100000000E-03 0.  1.
         11   -1    0    0    0    0 -0.00000000000E+00 -0.00000000000E+00 -0.45593999997E+02  0.45594000000E+02  0.51100000000E-03 0. -1.
    9900012    2    1    2    0    0  0.21467653215E+02 -0.33045775280E+02  0.21822689663E+02  0.46142321155E+02  0.10000030952E+02 0.  0.
         12    1    1    2    0    0 -0.21467653215E+02  0.33045775280E+02 -0.21822689663E+02  0.45045678845E+02  0.00000000000E+00 0. -1.
         11    1    3    3    0    0  0.88071004977E+01 -0.19366305951E+02  0.10470284444E+02  0.23711720350E+02  0.51100000000E-03 0. -1.
        -11    1    3    3    0    0  0.65752093525E+01 -0.39698915120E+01  0.29785125508E+01  0.82380188105E+01  0.51100000000E-03 0.  1.
        -12    1    3    3    0    0  0.60853433652E+01 -0.97095778169E+01  0.83738926681E+01  0.14192581995E+02  0.00000000000E+00 0.  1.
</event>
<event>
 7    1  0.2395003E-008  0.4614232E+02  0.7816164E-02  0.1320468E+00
        -11   -1    0    0    0    0  0.00000000000E+00  0.00000000000E+00  0.45593999997E+02  0.45594000000E+02  0.51100000000E-03 0.  1.
         11   -1    0    0    0    0 -0.00000000000E+00 -0.00000000000E+00 -0.45593999997E+02  0.45594000000E+02  0.51100000000E-03 0. -1.
    9900012    2    1    2    0    0 -0.21421151350E+02 -0.38870938485E+02  0.77005217322E+01  0.46142316313E+02  0.99999867937E+01 0.  0.
         12    1    1    2    0    0  0.21421151350E+02  0.38870938485E+02 -0.77005217322E+01  0.45045683687E+02  0.00000000000E+00 0. -1.
         11    1    3    3    0    0 -0.53561013697E+01 -0.68146992233E+01  0.39727927933E+01  0.95347275905E+01  0.51100000000E-03 0.  1.
        -11    1    3    3    0    0 -0.12903654617E+02 -0.25715386476E+02  0.38607921805E+00  0.28773850307E+02  0.51100000000E-03 0. -1.
         12    1    3    3    0    0 -0.31613953633E+01 -0.63408527864E+01  0.33416497208E+01  0.78337384152E+01  0.00000000000E+00 0. -1.
</event>
<event>
 7    1  0.2395003E-008  0.4614232E+02  0.7816164E-02  0.1320468E+00
        -11   -1    0    0    0    0  0.00000000000E+00  0.00000000000E+00  0.45593999997E+02  0.45594000000E+02  0.51100000000E-03 0.  1.
         11   -1    0    0    0    0 -0.00000000000E+00 -0.00000000000E+00 -0.45593999997E+02  0.45594000000E+02  0.51100000000E-03 0. -1.
    9900012    2    1    2    0    0  0.40280625551E+02 -0.16922609927E+02  0.10964027603E+02  0.46142318489E+02  0.10000006639E+02 0.  0.
         12    1    1    2    0    0 -0.40280625551E+02  0.16922609927E+02 -0.10964027603E+02  0.45045681511E+02  0.00000000000E+00 0. -1.
         11    1    3    3    0    0  0.31669427521E+02 -0.14520922826E+02  0.56531614356E+01  0.35295439843E+02  0.51100000000E-03 0. -1.
        -11    1    3    3    0    0  0.67608246724E+01 -0.28149596298E+01  0.31499901138E+01  0.79721506475E+01  0.51100000000E-03 0.  1.
        -12    1    3    3    0    0  0.18503733575E+01  0.41327252945E+00  0.21608760541E+01  0.28747279988E+01  0.00000000000E+00 0.  1.
</event>
<event>
 7    1  0.2395003E-008  0.4614232E+02  0.7816164E-02  0.1320468E+00
        -11   -1    0    0    0    0  0.00000000000E+00  0.00000000000E+00  0.45593999997E+02  0.45594000000E+02  0.51100000000E-03 0. -1.
         11   -1    0    0    0    0 -0.00000000000E+00 -0.00000000000E+00 -0.45593999997E+02  0.45594000000E+02  0.51100000000E-03 0.  1.
    9900012    2    1    2    0    0 -0.36233028843E+02  0.25758185367E+02  0.72661541010E+01  0.46142317765E+02  0.10000000037E+02 0.  0.
         12    1    1    2    0    0  0.36233028843E+02 -0.25758185367E+02 -0.72661541010E+01  0.45045682235E+02  0.00000000000E+00 0. -1.
         11    1    3    3    0    0 -0.54833068469E+01  0.46741318188E+01  0.75797316400E-01  0.72055470113E+01  0.51100000000E-03 0. -1.
        -11    1    3    3    0    0 -0.30186133840E+02  0.18247172558E+02  0.73865552284E+01  0.36037802111E+02  0.51100000000E-03 0.  1.
         12    1    3    3    0    0 -0.56358815643E+00  0.28368809905E+01 -0.19619844373E+00  0.28989686431E+01  0.00000000000E+00 0. -1.
</event>
<event>
 7    1  0.2395003E-008  0.4614232E+02  0.7816164E-02  0.1320468E+00
        -11   -1    0    0    0    0  0.00000000000E+00  0.00000000000E+00  0.45593999997E+02  0.45594000000E+02  0.51100000000E-03 0. -1.
         11   -1    0    0    0    0 -0.00000000000E+00 -0.00000000000E+00 -0.45593999997E+02  0.45594000000E+02  0.51100000000E-03 0.  1.
    9900012    2    1    2    0    0 -0.27401315582E+02 -0.15585214327E+02  0.32177353179E+02  0.46142322528E+02  0.10000043470E+02 0.  0.
         12    1    1    2    0    0  0.27401315582E+02  0.15585214327E+02 -0.32177353179E+02  0.45045677472E+02  0.00000000000E+00 0. -1.
         11    1    3    3    0    0 -0.30424357456E+01 -0.39603669603E+01  0.96132165508E+01  0.10833044560E+02  0.51100000000E-03 0. -1.
        -11    1    3    3    0    0 -0.12383973964E+02 -0.75760510184E+01  0.12166008882E+02  0.18941254778E+02  0.51100000000E-03 0.  1.
         12    1    3    3    0    0 -0.11974905873E+02 -0.40487963484E+01  0.10398127746E+02  0.16368023190E+02  0.00000000000E+00 0. -1.
</event>
<event>
 7    1  0.2395003E-008  0.4614232E+02  0.7816164E-02  0.1320468E+00
        -11   -1    0    0    0    0  0.00000000000E+00  0.00000000000E+00  0.45593999997E+02  0.45594000000E+02  0.51100000000E-03 0.  1.
         11   -1    0    0    0    0 -0.00000000000E+00 -0.00000000000E+00 -0.45593999997E+02  0.45594000000E+02  0.51100000000E-03 0. -1.
    9900012    2    1    2    0    0  0.71260981289E+01 -0.41076683245E+02  0.17059845062E+02  0.46142317693E+02  0.99999993769E+01 0.  0.
         12    1    1    2    0    0 -0.71260981289E+01  0.41076683245E+02 -0.17059845062E+02  0.45045682307E+02  0.00000000000E+00 0. -1.
         11    1    3    3    0    0  0.30836334777E+01 -0.69037500578E+01  0.68611139260E+00  0.75921873916E+01  0.51100000000E-03 0. -1.
        -11    1    3    3    0    0  0.28904443385E+01 -0.98751321031E+01  0.26686408960E+01  0.10629889323E+02  0.51100000000E-03 0.  1.
         12    1    3    3    0    0  0.11520203126E+01 -0.24297801084E+02  0.13705092774E+02  0.27920240978E+02  0.00000000000E+00 0. -1.
</event>
<event>
 7    1  0.2395003E-008  0.4614232E+02  0.7816164E-02  0.1320468E+00
        -11   -1    0    0    0    0  0.00000000000E+00  0.00000000000E+00  0.45593999997E+02  0.45594000000E+02  0.51100000000E-03 0. -1.
         11   -1    0    0    0    0 -0.00000000000E+00 -0.00000000000E+00 -0.45593999997E+02  0.45594000000E+02  0.51100000000E-03 0.  1.
    9900012    2    1    2    0    0  0.42186252639E+02  0.15274875017E+02 -0.40139341813E+01  0.46142318896E+02  0.10000010346E+02 0.  0.
         12    1    1    2    0    0 -0.42186252639E+02 -0.15274875017E+02  0.40139341813E+01  0.45045681104E+02  0.00000000000E+00 0. -1.
         11    1    3    3    0    0  0.85128882246E+00  0.13219615751E+01 -0.10101625651E+01  0.18688776670E+01  0.51100000000E-03 0. -1.
        -11    1    3    3    0    0  0.20105415167E+02  0.35676301454E+01  0.22197374038E+00  0.20420699707E+02  0.51100000000E-03 0.  1.
        -12    1    3    3    0    0  0.21229548649E+02  0.10385283297E+02 -0.32257453566E+01  0.23852741522E+02  0.00000000000E+00 0.  1.
</event>
<event>
 7    1  0.2395003E-008  0.4614232E+02  0.7816164E-02  0.1320468E+00
        -11   -1    0    0    0    0  0.00000000000E+00  0.00000000000E+00  0.45593999997E+02  0.45594000000E+02  0.51100000000E-03 0.  1.
         11   -1    0    0    0    0 -0.00000000000E+00 -0.00000000000E+00 -0.45593999997E+02  0.45594000000E+02  0.51100000000E-03 0. -1.
    9900012    2    1    2    0    0  0.30294041724E+02 -0.50069154174E+01  0.32959297933E+02  0.46142317785E+02  0.10000000220E+02 0.  0.
         12    1    1    2    0    0 -0.30294041724E+02  0.50069154174E+01 -0.32959297933E+02  0.45045682215E+02  0.00000000000E+00 0. -1.
         11    1    3    3    0    0  0.16218929106E+02  0.11609078698E+01  0.14482404237E+02  0.21774788200E+02  0.51100000000E-03 0. -1.
        -11    1    3    3    0    0  0.20666283349E+01 -0.13831752446E+01  0.11236445047E+01  0.27288649043E+01  0.51100000000E-03 0.  1.
        -12    1    3    3    0    0  0.12008484283E+02 -0.47846480426E+01  0.17353249192E+02  0.21638664681E+02  0.00000000000E+00 0.  1.
</event>
<event>
 7    1  0.2395003E-008  0.4614232E+02  0.7816164E-02  0.1320468E+00
        -11   -1    0    0    0    0  0.00000000000E+00  0.00000000000E+00  0.45593999997E+02  0.45594000000E+02  0.51100000000E-03 0.  1.
         11   -1    0    0    0    0 -0.00000000000E+00 -0.00000000000E+00 -0.45593999997E+02  0.45594000000E+02  0.51100000000E-03 0. -1.
    9900012    2    1    2    0    0 -0.18009721808E+02  0.10054341935E+02  0.40045893517E+02  0.46142318088E+02  0.10000002982E+02 0.  0.
         12    1    1    2    0    0  0.18009721808E+02 -0.10054341935E+02 -0.40045893517E+02  0.45045681912E+02  0.00000000000E+00 0. -1.
         11    1    3    3    0    0 -0.29288294761E+01  0.18490041937E+01  0.11607298231E+02  0.12113060352E+02  0.51100000000E-03 0.  1.
        -11    1    3    3    0    0 -0.14339941596E+02  0.61043451830E+01  0.27505192854E+02  0.31613803778E+02  0.51100000000E-03 0. -1.
         12    1    3    3    0    0 -0.74095073545E+00  0.21009925585E+01  0.93340243107E+00  0.24154539577E+01  0.00000000000E+00 0. -1.
</event>
<event>
 7    1  0.2395003E-008  0.4614232E+02  0.7816164E-02  0.1320468E+00
        -11   -1    0    0    0    0  0.00000000000E+00  0.00000000000E+00  0.45593999997E+02  0.45594000000E+02  0.51100000000E-03 0.  1.
         11   -1    0    0    0    0 -0.00000000000E+00 -0.00000000000E+00 -0.45593999997E+02  0.45594000000E+02  0.51100000000E-03 0. -1.
    9900012    2    1    2    0    0  0.18180461364E+01 -0.44564051461E+02 -0.63129677614E+01  0.46142317229E+02  0.99999951455E+01 0.  0.
         12    1    1    2    0    0 -0.18180461364E+01  0.44564051461E+02  0.63129677614E+01  0.45045682771E+02  0.00000000000E+00 0. -1.
         11    1    3    3    0    0 -0.28096484015E+00 -0.72427493765E+01 -0.26663805053E+01  0.77230787276E+01  0.51100000000E-03 0. -1.
        -11    1    3    3    0    0  0.38990469845E+01 -0.13979960879E+02 -0.38205469984E+01  0.15007946335E+02  0.51100000000E-03 0.  1.
        -12    1    3    3    0    0 -0.18000360079E+01 -0.23341341205E+02  0.17395974222E+00  0.23411292166E+02  0.00000000000E+00 0.  1.
</event>
<event>
 7    1  0.2395003E-008  0.4614232E+02  0.7816164E-02  0.1320468E+00
        -11   -1    0    0    0    0  0.00000000000E+00  0.00000000000E+00  0.45593999997E+02  0.45594000000E+02  0.51100000000E-03 0.  1.
         11   -1    0    0    0    0 -0.00000000000E+00 -0.00000000000E+00 -0.45593999997E+02  0.45594000000E+02  0.51100000000E-03 0. -1.
    9900012    2    1    2    0    0  0.33116653660E+02  0.15928190760E+02  0.26051745254E+02  0.46142318284E+02  0.10000004764E+02 0.  0.
         12    1    1    2    0    0 -0.33116653660E+02 -0.15928190760E+02 -0.26051745254E+02  0.45045681716E+02  0.00000000000E+00 0. -1.
         11    1    3    3    0    0  0.78468498987E+01  0.47083968072E+01  0.37728242329E+01  0.98982956503E+01  0.51100000000E-03 0. -1.
        -11    1    3    3    0    0  0.21842995986E+02  0.12192096693E+02  0.19167279229E+02  0.31514255325E+02  0.51100000000E-03 0.  1.
        -12    1    3    3    0    0  0.34268077753E+01 -0.97230273940E+00  0.31116417921E+01  0.47297673080E+01  0.00000000000E+00 0.  1.
</event>
<event>
 7    1  0.2395003E-008  0.4614232E+02  0.7816164E-02  0.1320468E+00
        -11   -1    0    0    0    0  0.00000000000E+00  0.00000000000E+00  0.45593999997E+02  0.45594000000E+02  0.51100000000E-03 0.  1.
         11   -1    0    0    0    0 -0.00000000000E+00 -0.00000000000E+00 -0.45593999997E+02  0.45594000000E+02  0.51100000000E-03 0. -1.
    9900012    2    1    2    0    0  0.94883923555E+01  0.32760643473E+02  0.29424891399E+02  0.46142316698E+02  0.99999903076E+01 0.  0.
         12    1    1    2    0    0 -0.94883923555E+01 -0.32760643473E+02 -0.29424891399E+02  0.45045683302E+02  0.00000000000E+00 0. -1.
         11    1    3    3    0    0  0.35418673327E+01  0.10428448943E+02  0.61506674822E+01  0.12614597984E+02  0.51100000000E-03 0. -1.
        -11    1    3    3    0    0  0.10210756566E+01  0.58714178265E+01  0.22369550022E+01  0.63655408830E+01  0.51100000000E-03 0.  1.
        -12    1    3    3    0    0  0.49254493662E+01  0.16460776704E+02  0.21037268915E+02  0.27162177832E+02  0.00000000000E+00 0.  1.
</event>
<event>
 7    1  0.2395003E-008  0.4614232E+02  0.7816164E-02  0.1320468E+00
        -11   -1    0    0    0    0  0.00000000000E+00  0.00000000000E+00  0.45593999997E+02  0.45594000000E+02  0.51100000000E-03 0.  1.
         11   -1    0    0    0    0 -0.00000000000E+00 -0.00000000000E+00 -0.45593999997E+02  0.45594000000E+02  0.51100000000E-03 0. -1.
    9900012    2    1    2    0    0 -0.91805312693E+01 -0.27906362363E+02  0.34147711950E+02  0.46142318230E+02  0.10000004278E+02 0.  0.
         12    1    1    2    0    0  0.91805312693E+01  0.27906362363E+02 -0.34147711950E+02  0.45045681770E+02  0.00000000000E+00 0. -1.
         11    1    3    3    0    0 -0.32369131315E+01 -0.47313935100E+01  0.96649653418E+01  0.11237225925E+02  0.51100000000E-03 0. -1.
        -11    1    3    3    0    0 -0.56259458708E+01 -0.13775573571E+02  0.18569229563E+02  0.23795671476E+02  0.51100000000E-03 0.  1.
        -12    1    3    3    0    0 -0.31767226700E+00 -0.93993952818E+01  0.59135170443E+01  0.11109420829E+02  0.00000000000E+00 0.  1.
</event>
<event>
 7    1  0.2395003E-008  0.4614232E+02  0.7816164E-02  0.1320468E+00
        -11   -1    0    0    0    0  0.00000000000E+00  0.00000000000E+00  0.45593999997E+02  0.45594000000E+02  0.51100000000E-03 0.  1.
         11   -1    0    0    0    0 -0.00000000000E+00 -0.00000000000E+00 -0.45593999997E+02  0.45594000000E+02  0.51100000000E-03 0. -1.
    9900012    2    1    2    0    0 -0.41195165162E+02  0.17993266128E+02 -0.28834558998E+01  0.46142316782E+02  0.99999910731E+01 0.  0.
         12    1    1    2    0    0  0.41195165162E+02 -0.17993266128E+02  0.28834558998E+01  0.45045683218E+02  0.00000000000E+00 0. -1.
         11    1    3    3    0    0 -0.16219033048E+01  0.25698544243E+01  0.13999449521E+01  0.33458284806E+01  0.51100000000E-03 0. -1.
        -11    1    3    3    0    0 -0.12623722136E+02  0.37285615314E+01 -0.45803993088E+00  0.13170813661E+02  0.51100000000E-03 0.  1.
        -12    1    3    3    0    0 -0.26949539721E+02  0.11694850172E+02 -0.38253609210E+01  0.29625674640E+02  0.00000000000E+00 0.  1.
</event>
<event>
 7    1  0.2395003E-008  0.4614232E+02  0.7816164E-02  0.1320468E+00
        -11   -1    0    0    0    0  0.00000000000E+00  0.00000000000E+00  0.45593999997E+02  0.45594000000E+02  0.51100000000E-03 0.  1.
         11   -1    0    0    0    0 -0.00000000000E+00 -0.00000000000E+00 -0.45593999997E+02  0.45594000000E+02  0.51100000000E-03 0. -1.
    9900012    2    1    2    0    0 -0.10390166671E+02 -0.10983725626E+02  0.42432484176E+02  0.46142317572E+02  0.99999982712E+01 0.  0.
         12    1    1    2    0    0  0.10390166671E+02  0.10983725626E+02 -0.42432484176E+02  0.45045682428E+02  0.00000000000E+00 0. -1.
         11    1    3    3    0    0 -0.17823963720E+01 -0.13311829120E+01  0.13532256483E+01  0.26038826180E+01  0.51100000000E-03 0. -1.
        -11    1    3    3    0    0 -0.79343815273E+01 -0.42919430807E+01  0.26020825968E+02  0.27540126542E+02  0.51100000000E-03 0.  1.
         12    1    3    3    0    0 -0.67338877167E+00 -0.53605996336E+01  0.15058432560E+02  0.15998308411E+02  0.00000000000E+00 0. -1.
</event>
<event>
 7    1  0.2395003E-008  0.4614232E+02  0.7816164E-02  0.1320468E+00
        -11   -1    0    0    0    0  0.00000000000E+00  0.00000000000E+00  0.45593999997E+02  0.45594000000E+02  0.51100000000E-03 0.  1.
         11   -1    0    0    0    0 -0.00000000000E+00 -0.00000000000E+00 -0.45593999997E+02  0.45594000000E+02  0.51100000000E-03 0. -1.
    9900012    2    1    2    0    0  0.31922992442E+02  0.27482150749E+02  0.15961434920E+02  0.46142318065E+02  0.10000002771E+02 0.  0.
         12    1    1    2    0    0 -0.31922992442E+02 -0.27482150749E+02 -0.15961434920E+02  0.45045681935E+02  0.00000000000E+00 0. -1.
         11    1    3    3    0    0  0.10127246238E+01  0.88737123738E+00 -0.79704102760E+00  0.15647087708E+01  0.51100000000E-03 0. -1.
        -11    1    3    3    0    0  0.28274858393E+02  0.21866689924E+02  0.13217600402E+02  0.38109378190E+02  0.51100000000E-03 0.  1.
        -12    1    3    3    0    0  0.26354094257E+01  0.47280895877E+01  0.35408755450E+01  0.64682311041E+01  0.00000000000E+00 0.  1.
</event>
<event>
 7    1  0.2395003E-008  0.4614232E+02  0.7816164E-02  0.1320468E+00
        -11   -1    0    0    0    0  0.00000000000E+00  0.00000000000E+00  0.45593999997E+02  0.45594000000E+02  0.51100000000E-03 0.  1.
         11   -1    0    0    0    0 -0.00000000000E+00 -0.00000000000E+00 -0.45593999997E+02  0.45594000000E+02  0.51100000000E-03 0. -1.
    9900012    2    1    2    0    0  0.72059623447E+01 -0.42637852508E+02  0.12617492625E+02  0.46142317854E+02  0.10000000851E+02 0.  0.
         12    1    1    2    0    0 -0.72059623447E+01  0.42637852508E+02 -0.12617492625E+02  0.45045682146E+02  0.00000000000E+00 0. -1.
         11    1    3    3    0    0  0.62219709283E+01 -0.31838658755E+02  0.88958195863E+01  0.33638500560E+02  0.51100000000E-03 0. -1.
        -11    1    3    3    0    0  0.23962232012E+01 -0.95634169854E+01  0.22337361871E+01  0.10108927128E+02  0.51100000000E-03 0.  1.
        -12    1    3    3    0    0 -0.14122317848E+01 -0.12357767675E+01  0.14879368516E+01  0.23948901661E+01  0.00000000000E+00 0.  1.
</event>
<event>
 7    1  0.2395003E-008  0.4614232E+02  0.7816164E-02  0.1320468E+00
        -11   -1    0    0    0    0  0.00000000000E+00  0.00000000000E+00  0.45593999997E+02  0.45594000000E+02  0.51100000000E-03 0.  1.
         11   -1    0    0    0    0 -0.00000000000E+00 -0.00000000000E+00 -0.45593999997E+02  0.45594000000E+02  0.51100000000E-03 0. -1.
    9900012    2    1    2    0    0  0.11233530401E+02  0.75286373782E+01  0.42967905537E+02  0.46142317717E+02  0.99999996016E+01 0.  0.
         12    1    1    2    0    0 -0.11233530401E+02 -0.75286373782E+01 -0.42967905537E+02  0.45045682283E+02  0.00000000000E+00 0. -1.
         11    1    3    3    0    0 -0.10844647671E+01  0.26445417360E+01  0.58970221482E+01  0.65532080160E+01  0.51100000000E-03 0. -1.
        -11    1    3    3    0    0  0.85471077126E+00  0.33500082531E+00  0.61848029798E+00  0.11069210431E+01  0.51100000000E-03 0.  1.
         12    1    3    3    0    0  0.11463284397E+02  0.45490948169E+01  0.36452403091E+02  0.38482188658E+02  0.00000000000E+00 0. -1.
</event>
<event>
 7    1  0.2395003E-008  0.4614232E+02  0.7816164E-02  0.1320468E+00
        -11   -1    0    0    0    0  0.00000000000E+00  0.00000000000E+00  0.45593999997E+02  0.45594000000E+02  0.51100000000E-03 0.  1.
         11   -1    0    0    0    0 -0.00000000000E+00 -0.00000000000E+00 -0.45593999997E+02  0.45594000000E+02  0.51100000000E-03 0. -1.
    9900012    2    1    2    0    0  0.19556960336E+02 -0.92084827797E+01 -0.39520154904E+02  0.46142317673E+02  0.99999991994E+01 0.  0.
         12    1    1    2    0    0 -0.19556960336E+02  0.92084827797E+01  0.39520154904E+02  0.45045682327E+02  0.00000000000E+00 0. -1.
         11    1    3    3    0    0  0.12064146371E+02 -0.26356901314E+01 -0.16441993277E+02  0.20562821628E+02  0.51100000000E-03 0. -1.
        -11    1    3    3    0    0  0.29270600684E+01 -0.14734003583E+01 -0.33009326934E+01  0.46513166058E+01  0.51100000000E-03 0.  1.
         12    1    3    3    0    0  0.45657538961E+01 -0.50993922900E+01 -0.19777228933E+02  0.20928179439E+02  0.00000000000E+00 0. -1.
</event>
<event>
 7    1  0.2395003E-008  0.4614232E+02  0.7816164E-02  0.1320468E+00
        -11   -1    0    0    0    0  0.00000000000E+00  0.00000000000E+00  0.45593999997E+02  0.45594000000E+02  0.51100000000E-03 0.  1.
         11   -1    0    0    0    0 -0.00000000000E+00 -0.00000000000E+00 -0.45593999997E+02  0.45594000000E+02  0.51100000000E-03 0. -1.
    9900012    2    1    2    0    0 -0.33472778107E+02 -0.12088631059E+02  0.27614335372E+02  0.46142318818E+02  0.10000009636E+02 0.  0.
         12    1    1    2    0    0  0.33472778107E+02  0.12088631059E+02 -0.27614335372E+02  0.45045681182E+02  0.00000000000E+00 0. -1.
         11    1    3    3    0    0 -0.44100602266E+01 -0.17072299646E+01  0.61545987853E+00  0.47688632269E+01  0.51100000000E-03 0. -1.
        -11    1    3    3    0    0 -0.17927357093E+02 -0.83371539862E+01  0.19655679831E+02  0.27879096449E+02  0.51100000000E-03 0.  1.
         12    1    3    3    0    0 -0.11135360788E+02 -0.20442471087E+01  0.73431956630E+01  0.13494359142E+02  0.00000000000E+00 0. -1.
</event>
<event>
 7    1  0.2395003E-008  0.4614232E+02  0.7816164E-02  0.1320468E+00
        -11   -1    0    0    0    0  0.00000000000E+00  0.00000000000E+00  0.45593999997E+02  0.45594000000E+02  0.51100000000E-03 0.  1.
         11   -1    0    0    0    0 -0.00000000000E+00 -0.00000000000E+00 -0.45593999997E+02  0.45594000000E+02  0.51100000000E-03 0. -1.
    9900012    2    1    2    0    0 -0.44277257586E+02 -0.63429035925E+01  0.53296845034E+01  0.46142317607E+02  0.99999985986E+01 0.  0.
         12    1    1    2    0    0  0.44277257586E+02  0.63429035925E+01 -0.53296845034E+01  0.45045682393E+02  0.00000000000E+00 0. -1.
         11    1    3    3    0    0 -0.70483499624E+01  0.20567690251E+01  0.15161233006E+01  0.74972105572E+01  0.51100000000E-03 0. -1.
        -11    1    3    3    0    0 -0.29512411329E+02 -0.61302985724E+01  0.48682223590E+01  0.30532975161E+02  0.51100000000E-03 0.  1.
        -12    1    3    3    0    0 -0.77164962949E+01 -0.22693740453E+01 -0.10546611562E+01  0.81121318888E+01  0.00000000000E+00 0.  1.
</event>
<event>
 7    1  0.2395003E-008  0.4614232E+02  0.7816164E-02  0.1320468E+00
        -11   -1    0    0    0    0  0.00000000000E+00  0.00000000000E+00  0.45593999997E+02  0.45594000000E+02  0.51100000000E-03 0. -1.
         11   -1    0    0    0    0 -0.00000000000E+00 -0.00000000000E+00 -0.45593999997E+02  0.45594000000E+02  0.51100000000E-03 0.  1.
    9900012    2    1    2    0    0 -0.31264040162E+02 -0.28202203755E+02 -0.16009651175E+02  0.46142318357E+02  0.10000005436E+02 0.  0.
         12    1    1    2    0    0  0.31264040162E+02  0.28202203755E+02  0.16009651175E+02  0.45045681643E+02  0.00000000000E+00 0. -1.
         11    1    3    3    0    0 -0.47908177647E+01 -0.31882619361E+01 -0.10415657900E+01  0.58482312355E+01  0.51100000000E-03 0. -1.
        -11    1    3    3    0    0 -0.17646503666E+02 -0.11155779141E+02 -0.98569974020E+01  0.23087028781E+02  0.51100000000E-03 0.  1.
        -12    1    3    3    0    0 -0.88267187314E+01 -0.13858162678E+02 -0.51110879825E+01  0.17207058341E+02  0.00000000000E+00 0.  1.
</event>
<event>
 7    1  0.2395003E-008  0.4614232E+02  0.7816164E-02  0.1320468E+00
        -11   -1    0    0    0    0  0.00000000000E+00  0.00000000000E+00  0.45593999997E+02  0.45594000000E+02  0.51100000000E-03 0.  1.
         11   -1    0    0    0    0 -0.00000000000E+00 -0.00000000000E+00 -0.45593999997E+02  0.45594000000E+02  0.51100000000E-03 0. -1.
    9900012    2    1    2    0    0 -0.23384630391E+02  0.53420346220E+01  0.38127880130E+02  0.46142317459E+02  0.99999972453E+01 0.  0.
         12    1    1    2    0    0  0.23384630391E+02 -0.53420346220E+01 -0.38127880130E+02  0.45045682541E+02  0.00000000000E+00 0. -1.
         11    1    3    3    0    0 -0.16343476787E+02  0.34656213213E+01  0.23993732334E+02  0.29237287087E+02  0.51100000000E-03 0. -1.
        -11    1    3    3    0    0 -0.65134601555E+01  0.62575081894E+00  0.14103197156E+02  0.15547247267E+02  0.51100000000E-03 0.  1.
         12    1    3    3    0    0 -0.52769344826E+00  0.12506624817E+01  0.30950639065E-01  0.13577831051E+01  0.00000000000E+00 0. -1.
</event>
<event>
 7    1  0.2395003E-008  0.4614232E+02  0.7816164E-02  0.1320468E+00
        -11   -1    0    0    0    0  0.00000000000E+00  0.00000000000E+00  0.45593999997E+02  0.45594000000E+02  0.51100000000E-03 0.  1.
         11   -1    0    0    0    0 -0.00000000000E+00 -0.00000000000E+00 -0.45593999997E+02  0.45594000000E+02  0.51100000000E-03 0. -1.
    9900012    2    1    2    0    0 -0.34531729990E+02 -0.10592155812E+02  0.26916154625E+02  0.46142317403E+02  0.99999967377E+01 0.  0.
         12    1    1    2    0    0  0.34531729990E+02  0.10592155812E+02 -0.26916154625E+02  0.45045682597E+02  0.00000000000E+00 0. -1.
         11    1    3    3    0    0 -0.13901846989E+02 -0.21616692074E+01  0.58376925817E+01  0.15231966991E+02  0.51100000000E-03 0. -1.
        -11    1    3    3    0    0 -0.19599621282E+02 -0.70889641760E+01  0.18769019630E+02  0.28047721220E+02  0.51100000000E-03 0.  1.
         12    1    3    3    0    0 -0.10302617178E+01 -0.13415224284E+01  0.23094424133E+01  0.28626291924E+01  0.00000000000E+00 0. -1.
</event>
<event>
 7    1  0.2395003E-008  0.4614232E+02  0.7816164E-02  0.1320468E+00
        -11   -1    0    0    0    0  0.00000000000E+00  0.00000000000E+00  0.45593999997E+02  0.45594000000E+02  0.51100000000E-03 0.  1.
         11   -1    0    0    0    0 -0.00000000000E+00 -0.00000000000E+00 -0.45593999997E+02  0.45594000000E+02  0.51100000000E-03 0. -1.
    9900012    2    1    2    0    0 -0.27421482259E+02  0.26619587451E+01  0.35638320394E+02  0.46142316587E+02  0.99999892958E+01 0.  0.
         12    1    1    2    0    0  0.27421482259E+02 -0.26619587451E+01 -0.35638320394E+02  0.45045683413E+02  0.00000000000E+00 0. -1.
         11    1    3    3    0    0 -0.54637670732E+01 -0.70230005605E+00  0.70747863305E+01  0.89665254074E+01  0.51100000000E-03 0. -1.
        -11    1    3    3    0    0 -0.12201976436E+02 -0.24121517369E+01  0.15673410193E+02  0.20009060255E+02  0.51100000000E-03 0.  1.
         12    1    3    3    0    0 -0.97557387493E+01  0.57764105381E+01  0.12890123870E+02  0.17166730925E+02  0.00000000000E+00 0. -1.
</event>
<event>
 7    1  0.2395003E-008  0.4614232E+02  0.7816164E-02  0.1320468E+00
        -11   -1    0    0    0    0  0.00000000000E+00  0.00000000000E+00  0.45593999997E+02  0.45594000000E+02  0.51100000000E-03 0.  1.
         11   -1    0    0    0    0 -0.00000000000E+00 -0.00000000000E+00 -0.45593999997E+02  0.45594000000E+02  0.51100000000E-03 0. -1.
    9900012    2    1    2    0    0  0.15899921190E+02 -0.19489450642E+02  0.37369336837E+02  0.46142317457E+02  0.99999972283E+01 0.  0.
         12    1    1    2    0    0 -0.15899921190E+02  0.19489450642E+02 -0.37369336837E+02  0.45045682543E+02  0.00000000000E+00 0. -1.
         11    1    3    3    0    0  0.61231341820E+01 -0.46996297017E+01  0.53980674696E+01  0.94190458228E+01  0.51100000000E-03 0. -1.
        -11    1    3    3    0    0  0.14298251316E+01 -0.52557443653E+00  0.22768515965E+01  0.27394674389E+01  0.51100000000E-03 0.  1.
         12    1    3    3    0    0  0.83469618761E+01 -0.14264246503E+02  0.29694417771E+02  0.33983804195E+02  0.00000000000E+00 0. -1.
</event>
<event>
 7    1  0.2395003E-008  0.4614232E+02  0.7816164E-02  0.1320468E+00
        -11   -1    0    0    0    0  0.00000000000E+00  0.00000000000E+00  0.45593999997E+02  0.45594000000E+02  0.51100000000E-03 0.  1.
         11   -1    0    0    0    0 -0.00000000000E+00 -0.00000000000E+00 -0.45593999997E+02  0.45594000000E+02  0.51100000000E-03 0. -1.
    9900012    2    1    2    0    0  0.42863327852E+02  0.12656665975E+02 -0.56264968374E+01  0.46142317245E+02  0.99999952977E+01 0.  0.
         12    1    1    2    0    0 -0.42863327852E+02 -0.12656665975E+02  0.56264968374E+01  0.45045682755E+02  0.00000000000E+00 0. -1.
         11    1    3    3    0    0  0.55719895218E+00  0.15730355565E+01  0.34370852825E+00  0.17038331338E+01  0.51100000000E-03 0. -1.
        -11    1    3    3    0    0  0.15401992886E+02  0.65446505788E+01 -0.28602461573E+01  0.16977480508E+02  0.51100000000E-03 0.  1.
        -12    1    3    3    0    0  0.26904136014E+02  0.45389798400E+01 -0.31099592083E+01  0.27461003603E+02  0.00000000000E+00 0.  1.
</event>
<event>
 7    1  0.2395003E-008  0.4614232E+02  0.7816164E-02  0.1320468E+00
        -11   -1    0    0    0    0  0.00000000000E+00  0.00000000000E+00  0.45593999997E+02  0.45594000000E+02  0.51100000000E-03 0. -1.
         11   -1    0    0    0    0 -0.00000000000E+00 -0.00000000000E+00 -0.45593999997E+02  0.45594000000E+02  0.51100000000E-03 0.  1.
    9900012    2    1    2    0    0  0.81928923951E+01  0.26629500006E+02 -0.35395758723E+02  0.46142317721E+02  0.99999996370E+01 0.  0.
         12    1    1    2    0    0 -0.81928923951E+01 -0.26629500006E+02  0.35395758723E+02  0.45045682279E+02  0.00000000000E+00 0. -1.
         11    1    3    3    0    0  0.21124586394E+01  0.26117853829E+01 -0.20558312278E+01  0.39383177485E+01  0.51100000000E-03 0. -1.
        -11    1    3    3    0    0  0.72924640115E+01  0.18379863499E+02 -0.22722504752E+02  0.30121614101E+02  0.51100000000E-03 0.  1.
        -12    1    3    3    0    0 -0.12120302558E+01  0.56378511242E+01 -0.10617422743E+02  0.12082385872E+02  0.00000000000E+00 0.  1.
</event>
<event>
 7    1  0.2395003E-008  0.4614232E+02  0.7816164E-02  0.1320468E+00
        -11   -1    0    0    0    0  0.00000000000E+00  0.00000000000E+00  0.45593999997E+02  0.45594000000E+02  0.51100000000E-03 0. -1.
         11   -1    0    0    0    0 -0.00000000000E+00 -0.00000000000E+00 -0.45593999997E+02  0.45594000000E+02  0.51100000000E-03 0.  1.
    9900012    2    1    2    0    0  0.46054857845E+01  0.43115003454E+02 -0.12206530099E+02  0.46142318750E+02  0.10000009021E+02 0.  0.
         12    1    1    2    0    0 -0.46054857845E+01 -0.43115003454E+02  0.12206530099E+02  0.45045681250E+02  0.00000000000E+00 0. -1.
         11    1    3    3    0    0  0.35114419934E+01  0.10597302734E+02 -0.34042313617E+01  0.11671411291E+02  0.51100000000E-03 0. -1.
        -11    1    3    3    0    0  0.25200590916E+01  0.27073475544E+02 -0.94947285842E+01  0.28800584143E+02  0.51100000000E-03 0.  1.
         12    1    3    3    0    0 -0.14260153005E+01  0.54442251767E+01  0.69242984684E+00  0.56703233157E+01  0.00000000000E+00 0. -1.
</event>
<event>
 7    1  0.2395003E-008  0.4614232E+02  0.7816164E-02  0.1320468E+00
        -11   -1    0    0    0    0  0.00000000000E+00  0.00000000000E+00  0.45593999997E+02  0.45594000000E+02  0.51100000000E-03 0.  1.
         11   -1    0    0    0    0 -0.00000000000E+00 -0.00000000000E+00 -0.45593999997E+02  0.45594000000E+02  0.51100000000E-03 0. -1.
    9900012    2    1    2    0    0 -0.24568470603E+02 -0.36288268614E+02  0.10424264627E+02  0.46142317856E+02  0.10000000869E+02 0.  0.
         12    1    1    2    0    0  0.24568470603E+02  0.36288268614E+02 -0.10424264627E+02  0.45045682144E+02  0.00000000000E+00 0. -1.
         11    1    3    3    0    0 -0.41701979051E+01 -0.14133353457E+01  0.19154077878E+01  0.48017553688E+01  0.51100000000E-03 0. -1.
        -11    1    3    3    0    0 -0.12327175228E+02 -0.19393886624E+02  0.42463260160E+01  0.23369068710E+02  0.51100000000E-03 0.  1.
         12    1    3    3    0    0 -0.80710974701E+01 -0.15481046644E+02  0.42625308233E+01  0.17971493777E+02  0.00000000000E+00 0. -1.
</event>
<event>
 7    1  0.2395003E-008  0.4614232E+02  0.7816164E-02  0.1320468E+00
        -11   -1    0    0    0    0  0.00000000000E+00  0.00000000000E+00  0.45593999997E+02  0.45594000000E+02  0.51100000000E-03 0.  1.
         11   -1    0    0    0    0 -0.00000000000E+00 -0.00000000000E+00 -0.45593999997E+02  0.45594000000E+02  0.51100000000E-03 0. -1.
    9900012    2    1    2    0    0  0.10418071043E+01 -0.11203440931E+02  0.43617783205E+02  0.46142318049E+02  0.10000002626E+02 0.  0.
         12    1    1    2    0    0 -0.10418071043E+01  0.11203440931E+02 -0.43617783205E+02  0.45045681951E+02  0.00000000000E+00 0. -1.
         11    1    3    3    0    0  0.11031980016E+01  0.36246931564E+00  0.21833209079E+01  0.24729173629E+01  0.51100000000E-03 0. -1.
        -11    1    3    3    0    0  0.24568072653E+01 -0.68752058422E+01  0.14738270219E+02  0.16447521595E+02  0.51100000000E-03 0.  1.
         12    1    3    3    0    0 -0.25181981625E+01 -0.46907044041E+01  0.26696192078E+02  0.27221879091E+02  0.00000000000E+00 0. -1.
</event>
<event>
 7    1  0.2395003E-008  0.4614231E+02  0.7816164E-02  0.1320468E+00
        -11   -1    0    0    0    0  0.00000000000E+00  0.00000000000E+00  0.45593999997E+02  0.45594000000E+02  0.51100000000E-03 0. -1.
         11   -1    0    0    0    0 -0.00000000000E+00 -0.00000000000E+00 -0.45593999997E+02  0.45594000000E+02  0.51100000000E-03 0.  1.
    9900012    2    1    2    0    0  0.25388185072E+01  0.42374925360E+02 -0.15067642667E+02  0.46142314810E+02  0.99999730909E+01 0.  0.
         12    1    1    2    0    0 -0.25388185072E+01 -0.42374925360E+02  0.15067642667E+02  0.45045685190E+02  0.00000000000E+00 0. -1.
         11    1    3    3    0    0 -0.17524158930E+01  0.44756715635E+01 -0.69481535597E+00  0.48564767112E+01  0.51100000000E-03 0. -1.
        -11    1    3    3    0    0  0.10600461318E+01  0.25632782148E+02 -0.69120814565E+01  0.26569533092E+02  0.51100000000E-03 0.  1.
         12    1    3    3    0    0  0.32311882684E+01  0.12266471649E+02 -0.74607458545E+01  0.14716305006E+02  0.00000000000E+00 0. -1.
</event>
<event>
 7    1  0.2395003E-008  0.4614232E+02  0.7816164E-02  0.1320468E+00
        -11   -1    0    0    0    0  0.00000000000E+00  0.00000000000E+00  0.45593999997E+02  0.45594000000E+02  0.51100000000E-03 0. -1.
         11   -1    0    0    0    0 -0.00000000000E+00 -0.00000000000E+00 -0.45593999997E+02  0.45594000000E+02  0.51100000000E-03 0.  1.
    9900012    2    1    2    0    0  0.54926613609E+01  0.39577568206E+02 -0.20798083760E+02  0.46142317388E+02  0.99999965948E+01 0.  0.
         12    1    1    2    0    0 -0.54926613609E+01 -0.39577568206E+02  0.20798083760E+02  0.45045682612E+02  0.00000000000E+00 0. -1.
         11    1    3    3    0    0  0.25120273227E+01  0.71969865049E+01 -0.17396683639E+01  0.78187813820E+01  0.51100000000E-03 0. -1.
        -11    1    3    3    0    0 -0.15149479271E+01  0.62685705919E+01 -0.17755772225E+01  0.66889998670E+01  0.51100000000E-03 0.  1.
        -12    1    3    3    0    0  0.44955819652E+01  0.26112011109E+02 -0.17282838174E+02  0.31634536139E+02  0.00000000000E+00 0.  1.
</event>
<event>
 7    1  0.2395003E-008  0.4614232E+02  0.7816164E-02  0.1320468E+00
        -11   -1    0    0    0    0  0.00000000000E+00  0.00000000000E+00  0.45593999997E+02  0.45594000000E+02  0.51100000000E-03 0.  1.
         11   -1    0    0    0    0 -0.00000000000E+00 -0.00000000000E+00 -0.45593999997E+02  0.45594000000E+02  0.51100000000E-03 0. -1.
    9900012    2    1    2    0    0 -0.20768728579E+02 -0.25244199733E+02  0.30991993253E+02  0.46142319266E+02  0.10000013726E+02 0.  0.
         12    1    1    2    0    0  0.20768728579E+02  0.25244199733E+02 -0.30991993253E+02  0.45045680734E+02  0.00000000000E+00 0. -1.
         11    1    3    3    0    0 -0.14881018616E+02 -0.10620968220E+02  0.18149508435E+02  0.25761489431E+02  0.51100000000E-03 0. -1.
        -11    1    3    3    0    0 -0.23210490579E+01 -0.40623587187E+01  0.38066319196E+01  0.60316228265E+01  0.51100000000E-03 0.  1.
         12    1    3    3    0    0 -0.35666609045E+01 -0.10560872794E+02  0.90358528987E+01  0.14349207009E+02  0.00000000000E+00 0. -1.
</event>
<event>
 7    1  0.2395003E-008  0.4614232E+02  0.7816164E-02  0.1320468E+00
        -11   -1    0    0    0    0  0.00000000000E+00  0.00000000000E+00  0.45593999997E+02  0.45594000000E+02  0.51100000000E-03 0. -1.
         11   -1    0    0    0    0 -0.00000000000E+00 -0.00000000000E+00 -0.45593999997E+02  0.45594000000E+02  0.51100000000E-03 0.  1.
    9900012    2    1    2    0    0 -0.40544732351E+02 -0.18980598804E+02 -0.49975078388E+01  0.46142317222E+02  0.99999950854E+01 0.  0.
         12    1    1    2    0    0  0.40544732351E+02  0.18980598804E+02  0.49975078388E+01  0.45045682778E+02  0.00000000000E+00 0. -1.
         11    1    3    3    0    0 -0.19398124574E+02 -0.79532879278E+01  0.54599091804E+00  0.20972365918E+02  0.51100000000E-03 0.  1.
        -11    1    3    3    0    0 -0.25413050253E+01 -0.23345958450E+01 -0.28154871983E+01  0.44537105222E+01  0.51100000000E-03 0. -1.
         12    1    3    3    0    0 -0.18605302751E+02 -0.86927150308E+01 -0.27280115585E+01  0.20716240782E+02  0.00000000000E+00 0. -1.
</event>
<event>
 7    1  0.2395003E-008  0.4614232E+02  0.7816164E-02  0.1320468E+00
        -11   -1    0    0    0    0  0.00000000000E+00  0.00000000000E+00  0.45593999997E+02  0.45594000000E+02  0.51100000000E-03 0. -1.
         11   -1    0    0    0    0 -0.00000000000E+00 -0.00000000000E+00 -0.45593999997E+02  0.45594000000E+02  0.51100000000E-03 0.  1.
    9900012    2    1    2    0    0  0.11504024320E+02  0.23054734749E+02 -0.36949291534E+02  0.46142317468E+02  0.99999973283E+01 0.  0.
         12    1    1    2    0    0 -0.11504024320E+02 -0.23054734749E+02  0.36949291534E+02  0.45045682532E+02  0.00000000000E+00 0. -1.
         11    1    3    3    0    0  0.29606415376E+00 -0.90016778666E-01  0.36079862566E+00  0.47532400842E+00  0.51100000000E-03 0. -1.
        -11    1    3    3    0    0  0.98511788880E+01  0.16687209183E+02 -0.30859798107E+02  0.36439481545E+02  0.51100000000E-03 0.  1.
         12    1    3    3    0    0  0.13567812785E+01  0.64575423451E+01 -0.64502920523E+01  0.92275119147E+01  0.00000000000E+00 0. -1.
</event>
<event>
 7    1  0.2395003E-008  0.4614232E+02  0.7816164E-02  0.1320468E+00
        -11   -1    0    0    0    0  0.00000000000E+00  0.00000000000E+00  0.45593999997E+02  0.45594000000E+02  0.51100000000E-03 0. -1.
         11   -1    0    0    0    0 -0.00000000000E+00 -0.00000000000E+00 -0.45593999997E+02  0.45594000000E+02  0.51100000000E-03 0.  1.
    9900012    2    1    2    0    0  0.43355294375E+02 -0.12224142450E+02  0.46917055545E-01  0.46142318629E+02  0.10000007910E+02 0.  0.
         12    1    1    2    0    0 -0.43355294375E+02  0.12224142450E+02 -0.46917055545E-01  0.45045681371E+02  0.00000000000E+00 0. -1.
         11    1    3    3    0    0  0.55135430403E+01 -0.23848201105E+01  0.13874739587E+01  0.61653554694E+01  0.51100000000E-03 0. -1.
        -11    1    3    3    0    0  0.17516980807E+02 -0.84589896437E+00 -0.25330398290E+01  0.17719380708E+02  0.51100000000E-03 0.  1.
        -12    1    3    3    0    0  0.20324770528E+02 -0.89934233755E+01  0.11924829259E+01  0.22257582451E+02  0.00000000000E+00 0.  1.
</event>
<event>
 7    1  0.2395003E-008  0.4614232E+02  0.7816164E-02  0.1320468E+00
        -11   -1    0    0    0    0  0.00000000000E+00  0.00000000000E+00  0.45593999997E+02  0.45594000000E+02  0.51100000000E-03 0.  1.
         11   -1    0    0    0    0 -0.00000000000E+00 -0.00000000000E+00 -0.45593999997E+02  0.45594000000E+02  0.51100000000E-03 0. -1.
    9900012    2    1    2    0    0 -0.48614176751E+00 -0.23233581085E+02  0.38588571692E+02  0.46142317753E+02  0.99999999293E+01 0.  0.
         12    1    1    2    0    0  0.48614176751E+00  0.23233581085E+02 -0.38588571692E+02  0.45045682247E+02  0.00000000000E+00 0. -1.
         11    1    3    3    0    0 -0.36033141126E+01 -0.73641089536E+01  0.84347714344E+01  0.11762624821E+02  0.51100000000E-03 0. -1.
        -11    1    3    3    0    0 -0.40038742969E-01 -0.67086981452E+01  0.14371583484E+02  0.15860348231E+02  0.51100000000E-03 0.  1.
         12    1    3    3    0    0  0.31572110881E+01 -0.91607739862E+01  0.15782216774E+02  0.18519344701E+02  0.00000000000E+00 0. -1.
</event>
<event>
 7    1  0.3560149E-008  0.4614232E+02  0.7816164E-02  0.1320468E+00
        -11   -1    0    0    0    0  0.00000000000E+00  0.00000000000E+00  0.45593999997E+02  0.45594000000E+02  0.51100000000E-03 0. -1.
         11   -1    0    0    0    0 -0.00000000000E+00 -0.00000000000E+00 -0.45593999997E+02  0.45594000000E+02  0.51100000000E-03 0.  1.
    9900012    2    1    2    0    0  0.27237778813E+02 -0.34618505891E+02  0.94221082815E+01  0.46142315753E+02  0.99999816914E+01 0.  0.
         12    1    1    2    0    0 -0.27237778813E+02  0.34618505891E+02 -0.94221082815E+01  0.45045684247E+02  0.00000000000E+00 0. -1.
         11    1    3    3    0    0  0.78386297561E+00 -0.14890408432E+01 -0.11701232245E+01  0.20496029906E+01  0.51100000000E-03 0. -1.
        -11    1    3    3    0    0  0.26509425300E+01 -0.57369338139E+01  0.11453980992E+00  0.63208405700E+01  0.51100000000E-03 0.  1.
        -12    1    3    3    0    0  0.23802973307E+02 -0.27392531234E+02  0.10477691696E+02  0.37771872193E+02  0.00000000000E+00 0.  1.
</event>
<event>
 7    1  0.2395003E-008  0.4614232E+02  0.7816164E-02  0.1320468E+00
        -11   -1    0    0    0    0  0.00000000000E+00  0.00000000000E+00  0.45593999997E+02  0.45594000000E+02  0.51100000000E-03 0.  1.
         11   -1    0    0    0    0 -0.00000000000E+00 -0.00000000000E+00 -0.45593999997E+02  0.45594000000E+02  0.51100000000E-03 0. -1.
    9900012    2    1    2    0    0 -0.26957273869E+02  0.31005661887E+02  0.18468020014E+02  0.46142318223E+02  0.10000004214E+02 0.  0.
         12    1    1    2    0    0  0.26957273869E+02 -0.31005661887E+02 -0.18468020014E+02  0.45045681777E+02  0.00000000000E+00 0. -1.
         11    1    3    3    0    0 -0.89548118020E+01  0.63340766580E+01  0.74194841735E+01  0.13242278021E+02  0.51100000000E-03 0. -1.
        -11    1    3    3    0    0 -0.42901773351E+01  0.91140699199E+01  0.52876343021E+01  0.11376773218E+02  0.51100000000E-03 0.  1.
        -12    1    3    3    0    0 -0.13712284732E+02  0.15557515309E+02  0.57609015379E+01  0.21523266985E+02  0.00000000000E+00 0.  1.
</event>
<event>
 7    1  0.2395003E-008  0.4614232E+02  0.7816164E-02  0.1320468E+00
        -11   -1    0    0    0    0  0.00000000000E+00  0.00000000000E+00  0.45593999997E+02  0.45594000000E+02  0.51100000000E-03 0.  1.
         11   -1    0    0    0    0 -0.00000000000E+00 -0.00000000000E+00 -0.45593999997E+02  0.45594000000E+02  0.51100000000E-03 0. -1.
    9900012    2    1    2    0    0 -0.33724882636E+02  0.12202701938E+02  0.27255089355E+02  0.46142317197E+02  0.99999948581E+01 0.  0.
         12    1    1    2    0    0  0.33724882636E+02 -0.12202701938E+02 -0.27255089355E+02  0.45045682803E+02  0.00000000000E+00 0. -1.
         11    1    3    3    0    0 -0.13771788376E+01 -0.14422040371E+01  0.99053785706E+00  0.22265981996E+01  0.51100000000E-03 0. -1.
        -11    1    3    3    0    0 -0.99468047363E+01  0.31769778372E+01  0.70040143984E+01  0.12573318201E+02  0.51100000000E-03 0.  1.
         12    1    3    3    0    0 -0.22400899062E+02  0.10467928138E+02  0.19260537100E+02  0.31342400796E+02  0.00000000000E+00 0. -1.
</event>
<event>
 7    1  0.2395003E-008  0.4614232E+02  0.7816164E-02  0.1320468E+00
        -11   -1    0    0    0    0  0.00000000000E+00  0.00000000000E+00  0.45593999997E+02  0.45594000000E+02  0.51100000000E-03 0.  1.
         11   -1    0    0    0    0 -0.00000000000E+00 -0.00000000000E+00 -0.45593999997E+02  0.45594000000E+02  0.51100000000E-03 0. -1.
    9900012    2    1    2    0    0 -0.23883418931E+02 -0.32615236076E+02  0.19873154760E+02  0.46142316475E+02  0.99999882705E+01 0.  0.
         12    1    1    2    0    0  0.23883418931E+02  0.32615236076E+02 -0.19873154760E+02  0.45045683525E+02  0.00000000000E+00 0. -1.
         11    1    3    3    0    0 -0.23431471311E+01 -0.80664737679E+01  0.52045241325E+01  0.98815691686E+01  0.51100000000E-03 0. -1.
        -11    1    3    3    0    0 -0.13203101863E+02 -0.18732670768E+02  0.90015784395E+01  0.24622413926E+02  0.51100000000E-03 0.  1.
        -12    1    3    3    0    0 -0.83371699364E+01 -0.58160915408E+01  0.56670521879E+01  0.11638333380E+02  0.00000000000E+00 0.  1.
</event>
<event>
 7    1  0.2395003E-008  0.4614232E+02  0.7816164E-02  0.1320468E+00
        -11   -1    0    0    0    0  0.00000000000E+00  0.00000000000E+00  0.45593999997E+02  0.45594000000E+02  0.51100000000E-03 0.  1.
         11   -1    0    0    0    0 -0.00000000000E+00 -0.00000000000E+00 -0.45593999997E+02  0.45594000000E+02  0.51100000000E-03 0. -1.
    9900012    2    1    2    0    0 -0.34586518007E+02  0.16784718660E+02  0.23476780954E+02  0.46142320381E+02  0.10000023892E+02 0.  0.
         12    1    1    2    0    0  0.34586518007E+02 -0.16784718660E+02 -0.23476780954E+02  0.45045679619E+02  0.00000000000E+00 0. -1.
         11    1    3    3    0    0 -0.79411130621E+01  0.98044449990E+00  0.78642387391E+01  0.11219126494E+02  0.51100000000E-03 0. -1.
        -11    1    3    3    0    0 -0.17592868153E+02  0.86471646629E+01  0.11135653240E+02  0.22545182188E+02  0.51100000000E-03 0.  1.
        -12    1    3    3    0    0 -0.90525367912E+01  0.71571094977E+01  0.44768889757E+01  0.12378011699E+02  0.00000000000E+00 0.  1.
</event>
<event>
 7    1  0.2395003E-008  0.4614232E+02  0.7816164E-02  0.1320468E+00
        -11   -1    0    0    0    0  0.00000000000E+00  0.00000000000E+00  0.45593999997E+02  0.45594000000E+02  0.51100000000E-03 0. -1.
         11   -1    0    0    0    0 -0.00000000000E+00 -0.00000000000E+00 -0.45593999997E+02  0.45594000000E+02  0.51100000000E-03 0.  1.
    9900012    2    1    2    0    0 -0.16457290451E+02  0.28969249183E+02 -0.30315898282E+02  0.46142317678E+02  0.99999992456E+01 0.  0.
         12    1    1    2    0    0  0.16457290451E+02 -0.28969249183E+02  0.30315898282E+02  0.45045682322E+02  0.00000000000E+00 0. -1.
         11    1    3    3    0    0 -0.50390810473E+01  0.70390741359E+01 -0.10038498142E+02  0.13255653424E+02  0.51100000000E-03 0.  1.
        -11    1    3    3    0    0 -0.26092087583E+01  0.56631236046E+01 -0.98315896281E+01  0.11642125845E+02  0.51100000000E-03 0. -1.
         12    1    3    3    0    0 -0.88090006452E+01  0.16267051442E+02 -0.10445810511E+02  0.21244538410E+02  0.00000000000E+00 0. -1.
</event>
<event>
 7    1  0.2395003E-008  0.4614232E+02  0.7816164E-02  0.1320468E+00
        -11   -1    0    0    0    0  0.00000000000E+00  0.00000000000E+00  0.45593999997E+02  0.45594000000E+02  0.51100000000E-03 0. -1.
         11   -1    0    0    0    0 -0.00000000000E+00 -0.00000000000E+00 -0.45593999997E+02  0.45594000000E+02  0.51100000000E-03 0.  1.
    9900012    2    1    2    0    0 -0.30485536179E+02  0.32606110798E+02 -0.60487101702E+01  0.46142320160E+02  0.10000021872E+02 0.  0.
         12    1    1    2    0    0  0.30485536179E+02 -0.32606110798E+02  0.60487101702E+01  0.45045679840E+02  0.00000000000E+00 0. -1.
         11    1    3    3    0    0 -0.12904812439E+02  0.16436822641E+02 -0.10971869443E+01  0.20926230957E+02  0.51100000000E-03 0. -1.
        -11    1    3    3    0    0 -0.31367799461E+01  0.67983425460E+01 -0.10297517254E+01  0.75575947682E+01  0.51100000000E-03 0.  1.
         12    1    3    3    0    0 -0.14443943794E+02  0.93709456113E+01 -0.39217715005E+01  0.17658494434E+02  0.00000000000E+00 0. -1.
</event>
<event>
 7    1  0.2395003E-008  0.4614232E+02  0.7816164E-02  0.1320468E+00
        -11   -1    0    0    0    0  0.00000000000E+00  0.00000000000E+00  0.45593999997E+02  0.45594000000E+02  0.51100000000E-03 0.  1.
         11   -1    0    0    0    0 -0.00000000000E+00 -0.00000000000E+00 -0.45593999997E+02  0.45594000000E+02  0.51100000000E-03 0. -1.
    9900012    2    1    2    0    0 -0.39720241462E+02  0.84782313945E+01  0.19481667891E+02  0.46142319040E+02  0.10000011663E+02 0.  0.
         12    1    1    2    0    0  0.39720241462E+02 -0.84782313945E+01 -0.19481667891E+02  0.45045680960E+02  0.00000000000E+00 0. -1.
         11    1    3    3    0    0 -0.98352359936E+01  0.49371851649E+01  0.34874753735E+01  0.11544269104E+02  0.51100000000E-03 0. -1.
        -11    1    3    3    0    0 -0.14083130346E+02  0.17896670219E+01  0.42073427589E+01  0.14806728259E+02  0.51100000000E-03 0.  1.
         12    1    3    3    0    0 -0.15801875122E+02  0.17513792076E+01  0.11786849758E+02  0.19791321677E+02  0.00000000000E+00 0. -1.
</event>
<event>
 7    1  0.2395003E-008  0.4614232E+02  0.7816164E-02  0.1320468E+00
        -11   -1    0    0    0    0  0.00000000000E+00  0.00000000000E+00  0.45593999997E+02  0.45594000000E+02  0.51100000000E-03 0.  1.
         11   -1    0    0    0    0 -0.00000000000E+00 -0.00000000000E+00 -0.45593999997E+02  0.45594000000E+02  0.51100000000E-03 0. -1.
    9900012    2    1    2    0    0 -0.39639366134E+02 -0.73154044766E+01  0.20107685821E+02  0.46142317418E+02  0.99999968720E+01 0.  0.
         12    1    1    2    0    0  0.39639366134E+02  0.73154044766E+01 -0.20107685821E+02  0.45045682582E+02  0.00000000000E+00 0. -1.
         11    1    3    3    0    0 -0.13661932590E+02  0.87840801004E+00  0.41584818236E+01  0.14307794172E+02  0.51100000000E-03 0. -1.
        -11    1    3    3    0    0 -0.12424662685E+02 -0.22105177757E+01  0.58843757465E+01  0.13924241805E+02  0.51100000000E-03 0.  1.
        -12    1    3    3    0    0 -0.13552770860E+02 -0.59832947109E+01  0.10064828251E+02  0.17910281441E+02  0.00000000000E+00 0.  1.
</event>
<event>
 7    1  0.2395003E-008  0.4614232E+02  0.7816164E-02  0.1320468E+00
        -11   -1    0    0    0    0  0.00000000000E+00  0.00000000000E+00  0.45593999997E+02  0.45594000000E+02  0.51100000000E-03 0.  1.
         11   -1    0    0    0    0 -0.00000000000E+00 -0.00000000000E+00 -0.45593999997E+02  0.45594000000E+02  0.51100000000E-03 0. -1.
    9900012    2    1    2    0    0 -0.25746585499E+02  0.25393459493E+01  0.36875175585E+02  0.46142317442E+02  0.99999970894E+01 0.  0.
         12    1    1    2    0    0  0.25746585499E+02 -0.25393459493E+01 -0.36875175585E+02  0.45045682558E+02  0.00000000000E+00 0. -1.
         11    1    3    3    0    0 -0.50511483833E+01 -0.22082900347E+01  0.11621863892E+02  0.12863062056E+02  0.51100000000E-03 0. -1.
        -11    1    3    3    0    0 -0.32279501341E+01  0.24577772844E+01  0.46573692963E+01  0.61766835981E+01  0.51100000000E-03 0.  1.
        -12    1    3    3    0    0 -0.17467486982E+02  0.22898586995E+01  0.20595942396E+02  0.27102571788E+02  0.00000000000E+00 0.  1.
</event>
<event>
 7    1  0.2395003E-008  0.4614232E+02  0.7816164E-02  0.1320468E+00
        -11   -1    0    0    0    0  0.00000000000E+00  0.00000000000E+00  0.45593999997E+02  0.45594000000E+02  0.51100000000E-03 0.  1.
         11   -1    0    0    0    0 -0.00000000000E+00 -0.00000000000E+00 -0.45593999997E+02  0.45594000000E+02  0.51100000000E-03 0. -1.
    9900012    2    1    2    0    0  0.21653553043E+02 -0.64479097800E+01  0.38970007839E+02  0.46142318621E+02  0.10000007840E+02 0.  0.
         12    1    1    2    0    0 -0.21653553043E+02  0.64479097800E+01 -0.38970007839E+02  0.45045681379E+02  0.00000000000E+00 0. -1.
         11    1    3    3    0    0  0.11100508410E+01  0.83074273331E-01 -0.16080664001E+00  0.11247102921E+01  0.51100000000E-03 0. -1.
        -11    1    3    3    0    0  0.12438356115E+02 -0.51464278892E+01  0.28984807801E+02  0.31958058552E+02  0.51100000000E-03 0.  1.
         12    1    3    3    0    0  0.81051460877E+01 -0.13845561641E+01  0.10146006678E+02  0.13059549777E+02  0.00000000000E+00 0. -1.
</event>
<event>
 7    1  0.2395003E-008  0.4614232E+02  0.7816164E-02  0.1320468E+00
        -11   -1    0    0    0    0  0.00000000000E+00  0.00000000000E+00  0.45593999997E+02  0.45594000000E+02  0.51100000000E-03 0.  1.
         11   -1    0    0    0    0 -0.00000000000E+00 -0.00000000000E+00 -0.45593999997E+02  0.45594000000E+02  0.51100000000E-03 0. -1.
    9900012    2    1    2    0    0  0.49050523697E+01  0.44577783936E+02  0.42279000762E+01  0.46142317649E+02  0.99999989793E+01 0.  0.
         12    1    1    2    0    0 -0.49050523697E+01 -0.44577783936E+02 -0.42279000762E+01  0.45045682351E+02  0.00000000000E+00 0. -1.
         11    1    3    3    0    0  0.72754659583E+00  0.77723354480E+00 -0.80011756307E+00  0.13317674002E+01  0.51100000000E-03 0. -1.
        -11    1    3    3    0    0 -0.26703426675E+00  0.16629310836E+02  0.46746807853E+01  0.17275934906E+02  0.51100000000E-03 0.  1.
        -12    1    3    3    0    0  0.44445400406E+01  0.27171239555E+02  0.35333685399E+00  0.27534615343E+02  0.00000000000E+00 0.  1.
</event>
<event>
 7    1  0.2395003E-008  0.4614232E+02  0.7816164E-02  0.1320468E+00
        -11   -1    0    0    0    0  0.00000000000E+00  0.00000000000E+00  0.45593999997E+02  0.45594000000E+02  0.51100000000E-03 0.  1.
         11   -1    0    0    0    0 -0.00000000000E+00 -0.00000000000E+00 -0.45593999997E+02  0.45594000000E+02  0.51100000000E-03 0. -1.
    9900012    2    1    2    0    0  0.13185392730E+02 -0.39595651816E+02  0.16954152057E+02  0.46142317675E+02  0.99999992115E+01 0.  0.
         12    1    1    2    0    0 -0.13185392730E+02  0.39595651816E+02 -0.16954152057E+02  0.45045682325E+02  0.00000000000E+00 0. -1.
         11    1    3    3    0    0  0.16993129466E+01 -0.76565697071E+01  0.43880518547E+01  0.89869752148E+01  0.51100000000E-03 0. -1.
        -11    1    3    3    0    0  0.55980126183E+01 -0.23316874775E+02  0.11691763439E+02  0.26677925839E+02  0.51100000000E-03 0.  1.
        -12    1    3    3    0    0  0.58880671656E+01 -0.86222073343E+01  0.87433676352E+00  0.10477416620E+02  0.00000000000E+00 0.  1.
</event>
<event>
 7    1  0.2395003E-008  0.4614232E+02  0.7816164E-02  0.1320468E+00
        -11   -1    0    0    0    0  0.00000000000E+00  0.00000000000E+00  0.45593999997E+02  0.45594000000E+02  0.51100000000E-03 0.  1.
         11   -1    0    0    0    0 -0.00000000000E+00 -0.00000000000E+00 -0.45593999997E+02  0.45594000000E+02  0.51100000000E-03 0. -1.
    9900012    2    1    2    0    0  0.23383930027E+02  0.37160512733E+02  0.10069841054E+02  0.46142316645E+02  0.99999898236E+01 0.  0.
         12    1    1    2    0    0 -0.23383930027E+02 -0.37160512733E+02 -0.10069841054E+02  0.45045683355E+02  0.00000000000E+00 0. -1.
         11    1    3    3    0    0 -0.45698358924E+00  0.16602655511E+01 -0.67237684691E+00  0.18486228892E+01  0.51100000000E-03 0. -1.
        -11    1    3    3    0    0  0.88955726415E+01  0.15319811735E+02  0.26642651978E+01  0.17914411894E+02  0.51100000000E-03 0.  1.
        -12    1    3    3    0    0  0.14945340975E+02  0.20180435447E+02  0.80779527032E+01  0.26379281862E+02  0.00000000000E+00 0.  1.
</event>
<event>
 7    1  0.2395003E-008  0.4614232E+02  0.7816164E-02  0.1320468E+00
        -11   -1    0    0    0    0  0.00000000000E+00  0.00000000000E+00  0.45593999997E+02  0.45594000000E+02  0.51100000000E-03 0.  1.
         11   -1    0    0    0    0 -0.00000000000E+00 -0.00000000000E+00 -0.45593999997E+02  0.45594000000E+02  0.51100000000E-03 0. -1.
    9900012    2    1    2    0    0  0.39751784490E+02 -0.15486340599E+02  0.14459680953E+02  0.46142317759E+02  0.99999999801E+01 0.  0.
         12    1    1    2    0    0 -0.39751784490E+02  0.15486340599E+02 -0.14459680953E+02  0.45045682241E+02  0.00000000000E+00 0. -1.
         11    1    3    3    0    0  0.25022386655E+02 -0.63836993817E+01  0.69526678324E+01  0.26743429884E+02  0.51100000000E-03 0. -1.
        -11    1    3    3    0    0  0.12327800743E+02 -0.61213380837E+01  0.43445771430E+01  0.14433322622E+02  0.51100000000E-03 0.  1.
        -12    1    3    3    0    0  0.24015970916E+01 -0.29813031341E+01  0.31624359774E+01  0.49655652527E+01  0.00000000000E+00 0.  1.
</event>
<event>
 7    1  0.2395003E-008  0.4614232E+02  0.7816164E-02  0.1320468E+00
        -11   -1    0    0    0    0  0.00000000000E+00  0.00000000000E+00  0.45593999997E+02  0.45594000000E+02  0.51100000000E-03 0. -1.
         11   -1    0    0    0    0 -0.00000000000E+00 -0.00000000000E+00 -0.45593999997E+02  0.45594000000E+02  0.51100000000E-03 0.  1.
    9900012    2    1    2    0    0 -0.31267568033E+02 -0.26394492987E+02 -0.18835689926E+02  0.46142320010E+02  0.10000020508E+02 0.  0.
         12    1    1    2    0    0  0.31267568033E+02  0.26394492987E+02  0.18835689926E+02  0.45045679990E+02  0.00000000000E+00 0. -1.
         11    1    3    3    0    0 -0.16184947298E+02 -0.15682839141E+02 -0.12554749720E+02  0.25797784854E+02  0.51100000000E-03 0.  1.
        -11    1    3    3    0    0 -0.68181022636E+01 -0.68714906449E+01 -0.56529235699E+01  0.11209792474E+02  0.51100000000E-03 0. -1.
         12    1    3    3    0    0 -0.82645184717E+01 -0.38401632004E+01 -0.62801663663E+00  0.91347426823E+01  0.00000000000E+00 0. -1.
</event>
<event>
 7    1  0.2395003E-008  0.4614232E+02  0.7816164E-02  0.1320468E+00
        -11   -1    0    0    0    0  0.00000000000E+00  0.00000000000E+00  0.45593999997E+02  0.45594000000E+02  0.51100000000E-03 0.  1.
         11   -1    0    0    0    0 -0.00000000000E+00 -0.00000000000E+00 -0.45593999997E+02  0.45594000000E+02  0.51100000000E-03 0. -1.
    9900012    2    1    2    0    0  0.12553920151E+02  0.11368567180E+02  0.41740487031E+02  0.46142317759E+02  0.99999999844E+01 0.  0.
         12    1    1    2    0    0 -0.12553920151E+02 -0.11368567180E+02 -0.41740487031E+02  0.45045682241E+02  0.00000000000E+00 0. -1.
         11    1    3    3    0    0  0.27876910844E+01 -0.10790130226E+01  0.83624831619E+01  0.88806877875E+01  0.51100000000E-03 0. -1.
        -11    1    3    3    0    0  0.42054907312E+01  0.37128452655E+01  0.16836656066E+02  0.17746671801E+02  0.51100000000E-03 0.  1.
         12    1    3    3    0    0  0.55607383357E+01  0.87347349374E+01  0.16541347804E+02  0.19514958171E+02  0.00000000000E+00 0. -1.
</event>
<event>
 7    1  0.2395003E-008  0.4614232E+02  0.7816164E-02  0.1320468E+00
        -11   -1    0    0    0    0  0.00000000000E+00  0.00000000000E+00  0.45593999997E+02  0.45594000000E+02  0.51100000000E-03 0.  1.
         11   -1    0    0    0    0 -0.00000000000E+00 -0.00000000000E+00 -0.45593999997E+02  0.45594000000E+02  0.51100000000E-03 0. -1.
    9900012    2    1    2    0    0 -0.39163252385E+02  0.13872539317E+01  0.22213253963E+02  0.46142318049E+02  0.10000002624E+02 0.  0.
         12    1    1    2    0    0  0.39163252385E+02 -0.13872539317E+01 -0.22213253963E+02  0.45045681951E+02  0.00000000000E+00 0. -1.
         11    1    3    3    0    0 -0.20970464166E+01  0.85003220579E+00 -0.17894459580E+00  0.22698413719E+01  0.51100000000E-03 0. -1.
        -11    1    3    3    0    0 -0.10293324018E+02 -0.22938102766E+01  0.40545299217E+01  0.11298375904E+02  0.51100000000E-03 0.  1.
        -12    1    3    3    0    0 -0.26772881950E+02  0.28310320025E+01  0.18337668637E+02  0.32574100772E+02  0.00000000000E+00 0.  1.
</event>
<event>
 7    1  0.2395003E-008  0.4614233E+02  0.7816164E-02  0.1320468E+00
        -11   -1    0    0    0    0  0.00000000000E+00  0.00000000000E+00  0.45593999997E+02  0.45594000000E+02  0.51100000000E-03 0.  1.
         11   -1    0    0    0    0 -0.00000000000E+00 -0.00000000000E+00 -0.45593999997E+02  0.45594000000E+02  0.51100000000E-03 0. -1.
    9900012    2    1    2    0    0  0.15631457253E+02 -0.15902717121E+02  0.39139154248E+02  0.46142331363E+02  0.10000124033E+02 0.  0.
         12    1    1    2    0    0 -0.15631457253E+02  0.15902717121E+02 -0.39139154248E+02  0.45045668637E+02  0.00000000000E+00 0. -1.
         11    1    3    3    0    0  0.41749134012E+01 -0.88917138484E+00  0.13331161794E+02  0.13997871364E+02  0.51100000000E-03 0.  1.
        -11    1    3    3    0    0  0.41402177647E+01 -0.64356769685E+01  0.12965405142E+02  0.15055267249E+02  0.51100000000E-03 0. -1.
         12    1    3    3    0    0  0.73163260871E+01 -0.85778687677E+01  0.12842587312E+02  0.17089192751E+02  0.00000000000E+00 0. -1.
</event>
<event>
 7    1  0.2395003E-008  0.4614232E+02  0.7816164E-02  0.1320468E+00
        -11   -1    0    0    0    0  0.00000000000E+00  0.00000000000E+00  0.45593999997E+02  0.45594000000E+02  0.51100000000E-03 0.  1.
         11   -1    0    0    0    0 -0.00000000000E+00 -0.00000000000E+00 -0.45593999997E+02  0.45594000000E+02  0.51100000000E-03 0. -1.
    9900012    2    1    2    0    0 -0.96713146090E+01 -0.38079428628E+02  0.22034883423E+02  0.46142319870E+02  0.10000019234E+02 0.  0.
         12    1    1    2    0    0  0.96713146090E+01  0.38079428628E+02 -0.22034883423E+02  0.45045680130E+02  0.00000000000E+00 0. -1.
         11    1    3    3    0    0 -0.58447919273E+01 -0.32214626002E+02  0.18342896591E+02  0.37528730017E+02  0.51100000000E-03 0.  1.
        -11    1    3    3    0    0 -0.37027087393E+01 -0.43331433970E+01  0.41030475874E+01  0.70229042050E+01  0.51100000000E-03 0. -1.
        -12    1    3    3    0    0 -0.12381394240E+00 -0.15316592293E+01 -0.41106075551E+00  0.15906856483E+01  0.00000000000E+00 0.  1.
</event>
<event>
 7    1  0.2395003E-008  0.4614232E+02  0.7816164E-02  0.1320468E+00
        -11   -1    0    0    0    0  0.00000000000E+00  0.00000000000E+00  0.45593999997E+02  0.45594000000E+02  0.51100000000E-03 0.  1.
         11   -1    0    0    0    0 -0.00000000000E+00 -0.00000000000E+00 -0.45593999997E+02  0.45594000000E+02  0.51100000000E-03 0. -1.
    9900012    2    1    2    0    0 -0.89190496911E+01 -0.38119368742E+02  0.22281781234E+02  0.46142317681E+02  0.99999992659E+01 0.  0.
         12    1    1    2    0    0  0.89190496911E+01  0.38119368742E+02 -0.22281781234E+02  0.45045682319E+02  0.00000000000E+00 0. -1.
         11    1    3    3    0    0 -0.38658434658E+01 -0.84708322429E+01  0.74834863910E+01  0.11945807357E+02  0.51100000000E-03 0. -1.
        -11    1    3    3    0    0 -0.15278163970E+01 -0.14400298741E+02  0.35117919653E+01  0.14900856010E+02  0.51100000000E-03 0.  1.
        -12    1    3    3    0    0 -0.35253898283E+01 -0.15248237758E+02  0.11286502878E+02  0.19295654313E+02  0.00000000000E+00 0.  1.
</event>
<event>
 7    1  0.2395003E-008  0.4614232E+02  0.7816164E-02  0.1320468E+00
        -11   -1    0    0    0    0  0.00000000000E+00  0.00000000000E+00  0.45593999997E+02  0.45594000000E+02  0.51100000000E-03 0.  1.
         11   -1    0    0    0    0 -0.00000000000E+00 -0.00000000000E+00 -0.45593999997E+02  0.45594000000E+02  0.51100000000E-03 0. -1.
    9900012    2    1    2    0    0  0.76856820930E+01 -0.21196762711E+02  0.38996680373E+02  0.46142317201E+02  0.99999948941E+01 0.  0.
         12    1    1    2    0    0 -0.76856820930E+01  0.21196762711E+02 -0.38996680373E+02  0.45045682799E+02  0.00000000000E+00 0. -1.
         11    1    3    3    0    0  0.86438070631E+01 -0.18012643856E+02  0.36395054619E+02  0.41518318128E+02  0.51100000000E-03 0.  1.
        -11    1    3    3    0    0 -0.72454491608E+00 -0.10804421137E+00  0.40642252070E+00  0.83774603161E+00  0.51100000000E-03 0. -1.
         12    1    3    3    0    0 -0.23358005409E+00 -0.30760746436E+01  0.21952032339E+01  0.37862530414E+01  0.00000000000E+00 0. -1.
</event>
<event>
 7    1  0.2395003E-008  0.4614232E+02  0.7816164E-02  0.1320468E+00
        -11   -1    0    0    0    0  0.00000000000E+00  0.00000000000E+00  0.45593999997E+02  0.45594000000E+02  0.51100000000E-03 0.  1.
         11   -1    0    0    0    0 -0.00000000000E+00 -0.00000000000E+00 -0.45593999997E+02  0.45594000000E+02  0.51100000000E-03 0. -1.
    9900012    2    1    2    0    0 -0.27637732166E+02 -0.18662835634E+02  0.30281477465E+02  0.46142317070E+02  0.99999936959E+01 0.  0.
         12    1    1    2    0    0  0.27637732166E+02  0.18662835634E+02 -0.30281477465E+02  0.45045682930E+02  0.00000000000E+00 0. -1.
         11    1    3    3    0    0 -0.25584870863E+01 -0.30575137881E+01  0.24199948022E+01  0.46637561942E+01  0.51100000000E-03 0. -1.
        -11    1    3    3    0    0 -0.20793728561E+01 -0.85950915799E+00 -0.26694179772E+00  0.22657902930E+01  0.51100000000E-03 0.  1.
        -12    1    3    3    0    0 -0.22999872224E+02 -0.14745812688E+02  0.28128424460E+02  0.39212770583E+02  0.00000000000E+00 0.  1.
</event>
<event>
 7    1  0.2395003E-008  0.4614232E+02  0.7816164E-02  0.1320468E+00
        -11   -1    0    0    0    0  0.00000000000E+00  0.00000000000E+00  0.45593999997E+02  0.45594000000E+02  0.51100000000E-03 0.  1.
         11   -1    0    0    0    0 -0.00000000000E+00 -0.00000000000E+00 -0.45593999997E+02  0.45594000000E+02  0.51100000000E-03 0. -1.
    9900012    2    1    2    0    0  0.35399261065E+02  0.24918319617E+02  0.12453237715E+02  0.46142318009E+02  0.10000002258E+02 0.  0.
         12    1    1    2    0    0 -0.35399261065E+02 -0.24918319617E+02 -0.12453237715E+02  0.45045681991E+02  0.00000000000E+00 0. -1.
         11    1    3    3    0    0  0.14398035483E+02  0.70303505476E+01  0.84276489775E+01  0.18103991884E+02  0.51100000000E-03 0. -1.
        -11    1    3    3    0    0  0.15786392057E+02  0.12012032150E+02  0.20862091429E+01  0.19946211656E+02  0.51100000000E-03 0.  1.
         12    1    3    3    0    0  0.52148335247E+01  0.58759369196E+01  0.19393795951E+01  0.80921144695E+01  0.00000000000E+00 0. -1.
</event>
<event>
 7    1  0.2395003E-008  0.4614232E+02  0.7816164E-02  0.1320468E+00
        -11   -1    0    0    0    0  0.00000000000E+00  0.00000000000E+00  0.45593999997E+02  0.45594000000E+02  0.51100000000E-03 0.  1.
         11   -1    0    0    0    0 -0.00000000000E+00 -0.00000000000E+00 -0.45593999997E+02  0.45594000000E+02  0.51100000000E-03 0. -1.
    9900012    2    1    2    0    0  0.12180124398E+02  0.43147260057E+02 -0.43671462008E+01  0.46142318224E+02  0.10000004219E+02 0.  0.
         12    1    1    2    0    0 -0.12180124398E+02 -0.43147260057E+02  0.43671462008E+01  0.45045681776E+02  0.00000000000E+00 0. -1.
         11    1    3    3    0    0  0.11791316352E+02  0.30922361624E+02 -0.11858602946E+01  0.33115462470E+02  0.51100000000E-03 0.  1.
        -11    1    3    3    0    0  0.71223694593E+00  0.65885254479E+00  0.16036992270E+00  0.98340577390E+00  0.51100000000E-03 0. -1.
         12    1    3    3    0    0 -0.32342890027E+00  0.11566045888E+02 -0.33416558290E+01  0.12043449980E+02  0.00000000000E+00 0. -1.
</event>
<event>
 7    1  0.2824543E-008  0.4614232E+02  0.7816164E-02  0.1320468E+00
        -11   -1    0    0    0    0  0.00000000000E+00  0.00000000000E+00  0.45593999997E+02  0.45594000000E+02  0.51100000000E-03 0.  1.
         11   -1    0    0    0    0 -0.00000000000E+00 -0.00000000000E+00 -0.45593999997E+02  0.45594000000E+02  0.51100000000E-03 0. -1.
    9900012    2    1    2    0    0 -0.26128899771E+02 -0.29518315662E+02  0.21795943077E+02  0.46142317662E+02  0.99999990924E+01 0.  0.
         12    1    1    2    0    0  0.26128899771E+02  0.29518315662E+02 -0.21795943077E+02  0.45045682338E+02  0.00000000000E+00 0. -1.
         11    1    3    3    0    0  0.34356195714E+00 -0.38706148998E-01 -0.27035521237E-01  0.34679124108E+00  0.51100000000E-03 0. -1.
        -11    1    3    3    0    0 -0.48107722673E+01 -0.52701761612E+01  0.99118088127E+00  0.72042158754E+01  0.51100000000E-03 0.  1.
        -12    1    3    3    0    0 -0.21661689461E+02 -0.24209433352E+02  0.20831797716E+02  0.38591310545E+02  0.00000000000E+00 0.  1.
</event>
<event>
 7    1  0.2395003E-008  0.4614232E+02  0.7816164E-02  0.1320468E+00
        -11   -1    0    0    0    0  0.00000000000E+00  0.00000000000E+00  0.45593999997E+02  0.45594000000E+02  0.51100000000E-03 0.  1.
         11   -1    0    0    0    0 -0.00000000000E+00 -0.00000000000E+00 -0.45593999997E+02  0.45594000000E+02  0.51100000000E-03 0. -1.
    9900012    2    1    2    0    0  0.16869651329E+02 -0.36523827201E+02  0.20261747881E+02  0.46142317448E+02  0.99999971447E+01 0.  0.
         12    1    1    2    0    0 -0.16869651329E+02  0.36523827201E+02 -0.20261747881E+02  0.45045682552E+02  0.00000000000E+00 0. -1.
         11    1    3    3    0    0  0.49175823187E+01 -0.12714852576E+02  0.23549830595E+01  0.13834595670E+02  0.51100000000E-03 0. -1.
        -11    1    3    3    0    0  0.58439635693E+01 -0.14434391126E+02  0.88420355231E+01  0.17907684100E+02  0.51100000000E-03 0.  1.
        -12    1    3    3    0    0  0.61081054409E+01 -0.93745834992E+01  0.90647292984E+01  0.14400037678E+02  0.00000000000E+00 0.  1.
</event>
<event>
 7    1  0.2395003E-008  0.4614232E+02  0.7816164E-02  0.1320468E+00
        -11   -1    0    0    0    0  0.00000000000E+00  0.00000000000E+00  0.45593999997E+02  0.45594000000E+02  0.51100000000E-03 0.  1.
         11   -1    0    0    0    0 -0.00000000000E+00 -0.00000000000E+00 -0.45593999997E+02  0.45594000000E+02  0.51100000000E-03 0. -1.
    9900012    2    1    2    0    0 -0.22586966896E+02  0.37221926495E+02  0.11552949410E+02  0.46142317348E+02  0.99999962315E+01 0.  0.
         12    1    1    2    0    0  0.22586966896E+02 -0.37221926495E+02 -0.11552949410E+02  0.45045682652E+02  0.00000000000E+00 0. -1.
         11    1    3    3    0    0 -0.10109617808E+02  0.11919549118E+02  0.24541295827E+01  0.15820960011E+02  0.51100000000E-03 0. -1.
        -11    1    3    3    0    0 -0.54330404835E+01  0.55109733744E+01  0.98493293732E+00  0.78012082129E+01  0.51100000000E-03 0.  1.
         12    1    3    3    0    0 -0.70443086042E+01  0.19791404003E+02  0.81138868905E+01  0.22520149124E+02  0.00000000000E+00 0. -1.
</event>
<event>
 7    1  0.2395003E-008  0.4614232E+02  0.7816164E-02  0.1320468E+00
        -11   -1    0    0    0    0  0.00000000000E+00  0.00000000000E+00  0.45593999997E+02  0.45594000000E+02  0.51100000000E-03 0.  1.
         11   -1    0    0    0    0 -0.00000000000E+00 -0.00000000000E+00 -0.45593999997E+02  0.45594000000E+02  0.51100000000E-03 0. -1.
    9900012    2    1    2    0    0 -0.23693684850E+02  0.29419339716E+02  0.24540277810E+02  0.46142317786E+02  0.10000000228E+02 0.  0.
         12    1    1    2    0    0  0.23693684850E+02 -0.29419339716E+02 -0.24540277810E+02  0.45045682214E+02  0.00000000000E+00 0. -1.
         11    1    3    3    0    0 -0.84997670322E+01  0.11873919455E+02  0.14519317311E+02  0.20592391272E+02  0.51100000000E-03 0. -1.
        -11    1    3    3    0    0 -0.13178137982E+02  0.15622815873E+02  0.10023826263E+02  0.22764287594E+02  0.51100000000E-03 0.  1.
         12    1    3    3    0    0 -0.20157798359E+01  0.19226043886E+01 -0.28657643656E-02  0.27856389203E+01  0.00000000000E+00 0. -1.
</event>
<event>
 7    1  0.2395003E-008  0.4614232E+02  0.7816164E-02  0.1320468E+00
        -11   -1    0    0    0    0  0.00000000000E+00  0.00000000000E+00  0.45593999997E+02  0.45594000000E+02  0.51100000000E-03 0.  1.
         11   -1    0    0    0    0 -0.00000000000E+00 -0.00000000000E+00 -0.45593999997E+02  0.45594000000E+02  0.51100000000E-03 0. -1.
    9900012    2    1    2    0    0  0.26492807670E+02  0.36327849219E+01  0.36249793802E+02  0.46142317241E+02  0.99999952602E+01 0.  0.
         12    1    1    2    0    0 -0.26492807670E+02 -0.36327849219E+01 -0.36249793802E+02  0.45045682759E+02  0.00000000000E+00 0. -1.
         11    1    3    3    0    0  0.71487434364E+01 -0.16944837138E+01  0.11653093037E+02  0.13775717236E+02  0.51100000000E-03 0.  1.
        -11    1    3    3    0    0  0.94989823211E+01  0.54588948890E+01  0.10524762919E+02  0.15192130638E+02  0.51100000000E-03 0. -1.
         12    1    3    3    0    0  0.98450819127E+01 -0.13162625334E+00  0.14071937845E+02  0.17174469368E+02  0.00000000000E+00 0. -1.
</event>
<event>
 7    1  0.2395003E-008  0.4614231E+02  0.7816164E-02  0.1320468E+00
        -11   -1    0    0    0    0  0.00000000000E+00  0.00000000000E+00  0.45593999997E+02  0.45594000000E+02  0.51100000000E-03 0.  1.
         11   -1    0    0    0    0 -0.00000000000E+00 -0.00000000000E+00 -0.45593999997E+02  0.45594000000E+02  0.51100000000E-03 0. -1.
    9900012    2    1    2    0    0 -0.31608782728E+02  0.79708897323E+01  0.31087999297E+02  0.46142312870E+02  0.99999554002E+01 0.  0.
         12    1    1    2    0    0  0.31608782728E+02 -0.79708897323E+01 -0.31087999297E+02  0.45045687130E+02  0.00000000000E+00 0. -1.
         11    1    3    3    0    0 -0.77536818662E+01  0.33843332288E+01  0.49960448117E+01  0.98251594342E+01  0.51100000000E-03 0. -1.
        -11    1    3    3    0    0 -0.19454913692E+02  0.55044956622E+01  0.18045936209E+02  0.27100718683E+02  0.51100000000E-03 0.  1.
         12    1    3    3    0    0 -0.44001871703E+01 -0.91793915876E+00  0.80460182772E+01  0.92164347526E+01  0.00000000000E+00 0. -1.
</event>
<event>
 7    1  0.2395003E-008  0.4614232E+02  0.7816164E-02  0.1320468E+00
        -11   -1    0    0    0    0  0.00000000000E+00  0.00000000000E+00  0.45593999997E+02  0.45594000000E+02  0.51100000000E-03 0.  1.
         11   -1    0    0    0    0 -0.00000000000E+00 -0.00000000000E+00 -0.45593999997E+02  0.45594000000E+02  0.51100000000E-03 0. -1.
    9900012    2    1    2    0    0 -0.36595593848E+02  0.23170382955E+02  0.12369700476E+02  0.46142316242E+02  0.99999861435E+01 0.  0.
         12    1    1    2    0    0  0.36595593848E+02 -0.23170382955E+02 -0.12369700476E+02  0.45045683758E+02  0.00000000000E+00 0. -1.
         11    1    3    3    0    0 -0.14356129417E+02  0.53887800385E+01  0.15242804714E+01  0.15409764221E+02  0.51100000000E-03 0. -1.
        -11    1    3    3    0    0 -0.19533352257E+02  0.13716893391E+02  0.91869113824E+01  0.25575463940E+02  0.51100000000E-03 0.  1.
         12    1    3    3    0    0 -0.27061121746E+01  0.40647095252E+01  0.16585086220E+01  0.51570880810E+01  0.00000000000E+00 0. -1.
</event>
<event>
 7    1  0.2395003E-008  0.4614232E+02  0.7816164E-02  0.1320468E+00
        -11   -1    0    0    0    0  0.00000000000E+00  0.00000000000E+00  0.45593999997E+02  0.45594000000E+02  0.51100000000E-03 0.  1.
         11   -1    0    0    0    0 -0.00000000000E+00 -0.00000000000E+00 -0.45593999997E+02  0.45594000000E+02  0.51100000000E-03 0. -1.
    9900012    2    1    2    0    0  0.78616403486E-01  0.80606849602E+01  0.44318535481E+02  0.46142318634E+02  0.10000007960E+02 0.  0.
         12    1    1    2    0    0 -0.78616403486E-01 -0.80606849602E+01 -0.44318535481E+02  0.45045681366E+02  0.00000000000E+00 0. -1.
         11    1    3    3    0    0  0.11682755018E+01 -0.89368609440E+00  0.18370632277E+02  0.18429424109E+02  0.51100000000E-03 0. -1.
        -11    1    3    3    0    0  0.85781179276E+00  0.64569499520E+01  0.18746096001E+02  0.19845507283E+02  0.51100000000E-03 0.  1.
         12    1    3    3    0    0 -0.19474708911E+01  0.24974211026E+01  0.72018072025E+01  0.78673872421E+01  0.00000000000E+00 0. -1.
</event>
<event>
 7    1  0.2395003E-008  0.4614232E+02  0.7816164E-02  0.1320468E+00
        -11   -1    0    0    0    0  0.00000000000E+00  0.00000000000E+00  0.45593999997E+02  0.45594000000E+02  0.51100000000E-03 0.  1.
         11   -1    0    0    0    0 -0.00000000000E+00 -0.00000000000E+00 -0.45593999997E+02  0.45594000000E+02  0.51100000000E-03 0. -1.
    9900012    2    1    2    0    0  0.20799748470E+02 -0.39806021612E+02 -0.34589991905E+01  0.46142316873E+02  0.99999919012E+01 0.  0.
         12    1    1    2    0    0 -0.20799748470E+02  0.39806021612E+02  0.34589991905E+01  0.45045683127E+02  0.00000000000E+00 0. -1.
         11    1    3    3    0    0  0.10261160883E+02 -0.21941078319E+02 -0.60801185907E+00  0.24229569108E+02  0.51100000000E-03 0. -1.
        -11    1    3    3    0    0  0.69677531924E+01 -0.77921531315E+01  0.11176087211E+01  0.10512672566E+02  0.51100000000E-03 0.  1.
         12    1    3    3    0    0  0.35708343949E+01 -0.10072790161E+02 -0.39685960525E+01  0.11400075199E+02  0.00000000000E+00 0. -1.
</event>
<event>
 7    1  0.2395003E-008  0.4614232E+02  0.7816164E-02  0.1320468E+00
        -11   -1    0    0    0    0  0.00000000000E+00  0.00000000000E+00  0.45593999997E+02  0.45594000000E+02  0.51100000000E-03 0.  1.
         11   -1    0    0    0    0 -0.00000000000E+00 -0.00000000000E+00 -0.45593999997E+02  0.45594000000E+02  0.51100000000E-03 0. -1.
    9900012    2    1    2    0    0  0.13118492363E+02 -0.37568729245E+02  0.21109458354E+02  0.46142317733E+02  0.99999997406E+01 0.  0.
         12    1    1    2    0    0 -0.13118492363E+02  0.37568729245E+02 -0.21109458354E+02  0.45045682267E+02  0.00000000000E+00 0. -1.
         11    1    3    3    0    0  0.24819773767E+01 -0.59267928821E+01  0.12128874047E+01  0.65389740543E+01  0.51100000000E-03 0. -1.
        -11    1    3    3    0    0  0.35490387952E+01 -0.39695272795E+01  0.53460190666E+01  0.75453789377E+01  0.51100000000E-03 0.  1.
        -12    1    3    3    0    0  0.70874761911E+01 -0.27672409083E+02  0.14550551882E+02  0.32057964741E+02  0.00000000000E+00 0.  1.
</event>
<event>
 7    1  0.2395003E-008  0.4614232E+02  0.7816164E-02  0.1320468E+00
        -11   -1    0    0    0    0  0.00000000000E+00  0.00000000000E+00  0.45593999997E+02  0.45594000000E+02  0.51100000000E-03 0.  1.
         11   -1    0    0    0    0 -0.00000000000E+00 -0.00000000000E+00 -0.45593999997E+02  0.45594000000E+02  0.51100000000E-03 0. -1.
    9900012    2    1    2    0    0 -0.21249502434E+02 -0.17600490659E+02  0.35606106746E+02  0.46142318045E+02  0.10000002589E+02 0.  0.
         12    1    1    2    0    0  0.21249502434E+02  0.17600490659E+02 -0.35606106746E+02  0.45045681955E+02  0.00000000000E+00 0. -1.
         11    1    3    3    0    0 -0.83411825382E+01 -0.95386197422E+01  0.13668778535E+02  0.18638564849E+02  0.51100000000E-03 0. -1.
        -11    1    3    3    0    0 -0.13615249510E+02 -0.76472909233E+01  0.19815456890E+02  0.25229118290E+02  0.51100000000E-03 0.  1.
        -12    1    3    3    0    0  0.70692961393E+00 -0.41457999389E+00  0.21218713221E+01  0.22746349065E+01  0.00000000000E+00 0.  1.
</event>
<event>
 7    1  0.2395003E-008  0.4614232E+02  0.7816164E-02  0.1320468E+00
        -11   -1    0    0    0    0  0.00000000000E+00  0.00000000000E+00  0.45593999997E+02  0.45594000000E+02  0.51100000000E-03 0.  1.
         11   -1    0    0    0    0 -0.00000000000E+00 -0.00000000000E+00 -0.45593999997E+02  0.45594000000E+02  0.51100000000E-03 0. -1.
    9900012    2    1    2    0    0  0.29038683758E+02 -0.24244370157E+02  0.24455653456E+02  0.46142316248E+02  0.99999862052E+01 0.  0.
         12    1    1    2    0    0 -0.29038683758E+02  0.24244370157E+02 -0.24455653456E+02  0.45045683752E+02  0.00000000000E+00 0. -1.
         11    1    3    3    0    0  0.41230642869E+01 -0.29247316126E+01  0.33285698633E+00  0.50660150172E+01  0.51100000000E-03 0. -1.
        -11    1    3    3    0    0  0.10178119911E+02 -0.86912776996E+01  0.13235523304E+02  0.18823164196E+02  0.51100000000E-03 0.  1.
        -12    1    3    3    0    0  0.14737499560E+02 -0.12628360845E+02  0.10887273166E+02  0.22253137035E+02  0.00000000000E+00 0.  1.
</event>
<event>
 7    1  0.2395003E-008  0.4614232E+02  0.7816164E-02  0.1320468E+00
        -11   -1    0    0    0    0  0.00000000000E+00  0.00000000000E+00  0.45593999997E+02  0.45594000000E+02  0.51100000000E-03 0.  1.
         11   -1    0    0    0    0 -0.00000000000E+00 -0.00000000000E+00 -0.45593999997E+02  0.45594000000E+02  0.51100000000E-03 0. -1.
    9900012    2    1    2    0    0  0.42851169015E+02  0.37347493845E+01  0.13376939519E+02  0.46142317079E+02  0.99999937815E+01 0.  0.
         12    1    1    2    0    0 -0.42851169015E+02 -0.37347493845E+01 -0.13376939519E+02  0.45045682921E+02  0.00000000000E+00 0. -1.
         11    1    3    3    0    0  0.14188857576E+02  0.11464991187E+01  0.29663419882E+01  0.14540884588E+02  0.51100000000E-03 0. -1.
        -11    1    3    3    0    0  0.27141723846E+02  0.65138009749E+00  0.83908271763E+01  0.28416605187E+02  0.51100000000E-03 0.  1.
         12    1    3    3    0    0  0.15205875926E+01  0.19368701683E+01  0.20197703544E+01  0.31848273046E+01  0.00000000000E+00 0. -1.
</event>
<event>
 7    1  0.2395003E-008  0.4614232E+02  0.7816164E-02  0.1320468E+00
        -11   -1    0    0    0    0  0.00000000000E+00  0.00000000000E+00  0.45593999997E+02  0.45594000000E+02  0.51100000000E-03 0. -1.
         11   -1    0    0    0    0 -0.00000000000E+00 -0.00000000000E+00 -0.45593999997E+02  0.45594000000E+02  0.51100000000E-03 0.  1.
    9900012    2    1    2    0    0 -0.39715870373E+01 -0.44499658871E+02  0.57550193063E+01  0.46142318848E+02  0.10000009912E+02 0.  0.
         12    1    1    2    0    0  0.39715870373E+01  0.44499658871E+02 -0.57550193063E+01  0.45045681152E+02  0.00000000000E+00 0. -1.
         11    1    3    3    0    0 -0.13666880201E+01 -0.17842223685E+01  0.10529404132E+00  0.22499717111E+01  0.51100000000E-03 0. -1.
        -11    1    3    3    0    0  0.97555167241E+00 -0.29344542157E+02  0.13255535425E+01  0.29390660897E+02  0.51100000000E-03 0.  1.
        -12    1    3    3    0    0 -0.35804506896E+01 -0.13370894345E+02  0.43241717225E+01  0.14501686240E+02  0.00000000000E+00 0.  1.
</event>
<event>
 7    1  0.2395003E-008  0.4614232E+02  0.7816164E-02  0.1320468E+00
        -11   -1    0    0    0    0  0.00000000000E+00  0.00000000000E+00  0.45593999997E+02  0.45594000000E+02  0.51100000000E-03 0. -1.
         11   -1    0    0    0    0 -0.00000000000E+00 -0.00000000000E+00 -0.45593999997E+02  0.45594000000E+02  0.51100000000E-03 0.  1.
    9900012    2    1    2    0    0 -0.21251235701E+02 -0.34879741795E+02 -0.18997413725E+02  0.46142321686E+02  0.10000035794E+02 0.  0.
         12    1    1    2    0    0  0.21251235701E+02  0.34879741795E+02  0.18997413725E+02  0.45045678314E+02  0.00000000000E+00 0. -1.
         11    1    3    3    0    0 -0.66542437568E+01 -0.13785786699E+02 -0.65296750472E+01  0.16642221347E+02  0.51100000000E-03 0. -1.
        -11    1    3    3    0    0 -0.87599399205E+01 -0.18199134427E+02 -0.88975090003E+01  0.22070584677E+02  0.51100000000E-03 0.  1.
         12    1    3    3    0    0 -0.58370520234E+01 -0.28948206691E+01 -0.35702296771E+01  0.74295156624E+01  0.00000000000E+00 0. -1.
</event>
<event>
 7    1  0.2395003E-008  0.4614232E+02  0.7816164E-02  0.1320468E+00
        -11   -1    0    0    0    0  0.00000000000E+00  0.00000000000E+00  0.45593999997E+02  0.45594000000E+02  0.51100000000E-03 0. -1.
         11   -1    0    0    0    0 -0.00000000000E+00 -0.00000000000E+00 -0.45593999997E+02  0.45594000000E+02  0.51100000000E-03 0.  1.
    9900012    2    1    2    0    0 -0.44914147800E+02  0.27792455290E+01  0.20269812123E+01  0.46142317286E+02  0.99999956680E+01 0.  0.
         12    1    1    2    0    0  0.44914147800E+02 -0.27792455290E+01 -0.20269812123E+01  0.45045682714E+02  0.00000000000E+00 0. -1.
         11    1    3    3    0    0 -0.22394906987E+02  0.15483176956E+01  0.43998078963E+01  0.22875477184E+02  0.51100000000E-03 0. -1.
        -11    1    3    3    0    0 -0.18684734342E+02 -0.85073720029E+00 -0.11684594861E+01  0.18740553595E+02  0.51100000000E-03 0.  1.
        -12    1    3    3    0    0 -0.38345064715E+01  0.20816650337E+01 -0.12043671979E+01  0.45262865066E+01  0.00000000000E+00 0.  1.
</event>
<event>
 7    1  0.2395003E-008  0.4614232E+02  0.7816164E-02  0.1320468E+00
        -11   -1    0    0    0    0  0.00000000000E+00  0.00000000000E+00  0.45593999997E+02  0.45594000000E+02  0.51100000000E-03 0.  1.
         11   -1    0    0    0    0 -0.00000000000E+00 -0.00000000000E+00 -0.45593999997E+02  0.45594000000E+02  0.51100000000E-03 0. -1.
    9900012    2    1    2    0    0  0.22255511585E+02  0.75546567943E+01  0.38428282782E+02  0.46142317046E+02  0.99999934815E+01 0.  0.
         12    1    1    2    0    0 -0.22255511585E+02 -0.75546567943E+01 -0.38428282782E+02  0.45045682954E+02  0.00000000000E+00 0. -1.
         11    1    3    3    0    0  0.19932629348E+02  0.37661319427E+01  0.34703141069E+02  0.40197033010E+02  0.51100000000E-03 0.  1.
        -11    1    3    3    0    0  0.18562735312E+01  0.27364706058E+01  0.19779117247E+01  0.38530712232E+01  0.51100000000E-03 0. -1.
        -12    1    3    3    0    0  0.46660870558E+00  0.10520542458E+01  0.17472299886E+01  0.20922128126E+01  0.00000000000E+00 0.  1.
</event>
<event>
 7    1  0.2395003E-008  0.4614232E+02  0.7816164E-02  0.1320468E+00
        -11   -1    0    0    0    0  0.00000000000E+00  0.00000000000E+00  0.45593999997E+02  0.45594000000E+02  0.51100000000E-03 0. -1.
         11   -1    0    0    0    0 -0.00000000000E+00 -0.00000000000E+00 -0.45593999997E+02  0.45594000000E+02  0.51100000000E-03 0.  1.
    9900012    2    1    2    0    0  0.34867894820E+02  0.74261171678E+01 -0.27535363205E+02  0.46142317275E+02  0.99999955656E+01 0.  0.
         12    1    1    2    0    0 -0.34867894820E+02 -0.74261171678E+01  0.27535363205E+02  0.45045682725E+02  0.00000000000E+00 0. -1.
         11    1    3    3    0    0  0.25142255691E+01 -0.75067371179E-01 -0.36706409432E+01  0.44497831989E+01  0.51100000000E-03 0. -1.
        -11    1    3    3    0    0  0.29758597287E+02  0.65417918437E+01 -0.24193638880E+02  0.38906314597E+02  0.51100000000E-03 0.  1.
         12    1    3    3    0    0  0.25950719640E+01  0.95939269523E+00  0.32891661858E+00  0.27862194788E+01  0.00000000000E+00 0. -1.
</event>
<event>
 7    1  0.2395003E-008  0.4614232E+02  0.7816164E-02  0.1320468E+00
        -11   -1    0    0    0    0  0.00000000000E+00  0.00000000000E+00  0.45593999997E+02  0.45594000000E+02  0.51100000000E-03 0. -1.
         11   -1    0    0    0    0 -0.00000000000E+00 -0.00000000000E+00 -0.45593999997E+02  0.45594000000E+02  0.51100000000E-03 0.  1.
    9900012    2    1    2    0    0  0.42412654752E+02 -0.14156631676E+02 -0.54653467680E+01  0.46142317423E+02  0.99999969126E+01 0.  0.
         12    1    1    2    0    0 -0.42412654752E+02  0.14156631676E+02  0.54653467680E+01  0.45045682577E+02  0.00000000000E+00 0. -1.
         11    1    3    3    0    0  0.16228468168E+02 -0.75803797123E+01  0.20199703149E+01  0.18025138446E+02  0.51100000000E-03 0. -1.
        -11    1    3    3    0    0  0.42037523199E+01 -0.95564741911E+00 -0.21182938374E+01  0.48033284918E+01  0.51100000000E-03 0.  1.
         12    1    3    3    0    0  0.21980434265E+02 -0.56206045450E+01 -0.53670232455E+01  0.23313850485E+02  0.00000000000E+00 0. -1.
</event>
<event>
 7    1  0.2395003E-008  0.4614232E+02  0.7816164E-02  0.1320468E+00
        -11   -1    0    0    0    0  0.00000000000E+00  0.00000000000E+00  0.45593999997E+02  0.45594000000E+02  0.51100000000E-03 0.  1.
         11   -1    0    0    0    0 -0.00000000000E+00 -0.00000000000E+00 -0.45593999997E+02  0.45594000000E+02  0.51100000000E-03 0. -1.
    9900012    2    1    2    0    0 -0.23029692625E+01  0.43946840492E+01  0.44771599785E+02  0.46142322487E+02  0.10000043091E+02 0.  0.
         12    1    1    2    0    0  0.23029692625E+01 -0.43946840492E+01 -0.44771599785E+02  0.45045677513E+02  0.00000000000E+00 0. -1.
         11    1    3    3    0    0 -0.16055822498E+01  0.73390906776E+01  0.37118997997E+02  0.37871627360E+02  0.51100000000E-03 0.  1.
        -11    1    3    3    0    0 -0.19540778477E+00 -0.11682497459E+01  0.20005579874E+01  0.23249138034E+01  0.51100000000E-03 0. -1.
        -12    1    3    3    0    0 -0.50197922797E+00 -0.17761568825E+01  0.56520438006E+01  0.59457813230E+01  0.00000000000E+00 0.  1.
</event>
<event>
 7    1  0.2395003E-008  0.4614232E+02  0.7816164E-02  0.1320468E+00
        -11   -1    0    0    0    0  0.00000000000E+00  0.00000000000E+00  0.45593999997E+02  0.45594000000E+02  0.51100000000E-03 0.  1.
         11   -1    0    0    0    0 -0.00000000000E+00 -0.00000000000E+00 -0.45593999997E+02  0.45594000000E+02  0.51100000000E-03 0. -1.
    9900012    2    1    2    0    0 -0.26125664437E+02 -0.81673028225E+01  0.35775109762E+02  0.46142315899E+02  0.99999830157E+01 0.  0.
         12    1    1    2    0    0  0.26125664437E+02  0.81673028225E+01 -0.35775109762E+02  0.45045684101E+02  0.00000000000E+00 0. -1.
         11    1    3    3    0    0 -0.38286581529E+01 -0.61177077692E+00  0.13395692003E+01  0.41021131919E+01  0.51100000000E-03 0. -1.
        -11    1    3    3    0    0 -0.66996679058E+01 -0.85932379214E-01  0.77964462710E+01  0.10279956670E+02  0.51100000000E-03 0.  1.
         12    1    3    3    0    0 -0.15597338378E+02 -0.74695996663E+01  0.26639094291E+02  0.31760246037E+02  0.00000000000E+00 0. -1.
</event>
<event>
 7    1  0.2395003E-008  0.4614232E+02  0.7816164E-02  0.1320468E+00
        -11   -1    0    0    0    0  0.00000000000E+00  0.00000000000E+00  0.45593999997E+02  0.45594000000E+02  0.51100000000E-03 0.  1.
         11   -1    0    0    0    0 -0.00000000000E+00 -0.00000000000E+00 -0.45593999997E+02  0.45594000000E+02  0.51100000000E-03 0. -1.
    9900012    2    1    2    0    0 -0.26137154478E+02 -0.36665481603E+02 -0.12669357345E+01  0.46142317504E+02  0.99999976577E+01 0.  0.
         12    1    1    2    0    0  0.26137154478E+02  0.36665481603E+02  0.12669357345E+01  0.45045682496E+02  0.00000000000E+00 0. -1.
         11    1    3    3    0    0 -0.13004506884E+02 -0.16274131254E+02  0.21848335863E+00  0.20832961446E+02  0.51100000000E-03 0. -1.
        -11    1    3    3    0    0 -0.13961490277E+02 -0.18619312067E+02 -0.17363618077E+01  0.23337029485E+02  0.51100000000E-03 0.  1.
         12    1    3    3    0    0  0.82884268322E+00 -0.17720382813E+01  0.25094271459E+00  0.19723265728E+01  0.00000000000E+00 0. -1.
</event>
<event>
 7    1  0.2395003E-008  0.4614232E+02  0.7816164E-02  0.1320468E+00
        -11   -1    0    0    0    0  0.00000000000E+00  0.00000000000E+00  0.45593999997E+02  0.45594000000E+02  0.51100000000E-03 0.  1.
         11   -1    0    0    0    0 -0.00000000000E+00 -0.00000000000E+00 -0.45593999997E+02  0.45594000000E+02  0.51100000000E-03 0. -1.
    9900012    2    1    2    0    0 -0.28807958396E+01 -0.10347728249E+02  0.43746302301E+02  0.46142318413E+02  0.10000005944E+02 0.  0.
         12    1    1    2    0    0  0.28807958396E+01  0.10347728249E+02 -0.43746302301E+02  0.45045681587E+02  0.00000000000E+00 0. -1.
         11    1    3    3    0    0 -0.16417181507E+01  0.71906341063E-01  0.15674264517E+01  0.22709546343E+01  0.51100000000E-03 0. -1.
        -11    1    3    3    0    0 -0.30860804119E+01 -0.26341287443E+01  0.13397124065E+02  0.13998052008E+02  0.51100000000E-03 0.  1.
        -12    1    3    3    0    0  0.18470027230E+01 -0.77855058462E+01  0.28781751784E+02  0.29873311770E+02  0.00000000000E+00 0.  1.
</event>
<event>
 7    1  0.2395003E-008  0.4614232E+02  0.7816164E-02  0.1320468E+00
        -11   -1    0    0    0    0  0.00000000000E+00  0.00000000000E+00  0.45593999997E+02  0.45594000000E+02  0.51100000000E-03 0.  1.
         11   -1    0    0    0    0 -0.00000000000E+00 -0.00000000000E+00 -0.45593999997E+02  0.45594000000E+02  0.51100000000E-03 0. -1.
    9900012    2    1    2    0    0 -0.40157105831E+02 -0.84547831598E+01 -0.18575174245E+02  0.46142316464E+02  0.99999881729E+01 0.  0.
         12    1    1    2    0    0  0.40157105831E+02  0.84547831598E+01  0.18575174245E+02  0.45045683536E+02  0.00000000000E+00 0. -1.
         11    1    3    3    0    0 -0.16238387318E+02 -0.62207551286E-01 -0.81678378003E+01  0.18176981792E+02  0.51100000000E-03 0. -1.
        -11    1    3    3    0    0 -0.14574899457E+02 -0.28098095415E+01 -0.78210196612E+01  0.16777695689E+02  0.51100000000E-03 0.  1.
        -12    1    3    3    0    0 -0.93438190563E+01 -0.55827660670E+01 -0.25863167830E+01  0.11187638983E+02  0.00000000000E+00 0.  1.
</event>
<event>
 7    1  0.2395003E-008  0.4614232E+02  0.7816164E-02  0.1320468E+00
        -11   -1    0    0    0    0  0.00000000000E+00  0.00000000000E+00  0.45593999997E+02  0.45594000000E+02  0.51100000000E-03 0.  1.
         11   -1    0    0    0    0 -0.00000000000E+00 -0.00000000000E+00 -0.45593999997E+02  0.45594000000E+02  0.51100000000E-03 0. -1.
    9900012    2    1    2    0    0  0.31158628665E+01 -0.68585187335E+01  0.44411320006E+02  0.46142320681E+02  0.10000026627E+02 0.  0.
         12    1    1    2    0    0 -0.31158628665E+01  0.68585187335E+01 -0.44411320006E+02  0.45045679319E+02  0.00000000000E+00 0. -1.
         11    1    3    3    0    0  0.20656741340E+01  0.78060488476E+00  0.49208672377E+01  0.53936340482E+01  0.51100000000E-03 0. -1.
        -11    1    3    3    0    0  0.19894379184E+01 -0.74552630378E+00  0.18803765543E+02  0.18923405390E+02  0.51100000000E-03 0.  1.
         12    1    3    3    0    0 -0.93924918591E+00 -0.68935973145E+01  0.20686687226E+02  0.21825281243E+02  0.00000000000E+00 0. -1.
</event>
<event>
 7    1  0.2395003E-008  0.4614232E+02  0.7816164E-02  0.1320468E+00
        -11   -1    0    0    0    0  0.00000000000E+00  0.00000000000E+00  0.45593999997E+02  0.45594000000E+02  0.51100000000E-03 0. -1.
         11   -1    0    0    0    0 -0.00000000000E+00 -0.00000000000E+00 -0.45593999997E+02  0.45594000000E+02  0.51100000000E-03 0.  1.
    9900012    2    1    2    0    0  0.39872239901E+01 -0.74540607427E+00 -0.44862673779E+02  0.46142322250E+02  0.10000040934E+02 0.  0.
         12    1    1    2    0    0 -0.39872239901E+01  0.74540607427E+00  0.44862673779E+02  0.45045677750E+02  0.00000000000E+00 0. -1.
         11    1    3    3    0    0  0.35719822985E+01  0.10189344480E+01 -0.23952598682E+02  0.24238899910E+02  0.51100000000E-03 0. -1.
        -11    1    3    3    0    0  0.27339171866E+01  0.70918401035E+00 -0.62841580568E+01  0.68896943247E+01  0.51100000000E-03 0.  1.
        -12    1    3    3    0    0 -0.23186754950E+01 -0.24735245326E+01 -0.14625917040E+02  0.15013728015E+02  0.00000000000E+00 0.  1.
</event>
<event>
 7    1  0.2395003E-008  0.4614232E+02  0.7816164E-02  0.1320468E+00
        -11   -1    0    0    0    0  0.00000000000E+00  0.00000000000E+00  0.45593999997E+02  0.45594000000E+02  0.51100000000E-03 0.  1.
         11   -1    0    0    0    0 -0.00000000000E+00 -0.00000000000E+00 -0.45593999997E+02  0.45594000000E+02  0.51100000000E-03 0. -1.
    9900012    2    1    2    0    0  0.30817608355E+02  0.17023941827E+02  0.28099358753E+02  0.46142317162E+02  0.99999945332E+01 0.  0.
         12    1    1    2    0    0 -0.30817608355E+02 -0.17023941827E+02 -0.28099358753E+02  0.45045682838E+02  0.00000000000E+00 0. -1.
         11    1    3    3    0    0  0.70658112707E+01  0.72999688324E+01  0.76176514594E+01  0.12698182858E+02  0.51100000000E-03 0.  1.
        -11    1    3    3    0    0  0.29217069702E+01  0.37662236396E+01  0.39887658811E+01  0.62153894197E+01  0.51100000000E-03 0. -1.
         12    1    3    3    0    0  0.20830090114E+02  0.59577493549E+01  0.16492941413E+02  0.27228744884E+02  0.00000000000E+00 0. -1.
</event>
<event>
 7    1  0.2395003E-008  0.4614232E+02  0.7816164E-02  0.1320468E+00
        -11   -1    0    0    0    0  0.00000000000E+00  0.00000000000E+00  0.45593999997E+02  0.45594000000E+02  0.51100000000E-03 0.  1.
         11   -1    0    0    0    0 -0.00000000000E+00 -0.00000000000E+00 -0.45593999997E+02  0.45594000000E+02  0.51100000000E-03 0. -1.
    9900012    2    1    2    0    0 -0.28160832031E+01 -0.37337835705E+02  0.25041353857E+02  0.46142315382E+02  0.99999783048E+01 0.  0.
         12    1    1    2    0    0  0.28160832031E+01  0.37337835705E+02 -0.25041353857E+02  0.45045684618E+02  0.00000000000E+00 0. -1.
         11    1    3    3    0    0 -0.26238902082E+00 -0.10372182744E+02  0.93937419528E+01  0.13996192732E+02  0.51100000000E-03 0. -1.
        -11    1    3    3    0    0  0.94567381018E+00 -0.19961170779E+02  0.91837943115E+01  0.21992833288E+02  0.51100000000E-03 0.  1.
        -12    1    3    3    0    0 -0.34993679924E+01 -0.70044821823E+01  0.64638175925E+01  0.10153289361E+02  0.00000000000E+00 0.  1.
</event>
<event>
 7    1  0.3546694E-008  0.4614232E+02  0.7816164E-02  0.1320468E+00
        -11   -1    0    0    0    0  0.00000000000E+00  0.00000000000E+00  0.45593999997E+02  0.45594000000E+02  0.51100000000E-03 0. -1.
         11   -1    0    0    0    0 -0.00000000000E+00 -0.00000000000E+00 -0.45593999997E+02  0.45594000000E+02  0.51100000000E-03 0.  1.
    9900012    2    1    2    0    0  0.18370168194E+02 -0.44567258325E+01 -0.40887502308E+02  0.46142319523E+02  0.10000016066E+02 0.  0.
         12    1    1    2    0    0 -0.18370168194E+02  0.44567258325E+01  0.40887502308E+02  0.45045680477E+02  0.00000000000E+00 0. -1.
         11    1    3    3    0    0  0.34966806588E+01  0.10005508800E+01 -0.39923000638E+01  0.54005867971E+01  0.51100000000E-03 0. -1.
        -11    1    3    3    0    0  0.38104155773E+01  0.98580784331E+00 -0.49324793260E+01  0.63103436149E+01  0.51100000000E-03 0.  1.
        -12    1    3    3    0    0  0.11063071957E+02 -0.64430845558E+01 -0.31962722919E+02  0.34431389111E+02  0.00000000000E+00 0.  1.
</event>
<event>
 7    1  0.2395003E-008  0.4614232E+02  0.7816164E-02  0.1320468E+00
        -11   -1    0    0    0    0  0.00000000000E+00  0.00000000000E+00  0.45593999997E+02  0.45594000000E+02  0.51100000000E-03 0.  1.
         11   -1    0    0    0    0 -0.00000000000E+00 -0.00000000000E+00 -0.45593999997E+02  0.45594000000E+02  0.51100000000E-03 0. -1.
    9900012    2    1    2    0    0 -0.39690279796E+02  0.78710564207E+01  0.19794992866E+02  0.46142316721E+02  0.99999905197E+01 0.  0.
         12    1    1    2    0    0  0.39690279796E+02 -0.78710564207E+01 -0.19794992866E+02  0.45045683279E+02  0.00000000000E+00 0. -1.
         11    1    3    3    0    0 -0.13497528400E+02  0.38804000479E+01  0.29977009443E+01  0.14360605441E+02  0.51100000000E-03 0. -1.
        -11    1    3    3    0    0 -0.30540303087E+01  0.60255866077E+00  0.41734339892E+01  0.52065083875E+01  0.51100000000E-03 0.  1.
         12    1    3    3    0    0 -0.23138721088E+02  0.33880977121E+01  0.12623857932E+02  0.26575202893E+02  0.00000000000E+00 0. -1.
</event>
<event>
 7    1  0.2395003E-008  0.4614232E+02  0.7816164E-02  0.1320468E+00
        -11   -1    0    0    0    0  0.00000000000E+00  0.00000000000E+00  0.45593999997E+02  0.45594000000E+02  0.51100000000E-03 0.  1.
         11   -1    0    0    0    0 -0.00000000000E+00 -0.00000000000E+00 -0.45593999997E+02  0.45594000000E+02  0.51100000000E-03 0. -1.
    9900012    2    1    2    0    0 -0.30102487379E+02 -0.10499980668E+02  0.31823012709E+02  0.46142317873E+02  0.10000001018E+02 0.  0.
         12    1    1    2    0    0  0.30102487379E+02  0.10499980668E+02 -0.31823012709E+02  0.45045682127E+02  0.00000000000E+00 0. -1.
         11    1    3    3    0    0  0.37285258122E+00  0.47389730937E+00  0.15406874381E+00  0.62236255197E+00  0.51100000000E-03 0. -1.
        -11    1    3    3    0    0 -0.46703601407E+01 -0.34149484665E+01  0.62707592330E+01  0.85320899252E+01  0.51100000000E-03 0.  1.
         12    1    3    3    0    0 -0.25804979820E+02 -0.75589295113E+01  0.25398184732E+02  0.36987865396E+02  0.00000000000E+00 0. -1.
</event>
<event>
 7    1  0.2395003E-008  0.4614232E+02  0.7816164E-02  0.1320468E+00
        -11   -1    0    0    0    0  0.00000000000E+00  0.00000000000E+00  0.45593999997E+02  0.45594000000E+02  0.51100000000E-03 0. -1.
         11   -1    0    0    0    0 -0.00000000000E+00 -0.00000000000E+00 -0.45593999997E+02  0.45594000000E+02  0.51100000000E-03 0.  1.
    9900012    2    1    2    0    0 -0.23309045785E+02  0.17483097591E+02 -0.34353211524E+02  0.46142318089E+02  0.10000002992E+02 0.  0.
         12    1    1    2    0    0  0.23309045785E+02 -0.17483097591E+02  0.34353211524E+02  0.45045681911E+02  0.00000000000E+00 0. -1.
         11    1    3    3    0    0  0.27811433215E+00  0.84863953130E+00 -0.40799681834E+01  0.41765628541E+01  0.51100000000E-03 0. -1.
        -11    1    3    3    0    0 -0.61713321598E+01  0.57519253645E+01 -0.73506667500E+01  0.11189382823E+02  0.51100000000E-03 0.  1.
        -12    1    3    3    0    0 -0.17415827957E+02  0.10882532695E+02 -0.22922576591E+02  0.30776372412E+02  0.00000000000E+00 0.  1.
</event>
<event>
 7    1  0.2395003E-008  0.4614232E+02  0.7816164E-02  0.1320468E+00
        -11   -1    0    0    0    0  0.00000000000E+00  0.00000000000E+00  0.45593999997E+02  0.45594000000E+02  0.51100000000E-03 0.  1.
         11   -1    0    0    0    0 -0.00000000000E+00 -0.00000000000E+00 -0.45593999997E+02  0.45594000000E+02  0.51100000000E-03 0. -1.
    9900012    2    1    2    0    0  0.41970791765E+02  0.48207777509E+01  0.15630936743E+02  0.46142318265E+02  0.10000004599E+02 0.  0.
         12    1    1    2    0    0 -0.41970791765E+02 -0.48207777509E+01 -0.15630936743E+02  0.45045681735E+02  0.00000000000E+00 0. -1.
         11    1    3    3    0    0  0.38586761084E+01 -0.10163951710E+01  0.25395652096E+01  0.47298871200E+01  0.51100000000E-03 0. -1.
        -11    1    3    3    0    0  0.36779229976E+02  0.47671448071E+01  0.10944162287E+02  0.38667972738E+02  0.51100000000E-03 0.  1.
        -12    1    3    3    0    0  0.13328856799E+01  0.10700281148E+01  0.21472092460E+01  0.27444584071E+01  0.00000000000E+00 0.  1.
</event>
<event>
 7    1  0.2395003E-008  0.4614232E+02  0.7816164E-02  0.1320468E+00
        -11   -1    0    0    0    0  0.00000000000E+00  0.00000000000E+00  0.45593999997E+02  0.45594000000E+02  0.51100000000E-03 0.  1.
         11   -1    0    0    0    0 -0.00000000000E+00 -0.00000000000E+00 -0.45593999997E+02  0.45594000000E+02  0.51100000000E-03 0. -1.
    9900012    2    1    2    0    0 -0.43012173169E+02 -0.13280373068E+02  0.16426479626E+01  0.46142316057E+02  0.99999844597E+01 0.  0.
         12    1    1    2    0    0  0.43012173169E+02  0.13280373068E+02 -0.16426479626E+01  0.45045683943E+02  0.00000000000E+00 0. -1.
         11    1    3    3    0    0 -0.13863230329E+02 -0.48510276668E+01 -0.49241460411E+00  0.14695716960E+02  0.51100000000E-03 0. -1.
        -11    1    3    3    0    0 -0.13413668454E+02 -0.46558270884E+01  0.49206286257E+01  0.15027169182E+02  0.51100000000E-03 0.  1.
         12    1    3    3    0    0 -0.15735274386E+02 -0.37735183131E+01 -0.27855660590E+01  0.16419429915E+02  0.00000000000E+00 0. -1.
</event>
<event>
 7    1  0.2395003E-008  0.4614232E+02  0.7816164E-02  0.1320468E+00
        -11   -1    0    0    0    0  0.00000000000E+00  0.00000000000E+00  0.45593999997E+02  0.45594000000E+02  0.51100000000E-03 0.  1.
         11   -1    0    0    0    0 -0.00000000000E+00 -0.00000000000E+00 -0.45593999997E+02  0.45594000000E+02  0.51100000000E-03 0. -1.
    9900012    2    1    2    0    0 -0.19000713602E+02  0.61368925415E+01  0.40378521974E+02  0.46142316474E+02  0.99999882668E+01 0.  0.
         12    1    1    2    0    0  0.19000713602E+02 -0.61368925415E+01 -0.40378521974E+02  0.45045683526E+02  0.00000000000E+00 0. -1.
         11    1    3    3    0    0 -0.55552877360E+01  0.39249555531E+00  0.77306333691E+01  0.95277472227E+01  0.51100000000E-03 0. -1.
        -11    1    3    3    0    0 -0.13584300043E+02  0.50426674147E+01  0.32822124659E+02  0.35878316149E+02  0.51100000000E-03 0.  1.
         12    1    3    3    0    0  0.13887417730E+00  0.70172957144E+00 -0.17423605356E+00  0.73625310248E+00  0.00000000000E+00 0. -1.
</event>
<event>
 7    1  0.2395003E-008  0.4614232E+02  0.7816164E-02  0.1320468E+00
        -11   -1    0    0    0    0  0.00000000000E+00  0.00000000000E+00  0.45593999997E+02  0.45594000000E+02  0.51100000000E-03 0. -1.
         11   -1    0    0    0    0 -0.00000000000E+00 -0.00000000000E+00 -0.45593999997E+02  0.45594000000E+02  0.51100000000E-03 0.  1.
    9900012    2    1    2    0    0  0.44462765103E+02  0.28452605355E+01 -0.66393125764E+01  0.46142318080E+02  0.10000002910E+02 0.  0.
         12    1    1    2    0    0 -0.44462765103E+02 -0.28452605355E+01  0.66393125764E+01  0.45045681920E+02  0.00000000000E+00 0. -1.
         11    1    3    3    0    0  0.15641639313E+01 -0.44974491692E+00  0.31372793288E+00  0.16574995539E+01  0.51100000000E-03 0. -1.
        -11    1    3    3    0    0  0.12791616840E+02 -0.17465663430E+01 -0.51687136279E+01  0.13906529265E+02  0.51100000000E-03 0.  1.
        -12    1    3    3    0    0  0.30106984331E+02  0.50415717954E+01 -0.17843268814E+01  0.30578289261E+02  0.00000000000E+00 0.  1.
</event>
<event>
 7    1  0.2395003E-008  0.4614232E+02  0.7816164E-02  0.1320468E+00
        -11   -1    0    0    0    0  0.00000000000E+00  0.00000000000E+00  0.45593999997E+02  0.45594000000E+02  0.51100000000E-03 0. -1.
         11   -1    0    0    0    0 -0.00000000000E+00 -0.00000000000E+00 -0.45593999997E+02  0.45594000000E+02  0.51100000000E-03 0.  1.
    9900012    2    1    2    0    0 -0.21547735695E+02 -0.16412195950E+02 -0.35992337815E+02  0.46142317956E+02  0.10000001774E+02 0.  0.
         12    1    1    2    0    0  0.21547735695E+02  0.16412195950E+02  0.35992337815E+02  0.45045682044E+02  0.00000000000E+00 0. -1.
         11    1    3    3    0    0 -0.20341279878E+01 -0.50484884459E+01 -0.67957903328E+01  0.87067605208E+01  0.51100000000E-03 0. -1.
        -11    1    3    3    0    0 -0.10664657108E+02 -0.62465581582E+01 -0.10909521605E+02  0.16485510667E+02  0.51100000000E-03 0.  1.
        -12    1    3    3    0    0 -0.88489505992E+01 -0.51171493458E+01 -0.18287025877E+02  0.20950046767E+02  0.00000000000E+00 0.  1.
</event>
<event>
 7    1  0.2395003E-008  0.4614231E+02  0.7816164E-02  0.1320468E+00
        -11   -1    0    0    0    0  0.00000000000E+00  0.00000000000E+00  0.45593999997E+02  0.45594000000E+02  0.51100000000E-03 0.  1.
         11   -1    0    0    0    0 -0.00000000000E+00 -0.00000000000E+00 -0.45593999997E+02  0.45594000000E+02  0.51100000000E-03 0. -1.
    9900012    2    1    2    0    0 -0.37953733240E+02 -0.28804907933E+01  0.24090065449E+02  0.46142308226E+02  0.99999130546E+01 0.  0.
         12    1    1    2    0    0  0.37953733240E+02  0.28804907933E+01 -0.24090065449E+02  0.45045691774E+02  0.00000000000E+00 0. -1.
         11    1    3    3    0    0 -0.50092797904E+01  0.21961815187E+01  0.12901712306E+01  0.56196654123E+01  0.51100000000E-03 0. -1.
        -11    1    3    3    0    0 -0.47342391261E+01  0.31605988632E+00  0.26101652706E+01  0.54153371969E+01  0.51100000000E-03 0.  1.
        -12    1    3    3    0    0 -0.28210214323E+02 -0.53927321983E+01  0.20189728948E+02  0.35107305617E+02  0.00000000000E+00 0.  1.
</event>
<event>
 7    1  0.2395003E-008  0.4614232E+02  0.7816164E-02  0.1320468E+00
        -11   -1    0    0    0    0  0.00000000000E+00  0.00000000000E+00  0.45593999997E+02  0.45594000000E+02  0.51100000000E-03 0.  1.
         11   -1    0    0    0    0 -0.00000000000E+00 -0.00000000000E+00 -0.45593999997E+02  0.45594000000E+02  0.51100000000E-03 0. -1.
    9900012    2    1    2    0    0  0.18581805512E+02 -0.68804914814E+01  0.40453536666E+02  0.46142319986E+02  0.10000020288E+02 0.  0.
         12    1    1    2    0    0 -0.18581805512E+02  0.68804914814E+01 -0.40453536666E+02  0.45045680014E+02  0.00000000000E+00 0. -1.
         11    1    3    3    0    0  0.11135344700E+02 -0.77870131801E+01  0.25771698945E+02  0.29134411658E+02  0.51100000000E-03 0. -1.
        -11    1    3    3    0    0  0.70925265724E+01  0.18049404293E-01  0.10189626832E+02  0.12415021313E+02  0.51100000000E-03 0.  1.
         12    1    3    3    0    0  0.35393423966E+00  0.88847229440E+00  0.44922108893E+01  0.45928870155E+01  0.00000000000E+00 0. -1.
</event>
<event>
 7    1  0.2395003E-008  0.4614232E+02  0.7816164E-02  0.1320468E+00
        -11   -1    0    0    0    0  0.00000000000E+00  0.00000000000E+00  0.45593999997E+02  0.45594000000E+02  0.51100000000E-03 0.  1.
         11   -1    0    0    0    0 -0.00000000000E+00 -0.00000000000E+00 -0.45593999997E+02  0.45594000000E+02  0.51100000000E-03 0. -1.
    9900012    2    1    2    0    0 -0.39188379926E+02 -0.10382949701E+02  0.19636158662E+02  0.46142317713E+02  0.99999995617E+01 0.  0.
         12    1    1    2    0    0  0.39188379926E+02  0.10382949701E+02 -0.19636158662E+02  0.45045682287E+02  0.00000000000E+00 0. -1.
         11    1    3    3    0    0 -0.16259120066E+01 -0.15520534554E+01  0.34050727385E+01  0.40800711265E+01  0.51100000000E-03 0. -1.
        -11    1    3    3    0    0 -0.94887876765E+00  0.20139116423E+00  0.99462989484E+00  0.13893229306E+01  0.51100000000E-03 0.  1.
        -12    1    3    3    0    0 -0.36613589151E+02 -0.90322874098E+01  0.15236456029E+02  0.40672923656E+02  0.00000000000E+00 0.  1.
</event>
<event>
 7    1  0.2395003E-008  0.4614232E+02  0.7816164E-02  0.1320468E+00
        -11   -1    0    0    0    0  0.00000000000E+00  0.00000000000E+00  0.45593999997E+02  0.45594000000E+02  0.51100000000E-03 0.  1.
         11   -1    0    0    0    0 -0.00000000000E+00 -0.00000000000E+00 -0.45593999997E+02  0.45594000000E+02  0.51100000000E-03 0. -1.
    9900012    2    1    2    0    0  0.15328337532E+02  0.39157183896E+02  0.16151479878E+02  0.46142320025E+02  0.10000020641E+02 0.  0.
         12    1    1    2    0    0 -0.15328337532E+02 -0.39157183896E+02 -0.16151479878E+02  0.45045679975E+02  0.00000000000E+00 0. -1.
         11    1    3    3    0    0  0.23826154231E+01  0.15485616739E+01  0.11184619138E+01  0.30538265874E+01  0.51100000000E-03 0. -1.
        -11    1    3    3    0    0 -0.80937934484E+00  0.26807457057E+01  0.15577460170E+01  0.32043822146E+01  0.51100000000E-03 0.  1.
        -12    1    3    3    0    0  0.13755101454E+02  0.34927876517E+02  0.13475271948E+02  0.39884111223E+02  0.00000000000E+00 0.  1.
</event>
<event>
 7    1  0.2395003E-008  0.4614231E+02  0.7816164E-02  0.1320468E+00
        -11   -1    0    0    0    0  0.00000000000E+00  0.00000000000E+00  0.45593999997E+02  0.45594000000E+02  0.51100000000E-03 0.  1.
         11   -1    0    0    0    0 -0.00000000000E+00 -0.00000000000E+00 -0.45593999997E+02  0.45594000000E+02  0.51100000000E-03 0. -1.
    9900012    2    1    2    0    0 -0.32031790576E+02 -0.10088366928E+01  0.31655338018E+02  0.46142314479E+02  0.99999700750E+01 0.  0.
         12    1    1    2    0    0  0.32031790576E+02  0.10088366928E+01 -0.31655338018E+02  0.45045685521E+02  0.00000000000E+00 0. -1.
         11    1    3    3    0    0 -0.15453199154E+02 -0.24756807818E+01  0.16169241646E+02  0.22502771720E+02  0.51100000000E-03 0. -1.
        -11    1    3    3    0    0 -0.83981310437E+01 -0.21091136500E+01  0.55660720611E+01  0.10293596255E+02  0.51100000000E-03 0.  1.
         12    1    3    3    0    0 -0.81804603777E+01  0.35759577390E+01  0.99200243114E+01  0.13345946504E+02  0.00000000000E+00 0. -1.
</event>
<event>
 7    1  0.2395003E-008  0.4614231E+02  0.7816164E-02  0.1320468E+00
        -11   -1    0    0    0    0  0.00000000000E+00  0.00000000000E+00  0.45593999997E+02  0.45594000000E+02  0.51100000000E-03 0.  1.
         11   -1    0    0    0    0 -0.00000000000E+00 -0.00000000000E+00 -0.45593999997E+02  0.45594000000E+02  0.51100000000E-03 0. -1.
    9900012    2    1    2    0    0  0.31792159915E+02  0.23372312048E+02  0.21728031189E+02  0.46142314947E+02  0.99999743361E+01 0.  0.
         12    1    1    2    0    0 -0.31792159915E+02 -0.23372312048E+02 -0.21728031189E+02  0.45045685053E+02  0.00000000000E+00 0. -1.
         11    1    3    3    0    0  0.26629931328E+02  0.16888290015E+02  0.16888247529E+02  0.35771224288E+02  0.51100000000E-03 0.  1.
        -11    1    3    3    0    0  0.57857393784E+01  0.61750009692E+01  0.46215184934E+01  0.96417763182E+01  0.51100000000E-03 0. -1.
         12    1    3    3    0    0 -0.62351079125E+00  0.30902106408E+00  0.21826516702E+00  0.72931434100E+00  0.00000000000E+00 0. -1.
</event>
<event>
 7    1  0.2395003E-008  0.4614232E+02  0.7816164E-02  0.1320468E+00
        -11   -1    0    0    0    0  0.00000000000E+00  0.00000000000E+00  0.45593999997E+02  0.45594000000E+02  0.51100000000E-03 0. -1.
         11   -1    0    0    0    0 -0.00000000000E+00 -0.00000000000E+00 -0.45593999997E+02  0.45594000000E+02  0.51100000000E-03 0.  1.
    9900012    2    1    2    0    0 -0.18011298734E+02  0.11200623611E+02 -0.39739811031E+02  0.46142318385E+02  0.10000005692E+02 0.  0.
         12    1    1    2    0    0  0.18011298734E+02 -0.11200623611E+02  0.39739811031E+02  0.45045681615E+02  0.00000000000E+00 0. -1.
         11    1    3    3    0    0 -0.57915666847E+01  0.20813356035E+01 -0.18499551339E+02  0.19496348441E+02  0.51100000000E-03 0. -1.
        -11    1    3    3    0    0 -0.58921667072E+01  0.60054011851E+01 -0.15143796834E+02  0.17323886825E+02  0.51100000000E-03 0.  1.
         12    1    3    3    0    0 -0.63275653419E+01  0.31138868225E+01 -0.60964628582E+01  0.93220831192E+01  0.00000000000E+00 0. -1.
</event>
<event>
 7    1  0.2395003E-008  0.4614232E+02  0.7816164E-02  0.1320468E+00
        -11   -1    0    0    0    0  0.00000000000E+00  0.00000000000E+00  0.45593999997E+02  0.45594000000E+02  0.51100000000E-03 0.  1.
         11   -1    0    0    0    0 -0.00000000000E+00 -0.00000000000E+00 -0.45593999997E+02  0.45594000000E+02  0.51100000000E-03 0. -1.
    9900012    2    1    2    0    0  0.21563473085E+01 -0.14935047386E+02  0.42442997101E+02  0.46142317887E+02  0.10000001145E+02 0.  0.
         12    1    1    2    0    0 -0.21563473085E+01  0.14935047386E+02 -0.42442997101E+02  0.45045682113E+02  0.00000000000E+00 0. -1.
         11    1    3    3    0    0 -0.18571852761E+01 -0.35861917003E+01  0.14678950927E+02  0.15224372192E+02  0.51100000000E-03 0. -1.
        -11    1    3    3    0    0  0.26094516849E+01 -0.12046888002E+01  0.10089485364E+02  0.10490864043E+02  0.51100000000E-03 0.  1.
        -12    1    3    3    0    0  0.14040808997E+01 -0.10144166885E+02  0.17674560810E+02  0.20427081651E+02  0.00000000000E+00 0.  1.
</event>
<event>
 7    1  0.2395003E-008  0.4614232E+02  0.7816164E-02  0.1320468E+00
        -11   -1    0    0    0    0  0.00000000000E+00  0.00000000000E+00  0.45593999997E+02  0.45594000000E+02  0.51100000000E-03 0. -1.
         11   -1    0    0    0    0 -0.00000000000E+00 -0.00000000000E+00 -0.45593999997E+02  0.45594000000E+02  0.51100000000E-03 0.  1.
    9900012    2    1    2    0    0  0.23276689718E+02 -0.28973445335E+02 -0.25452871915E+02  0.46142317549E+02  0.99999980618E+01 0.  0.
         12    1    1    2    0    0 -0.23276689718E+02  0.28973445335E+02  0.25452871915E+02  0.45045682451E+02  0.00000000000E+00 0. -1.
         11    1    3    3    0    0  0.98399845871E+01 -0.14425104379E+02 -0.10690031145E+02  0.20474024987E+02  0.51100000000E-03 0. -1.
        -11    1    3    3    0    0  0.11857856433E+02 -0.15194895480E+02 -0.13262340811E+02  0.23396223881E+02  0.51100000000E-03 0.  1.
        -12    1    3    3    0    0  0.15788486979E+01  0.64655452429E+00 -0.15004999590E+01  0.22720686809E+01  0.00000000000E+00 0.  1.
</event>
<event>
 7    1  0.2395003E-008  0.4614232E+02  0.7816164E-02  0.1320468E+00
        -11   -1    0    0    0    0  0.00000000000E+00  0.00000000000E+00  0.45593999997E+02  0.45594000000E+02  0.51100000000E-03 0.  1.
         11   -1    0    0    0    0 -0.00000000000E+00 -0.00000000000E+00 -0.45593999997E+02  0.45594000000E+02  0.51100000000E-03 0. -1.
    9900012    2    1    2    0    0 -0.18846939590E+02 -0.23973740555E+02  0.33153674111E+02  0.46142317908E+02  0.10000001337E+02 0.  0.
         12    1    1    2    0    0  0.18846939590E+02  0.23973740555E+02 -0.33153674111E+02  0.45045682092E+02  0.00000000000E+00 0. -1.
         11    1    3    3    0    0 -0.23472640087E+01 -0.39486248510E+00  0.17629130547E+01  0.29619971993E+01  0.51100000000E-03 0. -1.
        -11    1    3    3    0    0 -0.69081943658E+01 -0.12673107661E+02  0.11006912394E+02  0.18151664604E+02  0.51100000000E-03 0.  1.
        -12    1    3    3    0    0 -0.95914812154E+01 -0.10905770409E+02  0.20383848662E+02  0.25028656105E+02  0.00000000000E+00 0.  1.
</event>
<event>
 7    1  0.2395003E-008  0.4614232E+02  0.7816164E-02  0.1320468E+00
        -11   -1    0    0    0    0  0.00000000000E+00  0.00000000000E+00  0.45593999997E+02  0.45594000000E+02  0.51100000000E-03 0.  1.
         11   -1    0    0    0    0 -0.00000000000E+00 -0.00000000000E+00 -0.45593999997E+02  0.45594000000E+02  0.51100000000E-03 0. -1.
    9900012    2    1    2    0    0 -0.27932222049E+02 -0.29367836970E+02  0.19657925297E+02  0.46142324249E+02  0.10000059162E+02 0.  0.
         12    1    1    2    0    0  0.27932222049E+02  0.29367836970E+02 -0.19657925297E+02  0.45045675751E+02  0.00000000000E+00 0. -1.
         11    1    3    3    0    0  0.33774226436E+00 -0.75692605952E+00  0.96765566310E+00  0.12741132760E+01  0.51100000000E-03 0. -1.
        -11    1    3    3    0    0 -0.13262905913E+02 -0.18194004657E+02  0.99063989380E+01  0.24598032826E+02  0.51100000000E-03 0.  1.
         12    1    3    3    0    0 -0.15007058400E+02 -0.10416906253E+02  0.87838706958E+01  0.20270178147E+02  0.00000000000E+00 0. -1.
</event>
<event>
 7    1  0.2395003E-008  0.4614232E+02  0.7816164E-02  0.1320468E+00
        -11   -1    0    0    0    0  0.00000000000E+00  0.00000000000E+00  0.45593999997E+02  0.45594000000E+02  0.51100000000E-03 0.  1.
         11   -1    0    0    0    0 -0.00000000000E+00 -0.00000000000E+00 -0.45593999997E+02  0.45594000000E+02  0.51100000000E-03 0. -1.
    9900012    2    1    2    0    0  0.15377376715E+01  0.44850649612E+02 -0.38945992344E+01  0.46142319730E+02  0.10000017957E+02 0.  0.
         12    1    1    2    0    0 -0.15377376715E+01 -0.44850649612E+02  0.38945992344E+01  0.45045680270E+02  0.00000000000E+00 0. -1.
         11    1    3    3    0    0 -0.31854585353E+01  0.10608357589E+02 -0.23813847803E+01  0.11329403803E+02  0.51100000000E-03 0.  1.
        -11    1    3    3    0    0  0.96695213362E-01  0.61284235295E+00  0.51480116293E+00  0.80619241645E+00  0.51100000000E-03 0. -1.
        -12    1    3    3    0    0  0.46265009934E+01  0.33629449670E+02 -0.20280156171E+01  0.34006723510E+02  0.00000000000E+00 0.  1.
</event>
<event>
 7    1  0.2395003E-008  0.4614232E+02  0.7816164E-02  0.1320468E+00
        -11   -1    0    0    0    0  0.00000000000E+00  0.00000000000E+00  0.45593999997E+02  0.45594000000E+02  0.51100000000E-03 0.  1.
         11   -1    0    0    0    0 -0.00000000000E+00 -0.00000000000E+00 -0.45593999997E+02  0.45594000000E+02  0.51100000000E-03 0. -1.
    9900012    2    1    2    0    0 -0.14510793491E+02 -0.42422354532E+02  0.43467709818E+01  0.46142315304E+02  0.99999775927E+01 0.  0.
         12    1    1    2    0    0  0.14510793491E+02  0.42422354532E+02 -0.43467709818E+01  0.45045684696E+02  0.00000000000E+00 0. -1.
         11    1    3    3    0    0 -0.50232126119E+01 -0.90371735766E+01 -0.14896372245E+01  0.10446156734E+02  0.51100000000E-03 0. -1.
        -11    1    3    3    0    0 -0.78842339076E+01 -0.16928838040E+02  0.34447529073E+01  0.18989813705E+02  0.51100000000E-03 0.  1.
         12    1    3    3    0    0 -0.16033469712E+01 -0.16456342916E+02  0.23916552990E+01  0.16706344865E+02  0.00000000000E+00 0. -1.
</event>
<event>
 7    1  0.2395003E-008  0.4614232E+02  0.7816164E-02  0.1320468E+00
        -11   -1    0    0    0    0  0.00000000000E+00  0.00000000000E+00  0.45593999997E+02  0.45594000000E+02  0.51100000000E-03 0.  1.
         11   -1    0    0    0    0 -0.00000000000E+00 -0.00000000000E+00 -0.45593999997E+02  0.45594000000E+02  0.51100000000E-03 0. -1.
    9900012    2    1    2    0    0 -0.17446291976E+02 -0.39511870209E+02  0.12788767910E+02  0.46142316791E+02  0.99999911522E+01 0.  0.
         12    1    1    2    0    0  0.17446291976E+02  0.39511870209E+02 -0.12788767910E+02  0.45045683209E+02  0.00000000000E+00 0. -1.
         11    1    3    3    0    0 -0.87740949585E+00 -0.28461407326E+01 -0.87536088979E+00  0.31042908114E+01  0.51100000000E-03 0. -1.
        -11    1    3    3    0    0 -0.12291844094E+02 -0.23908658589E+02  0.12138929112E+02  0.29496897922E+02  0.51100000000E-03 0.  1.
        -12    1    3    3    0    0 -0.42770383860E+01 -0.12757070888E+02  0.15251996871E+01  0.13541128058E+02  0.00000000000E+00 0.  1.
</event>
<event>
 7    1  0.2395003E-008  0.4614231E+02  0.7816164E-02  0.1320468E+00
        -11   -1    0    0    0    0  0.00000000000E+00  0.00000000000E+00  0.45593999997E+02  0.45594000000E+02  0.51100000000E-03 0.  1.
         11   -1    0    0    0    0 -0.00000000000E+00 -0.00000000000E+00 -0.45593999997E+02  0.45594000000E+02  0.51100000000E-03 0. -1.
    9900012    2    1    2    0    0 -0.99940807757E+01 -0.31009115961E+02  0.31107349590E+02  0.46142310731E+02  0.99999358899E+01 0.  0.
         12    1    1    2    0    0  0.99940807757E+01  0.31009115961E+02 -0.31107349590E+02  0.45045689269E+02  0.00000000000E+00 0. -1.
         11    1    3    3    0    0 -0.66155253169E+01 -0.13122763393E+02  0.14313839223E+02  0.20514826050E+02  0.51100000000E-03 0. -1.
        -11    1    3    3    0    0 -0.64407393653E+00 -0.16041744705E+02  0.14151867243E+02  0.21401582912E+02  0.51100000000E-03 0.  1.
         12    1    3    3    0    0 -0.27344815223E+01 -0.18446078628E+01  0.26416431235E+01  0.42259017683E+01  0.00000000000E+00 0. -1.
</event>
<event>
 7    1  0.2395003E-008  0.4614232E+02  0.7816164E-02  0.1320468E+00
        -11   -1    0    0    0    0  0.00000000000E+00  0.00000000000E+00  0.45593999997E+02  0.45594000000E+02  0.51100000000E-03 0. -1.
         11   -1    0    0    0    0 -0.00000000000E+00 -0.00000000000E+00 -0.45593999997E+02  0.45594000000E+02  0.51100000000E-03 0.  1.
    9900012    2    1    2    0    0 -0.27568306508E+02  0.27308165389E+02 -0.22877190390E+02  0.46142320288E+02  0.10000023040E+02 0.  0.
         12    1    1    2    0    0  0.27568306508E+02 -0.27308165389E+02  0.22877190390E+02  0.45045679712E+02  0.00000000000E+00 0. -1.
         11    1    3    3    0    0 -0.34723285762E+01  0.71770189848E+01 -0.45741315766E+01  0.91918087007E+01  0.51100000000E-03 0.  1.
        -11    1    3    3    0    0 -0.84657280812E+01  0.69230482473E+01 -0.28319220160E+01  0.11296766420E+02  0.51100000000E-03 0. -1.
        -12    1    3    3    0    0 -0.15630249850E+02  0.13208098157E+02 -0.15471136798E+02  0.25653745167E+02  0.00000000000E+00 0.  1.
</event>
<event>
 7    1  0.2395003E-008  0.4614232E+02  0.7816164E-02  0.1320468E+00
        -11   -1    0    0    0    0  0.00000000000E+00  0.00000000000E+00  0.45593999997E+02  0.45594000000E+02  0.51100000000E-03 0.  1.
         11   -1    0    0    0    0 -0.00000000000E+00 -0.00000000000E+00 -0.45593999997E+02  0.45594000000E+02  0.51100000000E-03 0. -1.
    9900012    2    1    2    0    0 -0.24790569327E+02 -0.26629291152E+02  0.26559780792E+02  0.46142318403E+02  0.10000005854E+02 0.  0.
         12    1    1    2    0    0  0.24790569327E+02  0.26629291152E+02 -0.26559780792E+02  0.45045681597E+02  0.00000000000E+00 0. -1.
         11    1    3    3    0    0 -0.17233451679E+02 -0.16439609645E+02  0.12355285724E+02  0.26831058638E+02  0.51100000000E-03 0. -1.
        -11    1    3    3    0    0 -0.25011936949E+01 -0.60041941060E+01  0.66112198983E+01  0.92744027068E+01  0.51100000000E-03 0.  1.
         12    1    3    3    0    0 -0.50559239535E+01 -0.41854874002E+01  0.75932751698E+01  0.10036857058E+02  0.00000000000E+00 0. -1.
</event>
<event>
 7    1  0.2395003E-008  0.4614232E+02  0.7816164E-02  0.1320468E+00
        -11   -1    0    0    0    0  0.00000000000E+00  0.00000000000E+00  0.45593999997E+02  0.45594000000E+02  0.51100000000E-03 0.  1.
         11   -1    0    0    0    0 -0.00000000000E+00 -0.00000000000E+00 -0.45593999997E+02  0.45594000000E+02  0.51100000000E-03 0. -1.
    9900012    2    1    2    0    0 -0.20091312922E+02 -0.33072151245E+02  0.23058303910E+02  0.46142318496E+02  0.10000006705E+02 0.  0.
         12    1    1    2    0    0  0.20091312922E+02  0.33072151245E+02 -0.23058303910E+02  0.45045681504E+02  0.00000000000E+00 0. -1.
         11    1    3    3    0    0 -0.25297404874E+01 -0.25361767158E+01  0.15697457634E+00  0.35855851051E+01  0.51100000000E-03 0. -1.
        -11    1    3    3    0    0 -0.63786091202E+01 -0.14538896552E+02  0.68722330335E+01  0.17300108508E+02  0.51100000000E-03 0.  1.
         12    1    3    3    0    0 -0.11182963314E+02 -0.15997077978E+02  0.16029096300E+02  0.25256624884E+02  0.00000000000E+00 0. -1.
</event>
<event>
 7    1  0.2395003E-008  0.4614232E+02  0.7816164E-02  0.1320468E+00
        -11   -1    0    0    0    0  0.00000000000E+00  0.00000000000E+00  0.45593999997E+02  0.45594000000E+02  0.51100000000E-03 0.  1.
         11   -1    0    0    0    0 -0.00000000000E+00 -0.00000000000E+00 -0.45593999997E+02  0.45594000000E+02  0.51100000000E-03 0. -1.
    9900012    2    1    2    0    0 -0.14455539599E+02  0.14043816289E+02  0.40285509526E+02  0.46142315647E+02  0.99999807207E+01 0.  0.
         12    1    1    2    0    0  0.14455539599E+02 -0.14043816289E+02 -0.40285509526E+02  0.45045684353E+02  0.00000000000E+00 0. -1.
         11    1    3    3    0    0 -0.58241495357E+01  0.33178238557E+01  0.16298400355E+02  0.17622897814E+02  0.51100000000E-03 0.  1.
        -11    1    3    3    0    0 -0.34874057414E+01  0.71507598792E+00  0.28031789791E+01  0.45311306672E+01  0.51100000000E-03 0. -1.
         12    1    3    3    0    0 -0.51439843218E+01  0.10010916445E+02  0.21183930192E+02  0.23988287166E+02  0.00000000000E+00 0. -1.
</event>
<event>
 7    1  0.2395003E-008  0.4614232E+02  0.7816164E-02  0.1320468E+00
        -11   -1    0    0    0    0  0.00000000000E+00  0.00000000000E+00  0.45593999997E+02  0.45594000000E+02  0.51100000000E-03 0. -1.
         11   -1    0    0    0    0 -0.00000000000E+00 -0.00000000000E+00 -0.45593999997E+02  0.45594000000E+02  0.51100000000E-03 0.  1.
    9900012    2    1    2    0    0 -0.32836808284E+02  0.10935350719E+02 -0.28831852171E+02  0.46142316820E+02  0.99999914140E+01 0.  0.
         12    1    1    2    0    0  0.32836808284E+02 -0.10935350719E+02  0.28831852171E+02  0.45045683180E+02  0.00000000000E+00 0. -1.
         11    1    3    3    0    0 -0.12612482492E+02  0.36555969886E+01 -0.12315701554E+02  0.18003183301E+02  0.51100000000E-03 0.  1.
        -11    1    3    3    0    0  0.56308019861E+00  0.52655209518E+00 -0.12858353810E+01  0.14992295712E+01  0.51100000000E-03 0. -1.
         12    1    3    3    0    0 -0.20787405991E+02  0.67532016348E+01 -0.15230315236E+02  0.26639903948E+02  0.00000000000E+00 0. -1.
</event>
<event>
 7    1  0.2395003E-008  0.4614232E+02  0.7816164E-02  0.1320468E+00
        -11   -1    0    0    0    0  0.00000000000E+00  0.00000000000E+00  0.45593999997E+02  0.45594000000E+02  0.51100000000E-03 0. -1.
         11   -1    0    0    0    0 -0.00000000000E+00 -0.00000000000E+00 -0.45593999997E+02  0.45594000000E+02  0.51100000000E-03 0.  1.
    9900012    2    1    2    0    0  0.21928872080E+02  0.17717016239E+02 -0.35133252324E+02  0.46142317476E+02  0.99999974035E+01 0.  0.
         12    1    1    2    0    0 -0.21928872080E+02 -0.17717016239E+02  0.35133252324E+02  0.45045682524E+02  0.00000000000E+00 0. -1.
         11    1    3    3    0    0  0.36688874740E+01  0.10528143256E+01 -0.44587471265E+01  0.58693764150E+01  0.51100000000E-03 0. -1.
        -11    1    3    3    0    0  0.15693940121E+02  0.12783901181E+02 -0.28922140618E+02  0.35301814460E+02  0.51100000000E-03 0.  1.
        -12    1    3    3    0    0  0.25660444849E+01  0.38803007323E+01 -0.17523645798E+01  0.49711266019E+01  0.00000000000E+00 0.  1.
</event>
<event>
 7    1  0.2395003E-008  0.4614232E+02  0.7816164E-02  0.1320468E+00
        -11   -1    0    0    0    0  0.00000000000E+00  0.00000000000E+00  0.45593999997E+02  0.45594000000E+02  0.51100000000E-03 0. -1.
         11   -1    0    0    0    0 -0.00000000000E+00 -0.00000000000E+00 -0.45593999997E+02  0.45594000000E+02  0.51100000000E-03 0.  1.
    9900012    2    1    2    0    0 -0.40413097857E+01 -0.44299612640E+02  0.70940539598E+01  0.46142318005E+02  0.10000002225E+02 0.  0.
         12    1    1    2    0    0  0.40413097857E+01  0.44299612640E+02 -0.70940539598E+01  0.45045681995E+02  0.00000000000E+00 0. -1.
         11    1    3    3    0    0  0.11401562184E+00 -0.75098622568E+01  0.11421157142E+01  0.75970691220E+01  0.51100000000E-03 0. -1.
        -11    1    3    3    0    0  0.22486721536E+01 -0.77955599225E+01 -0.60835143056E+00  0.81361767854E+01  0.51100000000E-03 0.  1.
         12    1    3    3    0    0 -0.64039975612E+01 -0.28994190460E+02  0.65602896762E+01  0.30409072098E+02  0.00000000000E+00 0. -1.
</event>
<event>
 7    1  0.2395003E-008  0.4614232E+02  0.7816164E-02  0.1320468E+00
        -11   -1    0    0    0    0  0.00000000000E+00  0.00000000000E+00  0.45593999997E+02  0.45594000000E+02  0.51100000000E-03 0.  1.
         11   -1    0    0    0    0 -0.00000000000E+00 -0.00000000000E+00 -0.45593999997E+02  0.45594000000E+02  0.51100000000E-03 0. -1.
    9900012    2    1    2    0    0  0.22793351322E+02 -0.31556416802E+02  0.22666477937E+02  0.46142317322E+02  0.99999959967E+01 0.  0.
         12    1    1    2    0    0 -0.22793351322E+02  0.31556416802E+02 -0.22666477937E+02  0.45045682678E+02  0.00000000000E+00 0. -1.
         11    1    3    3    0    0  0.22194541983E+01 -0.10451862122E+02  0.65226579390E+01  0.12518484957E+02  0.51100000000E-03 0. -1.
        -11    1    3    3    0    0  0.14544987867E+02 -0.15400052797E+02  0.11168223894E+02  0.23946764362E+02  0.51100000000E-03 0.  1.
         12    1    3    3    0    0  0.60289092563E+01 -0.57045018824E+01  0.49755961040E+01  0.96770680031E+01  0.00000000000E+00 0. -1.
</event>
<event>
 7    1  0.2395003E-008  0.4614232E+02  0.7816164E-02  0.1320468E+00
        -11   -1    0    0    0    0  0.00000000000E+00  0.00000000000E+00  0.45593999997E+02  0.45594000000E+02  0.51100000000E-03 0.  1.
         11   -1    0    0    0    0 -0.00000000000E+00 -0.00000000000E+00 -0.45593999997E+02  0.45594000000E+02  0.51100000000E-03 0. -1.
    9900012    2    1    2    0    0  0.49352849012E+01 -0.10060364880E+02  0.43629641726E+02  0.46142316347E+02  0.99999871076E+01 0.  0.
         12    1    1    2    0    0 -0.49352849012E+01  0.10060364880E+02 -0.43629641726E+02  0.45045683653E+02  0.00000000000E+00 0. -1.
         11    1    3    3    0    0 -0.22733795627E+01 -0.18945062626E+01  0.69942658368E+01  0.75945482731E+01  0.51100000000E-03 0. -1.
        -11    1    3    3    0    0  0.77382674850E+00 -0.29719611238E+01  0.16449248008E+02  0.16733473072E+02  0.51100000000E-03 0.  1.
         12    1    3    3    0    0  0.64348377154E+01 -0.51938974942E+01  0.20186127881E+02  0.21814295002E+02  0.00000000000E+00 0. -1.
</event>
<event>
 7    1  0.2395003E-008  0.4614232E+02  0.7816164E-02  0.1320468E+00
        -11   -1    0    0    0    0  0.00000000000E+00  0.00000000000E+00  0.45593999997E+02  0.45594000000E+02  0.51100000000E-03 0.  1.
         11   -1    0    0    0    0 -0.00000000000E+00 -0.00000000000E+00 -0.45593999997E+02  0.45594000000E+02  0.51100000000E-03 0. -1.
    9900012    2    1    2    0    0 -0.32796567631E+02  0.19083450865E+02 -0.24275923723E+02  0.46142318543E+02  0.10000007134E+02 0.  0.
         12    1    1    2    0    0  0.32796567631E+02 -0.19083450865E+02  0.24275923723E+02  0.45045681457E+02  0.00000000000E+00 0. -1.
         11    1    3    3    0    0 -0.10003056342E+02  0.84476415517E+01 -0.55941492026E+01  0.14237917317E+02  0.51100000000E-03 0. -1.
        -11    1    3    3    0    0 -0.16788087499E+02  0.69291468568E+01 -0.10057543521E+02  0.20760711451E+02  0.51100000000E-03 0.  1.
        -12    1    3    3    0    0 -0.60054237898E+01  0.37066624560E+01 -0.86242309998E+01  0.11143689775E+02  0.00000000000E+00 0.  1.
</event>
<event>
 7    1  0.2395003E-008  0.4614232E+02  0.7816164E-02  0.1320468E+00
        -11   -1    0    0    0    0  0.00000000000E+00  0.00000000000E+00  0.45593999997E+02  0.45594000000E+02  0.51100000000E-03 0. -1.
         11   -1    0    0    0    0 -0.00000000000E+00 -0.00000000000E+00 -0.45593999997E+02  0.45594000000E+02  0.51100000000E-03 0.  1.
    9900012    2    1    2    0    0 -0.37422620203E+02 -0.23859417206E+02  0.77064355628E+01  0.46142318282E+02  0.10000004754E+02 0.  0.
         12    1    1    2    0    0  0.37422620203E+02  0.23859417206E+02 -0.77064355628E+01  0.45045681718E+02  0.00000000000E+00 0. -1.
         11    1    3    3    0    0 -0.11780782275E+02 -0.38577422679E+01 -0.78587799295E+00  0.12421216161E+02  0.51100000000E-03 0. -1.
        -11    1    3    3    0    0 -0.13033619770E+02 -0.90222355995E+01  0.30798408071E+01  0.16148108223E+02  0.51100000000E-03 0.  1.
        -12    1    3    3    0    0 -0.12608218158E+02 -0.10979439339E+02  0.54124727487E+01  0.17572993899E+02  0.00000000000E+00 0.  1.
</event>
<event>
 7    1  0.2395003E-008  0.4614232E+02  0.7816164E-02  0.1320468E+00
        -11   -1    0    0    0    0  0.00000000000E+00  0.00000000000E+00  0.45593999997E+02  0.45594000000E+02  0.51100000000E-03 0.  1.
         11   -1    0    0    0    0 -0.00000000000E+00 -0.00000000000E+00 -0.45593999997E+02  0.45594000000E+02  0.51100000000E-03 0. -1.
    9900012    2    1    2    0    0 -0.44088463154E+02 -0.81939004527E+01 -0.42638990985E+01  0.46142318482E+02  0.10000006570E+02 0.  0.
         12    1    1    2    0    0  0.44088463154E+02  0.81939004527E+01  0.42638990985E+01  0.45045681518E+02  0.00000000000E+00 0. -1.
         11    1    3    3    0    0 -0.99102024937E+01 -0.42882964539E+01 -0.36383195932E+01  0.11394690416E+02  0.51100000000E-03 0. -1.
        -11    1    3    3    0    0 -0.18927345707E+02 -0.45219771114E+01  0.21376303744E+00  0.19461202106E+02  0.51100000000E-03 0.  1.
        -12    1    3    3    0    0 -0.15250914953E+02  0.61637311257E+00 -0.83934254274E+00  0.15286425960E+02  0.00000000000E+00 0.  1.
</event>
<event>
 7    1  0.2395003E-008  0.4614232E+02  0.7816164E-02  0.1320468E+00
        -11   -1    0    0    0    0  0.00000000000E+00  0.00000000000E+00  0.45593999997E+02  0.45594000000E+02  0.51100000000E-03 0.  1.
         11   -1    0    0    0    0 -0.00000000000E+00 -0.00000000000E+00 -0.45593999997E+02  0.45594000000E+02  0.51100000000E-03 0. -1.
    9900012    2    1    2    0    0 -0.22236342285E+02 -0.17725138393E+02  0.34935340656E+02  0.46142317898E+02  0.10000001247E+02 0.  0.
         12    1    1    2    0    0  0.22236342285E+02  0.17725138393E+02 -0.34935340656E+02  0.45045682102E+02  0.00000000000E+00 0. -1.
         11    1    3    3    0    0 -0.24243208438E+01 -0.17198829481E+01  0.98588382656E+01  0.10297185107E+02  0.51100000000E-03 0. -1.
        -11    1    3    3    0    0 -0.60528187780E+01 -0.37426870784E+01  0.58582153302E+01  0.92175381118E+01  0.51100000000E-03 0.  1.
         12    1    3    3    0    0 -0.13759202664E+02 -0.12262568366E+02  0.19218287061E+02  0.26627594680E+02  0.00000000000E+00 0. -1.
</event>
<event>
 7    1  0.2395003E-008  0.4614232E+02  0.7816164E-02  0.1320468E+00
        -11   -1    0    0    0    0  0.00000000000E+00  0.00000000000E+00  0.45593999997E+02  0.45594000000E+02  0.51100000000E-03 0.  1.
         11   -1    0    0    0    0 -0.00000000000E+00 -0.00000000000E+00 -0.45593999997E+02  0.45594000000E+02  0.51100000000E-03 0. -1.
    9900012    2    1    2    0    0  0.75717000597E+01 -0.25922027174E+02  0.36053167283E+02  0.46142323118E+02  0.10000048852E+02 0.  0.
         12    1    1    2    0    0 -0.75717000597E+01  0.25922027174E+02 -0.36053167283E+02  0.45045676882E+02  0.00000000000E+00 0. -1.
         11    1    3    3    0    0  0.54903339409E+01 -0.20124124823E+02  0.25552952240E+02  0.32986020298E+02  0.51100000000E-03 0.  1.
        -11    1    3    3    0    0  0.28891297504E+01 -0.39550570113E+01  0.99182933042E+01  0.11061739872E+02  0.51100000000E-03 0. -1.
        -12    1    3    3    0    0 -0.80776363162E+00 -0.18428453400E+01  0.58192173809E+00  0.20945629475E+01  0.00000000000E+00 0.  1.
</event>
<event>
 7    1  0.2395003E-008  0.4614232E+02  0.7816164E-02  0.1320468E+00
        -11   -1    0    0    0    0  0.00000000000E+00  0.00000000000E+00  0.45593999997E+02  0.45594000000E+02  0.51100000000E-03 0.  1.
         11   -1    0    0    0    0 -0.00000000000E+00 -0.00000000000E+00 -0.45593999997E+02  0.45594000000E+02  0.51100000000E-03 0. -1.
    9900012    2    1    2    0    0 -0.23636065533E+02  0.27981275956E+02  0.26220182669E+02  0.46142318995E+02  0.10000011250E+02 0.  0.
         12    1    1    2    0    0  0.23636065533E+02 -0.27981275956E+02 -0.26220182669E+02  0.45045681005E+02  0.00000000000E+00 0. -1.
         11    1    3    3    0    0 -0.19362123760E+01  0.38459728185E+01  0.95877535155E+00  0.44113122448E+01  0.51100000000E-03 0. -1.
        -11    1    3    3    0    0 -0.44816840596E+01  0.20614567262E+01  0.59122787516E+01  0.77000088404E+01  0.51100000000E-03 0.  1.
        -12    1    3    3    0    0 -0.17218169098E+02  0.22073846411E+02  0.19349128566E+02  0.34030997910E+02  0.00000000000E+00 0.  1.
</event>
<event>
 7    1  0.2395003E-008  0.4614232E+02  0.7816164E-02  0.1320468E+00
        -11   -1    0    0    0    0  0.00000000000E+00  0.00000000000E+00  0.45593999997E+02  0.45594000000E+02  0.51100000000E-03 0. -1.
         11   -1    0    0    0    0 -0.00000000000E+00 -0.00000000000E+00 -0.45593999997E+02  0.45594000000E+02  0.51100000000E-03 0.  1.
    9900012    2    1    2    0    0  0.58516025778E+01 -0.41361266433E+02  0.16855797231E+02  0.46142317477E+02  0.99999974122E+01 0.  0.
         12    1    1    2    0    0 -0.58516025778E+01  0.41361266433E+02 -0.16855797231E+02  0.45045682523E+02  0.00000000000E+00 0. -1.
         11    1    3    3    0    0  0.41029312160E+01 -0.75249758484E+01  0.52087991340E+01  0.10029501222E+02  0.51100000000E-03 0. -1.
        -11    1    3    3    0    0 -0.14177953656E+00 -0.71565946101E+01  0.62849240569E+00  0.71855376149E+01  0.51100000000E-03 0.  1.
        -12    1    3    3    0    0  0.18904508984E+01 -0.26679695974E+02  0.11018505691E+02  0.28927278640E+02  0.00000000000E+00 0.  1.
</event>
<event>
 7    1  0.2395003E-008  0.4614231E+02  0.7816164E-02  0.1320468E+00
        -11   -1    0    0    0    0  0.00000000000E+00  0.00000000000E+00  0.45593999997E+02  0.45594000000E+02  0.51100000000E-03 0.  1.
         11   -1    0    0    0    0 -0.00000000000E+00 -0.00000000000E+00 -0.45593999997E+02  0.45594000000E+02  0.51100000000E-03 0. -1.
    9900012    2    1    2    0    0 -0.93567710548E+01  0.28045511360E+02  0.33985501875E+02  0.46142309754E+02  0.99999269867E+01 0.  0.
         12    1    1    2    0    0  0.93567710548E+01 -0.28045511360E+02 -0.33985501875E+02  0.45045690246E+02  0.00000000000E+00 0. -1.
         11    1    3    3    0    0 -0.17964586811E+01  0.85566431867E+01  0.11492994833E+02  0.14440648771E+02  0.51100000000E-03 0. -1.
        -11    1    3    3    0    0 -0.43619365041E+01  0.13081071404E+02  0.19629984512E+02  0.23989106097E+02  0.51100000000E-03 0.  1.
         12    1    3    3    0    0 -0.31983758696E+01  0.64077967700E+01  0.28625225299E+01  0.77125548869E+01  0.00000000000E+00 0. -1.
</event>
<event>
 7    1  0.2395003E-008  0.4614232E+02  0.7816164E-02  0.1320468E+00
        -11   -1    0    0    0    0  0.00000000000E+00  0.00000000000E+00  0.45593999997E+02  0.45594000000E+02  0.51100000000E-03 0.  1.
         11   -1    0    0    0    0 -0.00000000000E+00 -0.00000000000E+00 -0.45593999997E+02  0.45594000000E+02  0.51100000000E-03 0. -1.
    9900012    2    1    2    0    0 -0.19360669630E+02 -0.16102408816E+02  0.37349569220E+02  0.46142318530E+02  0.10000007012E+02 0.  0.
         12    1    1    2    0    0  0.19360669630E+02  0.16102408816E+02 -0.37349569220E+02  0.45045681470E+02  0.00000000000E+00 0. -1.
         11    1    3    3    0    0  0.20357935463E+00 -0.33450087449E+00  0.22935653750E+00  0.45380620432E+00  0.51100000000E-03 0. -1.
        -11    1    3    3    0    0 -0.76888284580E+01 -0.36706930519E+01  0.66035535825E+01  0.10779563568E+02  0.51100000000E-03 0.  1.
        -12    1    3    3    0    0 -0.11875420526E+02 -0.12097214889E+02  0.30516659100E+02  0.34908948758E+02  0.00000000000E+00 0.  1.
</event>
<event>
 7    1  0.2395003E-008  0.4614232E+02  0.7816164E-02  0.1320468E+00
        -11   -1    0    0    0    0  0.00000000000E+00  0.00000000000E+00  0.45593999997E+02  0.45594000000E+02  0.51100000000E-03 0.  1.
         11   -1    0    0    0    0 -0.00000000000E+00 -0.00000000000E+00 -0.45593999997E+02  0.45594000000E+02  0.51100000000E-03 0. -1.
    9900012    2    1    2    0    0  0.44394214278E+02  0.20356398125E+01  0.73568539446E+01  0.46142318844E+02  0.10000009878E+02 0.  0.
         12    1    1    2    0    0 -0.44394214278E+02 -0.20356398125E+01 -0.73568539446E+01  0.45045681156E+02  0.00000000000E+00 0. -1.
         11    1    3    3    0    0  0.32095131045E+01 -0.20120245115E+01 -0.68555742451E+00  0.38495722161E+01  0.51100000000E-03 0. -1.
        -11    1    3    3    0    0  0.13404562959E+02  0.26928520620E+01  0.34749161354E+01  0.14107047982E+02  0.51100000000E-03 0.  1.
         12    1    3    3    0    0  0.27780138214E+02  0.13548122620E+01  0.45674952337E+01  0.28185698646E+02  0.00000000000E+00 0. -1.
</event>
<event>
 7    1  0.2395003E-008  0.4614232E+02  0.7816164E-02  0.1320468E+00
        -11   -1    0    0    0    0  0.00000000000E+00  0.00000000000E+00  0.45593999997E+02  0.45594000000E+02  0.51100000000E-03 0. -1.
         11   -1    0    0    0    0 -0.00000000000E+00 -0.00000000000E+00 -0.45593999997E+02  0.45594000000E+02  0.51100000000E-03 0.  1.
    9900012    2    1    2    0    0 -0.40475401815E+02 -0.19422854593E+02 -0.36889114238E+01  0.46142317631E+02  0.99999988134E+01 0.  0.
         12    1    1    2    0    0  0.40475401815E+02  0.19422854593E+02  0.36889114238E+01  0.45045682369E+02  0.00000000000E+00 0. -1.
         11    1    3    3    0    0 -0.31915029844E+02 -0.16005935581E+02 -0.55417622040E+01  0.36131291595E+02  0.51100000000E-03 0.  1.
        -11    1    3    3    0    0 -0.32551632726E+01  0.37160192419E+00  0.18254747126E+00  0.32813868656E+01  0.51100000000E-03 0. -1.
        -12    1    3    3    0    0 -0.53052086980E+01 -0.37885209364E+01  0.16703033089E+01  0.67296391700E+01  0.00000000000E+00 0.  1.
</event>
<event>
 7    1  0.2395003E-008  0.4614232E+02  0.7816164E-02  0.1320468E+00
        -11   -1    0    0    0    0  0.00000000000E+00  0.00000000000E+00  0.45593999997E+02  0.45594000000E+02  0.51100000000E-03 0. -1.
         11   -1    0    0    0    0 -0.00000000000E+00 -0.00000000000E+00 -0.45593999997E+02  0.45594000000E+02  0.51100000000E-03 0.  1.
    9900012    2    1    2    0    0 -0.72265565440E+01  0.78945774605E+01 -0.43755754723E+02  0.46142317142E+02  0.99999943576E+01 0.  0.
         12    1    1    2    0    0  0.72265565440E+01 -0.78945774605E+01  0.43755754723E+02  0.45045682858E+02  0.00000000000E+00 0. -1.
         11    1    3    3    0    0 -0.10831573380E+01  0.35785220902E-01 -0.17339889038E+02  0.17373723335E+02  0.51100000000E-03 0. -1.
        -11    1    3    3    0    0 -0.20670625638E+01  0.11854400510E+00 -0.95177169879E+01  0.97403150487E+01  0.51100000000E-03 0.  1.
         12    1    3    3    0    0 -0.40763366421E+01  0.77402482345E+01 -0.16898148697E+02  0.19028278759E+02  0.00000000000E+00 0. -1.
</event>
<event>
 7    1  0.2557092E-008  0.4614232E+02  0.7816164E-02  0.1320468E+00
        -11   -1    0    0    0    0  0.00000000000E+00  0.00000000000E+00  0.45593999997E+02  0.45594000000E+02  0.51100000000E-03 0. -1.
         11   -1    0    0    0    0 -0.00000000000E+00 -0.00000000000E+00 -0.45593999997E+02  0.45594000000E+02  0.51100000000E-03 0.  1.
    9900012    2    1    2    0    0 -0.20968976751E+02  0.39474483267E+02 -0.55839679502E+01  0.46142317484E+02  0.99999974772E+01 0.  0.
         12    1    1    2    0    0  0.20968976751E+02 -0.39474483267E+02  0.55839679502E+01  0.45045682516E+02  0.00000000000E+00 0. -1.
         11    1    3    3    0    0  0.50082865230E-01  0.20173677448E+00  0.43674256602E+00  0.48368414246E+00  0.51100000000E-03 0.  1.
        -11    1    3    3    0    0  0.34495075953E+00  0.22154366018E+01 -0.13806245263E+01  0.26331112219E+01  0.51100000000E-03 0. -1.
        -12    1    3    3    0    0 -0.21364010376E+02  0.37057309891E+02 -0.46400859899E+01  0.43025522120E+02  0.00000000000E+00 0.  1.
</event>
<event>
 7    1  0.2395003E-008  0.4614232E+02  0.7816164E-02  0.1320468E+00
        -11   -1    0    0    0    0  0.00000000000E+00  0.00000000000E+00  0.45593999997E+02  0.45594000000E+02  0.51100000000E-03 0.  1.
         11   -1    0    0    0    0 -0.00000000000E+00 -0.00000000000E+00 -0.45593999997E+02  0.45594000000E+02  0.51100000000E-03 0. -1.
    9900012    2    1    2    0    0 -0.13715633340E+02  0.35748589742E+02  0.23728314857E+02  0.46142321046E+02  0.10000029955E+02 0.  0.
         12    1    1    2    0    0  0.13715633340E+02 -0.35748589742E+02 -0.23728314857E+02  0.45045678954E+02  0.00000000000E+00 0. -1.
         11    1    3    3    0    0 -0.26960880170E+01  0.60944970231E+01  0.57422742469E+01  0.87969027702E+01  0.51100000000E-03 0. -1.
        -11    1    3    3    0    0 -0.12156975608E+02  0.24851035360E+02  0.14028001485E+02  0.31018556387E+02  0.51100000000E-03 0.  1.
         12    1    3    3    0    0  0.11374302850E+01  0.48030573589E+01  0.39580391252E+01  0.63268618890E+01  0.00000000000E+00 0. -1.
</event>
<event>
 7    1  0.2395003E-008  0.4614232E+02  0.7816164E-02  0.1320468E+00
        -11   -1    0    0    0    0  0.00000000000E+00  0.00000000000E+00  0.45593999997E+02  0.45594000000E+02  0.51100000000E-03 0.  1.
         11   -1    0    0    0    0 -0.00000000000E+00 -0.00000000000E+00 -0.45593999997E+02  0.45594000000E+02  0.51100000000E-03 0. -1.
    9900012    2    1    2    0    0 -0.23976714790E+02  0.16943377910E+02  0.34163614112E+02  0.46142318339E+02  0.10000005267E+02 0.  0.
         12    1    1    2    0    0  0.23976714790E+02 -0.16943377910E+02 -0.34163614112E+02  0.45045681661E+02  0.00000000000E+00 0. -1.
         11    1    3    3    0    0 -0.42970470957E+01  0.81049188475E+00  0.13122080996E+01  0.45654573917E+01  0.51100000000E-03 0. -1.
        -11    1    3    3    0    0 -0.75983545637E+01  0.67691857219E+01  0.12284702709E+02  0.15952140556E+02  0.51100000000E-03 0.  1.
         12    1    3    3    0    0 -0.12081313130E+02  0.93637003035E+01  0.20566703304E+02  0.25624720391E+02  0.00000000000E+00 0. -1.
</event>
<event>
 7    1  0.2395003E-008  0.4614232E+02  0.7816164E-02  0.1320468E+00
        -11   -1    0    0    0    0  0.00000000000E+00  0.00000000000E+00  0.45593999997E+02  0.45594000000E+02  0.51100000000E-03 0. -1.
         11   -1    0    0    0    0 -0.00000000000E+00 -0.00000000000E+00 -0.45593999997E+02  0.45594000000E+02  0.51100000000E-03 0.  1.
    9900012    2    1    2    0    0 -0.16037914542E+02  0.31142388840E+01 -0.41978570002E+02  0.46142317343E+02  0.99999961847E+01 0.  0.
         12    1    1    2    0    0  0.16037914542E+02 -0.31142388840E+01  0.41978570002E+02  0.45045682657E+02  0.00000000000E+00 0. -1.
         11    1    3    3    0    0 -0.13598508265E+02  0.39345861691E+00 -0.29231428894E+02  0.32242063709E+02  0.51100000000E-03 0. -1.
        -11    1    3    3    0    0 -0.34849099382E+01  0.15550603464E+01 -0.73648600872E+01  0.82948161115E+01  0.51100000000E-03 0.  1.
         12    1    3    3    0    0  0.10455036617E+01  0.11657199208E+01 -0.53822810202E+01  0.56054375227E+01  0.00000000000E+00 0. -1.
</event>
<event>
 7    1  0.2395003E-008  0.4614232E+02  0.7816164E-02  0.1320468E+00
        -11   -1    0    0    0    0  0.00000000000E+00  0.00000000000E+00  0.45593999997E+02  0.45594000000E+02  0.51100000000E-03 0.  1.
         11   -1    0    0    0    0 -0.00000000000E+00 -0.00000000000E+00 -0.45593999997E+02  0.45594000000E+02  0.51100000000E-03 0. -1.
    9900012    2    1    2    0    0  0.40889919656E+02 -0.17056556743E+02  0.81364525071E+01  0.46142317445E+02  0.99999971192E+01 0.  0.
         12    1    1    2    0    0 -0.40889919656E+02  0.17056556743E+02 -0.81364525071E+01  0.45045682555E+02  0.00000000000E+00 0. -1.
         11    1    3    3    0    0  0.98495796300E+01 -0.70283747007E+01  0.69643603741E+00  0.12120119357E+02  0.51100000000E-03 0. -1.
        -11    1    3    3    0    0  0.29620814578E+02 -0.99384829840E+01  0.83417721784E+01  0.32338077611E+02  0.51100000000E-03 0.  1.
         12    1    3    3    0    0  0.14195254488E+01 -0.89699058069E-01 -0.90175570874E+00  0.16841204764E+01  0.00000000000E+00 0. -1.
</event>
<event>
 7    1  0.2395003E-008  0.4614232E+02  0.7816164E-02  0.1320468E+00
        -11   -1    0    0    0    0  0.00000000000E+00  0.00000000000E+00  0.45593999997E+02  0.45594000000E+02  0.51100000000E-03 0.  1.
         11   -1    0    0    0    0 -0.00000000000E+00 -0.00000000000E+00 -0.45593999997E+02  0.45594000000E+02  0.51100000000E-03 0. -1.
    9900012    2    1    2    0    0  0.46225117198E+01  0.26313220763E+02  0.36267896246E+02  0.46142317636E+02  0.99999988589E+01 0.  0.
         12    1    1    2    0    0 -0.46225117198E+01 -0.26313220763E+02 -0.36267896246E+02  0.45045682364E+02  0.00000000000E+00 0. -1.
         11    1    3    3    0    0  0.26283623524E+01  0.18793971739E+02  0.17698922221E+02  0.25949441428E+02  0.51100000000E-03 0. -1.
        -11    1    3    3    0    0  0.20510578867E+01  0.70887400930E+01  0.16443256320E+02  0.18023255900E+02  0.51100000000E-03 0.  1.
         12    1    3    3    0    0 -0.56908519349E-01  0.43050893068E+00  0.21257177051E+01  0.21696203080E+01  0.00000000000E+00 0. -1.
</event>
<event>
 7    1  0.2395003E-008  0.4614232E+02  0.7816164E-02  0.1320468E+00
        -11   -1    0    0    0    0  0.00000000000E+00  0.00000000000E+00  0.45593999997E+02  0.45594000000E+02  0.51100000000E-03 0. -1.
         11   -1    0    0    0    0 -0.00000000000E+00 -0.00000000000E+00 -0.45593999997E+02  0.45594000000E+02  0.51100000000E-03 0.  1.
    9900012    2    1    2    0    0 -0.36383177136E+02 -0.10336099310E+02 -0.24465139189E+02  0.46142316933E+02  0.99999924460E+01 0.  0.
         12    1    1    2    0    0  0.36383177136E+02  0.10336099310E+02  0.24465139189E+02  0.45045683067E+02  0.00000000000E+00 0. -1.
         11    1    3    3    0    0 -0.19114057860E+02 -0.76319874966E+01 -0.17455553419E+02  0.26986863220E+02  0.51100000000E-03 0. -1.
        -11    1    3    3    0    0 -0.24401377476E+01 -0.13050728109E+01 -0.20948830166E+01  0.34707380171E+01  0.51100000000E-03 0.  1.
        -12    1    3    3    0    0 -0.14828981529E+02 -0.13990390028E+01 -0.49147027535E+01  0.15684715696E+02  0.00000000000E+00 0.  1.
</event>
<event>
 7    1  0.2395003E-008  0.4614232E+02  0.7816164E-02  0.1320468E+00
        -11   -1    0    0    0    0  0.00000000000E+00  0.00000000000E+00  0.45593999997E+02  0.45594000000E+02  0.51100000000E-03 0. -1.
         11   -1    0    0    0    0 -0.00000000000E+00 -0.00000000000E+00 -0.45593999997E+02  0.45594000000E+02  0.51100000000E-03 0.  1.
    9900012    2    1    2    0    0 -0.17649762274E+02  0.11413735655E+02 -0.39841260541E+02  0.46142317505E+02  0.99999976623E+01 0.  0.
         12    1    1    2    0    0  0.17649762274E+02 -0.11413735655E+02  0.39841260541E+02  0.45045682495E+02  0.00000000000E+00 0. -1.
         11    1    3    3    0    0 -0.61646584068E-01  0.35830447531E+00  0.46823330421E+00  0.59281117284E+00  0.51100000000E-03 0. -1.
        -11    1    3    3    0    0 -0.17282966777E+01 -0.10420281643E+00 -0.23011931198E+01  0.28798190341E+01  0.51100000000E-03 0.  1.
        -12    1    3    3    0    0 -0.15859819012E+02  0.11159633996E+02 -0.38008300726E+02  0.42669687298E+02  0.00000000000E+00 0.  1.
</event>
<event>
 7    1  0.2395003E-008  0.4614232E+02  0.7816164E-02  0.1320468E+00
        -11   -1    0    0    0    0  0.00000000000E+00  0.00000000000E+00  0.45593999997E+02  0.45594000000E+02  0.51100000000E-03 0. -1.
         11   -1    0    0    0    0 -0.00000000000E+00 -0.00000000000E+00 -0.45593999997E+02  0.45594000000E+02  0.51100000000E-03 0.  1.
    9900012    2    1    2    0    0 -0.30461232130E+02 -0.74916335308E+01 -0.32328041085E+02  0.46142317896E+02  0.10000001229E+02 0.  0.
         12    1    1    2    0    0  0.30461232130E+02  0.74916335308E+01  0.32328041085E+02  0.45045682104E+02  0.00000000000E+00 0. -1.
         11    1    3    3    0    0 -0.95020046826E+01 -0.16633591495E+01 -0.90774482429E+01  0.13245939888E+02  0.51100000000E-03 0. -1.
        -11    1    3    3    0    0 -0.17180760056E+02 -0.55496627823E+01 -0.13831829150E+02  0.22744159052E+02  0.51100000000E-03 0.  1.
         12    1    3    3    0    0 -0.37784673921E+01 -0.27861159904E+00 -0.94187636913E+01  0.10152218956E+02  0.00000000000E+00 0. -1.
</event>
<event>
 7    1  0.2395003E-008  0.4614232E+02  0.7816164E-02  0.1320468E+00
        -11   -1    0    0    0    0  0.00000000000E+00  0.00000000000E+00  0.45593999997E+02  0.45594000000E+02  0.51100000000E-03 0.  1.
         11   -1    0    0    0    0 -0.00000000000E+00 -0.00000000000E+00 -0.45593999997E+02  0.45594000000E+02  0.51100000000E-03 0. -1.
    9900012    2    1    2    0    0 -0.55235217047E+01 -0.43366962871E+02 -0.10858671179E+02  0.46142317627E+02  0.99999987800E+01 0.  0.
         12    1    1    2    0    0  0.55235217047E+01  0.43366962871E+02  0.10858671179E+02  0.45045682373E+02  0.00000000000E+00 0. -1.
         11    1    3    3    0    0 -0.20825527106E+01 -0.86743312958E+01 -0.95851874255E+00  0.89721685040E+01  0.51100000000E-03 0. -1.
        -11    1    3    3    0    0 -0.41255914579E+01 -0.16109947547E+02 -0.80715884738E+01  0.18485168530E+02  0.51100000000E-03 0.  1.
        -12    1    3    3    0    0  0.68462246376E+00 -0.18582684028E+02 -0.18285639629E+01  0.18684980593E+02  0.00000000000E+00 0.  1.
</event>
<event>
 7    1  0.2395003E-008  0.4614232E+02  0.7816164E-02  0.1320468E+00
        -11   -1    0    0    0    0  0.00000000000E+00  0.00000000000E+00  0.45593999997E+02  0.45594000000E+02  0.51100000000E-03 0.  1.
         11   -1    0    0    0    0 -0.00000000000E+00 -0.00000000000E+00 -0.45593999997E+02  0.45594000000E+02  0.51100000000E-03 0. -1.
    9900012    2    1    2    0    0  0.26261620632E+02  0.28705056673E+02  0.22703754244E+02  0.46142318147E+02  0.10000003520E+02 0.  0.
         12    1    1    2    0    0 -0.26261620632E+02 -0.28705056673E+02 -0.22703754244E+02  0.45045681853E+02  0.00000000000E+00 0. -1.
         11    1    3    3    0    0  0.12463713572E+01  0.13907019323E+01  0.24136438215E+01  0.30517487090E+01  0.51100000000E-03 0. -1.
        -11    1    3    3    0    0  0.17417685312E+02  0.12745884236E+02  0.11377251779E+02  0.24398261924E+02  0.51100000000E-03 0.  1.
         12    1    3    3    0    0  0.75975639624E+01  0.14568470505E+02  0.89128586440E+01  0.18692307515E+02  0.00000000000E+00 0. -1.
</event>
<event>
 7    1  0.2395003E-008  0.4614232E+02  0.7816164E-02  0.1320468E+00
        -11   -1    0    0    0    0  0.00000000000E+00  0.00000000000E+00  0.45593999997E+02  0.45594000000E+02  0.51100000000E-03 0.  1.
         11   -1    0    0    0    0 -0.00000000000E+00 -0.00000000000E+00 -0.45593999997E+02  0.45594000000E+02  0.51100000000E-03 0. -1.
    9900012    2    1    2    0    0  0.22707480901E+02 -0.32466449973E+02  0.21433928753E+02  0.46142319136E+02  0.10000012535E+02 0.  0.
         12    1    1    2    0    0 -0.22707480901E+02  0.32466449973E+02 -0.21433928753E+02  0.45045680864E+02  0.00000000000E+00 0. -1.
         11    1    3    3    0    0  0.46138016150E+01 -0.24708391805E+01  0.30592253728E+01  0.60622662216E+01  0.51100000000E-03 0. -1.
        -11    1    3    3    0    0  0.28504528517E+01 -0.47469790891E+01  0.57981372513E+01  0.80173117551E+01  0.51100000000E-03 0.  1.
         12    1    3    3    0    0  0.15243226435E+02 -0.25248631704E+02  0.12576566129E+02  0.32062741159E+02  0.00000000000E+00 0. -1.
</event>
<event>
 7    1  0.2395003E-008  0.4614232E+02  0.7816164E-02  0.1320468E+00
        -11   -1    0    0    0    0  0.00000000000E+00  0.00000000000E+00  0.45593999997E+02  0.45594000000E+02  0.51100000000E-03 0. -1.
         11   -1    0    0    0    0 -0.00000000000E+00 -0.00000000000E+00 -0.45593999997E+02  0.45594000000E+02  0.51100000000E-03 0.  1.
    9900012    2    1    2    0    0  0.11410435045E+02  0.76136526570E+01 -0.42906268060E+02  0.46142316816E+02  0.99999913772E+01 0.  0.
         12    1    1    2    0    0 -0.11410435045E+02 -0.76136526570E+01  0.42906268060E+02  0.45045683184E+02  0.00000000000E+00 0. -1.
         11    1    3    3    0    0  0.25291811318E+01 -0.91288747443E-01 -0.26514564706E+01  0.36654211913E+01  0.51100000000E-03 0. -1.
        -11    1    3    3    0    0  0.78867197693E+01  0.35197542536E+01 -0.32285526281E+02  0.33420715525E+02  0.51100000000E-03 0.  1.
        -12    1    3    3    0    0  0.99453414344E+00  0.41851871508E+01 -0.79692853091E+01  0.90561800991E+01  0.00000000000E+00 0.  1.
</event>
<event>
 7    1  0.2395003E-008  0.4614231E+02  0.7816164E-02  0.1320468E+00
        -11   -1    0    0    0    0  0.00000000000E+00  0.00000000000E+00  0.45593999997E+02  0.45594000000E+02  0.51100000000E-03 0. -1.
         11   -1    0    0    0    0 -0.00000000000E+00 -0.00000000000E+00 -0.45593999997E+02  0.45594000000E+02  0.51100000000E-03 0.  1.
    9900012    2    1    2    0    0  0.28806474240E+02  0.29719985229E+02 -0.17777045272E+02  0.46142314094E+02  0.99999665577E+01 0.  0.
         12    1    1    2    0    0 -0.28806474240E+02 -0.29719985229E+02  0.17777045272E+02  0.45045685906E+02  0.00000000000E+00 0. -1.
         11    1    3    3    0    0  0.17601117416E+02  0.19129539397E+02 -0.74748881272E+01  0.27048337557E+02  0.51100000000E-03 0. -1.
        -11    1    3    3    0    0  0.84608003054E+01  0.63459798054E+01 -0.47751322755E+01  0.11604244482E+02  0.51100000000E-03 0.  1.
         12    1    3    3    0    0  0.27445565190E+01  0.42444660267E+01 -0.55270248695E+01  0.74897320544E+01  0.00000000000E+00 0. -1.
</event>
<event>
 7    1  0.2395003E-008  0.4614232E+02  0.7816164E-02  0.1320468E+00
        -11   -1    0    0    0    0  0.00000000000E+00  0.00000000000E+00  0.45593999997E+02  0.45594000000E+02  0.51100000000E-03 0. -1.
         11   -1    0    0    0    0 -0.00000000000E+00 -0.00000000000E+00 -0.45593999997E+02  0.45594000000E+02  0.51100000000E-03 0.  1.
    9900012    2    1    2    0    0 -0.35865002441E+01  0.20196891904E+02 -0.40104065547E+02  0.46142317632E+02  0.99999988251E+01 0.  0.
         12    1    1    2    0    0  0.35865002441E+01 -0.20196891904E+02  0.40104065547E+02  0.45045682368E+02  0.00000000000E+00 0. -1.
         11    1    3    3    0    0  0.11480597984E+01  0.12059956228E+01 -0.27244330362E+01  0.31929613798E+01  0.51100000000E-03 0. -1.
        -11    1    3    3    0    0 -0.14867676467E+00  0.69670306449E+01 -0.20957763434E+02  0.22085956380E+02  0.51100000000E-03 0.  1.
         12    1    3    3    0    0 -0.45858832778E+01  0.12023865636E+02 -0.16421869076E+02  0.20863399873E+02  0.00000000000E+00 0. -1.
</event>
<event>
 7    1  0.2395003E-008  0.4614232E+02  0.7816164E-02  0.1320468E+00
        -11   -1    0    0    0    0  0.00000000000E+00  0.00000000000E+00  0.45593999997E+02  0.45594000000E+02  0.51100000000E-03 0.  1.
         11   -1    0    0    0    0 -0.00000000000E+00 -0.00000000000E+00 -0.45593999997E+02  0.45594000000E+02  0.51100000000E-03 0. -1.
    9900012    2    1    2    0    0 -0.14252547600E+02 -0.17642672622E+02  0.38919331483E+02  0.46142319037E+02  0.10000011636E+02 0.  0.
         12    1    1    2    0    0  0.14252547600E+02  0.17642672622E+02 -0.38919331483E+02  0.45045680963E+02  0.00000000000E+00 0. -1.
         11    1    3    3    0    0 -0.18549016251E+01 -0.11745123636E+00  0.73544942060E+00  0.19988348964E+01  0.51100000000E-03 0. -1.
        -11    1    3    3    0    0 -0.39021819080E+01 -0.54419578415E+01  0.17411838195E+02  0.18655134370E+02  0.51100000000E-03 0.  1.
        -12    1    3    3    0    0 -0.84954640670E+01 -0.12083263544E+02  0.20772043867E+02  0.25488349770E+02  0.00000000000E+00 0.  1.
</event>
<event>
 7    1  0.2395003E-008  0.4614232E+02  0.7816164E-02  0.1320468E+00
        -11   -1    0    0    0    0  0.00000000000E+00  0.00000000000E+00  0.45593999997E+02  0.45594000000E+02  0.51100000000E-03 0.  1.
         11   -1    0    0    0    0 -0.00000000000E+00 -0.00000000000E+00 -0.45593999997E+02  0.45594000000E+02  0.51100000000E-03 0. -1.
    9900012    2    1    2    0    0  0.23748630718E+02 -0.19871149066E+02  0.32714728449E+02  0.46142317813E+02  0.10000000471E+02 0.  0.
         12    1    1    2    0    0 -0.23748630718E+02  0.19871149066E+02 -0.32714728449E+02  0.45045682187E+02  0.00000000000E+00 0. -1.
         11    1    3    3    0    0 -0.52400722112E+00 -0.81385618267E+00  0.22116393839E+01  0.24141860904E+01  0.51100000000E-03 0. -1.
        -11    1    3    3    0    0  0.12714212053E+02 -0.90784724507E+01  0.19069796880E+02  0.24652119655E+02  0.51100000000E-03 0.  1.
         12    1    3    3    0    0  0.11558425887E+02 -0.99788204330E+01  0.11433292185E+02  0.19076012067E+02  0.00000000000E+00 0. -1.
</event>
<event>
 7    1  0.2395003E-008  0.4614232E+02  0.7816164E-02  0.1320468E+00
        -11   -1    0    0    0    0  0.00000000000E+00  0.00000000000E+00  0.45593999997E+02  0.45594000000E+02  0.51100000000E-03 0.  1.
         11   -1    0    0    0    0 -0.00000000000E+00 -0.00000000000E+00 -0.45593999997E+02  0.45594000000E+02  0.51100000000E-03 0. -1.
    9900012    2    1    2    0    0  0.12330546262E+02  0.89881217916E+01  0.42382600254E+02  0.46142317535E+02  0.99999979345E+01 0.  0.
         12    1    1    2    0    0 -0.12330546262E+02 -0.89881217916E+01 -0.42382600254E+02  0.45045682465E+02  0.00000000000E+00 0. -1.
         11    1    3    3    0    0  0.40395658422E+01  0.49717405360E+01  0.10718653272E+02  0.12487026242E+02  0.51100000000E-03 0. -1.
        -11    1    3    3    0    0  0.58502033265E+01  0.56287418206E+01  0.26553877928E+02  0.27767175707E+02  0.51100000000E-03 0.  1.
         12    1    3    3    0    0  0.24407770929E+01 -0.16123605650E+01  0.51100690546E+01  0.58881155857E+01  0.00000000000E+00 0. -1.
</event>
<event>
 7    1  0.2395003E-008  0.4614232E+02  0.7816164E-02  0.1320468E+00
        -11   -1    0    0    0    0  0.00000000000E+00  0.00000000000E+00  0.45593999997E+02  0.45594000000E+02  0.51100000000E-03 0.  1.
         11   -1    0    0    0    0 -0.00000000000E+00 -0.00000000000E+00 -0.45593999997E+02  0.45594000000E+02  0.51100000000E-03 0. -1.
    9900012    2    1    2    0    0 -0.16160492636E+02  0.41043068450E+02  0.91333684666E+01  0.46142318635E+02  0.10000007973E+02 0.  0.
         12    1    1    2    0    0  0.16160492636E+02 -0.41043068450E+02 -0.91333684666E+01  0.45045681365E+02  0.00000000000E+00 0. -1.
         11    1    3    3    0    0 -0.15549415613E+01  0.45500902510E+01 -0.81245049485E-01  0.48091335571E+01  0.51100000000E-03 0. -1.
        -11    1    3    3    0    0 -0.64349403545E+01  0.23076751825E+02  0.90917411935E+01  0.25624298826E+02  0.51100000000E-03 0.  1.
         12    1    3    3    0    0 -0.81706107202E+01  0.13416226375E+02  0.12287232259E+00  0.15708886252E+02  0.00000000000E+00 0. -1.
</event>
<event>
 7    1  0.2395003E-008  0.4614232E+02  0.7816164E-02  0.1320468E+00
        -11   -1    0    0    0    0  0.00000000000E+00  0.00000000000E+00  0.45593999997E+02  0.45594000000E+02  0.51100000000E-03 0.  1.
         11   -1    0    0    0    0 -0.00000000000E+00 -0.00000000000E+00 -0.45593999997E+02  0.45594000000E+02  0.51100000000E-03 0. -1.
    9900012    2    1    2    0    0  0.44014032384E+02  0.38289179186E+00  0.95776726805E+01  0.46142318001E+02  0.10000002187E+02 0.  0.
         12    1    1    2    0    0 -0.44014032384E+02 -0.38289179186E+00 -0.95776726805E+01  0.45045681999E+02  0.00000000000E+00 0. -1.
         11    1    3    3    0    0  0.16487282456E+02 -0.28453320169E+00  0.24648928332E+01  0.16672946316E+02  0.51100000000E-03 0. -1.
        -11    1    3    3    0    0  0.24767792214E+02  0.18619530727E+01  0.40285618781E+01  0.25162267614E+02  0.51100000000E-03 0.  1.
         12    1    3    3    0    0  0.27589577140E+01 -0.11945280791E+01  0.30842179693E+01  0.43071040714E+01  0.00000000000E+00 0. -1.
</event>
<event>
 7    1  0.2395003E-008  0.4614232E+02  0.7816164E-02  0.1320468E+00
        -11   -1    0    0    0    0  0.00000000000E+00  0.00000000000E+00  0.45593999997E+02  0.45594000000E+02  0.51100000000E-03 0.  1.
         11   -1    0    0    0    0 -0.00000000000E+00 -0.00000000000E+00 -0.45593999997E+02  0.45594000000E+02  0.51100000000E-03 0. -1.
    9900012    2    1    2    0    0 -0.11604124632E+02  0.40000625376E+02  0.17158314912E+02  0.46142317526E+02  0.99999978569E+01 0.  0.
         12    1    1    2    0    0  0.11604124632E+02 -0.40000625376E+02 -0.17158314912E+02  0.45045682474E+02  0.00000000000E+00 0. -1.
         11    1    3    3    0    0 -0.16951274244E+01  0.21810180408E+01 -0.63813663633E+00  0.28350512000E+01  0.51100000000E-03 0. -1.
        -11    1    3    3    0    0 -0.51251585112E+01  0.16099177085E+02  0.10535708738E+02  0.19911100207E+02  0.51100000000E-03 0.  1.
        -12    1    3    3    0    0 -0.47838386963E+01  0.21720430250E+02  0.72607428102E+01  0.23396166119E+02  0.00000000000E+00 0.  1.
</event>
<event>
 7    1  0.2395003E-008  0.4614232E+02  0.7816164E-02  0.1320468E+00
        -11   -1    0    0    0    0  0.00000000000E+00  0.00000000000E+00  0.45593999997E+02  0.45594000000E+02  0.51100000000E-03 0.  1.
         11   -1    0    0    0    0 -0.00000000000E+00 -0.00000000000E+00 -0.45593999997E+02  0.45594000000E+02  0.51100000000E-03 0. -1.
    9900012    2    1    2    0    0 -0.36823392970E+02 -0.12617655437E+02  0.22670376121E+02  0.46142318165E+02  0.10000003680E+02 0.  0.
         12    1    1    2    0    0  0.36823392970E+02  0.12617655437E+02 -0.22670376121E+02  0.45045681835E+02  0.00000000000E+00 0. -1.
         11    1    3    3    0    0 -0.61832290198E+01 -0.59136596102E+01  0.48255208197E+01  0.98228988867E+01  0.51100000000E-03 0. -1.
        -11    1    3    3    0    0 -0.16874411465E+02 -0.57186771242E+01  0.94970402876E+01  0.20190166043E+02  0.51100000000E-03 0.  1.
        -12    1    3    3    0    0 -0.13765752485E+02 -0.98531870239E+00  0.83478150133E+01  0.16129253235E+02  0.00000000000E+00 0.  1.
</event>
<event>
 7    1  0.2395003E-008  0.4614232E+02  0.7816164E-02  0.1320468E+00
        -11   -1    0    0    0    0  0.00000000000E+00  0.00000000000E+00  0.45593999997E+02  0.45594000000E+02  0.51100000000E-03 0.  1.
         11   -1    0    0    0    0 -0.00000000000E+00 -0.00000000000E+00 -0.45593999997E+02  0.45594000000E+02  0.51100000000E-03 0. -1.
    9900012    2    1    2    0    0  0.92521512451E+01 -0.75467719551E+01  0.43434515764E+02  0.46142320637E+02  0.10000026227E+02 0.  0.
         12    1    1    2    0    0 -0.92521512451E+01  0.75467719551E+01 -0.43434515764E+02  0.45045679363E+02  0.00000000000E+00 0. -1.
         11    1    3    3    0    0  0.14424765911E+01 -0.48580634070E+01  0.24939979190E+02  0.25449638132E+02  0.51100000000E-03 0. -1.
        -11    1    3    3    0    0  0.92178417373E+00 -0.99642182845E+00  0.74087813408E+01  0.75321035401E+01  0.51100000000E-03 0.  1.
        -12    1    3    3    0    0  0.68878904803E+01 -0.16922867196E+01  0.11085755233E+02  0.13160578965E+02  0.00000000000E+00 0.  1.
</event>
<event>
 7    1  0.2395003E-008  0.4614232E+02  0.7816164E-02  0.1320468E+00
        -11   -1    0    0    0    0  0.00000000000E+00  0.00000000000E+00  0.45593999997E+02  0.45594000000E+02  0.51100000000E-03 0. -1.
         11   -1    0    0    0    0 -0.00000000000E+00 -0.00000000000E+00 -0.45593999997E+02  0.45594000000E+02  0.51100000000E-03 0.  1.
    9900012    2    1    2    0    0  0.26571411447E+00  0.89548828052E+01 -0.44145814980E+02  0.46142317518E+02  0.99999977816E+01 0.  0.
         12    1    1    2    0    0 -0.26571411447E+00 -0.89548828052E+01  0.44145814980E+02  0.45045682482E+02  0.00000000000E+00 0. -1.
         11    1    3    3    0    0  0.46935440438E+00  0.98831898426E-01  0.19057510147E+00  0.51612055905E+00  0.51100000000E-03 0. -1.
        -11    1    3    3    0    0  0.28346599612E+01  0.41022442945E+01 -0.24545191896E+02  0.25046559660E+02  0.51100000000E-03 0.  1.
         12    1    3    3    0    0 -0.30383002511E+01  0.47538066122E+01 -0.19791198186E+02  0.20579637299E+02  0.00000000000E+00 0. -1.
</event>
<event>
 7    1  0.2395003E-008  0.4614232E+02  0.7816164E-02  0.1320468E+00
        -11   -1    0    0    0    0  0.00000000000E+00  0.00000000000E+00  0.45593999997E+02  0.45594000000E+02  0.51100000000E-03 0. -1.
         11   -1    0    0    0    0 -0.00000000000E+00 -0.00000000000E+00 -0.45593999997E+02  0.45594000000E+02  0.51100000000E-03 0.  1.
    9900012    2    1    2    0    0  0.18959909794E+02  0.39626208377E+02 -0.99699018251E+01  0.46142317497E+02  0.99999975932E+01 0.  0.
         12    1    1    2    0    0 -0.18959909794E+02 -0.39626208377E+02  0.99699018251E+01  0.45045682503E+02  0.00000000000E+00 0. -1.
         11    1    3    3    0    0  0.65094665933E+01  0.12354771675E+02 -0.26249680236E+01  0.14209292588E+02  0.51100000000E-03 0. -1.
        -11    1    3    3    0    0  0.12516433401E+02  0.18799885061E+02 -0.58458028172E+01  0.23329599101E+02  0.51100000000E-03 0.  1.
         12    1    3    3    0    0 -0.65990200726E-01  0.84715516418E+01 -0.14991309843E+01  0.86034258080E+01  0.00000000000E+00 0. -1.
</event>
<event>
 7    1  0.2395003E-008  0.4614232E+02  0.7816164E-02  0.1320468E+00
        -11   -1    0    0    0    0  0.00000000000E+00  0.00000000000E+00  0.45593999997E+02  0.45594000000E+02  0.51100000000E-03 0.  1.
         11   -1    0    0    0    0 -0.00000000000E+00 -0.00000000000E+00 -0.45593999997E+02  0.45594000000E+02  0.51100000000E-03 0. -1.
    9900012    2    1    2    0    0 -0.54343580808E+01  0.29738874509E+02  0.33394319465E+02  0.46142317883E+02  0.10000001114E+02 0.  0.
         12    1    1    2    0    0  0.54343580808E+01 -0.29738874509E+02 -0.33394319465E+02  0.45045682117E+02  0.00000000000E+00 0. -1.
         11    1    3    3    0    0 -0.49609479884E+00  0.25194781470E+01  0.62658631298E+01  0.67716261861E+01  0.51100000000E-03 0. -1.
        -11    1    3    3    0    0 -0.28421104543E+01  0.17492839626E+02  0.21763914431E+02  0.28066795358E+02  0.51100000000E-03 0.  1.
        -12    1    3    3    0    0 -0.20961528276E+01  0.97265567357E+01  0.53645419043E+01  0.11303896339E+02  0.00000000000E+00 0.  1.
</event>
<event>
 7    1  0.2395003E-008  0.4614232E+02  0.7816164E-02  0.1320468E+00
        -11   -1    0    0    0    0  0.00000000000E+00  0.00000000000E+00  0.45593999997E+02  0.45594000000E+02  0.51100000000E-03 0.  1.
         11   -1    0    0    0    0 -0.00000000000E+00 -0.00000000000E+00 -0.45593999997E+02  0.45594000000E+02  0.51100000000E-03 0. -1.
    9900012    2    1    2    0    0  0.20536679930E+02  0.19679140547E+02  0.34929782411E+02  0.46142317693E+02  0.99999993796E+01 0.  0.
         12    1    1    2    0    0 -0.20536679930E+02 -0.19679140547E+02 -0.34929782411E+02  0.45045682307E+02  0.00000000000E+00 0. -1.
         11    1    3    3    0    0  0.38550586394E+01  0.18041488513E+01  0.20424123899E+01  0.47210040057E+01  0.51100000000E-03 0. -1.
        -11    1    3    3    0    0 -0.37323550228E+00  0.80792374714E+00  0.22792178478E+01  0.24468101235E+01  0.51100000000E-03 0.  1.
        -12    1    3    3    0    0  0.17054856793E+02  0.17067067948E+02  0.30608152173E+02  0.38974503564E+02  0.00000000000E+00 0.  1.
</event>
<event>
 7    1  0.2395003E-008  0.4614232E+02  0.7816164E-02  0.1320468E+00
        -11   -1    0    0    0    0  0.00000000000E+00  0.00000000000E+00  0.45593999997E+02  0.45594000000E+02  0.51100000000E-03 0.  1.
         11   -1    0    0    0    0 -0.00000000000E+00 -0.00000000000E+00 -0.45593999997E+02  0.45594000000E+02  0.51100000000E-03 0. -1.
    9900012    2    1    2    0    0 -0.27507091821E+02  0.41856782325E+01  0.35425322869E+02  0.46142317598E+02  0.99999985114E+01 0.  0.
         12    1    1    2    0    0  0.27507091821E+02 -0.41856782325E+01 -0.35425322869E+02  0.45045682402E+02  0.00000000000E+00 0. -1.
         11    1    3    3    0    0 -0.75070320809E+01  0.25071143090E+01  0.84258984356E+01  0.11560143491E+02  0.51100000000E-03 0. -1.
        -11    1    3    3    0    0 -0.90680035210E+01 -0.25558610325E+01  0.85471922751E+01  0.12720676457E+02  0.51100000000E-03 0.  1.
         12    1    3    3    0    0 -0.10932056219E+02  0.42344249560E+01  0.18452232158E+02  0.21861497650E+02  0.00000000000E+00 0. -1.
</event>
<event>
 7    1  0.2395003E-008  0.4614232E+02  0.7816164E-02  0.1320468E+00
        -11   -1    0    0    0    0  0.00000000000E+00  0.00000000000E+00  0.45593999997E+02  0.45594000000E+02  0.51100000000E-03 0.  1.
         11   -1    0    0    0    0 -0.00000000000E+00 -0.00000000000E+00 -0.45593999997E+02  0.45594000000E+02  0.51100000000E-03 0. -1.
    9900012    2    1    2    0    0 -0.14373789109E+02 -0.62565719103E+01  0.42229882716E+02  0.46142317637E+02  0.99999988643E+01 0.  0.
         12    1    1    2    0    0  0.14373789109E+02  0.62565719103E+01 -0.42229882716E+02  0.45045682363E+02  0.00000000000E+00 0. -1.
         11    1    3    3    0    0  0.71163513280E+00 -0.20518486398E+01  0.76786707905E+01  0.79798804986E+01  0.51100000000E-03 0. -1.
        -11    1    3    3    0    0 -0.39391138491E+00  0.62172725892E+00  0.13913369195E+01  0.15740170419E+01  0.51100000000E-03 0.  1.
        -12    1    3    3    0    0 -0.14691512857E+02 -0.48264505294E+01  0.33159875006E+02  0.36588420096E+02  0.00000000000E+00 0.  1.
</event>
<event>
 7    1  0.2395003E-008  0.4614231E+02  0.7816164E-02  0.1320468E+00
        -11   -1    0    0    0    0  0.00000000000E+00  0.00000000000E+00  0.45593999997E+02  0.45594000000E+02  0.51100000000E-03 0. -1.
         11   -1    0    0    0    0 -0.00000000000E+00 -0.00000000000E+00 -0.45593999997E+02  0.45594000000E+02  0.51100000000E-03 0.  1.
    9900012    2    1    2    0    0  0.39685984337E+02  0.16725786191E+02 -0.13205499145E+02  0.46142306707E+02  0.99998992018E+01 0.  0.
         12    1    1    2    0    0 -0.39685984337E+02 -0.16725786191E+02  0.13205499145E+02  0.45045693293E+02  0.00000000000E+00 0. -1.
         11    1    3    3    0    0  0.90956960394E+01  0.57217116650E+01 -0.19398107084E+01  0.10919365213E+02  0.51100000000E-03 0. -1.
        -11    1    3    3    0    0  0.21487870430E+02  0.11219941088E+02 -0.75544788328E+01  0.25390663724E+02  0.51100000000E-03 0.  1.
        -12    1    3    3    0    0  0.91024178683E+01 -0.21586656246E+00 -0.37112096042E+01  0.98322777701E+01  0.00000000000E+00 0.  1.
</event>
<event>
 7    1  0.2395003E-008  0.4614232E+02  0.7816164E-02  0.1320468E+00
        -11   -1    0    0    0    0  0.00000000000E+00  0.00000000000E+00  0.45593999997E+02  0.45594000000E+02  0.51100000000E-03 0.  1.
         11   -1    0    0    0    0 -0.00000000000E+00 -0.00000000000E+00 -0.45593999997E+02  0.45594000000E+02  0.51100000000E-03 0. -1.
    9900012    2    1    2    0    0  0.22400683379E+02 -0.29008778937E+02  0.26188044020E+02  0.46142317401E+02  0.99999967117E+01 0.  0.
         12    1    1    2    0    0 -0.22400683379E+02  0.29008778937E+02 -0.26188044020E+02  0.45045682599E+02  0.00000000000E+00 0. -1.
         11    1    3    3    0    0  0.10916238891E+02 -0.16386697057E+02  0.17463871909E+02  0.26318718325E+02  0.51100000000E-03 0. -1.
        -11    1    3    3    0    0  0.10908449164E+02 -0.98082494497E+01  0.84723793811E+01  0.16940402388E+02  0.51100000000E-03 0.  1.
         12    1    3    3    0    0  0.57599532384E+00 -0.28138324300E+01  0.25179272985E+00  0.28831966870E+01  0.00000000000E+00 0. -1.
</event>
<event>
 7    1  0.2395003E-008  0.4614232E+02  0.7816164E-02  0.1320468E+00
        -11   -1    0    0    0    0  0.00000000000E+00  0.00000000000E+00  0.45593999997E+02  0.45594000000E+02  0.51100000000E-03 0.  1.
         11   -1    0    0    0    0 -0.00000000000E+00 -0.00000000000E+00 -0.45593999997E+02  0.45594000000E+02  0.51100000000E-03 0. -1.
    9900012    2    1    2    0    0 -0.16655071116E+02  0.15651342130E+02  0.38816976053E+02  0.46142317251E+02  0.99999953521E+01 0.  0.
         12    1    1    2    0    0  0.16655071116E+02 -0.15651342130E+02 -0.38816976053E+02  0.45045682749E+02  0.00000000000E+00 0. -1.
         11    1    3    3    0    0 -0.84469068338E+01  0.77681912261E+01  0.18747561570E+02  0.21981039445E+02  0.51100000000E-03 0. -1.
        -11    1    3    3    0    0 -0.31773390286E+01  0.73852722969E+01  0.95023317128E+01  0.12447169897E+02  0.51100000000E-03 0.  1.
        -12    1    3    3    0    0 -0.50308252540E+01  0.49787860685E+00  0.10567082770E+02  0.11714107909E+02  0.00000000000E+00 0.  1.
</event>
<event>
 7    1  0.2395003E-008  0.4614231E+02  0.7816164E-02  0.1320468E+00
        -11   -1    0    0    0    0  0.00000000000E+00  0.00000000000E+00  0.45593999997E+02  0.45594000000E+02  0.51100000000E-03 0. -1.
         11   -1    0    0    0    0 -0.00000000000E+00 -0.00000000000E+00 -0.45593999997E+02  0.45594000000E+02  0.51100000000E-03 0.  1.
    9900012    2    1    2    0    0  0.11775853659E+00 -0.95013193452E+01 -0.44032088570E+02  0.46142314744E+02  0.99999724864E+01 0.  0.
         12    1    1    2    0    0 -0.11775853659E+00  0.95013193452E+01  0.44032088570E+02  0.45045685256E+02  0.00000000000E+00 0. -1.
         11    1    3    3    0    0 -0.93528588191E+00  0.16435697333E+01 -0.67664312721E+01  0.70257151643E+01  0.51100000000E-03 0. -1.
        -11    1    3    3    0    0  0.17564099873E+01 -0.17995146369E+01 -0.82992206968E+01  0.86718102727E+01  0.51100000000E-03 0.  1.
         12    1    3    3    0    0 -0.70336556878E+00 -0.93453744416E+01 -0.28966436601E+02  0.30444789307E+02  0.00000000000E+00 0. -1.
</event>
<event>
 7    1  0.2395003E-008  0.4614232E+02  0.7816164E-02  0.1320468E+00
        -11   -1    0    0    0    0  0.00000000000E+00  0.00000000000E+00  0.45593999997E+02  0.45594000000E+02  0.51100000000E-03 0.  1.
         11   -1    0    0    0    0 -0.00000000000E+00 -0.00000000000E+00 -0.45593999997E+02  0.45594000000E+02  0.51100000000E-03 0. -1.
    9900012    2    1    2    0    0 -0.42053746236E+02  0.82010846250E+01  0.13904603603E+02  0.46142319154E+02  0.10000012699E+02 0.  0.
         12    1    1    2    0    0  0.42053746236E+02 -0.82010846250E+01 -0.13904603603E+02  0.45045680846E+02  0.00000000000E+00 0. -1.
         11    1    3    3    0    0 -0.20662201443E+01  0.12114168513E+01 -0.90519768559E+00  0.25605037753E+01  0.51100000000E-03 0. -1.
        -11    1    3    3    0    0 -0.11925322158E+02  0.29395138225E+01  0.19009832774E+01  0.12428507061E+02  0.51100000000E-03 0.  1.
         12    1    3    3    0    0 -0.28062203934E+02  0.40501539512E+01  0.12908818011E+02  0.31153308317E+02  0.00000000000E+00 0. -1.
</event>
<event>
 7    1  0.2395003E-008  0.4614232E+02  0.7816164E-02  0.1320468E+00
        -11   -1    0    0    0    0  0.00000000000E+00  0.00000000000E+00  0.45593999997E+02  0.45594000000E+02  0.51100000000E-03 0. -1.
         11   -1    0    0    0    0 -0.00000000000E+00 -0.00000000000E+00 -0.45593999997E+02  0.45594000000E+02  0.51100000000E-03 0.  1.
    9900012    2    1    2    0    0  0.11023500551E+02  0.40363589579E+01 -0.43489123756E+02  0.46142316043E+02  0.99999843349E+01 0.  0.
         12    1    1    2    0    0 -0.11023500551E+02 -0.40363589579E+01  0.43489123756E+02  0.45045683957E+02  0.00000000000E+00 0. -1.
         11    1    3    3    0    0  0.44542673756E+01  0.96172512753E+00 -0.24219727328E+02  0.24644687160E+02  0.51100000000E-03 0. -1.
        -11    1    3    3    0    0  0.27497815927E+01  0.51757174242E+00 -0.14884251344E+02  0.15144970045E+02  0.51100000000E-03 0.  1.
        -12    1    3    3    0    0  0.38194515832E+01  0.25570620880E+01 -0.43851450837E+01  0.63526588389E+01  0.00000000000E+00 0.  1.
</event>
<event>
 7    1  0.2395003E-008  0.4614232E+02  0.7816164E-02  0.1320468E+00
        -11   -1    0    0    0    0  0.00000000000E+00  0.00000000000E+00  0.45593999997E+02  0.45594000000E+02  0.51100000000E-03 0.  1.
         11   -1    0    0    0    0 -0.00000000000E+00 -0.00000000000E+00 -0.45593999997E+02  0.45594000000E+02  0.51100000000E-03 0. -1.
    9900012    2    1    2    0    0  0.15530562745E+02  0.13631770929E+02  0.40026114862E+02  0.46142318422E+02  0.10000006029E+02 0.  0.
         12    1    1    2    0    0 -0.15530562745E+02 -0.13631770929E+02 -0.40026114862E+02  0.45045681578E+02  0.00000000000E+00 0. -1.
         11    1    3    3    0    0 -0.66670742757E+00 -0.91651276529E-01  0.58887444262E+00  0.89424388215E+00  0.51100000000E-03 0. -1.
        -11    1    3    3    0    0 -0.38050734786E+00  0.66918375613E+00  0.34157027582E+01  0.35013737782E+01  0.51100000000E-03 0.  1.
         12    1    3    3    0    0  0.16577777520E+02  0.13054238450E+02  0.36021537661E+02  0.41746700762E+02  0.00000000000E+00 0. -1.
</event>
<event>
 7    1  0.2395003E-008  0.4614232E+02  0.7816164E-02  0.1320468E+00
        -11   -1    0    0    0    0  0.00000000000E+00  0.00000000000E+00  0.45593999997E+02  0.45594000000E+02  0.51100000000E-03 0.  1.
         11   -1    0    0    0    0 -0.00000000000E+00 -0.00000000000E+00 -0.45593999997E+02  0.45594000000E+02  0.51100000000E-03 0. -1.
    9900012    2    1    2    0    0 -0.20849491746E+02  0.14987612771E+02  0.37010587669E+02  0.46142318274E+02  0.10000004673E+02 0.  0.
         12    1    1    2    0    0  0.20849491746E+02 -0.14987612771E+02 -0.37010587669E+02  0.45045681726E+02  0.00000000000E+00 0. -1.
         11    1    3    3    0    0 -0.17332470046E+02  0.12149722201E+02  0.28010973579E+02  0.35109043117E+02  0.51100000000E-03 0. -1.
        -11    1    3    3    0    0 -0.92381573362E+00  0.25511782137E+01  0.76058356201E+01  0.80753130917E+01  0.51100000000E-03 0.  1.
         12    1    3    3    0    0 -0.25932059660E+01  0.28671235660E+00  0.13937784691E+01  0.29579620650E+01  0.00000000000E+00 0. -1.
</event>
<event>
 7    1  0.2395003E-008  0.4614232E+02  0.7816164E-02  0.1320468E+00
        -11   -1    0    0    0    0  0.00000000000E+00  0.00000000000E+00  0.45593999997E+02  0.45594000000E+02  0.51100000000E-03 0. -1.
         11   -1    0    0    0    0 -0.00000000000E+00 -0.00000000000E+00 -0.45593999997E+02  0.45594000000E+02  0.51100000000E-03 0.  1.
    9900012    2    1    2    0    0 -0.29005478071E+02  0.16681112613E+02 -0.30158518754E+02  0.46142317304E+02  0.99999958305E+01 0.  0.
         12    1    1    2    0    0  0.29005478071E+02 -0.16681112613E+02  0.30158518754E+02  0.45045682696E+02  0.00000000000E+00 0. -1.
         11    1    3    3    0    0 -0.49497485891E+01  0.24746536486E+01 -0.29284403729E+01  0.62609651856E+01  0.51100000000E-03 0. -1.
        -11    1    3    3    0    0  0.10685273443E+00  0.19538295084E+01 -0.11147541960E+01  0.22520089772E+01  0.51100000000E-03 0.  1.
        -12    1    3    3    0    0 -0.24162582217E+02  0.12252629456E+02 -0.26115324185E+02  0.37629343141E+02  0.00000000000E+00 0.  1.
</event>
<event>
 7    1  0.2395003E-008  0.4614232E+02  0.7816164E-02  0.1320468E+00
        -11   -1    0    0    0    0  0.00000000000E+00  0.00000000000E+00  0.45593999997E+02  0.45594000000E+02  0.51100000000E-03 0.  1.
         11   -1    0    0    0    0 -0.00000000000E+00 -0.00000000000E+00 -0.45593999997E+02  0.45594000000E+02  0.51100000000E-03 0. -1.
    9900012    2    1    2    0    0 -0.25354391621E+02 -0.16551331513E+02  0.33351487712E+02  0.46142317833E+02  0.10000000653E+02 0.  0.
         12    1    1    2    0    0  0.25354391621E+02  0.16551331513E+02 -0.33351487712E+02  0.45045682167E+02  0.00000000000E+00 0. -1.
         11    1    3    3    0    0 -0.71180389080E+01 -0.85845578147E+01  0.11580351885E+02  0.16076867257E+02  0.51100000000E-03 0.  1.
        -11    1    3    3    0    0 -0.10251605323E+02 -0.33681484521E+01  0.77413078995E+01  0.13280349542E+02  0.51100000000E-03 0. -1.
         12    1    3    3    0    0 -0.79847473893E+01 -0.45986252462E+01  0.14029827927E+02  0.16785101033E+02  0.00000000000E+00 0. -1.
</event>
<event>
 7    1  0.2395003E-008  0.4614232E+02  0.7816164E-02  0.1320468E+00
        -11   -1    0    0    0    0  0.00000000000E+00  0.00000000000E+00  0.45593999997E+02  0.45594000000E+02  0.51100000000E-03 0.  1.
         11   -1    0    0    0    0 -0.00000000000E+00 -0.00000000000E+00 -0.45593999997E+02  0.45594000000E+02  0.51100000000E-03 0. -1.
    9900012    2    1    2    0    0 -0.12382847094E+02  0.31083380234E+02  0.30159607396E+02  0.46142319328E+02  0.10000014287E+02 0.  0.
         12    1    1    2    0    0  0.12382847094E+02 -0.31083380234E+02 -0.30159607396E+02  0.45045680672E+02  0.00000000000E+00 0. -1.
         11    1    3    3    0    0 -0.27117401380E+01  0.48514952601E+01  0.39118674685E+01  0.67965614973E+01  0.51100000000E-03 0. -1.
        -11    1    3    3    0    0 -0.21242675970E+01  0.16163052385E+02  0.11450106485E+02  0.19921388355E+02  0.51100000000E-03 0.  1.
         12    1    3    3    0    0 -0.75468393588E+01  0.10068832589E+02  0.14797633442E+02  0.19424369475E+02  0.00000000000E+00 0. -1.
</event>
<event>
 7    1  0.2395003E-008  0.4614232E+02  0.7816164E-02  0.1320468E+00
        -11   -1    0    0    0    0  0.00000000000E+00  0.00000000000E+00  0.45593999997E+02  0.45594000000E+02  0.51100000000E-03 0.  1.
         11   -1    0    0    0    0 -0.00000000000E+00 -0.00000000000E+00 -0.45593999997E+02  0.45594000000E+02  0.51100000000E-03 0. -1.
    9900012    2    1    2    0    0 -0.25056158823E+02 -0.62278111662E+00  0.37428791181E+02  0.46142319180E+02  0.10000012938E+02 0.  0.
         12    1    1    2    0    0  0.25056158823E+02  0.62278111662E+00 -0.37428791181E+02  0.45045680820E+02  0.00000000000E+00 0. -1.
         11    1    3    3    0    0 -0.38775916561E+01 -0.27398681414E+01  0.69663270273E+01  0.84304393122E+01  0.51100000000E-03 0. -1.
        -11    1    3    3    0    0 -0.17327462454E+02 -0.32402886741E+00  0.21153598024E+02  0.27346309796E+02  0.51100000000E-03 0.  1.
         12    1    3    3    0    0 -0.38511047126E+01  0.24411158922E+01  0.93088661294E+01  0.10365570072E+02  0.00000000000E+00 0. -1.
</event>
<event>
 7    1  0.2395003E-008  0.4614232E+02  0.7816164E-02  0.1320468E+00
        -11   -1    0    0    0    0  0.00000000000E+00  0.00000000000E+00  0.45593999997E+02  0.45594000000E+02  0.51100000000E-03 0. -1.
         11   -1    0    0    0    0 -0.00000000000E+00 -0.00000000000E+00 -0.45593999997E+02  0.45594000000E+02  0.51100000000E-03 0.  1.
    9900012    2    1    2    0    0 -0.22364562648E+01 -0.42846686652E+02  0.13721268174E+02  0.46142317699E+02  0.99999994299E+01 0.  0.
         12    1    1    2    0    0  0.22364562648E+01  0.42846686652E+02 -0.13721268174E+02  0.45045682301E+02  0.00000000000E+00 0. -1.
         11    1    3    3    0    0 -0.23098036124E+01 -0.46945609507E+01 -0.39840718787E+00  0.52471729337E+01  0.51100000000E-03 0. -1.
        -11    1    3    3    0    0 -0.38246673786E+00 -0.33431538110E+02  0.10910809255E+02  0.35169017332E+02  0.51100000000E-03 0.  1.
        -12    1    3    3    0    0  0.45581408551E+00 -0.47205875912E+01  0.32088661071E+01  0.57261274331E+01  0.00000000000E+00 0.  1.
</event>
<event>
 7    1  0.2395003E-008  0.4614232E+02  0.7816164E-02  0.1320468E+00
        -11   -1    0    0    0    0  0.00000000000E+00  0.00000000000E+00  0.45593999997E+02  0.45594000000E+02  0.51100000000E-03 0.  1.
         11   -1    0    0    0    0 -0.00000000000E+00 -0.00000000000E+00 -0.45593999997E+02  0.45594000000E+02  0.51100000000E-03 0. -1.
    9900012    2    1    2    0    0  0.28817014351E+02  0.13216342853E+02 -0.32000337317E+02  0.46142316268E+02  0.99999863806E+01 0.  0.
         12    1    1    2    0    0 -0.28817014351E+02 -0.13216342853E+02  0.32000337317E+02  0.45045683732E+02  0.00000000000E+00 0. -1.
         11    1    3    3    0    0  0.12229678620E+01 -0.60745353128E+00  0.35515477436E+00  0.14109519336E+01  0.51100000000E-03 0. -1.
        -11    1    3    3    0    0  0.16522670949E+02  0.82366356249E+01 -0.20214246399E+02  0.27376204621E+02  0.51100000000E-03 0.  1.
         12    1    3    3    0    0  0.11071375540E+02  0.55871607596E+01 -0.12141245692E+02  0.17355159713E+02  0.00000000000E+00 0. -1.
</event>
<event>
 7    1  0.2395003E-008  0.4614232E+02  0.7816164E-02  0.1320468E+00
        -11   -1    0    0    0    0  0.00000000000E+00  0.00000000000E+00  0.45593999997E+02  0.45594000000E+02  0.51100000000E-03 0.  1.
         11   -1    0    0    0    0 -0.00000000000E+00 -0.00000000000E+00 -0.45593999997E+02  0.45594000000E+02  0.51100000000E-03 0. -1.
    9900012    2    1    2    0    0 -0.12637612492E+02 -0.33667131582E+02  0.27128000591E+02  0.46142318581E+02  0.10000007473E+02 0.  0.
         12    1    1    2    0    0  0.12637612492E+02  0.33667131582E+02 -0.27128000591E+02  0.45045681419E+02  0.00000000000E+00 0. -1.
         11    1    3    3    0    0 -0.45630375481E+01 -0.59744920970E+01  0.81414326479E+01  0.11081461695E+02  0.51100000000E-03 0. -1.
        -11    1    3    3    0    0 -0.79155653530E+01 -0.26843289839E+02  0.16637787932E+02  0.32558169049E+02  0.51100000000E-03 0.  1.
        -12    1    3    3    0    0 -0.15900959132E+00 -0.84934964587E+00  0.23487800103E+01  0.25026878367E+01  0.00000000000E+00 0.  1.
</event>
<event>
 7    1  0.2395003E-008  0.4614232E+02  0.7816164E-02  0.1320468E+00
        -11   -1    0    0    0    0  0.00000000000E+00  0.00000000000E+00  0.45593999997E+02  0.45594000000E+02  0.51100000000E-03 0.  1.
         11   -1    0    0    0    0 -0.00000000000E+00 -0.00000000000E+00 -0.45593999997E+02  0.45594000000E+02  0.51100000000E-03 0. -1.
    9900012    2    1    2    0    0  0.31976895222E+02 -0.53315749551E-01  0.31726784229E+02  0.46142317542E+02  0.99999980013E+01 0.  0.
         12    1    1    2    0    0 -0.31976895222E+02  0.53315749551E-01 -0.31726784229E+02  0.45045682458E+02  0.00000000000E+00 0. -1.
         11    1    3    3    0    0  0.19214404048E+02 -0.14044534614E+01  0.17798355409E+02  0.26228748883E+02  0.51100000000E-03 0. -1.
        -11    1    3    3    0    0  0.65236073149E+01  0.16897673698E+01  0.11253598188E+02  0.13117020950E+02  0.51100000000E-03 0.  1.
         12    1    3    3    0    0  0.62388838593E+01 -0.33862965797E+00  0.26748306325E+01  0.67965477095E+01  0.00000000000E+00 0. -1.
</event>
<event>
 7    1  0.2395003E-008  0.4614232E+02  0.7816164E-02  0.1320468E+00
        -11   -1    0    0    0    0  0.00000000000E+00  0.00000000000E+00  0.45593999997E+02  0.45594000000E+02  0.51100000000E-03 0.  1.
         11   -1    0    0    0    0 -0.00000000000E+00 -0.00000000000E+00 -0.45593999997E+02  0.45594000000E+02  0.51100000000E-03 0. -1.
    9900012    2    1    2    0    0  0.48401352611E+01 -0.36895590732E+02  0.25385074648E+02  0.46142317191E+02  0.99999948053E+01 0.  0.
         12    1    1    2    0    0 -0.48401352611E+01  0.36895590732E+02 -0.25385074648E+02  0.45045682809E+02  0.00000000000E+00 0. -1.
         11    1    3    3    0    0  0.12269754921E+01 -0.11581413051E+02  0.80476156206E+01  0.14156225293E+02  0.51100000000E-03 0. -1.
        -11    1    3    3    0    0  0.51287866385E+01 -0.21289247894E+02  0.11496940058E+02  0.24732896297E+02  0.51100000000E-03 0.  1.
         12    1    3    3    0    0 -0.15156268695E+01 -0.40249297866E+01  0.58405189693E+01  0.72531956009E+01  0.00000000000E+00 0. -1.
</event>
<event>
 7    1  0.2395003E-008  0.4614232E+02  0.7816164E-02  0.1320468E+00
        -11   -1    0    0    0    0  0.00000000000E+00  0.00000000000E+00  0.45593999997E+02  0.45594000000E+02  0.51100000000E-03 0.  1.
         11   -1    0    0    0    0 -0.00000000000E+00 -0.00000000000E+00 -0.45593999997E+02  0.45594000000E+02  0.51100000000E-03 0. -1.
    9900012    2    1    2    0    0 -0.38203390155E+02 -0.22271053151E+02  0.85798990444E+01  0.46142317683E+02  0.99999992904E+01 0.  0.
         12    1    1    2    0    0  0.38203390155E+02  0.22271053151E+02 -0.85798990444E+01  0.45045682317E+02  0.00000000000E+00 0. -1.
         11    1    3    3    0    0 -0.74521778816E+01 -0.56686579122E+01  0.18928757116E+01  0.95525711944E+01  0.51100000000E-03 0. -1.
        -11    1    3    3    0    0 -0.10127654880E+02 -0.10017834563E+02  0.14703426651E+01  0.14320904668E+02  0.51100000000E-03 0.  1.
         12    1    3    3    0    0 -0.20623557393E+02 -0.65845606754E+01  0.52166806677E+01  0.22268841821E+02  0.00000000000E+00 0. -1.
</event>
<event>
 7    1  0.2395003E-008  0.4614232E+02  0.7816164E-02  0.1320468E+00
        -11   -1    0    0    0    0  0.00000000000E+00  0.00000000000E+00  0.45593999997E+02  0.45594000000E+02  0.51100000000E-03 0.  1.
         11   -1    0    0    0    0 -0.00000000000E+00 -0.00000000000E+00 -0.45593999997E+02  0.45594000000E+02  0.51100000000E-03 0. -1.
    9900012    2    1    2    0    0  0.39004985965E+02 -0.11712046063E+02  0.19249741021E+02  0.46142317827E+02  0.10000000599E+02 0.  0.
         12    1    1    2    0    0 -0.39004985965E+02  0.11712046063E+02 -0.19249741021E+02  0.45045682173E+02  0.00000000000E+00 0. -1.
         11    1    3    3    0    0  0.13214816611E+02 -0.51071125876E+01  0.34154012047E+01  0.14573226914E+02  0.51100000000E-03 0. -1.
        -11    1    3    3    0    0  0.13002810235E+02 -0.27849231022E+00  0.83866210259E+01  0.15475336651E+02  0.51100000000E-03 0.  1.
         12    1    3    3    0    0  0.12787359118E+02 -0.63264411652E+01  0.74477187899E+01  0.16093754261E+02  0.00000000000E+00 0. -1.
</event>
<event>
 7    1  0.2395003E-008  0.4614232E+02  0.7816164E-02  0.1320468E+00
        -11   -1    0    0    0    0  0.00000000000E+00  0.00000000000E+00  0.45593999997E+02  0.45594000000E+02  0.51100000000E-03 0.  1.
         11   -1    0    0    0    0 -0.00000000000E+00 -0.00000000000E+00 -0.45593999997E+02  0.45594000000E+02  0.51100000000E-03 0. -1.
    9900012    2    1    2    0    0  0.52224006719E+01  0.17073352158E+02  0.41356265138E+02  0.46142317756E+02  0.99999999538E+01 0.  0.
         12    1    1    2    0    0 -0.52224006719E+01 -0.17073352158E+02 -0.41356265138E+02  0.45045682244E+02  0.00000000000E+00 0. -1.
         11    1    3    3    0    0  0.29751131215E+01  0.45537251455E+01  0.79509903429E+01  0.96335849236E+01  0.51100000000E-03 0. -1.
        -11    1    3    3    0    0  0.44760271623E+01  0.11215293755E+02  0.28794759774E+02  0.31224282600E+02  0.51100000000E-03 0.  1.
         12    1    3    3    0    0 -0.22287396119E+01  0.13043332573E+01  0.46105150204E+01  0.52844502323E+01  0.00000000000E+00 0. -1.
</event>
<event>
 7    1  0.2395003E-008  0.4614232E+02  0.7816164E-02  0.1320468E+00
        -11   -1    0    0    0    0  0.00000000000E+00  0.00000000000E+00  0.45593999997E+02  0.45594000000E+02  0.51100000000E-03 0.  1.
         11   -1    0    0    0    0 -0.00000000000E+00 -0.00000000000E+00 -0.45593999997E+02  0.45594000000E+02  0.51100000000E-03 0. -1.
    9900012    2    1    2    0    0  0.23583181068E+02 -0.37762254313E+02  0.68526813726E+01  0.46142317387E+02  0.99999965867E+01 0.  0.
         12    1    1    2    0    0 -0.23583181068E+02  0.37762254313E+02 -0.68526813726E+01  0.45045682613E+02  0.00000000000E+00 0. -1.
         11    1    3    3    0    0  0.17243481230E+01 -0.51232358618E+01  0.15057513685E+01  0.56114356086E+01  0.51100000000E-03 0. -1.
        -11    1    3    3    0    0  0.10719645152E+02 -0.18191455428E+02  0.69201400383E+01  0.22219995076E+02  0.51100000000E-03 0.  1.
        -12    1    3    3    0    0  0.11139187793E+02 -0.14447563023E+02 -0.15732100341E+01  0.18310886702E+02  0.00000000000E+00 0.  1.
</event>
<event>
 7    1  0.2395003E-008  0.4614232E+02  0.7816164E-02  0.1320468E+00
        -11   -1    0    0    0    0  0.00000000000E+00  0.00000000000E+00  0.45593999997E+02  0.45594000000E+02  0.51100000000E-03 0.  1.
         11   -1    0    0    0    0 -0.00000000000E+00 -0.00000000000E+00 -0.45593999997E+02  0.45594000000E+02  0.51100000000E-03 0. -1.
    9900012    2    1    2    0    0  0.23743416893E+02 -0.36270125579E+02  0.12240980313E+02  0.46142318139E+02  0.10000003449E+02 0.  0.
         12    1    1    2    0    0 -0.23743416893E+02  0.36270125579E+02 -0.12240980313E+02  0.45045681861E+02  0.00000000000E+00 0. -1.
         11    1    3    3    0    0 -0.74799121512E-01 -0.47638074685E+01  0.15713033730E+01  0.50168168251E+01  0.51100000000E-03 0. -1.
        -11    1    3    3    0    0 -0.52891988392E-01 -0.66399691152E-01 -0.16912476976E+00  0.18923511907E+00  0.51100000000E-03 0.  1.
        -12    1    3    3    0    0  0.23871108003E+02 -0.31439918419E+02  0.10838801709E+02  0.40936266195E+02  0.00000000000E+00 0.  1.
</event>
<event>
 7    1  0.2511346E-008  0.4614232E+02  0.7816164E-02  0.1320468E+00
        -11   -1    0    0    0    0  0.00000000000E+00  0.00000000000E+00  0.45593999997E+02  0.45594000000E+02  0.51100000000E-03 0.  1.
         11   -1    0    0    0    0 -0.00000000000E+00 -0.00000000000E+00 -0.45593999997E+02  0.45594000000E+02  0.51100000000E-03 0. -1.
    9900012    2    1    2    0    0 -0.30768619510E+02 -0.32893602244E+02  0.64523885496E+00  0.46142319315E+02  0.10000014172E+02 0.  0.
         12    1    1    2    0    0  0.30768619510E+02  0.32893602244E+02 -0.64523885496E+00  0.45045680685E+02  0.00000000000E+00 0. -1.
         11    1    3    3    0    0  0.12399236712E+00 -0.11099892311E+01 -0.23082517073E+00  0.11404958223E+01  0.51100000000E-03 0. -1.
        -11    1    3    3    0    0 -0.58697231963E+01 -0.80854452130E+01 -0.27089969615E+01  0.10352136953E+02  0.51100000000E-03 0.  1.
        -12    1    3    3    0    0 -0.25022888681E+02 -0.23698167800E+02  0.35850609872E+01  0.34649686540E+02  0.00000000000E+00 0.  1.
</event>
<event>
 7    1  0.2395003E-008  0.4614232E+02  0.7816164E-02  0.1320468E+00
        -11   -1    0    0    0    0  0.00000000000E+00  0.00000000000E+00  0.45593999997E+02  0.45594000000E+02  0.51100000000E-03 0.  1.
         11   -1    0    0    0    0 -0.00000000000E+00 -0.00000000000E+00 -0.45593999997E+02  0.45594000000E+02  0.51100000000E-03 0. -1.
    9900012    2    1    2    0    0 -0.12696269272E+02 -0.40808659355E+02  0.14232769154E+02  0.46142315972E+02  0.99999836839E+01 0.  0.
         12    1    1    2    0    0  0.12696269272E+02  0.40808659355E+02 -0.14232769154E+02  0.45045684028E+02  0.00000000000E+00 0. -1.
         11    1    3    3    0    0 -0.40274746316E+01 -0.88095649368E+01  0.27185844884E+01  0.10060799579E+02  0.51100000000E-03 0. -1.
        -11    1    3    3    0    0 -0.99700030952E+01 -0.30641359332E+02  0.10242326728E+02  0.33811227728E+02  0.51100000000E-03 0.  1.
         12    1    3    3    0    0  0.13012084552E+01 -0.13577350866E+01  0.12718579373E+01  0.22702886649E+01  0.00000000000E+00 0. -1.
</event>
<event>
 7    1  0.2395003E-008  0.4614232E+02  0.7816164E-02  0.1320468E+00
        -11   -1    0    0    0    0  0.00000000000E+00  0.00000000000E+00  0.45593999997E+02  0.45594000000E+02  0.51100000000E-03 0.  1.
         11   -1    0    0    0    0 -0.00000000000E+00 -0.00000000000E+00 -0.45593999997E+02  0.45594000000E+02  0.51100000000E-03 0. -1.
    9900012    2    1    2    0    0 -0.29000558976E+02 -0.29564456984E+02  0.17720716095E+02  0.46142319668E+02  0.10000017389E+02 0.  0.
         12    1    1    2    0    0  0.29000558976E+02  0.29564456984E+02 -0.17720716095E+02  0.45045680332E+02  0.00000000000E+00 0. -1.
         11    1    3    3    0    0 -0.46647198229E+01 -0.57519346755E+01  0.17699781653E+01  0.76142751792E+01  0.51100000000E-03 0. -1.
        -11    1    3    3    0    0 -0.15343680743E+02 -0.94455410577E+01  0.67348319827E+01  0.19235507446E+02  0.51100000000E-03 0.  1.
        -12    1    3    3    0    0 -0.89921584099E+01 -0.14366981250E+02  0.92159059470E+01  0.19292537043E+02  0.00000000000E+00 0.  1.
</event>
<event>
 7    1  0.2395003E-008  0.4614232E+02  0.7816164E-02  0.1320468E+00
        -11   -1    0    0    0    0  0.00000000000E+00  0.00000000000E+00  0.45593999997E+02  0.45594000000E+02  0.51100000000E-03 0.  1.
         11   -1    0    0    0    0 -0.00000000000E+00 -0.00000000000E+00 -0.45593999997E+02  0.45594000000E+02  0.51100000000E-03 0. -1.
    9900012    2    1    2    0    0 -0.72987992679E+01 -0.99957474968E+01  0.43311960611E+02  0.46142319066E+02  0.10000011903E+02 0.  0.
         12    1    1    2    0    0  0.72987992679E+01  0.99957474968E+01 -0.43311960611E+02  0.45045680934E+02  0.00000000000E+00 0. -1.
         11    1    3    3    0    0  0.15278905168E+01  0.47946253039E+00  0.47860862733E+01  0.50468758480E+01  0.51100000000E-03 0. -1.
        -11    1    3    3    0    0 -0.62174636259E+00 -0.30507506361E-01  0.49330634992E+01  0.49721841273E+01  0.51100000000E-03 0.  1.
         12    1    3    3    0    0 -0.82049434220E+01 -0.10444702521E+02  0.33592810839E+02  0.36123259091E+02  0.00000000000E+00 0. -1.
</event>
<event>
 7    1  0.2395003E-008  0.4614232E+02  0.7816164E-02  0.1320468E+00
        -11   -1    0    0    0    0  0.00000000000E+00  0.00000000000E+00  0.45593999997E+02  0.45594000000E+02  0.51100000000E-03 0.  1.
         11   -1    0    0    0    0 -0.00000000000E+00 -0.00000000000E+00 -0.45593999997E+02  0.45594000000E+02  0.51100000000E-03 0. -1.
    9900012    2    1    2    0    0  0.89603271089E+01  0.32737530201E+02  0.29615539995E+02  0.46142317025E+02  0.99999932856E+01 0.  0.
         12    1    1    2    0    0 -0.89603271089E+01 -0.32737530201E+02 -0.29615539995E+02  0.45045682975E+02  0.00000000000E+00 0. -1.
         11    1    3    3    0    0 -0.25419695591E+00  0.29541141946E+01  0.15420852735E+01  0.33420703193E+01  0.51100000000E-03 0. -1.
        -11    1    3    3    0    0  0.17897022907E+01  0.15194236347E+02  0.17809944093E+02  0.23478968489E+02  0.51100000000E-03 0.  1.
         12    1    3    3    0    0  0.74248217741E+01  0.14589179659E+02  0.10263510628E+02  0.19321278217E+02  0.00000000000E+00 0. -1.
</event>
<event>
 7    1  0.2395003E-008  0.4614232E+02  0.7816164E-02  0.1320468E+00
        -11   -1    0    0    0    0  0.00000000000E+00  0.00000000000E+00  0.45593999997E+02  0.45594000000E+02  0.51100000000E-03 0.  1.
         11   -1    0    0    0    0 -0.00000000000E+00 -0.00000000000E+00 -0.45593999997E+02  0.45594000000E+02  0.51100000000E-03 0. -1.
    9900012    2    1    2    0    0 -0.68451676234E+01  0.35389628878E+01  0.44381672833E+02  0.46142318058E+02  0.10000002708E+02 0.  0.
         12    1    1    2    0    0  0.68451676234E+01 -0.35389628878E+01 -0.44381672833E+02  0.45045681942E+02  0.00000000000E+00 0. -1.
         11    1    3    3    0    0 -0.53101337831E+01 -0.47978925431E+00  0.36609673527E+02  0.36995890508E+02  0.51100000000E-03 0.  1.
        -11    1    3    3    0    0  0.49465054929E+00  0.14702289576E+01  0.22011214914E+01  0.26928030813E+01  0.51100000000E-03 0. -1.
        -12    1    3    3    0    0 -0.20296843896E+01  0.25485231845E+01  0.55708778155E+01  0.64536244684E+01  0.00000000000E+00 0.  1.
</event>
<event>
 7    1  0.2395003E-008  0.4614232E+02  0.7816164E-02  0.1320468E+00
        -11   -1    0    0    0    0  0.00000000000E+00  0.00000000000E+00  0.45593999997E+02  0.45594000000E+02  0.51100000000E-03 0. -1.
         11   -1    0    0    0    0 -0.00000000000E+00 -0.00000000000E+00 -0.45593999997E+02  0.45594000000E+02  0.51100000000E-03 0.  1.
    9900012    2    1    2    0    0 -0.18095456524E+02  0.37428331207E+02  0.17343229309E+02  0.46142321777E+02  0.10000036617E+02 0.  0.
         12    1    1    2    0    0  0.18095456524E+02 -0.37428331207E+02 -0.17343229309E+02  0.45045678223E+02  0.00000000000E+00 0. -1.
         11    1    3    3    0    0 -0.92843413947E+01  0.20838869223E+02  0.11421684751E+02  0.25512983918E+02  0.51100000000E-03 0. -1.
        -11    1    3    3    0    0 -0.38068904996E+01  0.53660350161E+01  0.50796561118E+01  0.83120186204E+01  0.51100000000E-03 0.  1.
        -12    1    3    3    0    0 -0.50042246302E+01  0.11223426968E+02  0.84188844599E+00  0.12317319238E+02  0.00000000000E+00 0.  1.
</event>
<event>
 7    1  0.2395003E-008  0.4614232E+02  0.7816164E-02  0.1320468E+00
        -11   -1    0    0    0    0  0.00000000000E+00  0.00000000000E+00  0.45593999997E+02  0.45594000000E+02  0.51100000000E-03 0. -1.
         11   -1    0    0    0    0 -0.00000000000E+00 -0.00000000000E+00 -0.45593999997E+02  0.45594000000E+02  0.51100000000E-03 0.  1.
    9900012    2    1    2    0    0 -0.34643879856E+02  0.13778724789E+02 -0.25279672191E+02  0.46142317694E+02  0.99999993919E+01 0.  0.
         12    1    1    2    0    0  0.34643879856E+02 -0.13778724789E+02  0.25279672191E+02  0.45045682306E+02  0.00000000000E+00 0. -1.
         11    1    3    3    0    0 -0.14154862558E+02  0.34966455096E+01 -0.59087850398E+01  0.15732145587E+02  0.51100000000E-03 0. -1.
        -11    1    3    3    0    0 -0.19310539392E+02  0.10790222159E+02 -0.17882172694E+02  0.28444646709E+02  0.51100000000E-03 0.  1.
        -12    1    3    3    0    0 -0.11784779064E+01 -0.50814287927E+00 -0.14887144564E+01  0.19655253991E+01  0.00000000000E+00 0.  1.
</event>
<event>
 7    1  0.2395003E-008  0.4614232E+02  0.7816164E-02  0.1320468E+00
        -11   -1    0    0    0    0  0.00000000000E+00  0.00000000000E+00  0.45593999997E+02  0.45594000000E+02  0.51100000000E-03 0.  1.
         11   -1    0    0    0    0 -0.00000000000E+00 -0.00000000000E+00 -0.45593999997E+02  0.45594000000E+02  0.51100000000E-03 0. -1.
    9900012    2    1    2    0    0 -0.40758775798E+02  0.17656713593E+02  0.74884000589E+01  0.46142317911E+02  0.10000001365E+02 0.  0.
         12    1    1    2    0    0  0.40758775798E+02 -0.17656713593E+02 -0.74884000589E+01  0.45045682089E+02  0.00000000000E+00 0. -1.
         11    1    3    3    0    0 -0.14950745977E+02  0.48922813604E+01  0.38120124471E+01  0.16186125582E+02  0.51100000000E-03 0. -1.
        -11    1    3    3    0    0 -0.25400506212E+02  0.10857781255E+02  0.41903606657E+01  0.27939868511E+02  0.51100000000E-03 0.  1.
         12    1    3    3    0    0 -0.40752360841E+00  0.19066509774E+01 -0.51397305395E+00  0.20163238185E+01  0.00000000000E+00 0. -1.
</event>
<event>
 7    1  0.2395003E-008  0.4614232E+02  0.7816164E-02  0.1320468E+00
        -11   -1    0    0    0    0  0.00000000000E+00  0.00000000000E+00  0.45593999997E+02  0.45594000000E+02  0.51100000000E-03 0. -1.
         11   -1    0    0    0    0 -0.00000000000E+00 -0.00000000000E+00 -0.45593999997E+02  0.45594000000E+02  0.51100000000E-03 0.  1.
    9900012    2    1    2    0    0 -0.33493053061E+02  0.31960104436E+01 -0.29951864931E+02  0.46142319863E+02  0.10000019170E+02 0.  0.
         12    1    1    2    0    0  0.33493053061E+02 -0.31960104436E+01  0.29951864931E+02  0.45045680137E+02  0.00000000000E+00 0. -1.
         11    1    3    3    0    0 -0.13023624147E+02  0.18943732706E+01 -0.15488881552E+02  0.20325080270E+02  0.51100000000E-03 0. -1.
        -11    1    3    3    0    0 -0.10701434171E+02 -0.21255641801E+01 -0.88042343092E+01  0.14019745306E+02  0.51100000000E-03 0.  1.
         12    1    3    3    0    0 -0.97679947432E+01  0.34272013531E+01 -0.56587490699E+01  0.11797494287E+02  0.00000000000E+00 0. -1.
</event>
<event>
 7    1  0.2395003E-008  0.4614232E+02  0.7816164E-02  0.1320468E+00
        -11   -1    0    0    0    0  0.00000000000E+00  0.00000000000E+00  0.45593999997E+02  0.45594000000E+02  0.51100000000E-03 0.  1.
         11   -1    0    0    0    0 -0.00000000000E+00 -0.00000000000E+00 -0.45593999997E+02  0.45594000000E+02  0.51100000000E-03 0. -1.
    9900012    2    1    2    0    0 -0.18549189991E+02  0.34208484546E+01  0.40906464872E+02  0.46142317390E+02  0.99999966179E+01 0.  0.
         12    1    1    2    0    0  0.18549189991E+02 -0.34208484546E+01 -0.40906464872E+02  0.45045682610E+02  0.00000000000E+00 0. -1.
         11    1    3    3    0    0 -0.10410134682E+02  0.35782338099E+01  0.15130531868E+02  0.18711163945E+02  0.51100000000E-03 0. -1.
        -11    1    3    3    0    0  0.46896056870E+00 -0.13451024739E-01  0.34461707021E+00  0.58212209309E+00  0.51100000000E-03 0.  1.
        -12    1    3    3    0    0 -0.86080158770E+01 -0.14393433056E+00  0.25431315934E+02  0.26849031352E+02  0.00000000000E+00 0.  1.
</event>
<event>
 7    1  0.2395003E-008  0.4614232E+02  0.7816164E-02  0.1320468E+00
        -11   -1    0    0    0    0  0.00000000000E+00  0.00000000000E+00  0.45593999997E+02  0.45594000000E+02  0.51100000000E-03 0. -1.
         11   -1    0    0    0    0 -0.00000000000E+00 -0.00000000000E+00 -0.45593999997E+02  0.45594000000E+02  0.51100000000E-03 0.  1.
    9900012    2    1    2    0    0  0.27995177658E+01 -0.70057667620E+01 -0.44409407626E+02  0.46142317039E+02  0.99999934196E+01 0.  0.
         12    1    1    2    0    0 -0.27995177658E+01  0.70057667620E+01  0.44409407626E+02  0.45045682961E+02  0.00000000000E+00 0. -1.
         11    1    3    3    0    0  0.83760334101E-01  0.10840133495E+01 -0.62101921720E+01  0.63046481115E+01  0.51100000000E-03 0. -1.
        -11    1    3    3    0    0  0.66905886337E+00 -0.65027583298E+01 -0.35500129144E+02  0.36096989835E+02  0.51100000000E-03 0.  1.
        -12    1    3    3    0    0  0.20466985683E+01 -0.15870217816E+01 -0.26990863108E+01  0.37406790931E+01  0.00000000000E+00 0.  1.
</event>
<event>
 7    1  0.2395003E-008  0.4614232E+02  0.7816164E-02  0.1320468E+00
        -11   -1    0    0    0    0  0.00000000000E+00  0.00000000000E+00  0.45593999997E+02  0.45594000000E+02  0.51100000000E-03 0.  1.
         11   -1    0    0    0    0 -0.00000000000E+00 -0.00000000000E+00 -0.45593999997E+02  0.45594000000E+02  0.51100000000E-03 0. -1.
    9900012    2    1    2    0    0  0.34556220606E+02 -0.61650110507E+01  0.28230724431E+02  0.46142317125E+02  0.99999941951E+01 0.  0.
         12    1    1    2    0    0 -0.34556220606E+02  0.61650110507E+01 -0.28230724431E+02  0.45045682875E+02  0.00000000000E+00 0. -1.
         11    1    3    3    0    0  0.45020736586E+01 -0.24586471673E+01  0.18271227245E+01  0.54453641597E+01  0.51100000000E-03 0. -1.
        -11    1    3    3    0    0  0.12857444439E+02 -0.28598303961E+01  0.76232039089E+01  0.15218598670E+02  0.51100000000E-03 0.  1.
        -12    1    3    3    0    0  0.17196702508E+02 -0.84653348732E+00  0.18780397798E+02  0.25478354294E+02  0.00000000000E+00 0.  1.
</event>
<event>
 7    1  0.2395003E-008  0.4614232E+02  0.7816164E-02  0.1320468E+00
        -11   -1    0    0    0    0  0.00000000000E+00  0.00000000000E+00  0.45593999997E+02  0.45594000000E+02  0.51100000000E-03 0.  1.
         11   -1    0    0    0    0 -0.00000000000E+00 -0.00000000000E+00 -0.45593999997E+02  0.45594000000E+02  0.51100000000E-03 0. -1.
    9900012    2    1    2    0    0  0.21753783460E+02  0.36794780777E+02  0.14213744604E+02  0.46142317378E+02  0.99999965034E+01 0.  0.
         12    1    1    2    0    0 -0.21753783460E+02 -0.36794780777E+02 -0.14213744604E+02  0.45045682622E+02  0.00000000000E+00 0. -1.
         11    1    3    3    0    0  0.43864380899E+01  0.12135437581E+02  0.56359671920E+01  0.14080973363E+02  0.51100000000E-03 0. -1.
        -11    1    3    3    0    0  0.14153539754E+02  0.17285614916E+02  0.88077390594E+01  0.24014400642E+02  0.51100000000E-03 0.  1.
        -12    1    3    3    0    0  0.32138056163E+01  0.73737282804E+01 -0.22996164765E+00  0.80469433732E+01  0.00000000000E+00 0.  1.
</event>
<event>
 7    1  0.2395003E-008  0.4614232E+02  0.7816164E-02  0.1320468E+00
        -11   -1    0    0    0    0  0.00000000000E+00  0.00000000000E+00  0.45593999997E+02  0.45594000000E+02  0.51100000000E-03 0.  1.
         11   -1    0    0    0    0 -0.00000000000E+00 -0.00000000000E+00 -0.45593999997E+02  0.45594000000E+02  0.51100000000E-03 0. -1.
    9900012    2    1    2    0    0  0.22082666122E+02  0.18461177302E+02  0.34650458399E+02  0.46142317880E+02  0.10000001081E+02 0.  0.
         12    1    1    2    0    0 -0.22082666122E+02 -0.18461177302E+02 -0.34650458399E+02  0.45045682120E+02  0.00000000000E+00 0. -1.
         11    1    3    3    0    0  0.73328497971E+00  0.18247581293E+01  0.11771741133E+01  0.22919834742E+01  0.51100000000E-03 0. -1.
        -11    1    3    3    0    0  0.75274506472E+01  0.41746043966E+01  0.53751966981E+01  0.10148033057E+02  0.51100000000E-03 0.  1.
        -12    1    3    3    0    0  0.13821930495E+02  0.12461814776E+02  0.28098087588E+02  0.33702301349E+02  0.00000000000E+00 0.  1.
</event>
<event>
 7    1  0.2624725E-008  0.4614232E+02  0.7816164E-02  0.1320468E+00
        -11   -1    0    0    0    0  0.00000000000E+00  0.00000000000E+00  0.45593999997E+02  0.45594000000E+02  0.51100000000E-03 0. -1.
         11   -1    0    0    0    0 -0.00000000000E+00 -0.00000000000E+00 -0.45593999997E+02  0.45594000000E+02  0.51100000000E-03 0.  1.
    9900012    2    1    2    0    0  0.23471107387E+02  0.38447471411E+02 -0.11233670184E+00  0.46142316973E+02  0.99999928112E+01 0.  0.
         12    1    1    2    0    0 -0.23471107387E+02 -0.38447471411E+02  0.11233670184E+00  0.45045683027E+02  0.00000000000E+00 0. -1.
         11    1    3    3    0    0 -0.46566728123E+00  0.18912874033E+00  0.12827100615E+00  0.51871900810E+00  0.51100000000E-03 0. -1.
        -11    1    3    3    0    0  0.31681318361E+01  0.51224180755E+01 -0.23378902792E+01  0.64608016136E+01  0.51100000000E-03 0.  1.
        -12    1    3    3    0    0  0.20768642833E+02  0.33135924595E+02  0.20972825712E+01  0.39162796351E+02  0.00000000000E+00 0.  1.
</event>
<event>
 7    1  0.2395003E-008  0.4614232E+02  0.7816164E-02  0.1320468E+00
        -11   -1    0    0    0    0  0.00000000000E+00  0.00000000000E+00  0.45593999997E+02  0.45594000000E+02  0.51100000000E-03 0.  1.
         11   -1    0    0    0    0 -0.00000000000E+00 -0.00000000000E+00 -0.45593999997E+02  0.45594000000E+02  0.51100000000E-03 0. -1.
    9900012    2    1    2    0    0  0.22328465737E+02  0.30231769166E+02  0.24831295459E+02  0.46142317818E+02  0.10000000521E+02 0.  0.
         12    1    1    2    0    0 -0.22328465737E+02 -0.30231769166E+02 -0.24831295459E+02  0.45045682182E+02  0.00000000000E+00 0. -1.
         11    1    3    3    0    0  0.75530116393E+01  0.89294954878E+01  0.57173397376E+01  0.13018135367E+02  0.51100000000E-03 0. -1.
        -11    1    3    3    0    0  0.10904599646E+02  0.10537969175E+02  0.13829171770E+02  0.20523281411E+02  0.51100000000E-03 0.  1.
         12    1    3    3    0    0  0.38708544515E+01  0.10764304503E+02  0.52847839506E+01  0.12600901040E+02  0.00000000000E+00 0. -1.
</event>
<event>
 7    1  0.2395003E-008  0.4614232E+02  0.7816164E-02  0.1320468E+00
        -11   -1    0    0    0    0  0.00000000000E+00  0.00000000000E+00  0.45593999997E+02  0.45594000000E+02  0.51100000000E-03 0.  1.
         11   -1    0    0    0    0 -0.00000000000E+00 -0.00000000000E+00 -0.45593999997E+02  0.45594000000E+02  0.51100000000E-03 0. -1.
    9900012    2    1    2    0    0  0.75230704973E+01  0.36641762151E+02  0.25097772452E+02  0.46142317573E+02  0.99999982827E+01 0.  0.
         12    1    1    2    0    0 -0.75230704973E+01 -0.36641762151E+02 -0.25097772452E+02  0.45045682427E+02  0.00000000000E+00 0. -1.
         11    1    3    3    0    0 -0.12221210970E+01  0.44336836675E+01  0.97196435753E+00  0.47006218538E+01  0.51100000000E-03 0. -1.
        -11    1    3    3    0    0  0.56796386824E+01  0.22811100421E+02  0.14359532838E+02  0.27546338805E+02  0.51100000000E-03 0.  1.
         12    1    3    3    0    0  0.30655529119E+01  0.93969780624E+01  0.97662752568E+01  0.13895356913E+02  0.00000000000E+00 0. -1.
</event>
<event>
 7    1  0.2395003E-008  0.4614232E+02  0.7816164E-02  0.1320468E+00
        -11   -1    0    0    0    0  0.00000000000E+00  0.00000000000E+00  0.45593999997E+02  0.45594000000E+02  0.51100000000E-03 0.  1.
         11   -1    0    0    0    0 -0.00000000000E+00 -0.00000000000E+00 -0.45593999997E+02  0.45594000000E+02  0.51100000000E-03 0. -1.
    9900012    2    1    2    0    0 -0.26999816594E+02  0.25235463243E+02 -0.25754509882E+02  0.46142317849E+02  0.10000000802E+02 0.  0.
         12    1    1    2    0    0  0.26999816594E+02 -0.25235463243E+02  0.25754509882E+02  0.45045682151E+02  0.00000000000E+00 0. -1.
         11    1    3    3    0    0 -0.20165865271E+02  0.15313740280E+02 -0.17593659444E+02  0.30833579364E+02  0.51100000000E-03 0. -1.
        -11    1    3    3    0    0 -0.60198562631E+01  0.67481180871E+01 -0.79244937456E+01  0.12023866621E+02  0.51100000000E-03 0.  1.
         12    1    3    3    0    0 -0.81409505945E+00  0.31736048755E+01 -0.23635669197E+00  0.32848718632E+01  0.00000000000E+00 0. -1.
</event>
<event>
 7    1  0.2395003E-008  0.4614232E+02  0.7816164E-02  0.1320468E+00
        -11   -1    0    0    0    0  0.00000000000E+00  0.00000000000E+00  0.45593999997E+02  0.45594000000E+02  0.51100000000E-03 0.  1.
         11   -1    0    0    0    0 -0.00000000000E+00 -0.00000000000E+00 -0.45593999997E+02  0.45594000000E+02  0.51100000000E-03 0. -1.
    9900012    2    1    2    0    0 -0.32692577747E+02  0.30704782765E+01  0.30836358393E+02  0.46142317903E+02  0.10000001293E+02 0.  0.
         12    1    1    2    0    0  0.32692577747E+02 -0.30704782765E+01 -0.30836358393E+02  0.45045682097E+02  0.00000000000E+00 0. -1.
         11    1    3    3    0    0 -0.17127379348E+02  0.54002542030E+01  0.15954205636E+02  0.24021793158E+02  0.51100000000E-03 0. -1.
        -11    1    3    3    0    0 -0.13050731814E+02 -0.24382463588E+01  0.99772402401E+01  0.16607587701E+02  0.51100000000E-03 0.  1.
        -12    1    3    3    0    0 -0.25144665852E+01  0.10847043226E+00  0.49049125170E+01  0.55129370432E+01  0.00000000000E+00 0.  1.
</event>
<event>
 7    1  0.2395003E-008  0.4614232E+02  0.7816164E-02  0.1320468E+00
        -11   -1    0    0    0    0  0.00000000000E+00  0.00000000000E+00  0.45593999997E+02  0.45594000000E+02  0.51100000000E-03 0.  1.
         11   -1    0    0    0    0 -0.00000000000E+00 -0.00000000000E+00 -0.45593999997E+02  0.45594000000E+02  0.51100000000E-03 0. -1.
    9900012    2    1    2    0    0  0.24122854668E+02 -0.33877222090E+02  0.17307085874E+02  0.46142317462E+02  0.99999972711E+01 0.  0.
         12    1    1    2    0    0 -0.24122854668E+02  0.33877222090E+02 -0.17307085874E+02  0.45045682538E+02  0.00000000000E+00 0. -1.
         11    1    3    3    0    0  0.39876074968E+00 -0.20571150000E-01  0.10871460493E+01  0.11581537469E+01  0.51100000000E-03 0. -1.
        -11    1    3    3    0    0  0.56455369156E+01 -0.62681302692E+01  0.63381209903E+01  0.10551460661E+02  0.51100000000E-03 0.  1.
        -12    1    3    3    0    0  0.18078557002E+02 -0.27588520671E+02  0.98818188343E+01  0.34432703054E+02  0.00000000000E+00 0.  1.
</event>
<event>
 7    1  0.2395003E-008  0.4614232E+02  0.7816164E-02  0.1320468E+00
        -11   -1    0    0    0    0  0.00000000000E+00  0.00000000000E+00  0.45593999997E+02  0.45594000000E+02  0.51100000000E-03 0.  1.
         11   -1    0    0    0    0 -0.00000000000E+00 -0.00000000000E+00 -0.45593999997E+02  0.45594000000E+02  0.51100000000E-03 0. -1.
    9900012    2    1    2    0    0  0.11938440489E+02 -0.52186485977E+01  0.43120213748E+02  0.46142317763E+02  0.10000000018E+02 0.  0.
         12    1    1    2    0    0 -0.11938440489E+02  0.52186485977E+01 -0.43120213748E+02  0.45045682237E+02  0.00000000000E+00 0. -1.
         11    1    3    3    0    0  0.80184335017E+01  0.31089762786E+00  0.18445330697E+02  0.20115222046E+02  0.51100000000E-03 0. -1.
        -11    1    3    3    0    0  0.44847793180E+01 -0.59788325547E+01  0.21222609255E+02  0.22500196179E+02  0.51100000000E-03 0.  1.
         12    1    3    3    0    0 -0.56477233034E+00  0.44928632908E+00  0.34522737956E+01  0.35268995379E+01  0.00000000000E+00 0. -1.
</event>
<event>
 7    1  0.2395003E-008  0.4614232E+02  0.7816164E-02  0.1320468E+00
        -11   -1    0    0    0    0  0.00000000000E+00  0.00000000000E+00  0.45593999997E+02  0.45594000000E+02  0.51100000000E-03 0. -1.
         11   -1    0    0    0    0 -0.00000000000E+00 -0.00000000000E+00 -0.45593999997E+02  0.45594000000E+02  0.51100000000E-03 0.  1.
    9900012    2    1    2    0    0  0.25913366092E+02  0.41165835737E+01 -0.36615087536E+02  0.46142318322E+02  0.10000005116E+02 0.  0.
         12    1    1    2    0    0 -0.25913366092E+02 -0.41165835737E+01  0.36615087536E+02  0.45045681678E+02  0.00000000000E+00 0. -1.
         11    1    3    3    0    0  0.11683007602E+02  0.10156395523E+01 -0.12220116534E+02  0.16936807217E+02  0.51100000000E-03 0. -1.
        -11    1    3    3    0    0  0.10934809855E+02  0.28019752923E+01 -0.12426731461E+02  0.16788233592E+02  0.51100000000E-03 0.  1.
        -12    1    3    3    0    0  0.32955486354E+01  0.29896872919E+00 -0.11968239542E+02  0.12417277513E+02  0.00000000000E+00 0.  1.
</event>
<event>
 7    1  0.2395003E-008  0.4614232E+02  0.7816164E-02  0.1320468E+00
        -11   -1    0    0    0    0  0.00000000000E+00  0.00000000000E+00  0.45593999997E+02  0.45594000000E+02  0.51100000000E-03 0.  1.
         11   -1    0    0    0    0 -0.00000000000E+00 -0.00000000000E+00 -0.45593999997E+02  0.45594000000E+02  0.51100000000E-03 0. -1.
    9900012    2    1    2    0    0 -0.44815708585E+02 -0.29843813273E+01  0.34291752423E+01  0.46142317513E+02  0.99999977358E+01 0.  0.
         12    1    1    2    0    0  0.44815708585E+02  0.29843813273E+01 -0.34291752423E+01  0.45045682487E+02  0.00000000000E+00 0. -1.
         11    1    3    3    0    0 -0.13775840004E+02 -0.28696131157E+01  0.21090595724E+01  0.14228723758E+02  0.51100000000E-03 0. -1.
        -11    1    3    3    0    0 -0.27525134536E+02  0.54481892423E-01  0.35417916764E+01  0.27752122226E+02  0.51100000000E-03 0.  1.
        -12    1    3    3    0    0 -0.35147340456E+01 -0.16925010403E+00 -0.22216760065E+01  0.41614715291E+01  0.00000000000E+00 0.  1.
</event>
<event>
 7    1  0.2395003E-008  0.4614231E+02  0.7816164E-02  0.1320468E+00
        -11   -1    0    0    0    0  0.00000000000E+00  0.00000000000E+00  0.45593999997E+02  0.45594000000E+02  0.51100000000E-03 0. -1.
         11   -1    0    0    0    0 -0.00000000000E+00 -0.00000000000E+00 -0.45593999997E+02  0.45594000000E+02  0.51100000000E-03 0.  1.
    9900012    2    1    2    0    0  0.15104305759E+02  0.41017883226E+02 -0.10886124462E+02  0.46142306503E+02  0.99998973368E+01 0.  0.
         12    1    1    2    0    0 -0.15104305759E+02 -0.41017883226E+02  0.10886124462E+02  0.45045693497E+02  0.00000000000E+00 0. -1.
         11    1    3    3    0    0  0.38402451598E+01  0.20155118555E+02 -0.44275700668E+01  0.20989989609E+02  0.51100000000E-03 0.  1.
        -11    1    3    3    0    0  0.80518496197E+01  0.93520891526E+01 -0.37615725761E+01  0.12901289948E+02  0.51100000000E-03 0. -1.
         12    1    3    3    0    0  0.32122109796E+01  0.11510675519E+02 -0.26969818190E+01  0.12251026945E+02  0.00000000000E+00 0. -1.
</event>
<event>
 7    1  0.2395003E-008  0.4614232E+02  0.7816164E-02  0.1320468E+00
        -11   -1    0    0    0    0  0.00000000000E+00  0.00000000000E+00  0.45593999997E+02  0.45594000000E+02  0.51100000000E-03 0. -1.
         11   -1    0    0    0    0 -0.00000000000E+00 -0.00000000000E+00 -0.45593999997E+02  0.45594000000E+02  0.51100000000E-03 0.  1.
    9900012    2    1    2    0    0 -0.10124479988E+02  0.39937032654E+02  0.18211036016E+02  0.46142317577E+02  0.99999983174E+01 0.  0.
         12    1    1    2    0    0  0.10124479988E+02 -0.39937032654E+02 -0.18211036016E+02  0.45045682423E+02  0.00000000000E+00 0. -1.
         11    1    3    3    0    0 -0.60012832926E+01  0.16217577325E+02  0.81130826861E+01  0.19100977106E+02  0.51100000000E-03 0. -1.
        -11    1    3    3    0    0 -0.35773837540E+01  0.22717556702E+02  0.74763721922E+01  0.24182249657E+02  0.51100000000E-03 0.  1.
        -12    1    3    3    0    0 -0.54581294177E+00  0.10018986266E+01  0.26215811374E+01  0.28590908145E+01  0.00000000000E+00 0.  1.
</event>
<event>
 7    1  0.2395003E-008  0.4614231E+02  0.7816164E-02  0.1320468E+00
        -11   -1    0    0    0    0  0.00000000000E+00  0.00000000000E+00  0.45593999997E+02  0.45594000000E+02  0.51100000000E-03 0. -1.
         11   -1    0    0    0    0 -0.00000000000E+00 -0.00000000000E+00 -0.45593999997E+02  0.45594000000E+02  0.51100000000E-03 0.  1.
    9900012    2    1    2    0    0 -0.13671332932E+01 -0.15253162673E+02 -0.42362554372E+02  0.46142311661E+02  0.99999443749E+01 0.  0.
         12    1    1    2    0    0  0.13671332932E+01  0.15253162673E+02  0.42362554372E+02  0.45045688339E+02  0.00000000000E+00 0. -1.
         11    1    3    3    0    0 -0.61498412691E+00 -0.31335724118E+01 -0.47443557591E+01  0.57189503728E+01  0.51100000000E-03 0. -1.
        -11    1    3    3    0    0  0.37571758702E+01 -0.71149982445E+01 -0.21327976039E+02  0.22795221708E+02  0.51100000000E-03 0.  1.
         12    1    3    3    0    0 -0.45093250365E+01 -0.50045920168E+01 -0.16290222575E+02  0.17628139580E+02  0.00000000000E+00 0. -1.
</event>
<event>
 7    1  0.2395003E-008  0.4614232E+02  0.7816164E-02  0.1320468E+00
        -11   -1    0    0    0    0  0.00000000000E+00  0.00000000000E+00  0.45593999997E+02  0.45594000000E+02  0.51100000000E-03 0. -1.
         11   -1    0    0    0    0 -0.00000000000E+00 -0.00000000000E+00 -0.45593999997E+02  0.45594000000E+02  0.51100000000E-03 0.  1.
    9900012    2    1    2    0    0  0.27070799547E+02 -0.35681813608E+02 -0.48055669102E+01  0.46142317812E+02  0.10000000463E+02 0.  0.
         12    1    1    2    0    0 -0.27070799547E+02  0.35681813608E+02  0.48055669102E+01  0.45045682188E+02  0.00000000000E+00 0. -1.
         11    1    3    3    0    0  0.99938261805E+01 -0.16252103693E+02 -0.46833881423E+01  0.19645395413E+02  0.51100000000E-03 0.  1.
        -11    1    3    3    0    0  0.14260398317E+02 -0.12401734752E+02  0.44882927584E+00  0.18904058638E+02  0.51100000000E-03 0. -1.
         12    1    3    3    0    0  0.28165750495E+01 -0.70279751637E+01 -0.57100804373E+00  0.75928637612E+01  0.00000000000E+00 0. -1.
</event>
<event>
 7    1  0.2395003E-008  0.4614232E+02  0.7816164E-02  0.1320468E+00
        -11   -1    0    0    0    0  0.00000000000E+00  0.00000000000E+00  0.45593999997E+02  0.45594000000E+02  0.51100000000E-03 0.  1.
         11   -1    0    0    0    0 -0.00000000000E+00 -0.00000000000E+00 -0.45593999997E+02  0.45594000000E+02  0.51100000000E-03 0. -1.
    9900012    2    1    2    0    0 -0.11158177647E+02  0.14591420100E+02  0.41130270114E+02  0.46142316648E+02  0.99999898538E+01 0.  0.
         12    1    1    2    0    0  0.11158177647E+02 -0.14591420100E+02 -0.41130270114E+02  0.45045683352E+02  0.00000000000E+00 0. -1.
         11    1    3    3    0    0 -0.56876201527E+01  0.15750018486E+01  0.11863724962E+02  0.13250570707E+02  0.51100000000E-03 0.  1.
        -11    1    3    3    0    0 -0.12617213323E+01  0.29559340443E+01  0.12376450126E+02  0.12786946656E+02  0.51100000000E-03 0. -1.
         12    1    3    3    0    0 -0.42088361619E+01  0.10060484208E+02  0.16890095026E+02  0.20104799286E+02  0.00000000000E+00 0. -1.
</event>
<event>
 7    1  0.2395003E-008  0.4614232E+02  0.7816164E-02  0.1320468E+00
        -11   -1    0    0    0    0  0.00000000000E+00  0.00000000000E+00  0.45593999997E+02  0.45594000000E+02  0.51100000000E-03 0. -1.
         11   -1    0    0    0    0 -0.00000000000E+00 -0.00000000000E+00 -0.45593999997E+02  0.45594000000E+02  0.51100000000E-03 0.  1.
    9900012    2    1    2    0    0  0.38457009312E+02 -0.23158744892E+02 -0.37208256545E+01  0.46142316814E+02  0.99999913610E+01 0.  0.
         12    1    1    2    0    0 -0.38457009312E+02  0.23158744892E+02  0.37208256545E+01  0.45045683186E+02  0.00000000000E+00 0. -1.
         11    1    3    3    0    0  0.60044696868E+01 -0.23416275710E+01  0.37010498203E+00  0.64555289373E+01  0.51100000000E-03 0. -1.
        -11    1    3    3    0    0  0.17916927341E+02 -0.12723053628E+02  0.17734110537E+01  0.22046255147E+02  0.51100000000E-03 0.  1.
        -12    1    3    3    0    0  0.14535612284E+02 -0.80940636928E+01 -0.58643416901E+01  0.17640532730E+02  0.00000000000E+00 0.  1.
</event>
<event>
 7    1  0.2395003E-008  0.4614232E+02  0.7816164E-02  0.1320468E+00
        -11   -1    0    0    0    0  0.00000000000E+00  0.00000000000E+00  0.45593999997E+02  0.45594000000E+02  0.51100000000E-03 0. -1.
         11   -1    0    0    0    0 -0.00000000000E+00 -0.00000000000E+00 -0.45593999997E+02  0.45594000000E+02  0.51100000000E-03 0.  1.
    9900012    2    1    2    0    0 -0.16525611746E+02 -0.15733169830E+02 -0.38839221377E+02  0.46142316592E+02  0.99999893368E+01 0.  0.
         12    1    1    2    0    0  0.16525611746E+02  0.15733169830E+02  0.38839221377E+02  0.45045683408E+02  0.00000000000E+00 0. -1.
         11    1    3    3    0    0 -0.75653915941E+01 -0.52911603738E+01 -0.78328681779E+01  0.12107243791E+02  0.51100000000E-03 0. -1.
        -11    1    3    3    0    0 -0.49847035468E+01 -0.43217448550E+01 -0.12342588713E+02  0.13995150747E+02  0.51100000000E-03 0.  1.
         12    1    3    3    0    0 -0.39755166055E+01 -0.61202646016E+01 -0.18663764487E+02  0.20039922053E+02  0.00000000000E+00 0. -1.
</event>
<event>
 7    1  0.2395003E-008  0.4614232E+02  0.7816164E-02  0.1320468E+00
        -11   -1    0    0    0    0  0.00000000000E+00  0.00000000000E+00  0.45593999997E+02  0.45594000000E+02  0.51100000000E-03 0. -1.
         11   -1    0    0    0    0 -0.00000000000E+00 -0.00000000000E+00 -0.45593999997E+02  0.45594000000E+02  0.51100000000E-03 0.  1.
    9900012    2    1    2    0    0  0.43397428474E+02 -0.12068236500E+02  0.36653457997E+00  0.46142317877E+02  0.10000001055E+02 0.  0.
         12    1    1    2    0    0 -0.43397428474E+02  0.12068236500E+02 -0.36653457997E+00  0.45045682123E+02  0.00000000000E+00 0. -1.
         11    1    3    3    0    0  0.54397347387E+01 -0.37543851111E+01 -0.39055052713E+00  0.66210763148E+01  0.51100000000E-03 0.  1.
        -11    1    3    3    0    0  0.18115095765E+01  0.10475417718E+01  0.61906507699E+00  0.21822356747E+01  0.51100000000E-03 0. -1.
        -12    1    3    3    0    0  0.36146184159E+02 -0.93613931604E+01  0.13802003012E+00  0.37339005887E+02  0.00000000000E+00 0.  1.
</event>
<event>
 7    1  0.2395003E-008  0.4614231E+02  0.7816164E-02  0.1320468E+00
        -11   -1    0    0    0    0  0.00000000000E+00  0.00000000000E+00  0.45593999997E+02  0.45594000000E+02  0.51100000000E-03 0.  1.
         11   -1    0    0    0    0 -0.00000000000E+00 -0.00000000000E+00 -0.45593999997E+02  0.45594000000E+02  0.51100000000E-03 0. -1.
    9900012    2    1    2    0    0  0.17511212176E+02 -0.30199224226E+02 -0.28468899827E+02  0.46142312603E+02  0.99999529635E+01 0.  0.
         12    1    1    2    0    0 -0.17511212176E+02  0.30199224226E+02  0.28468899827E+02  0.45045687397E+02  0.00000000000E+00 0. -1.
         11    1    3    3    0    0  0.53833553238E+01 -0.95083361523E+01 -0.82247437610E+01  0.13676087932E+02  0.51100000000E-03 0. -1.
        -11    1    3    3    0    0  0.41266123945E+01 -0.14645859338E+02 -0.10528082718E+02  0.18503260566E+02  0.51100000000E-03 0.  1.
         12    1    3    3    0    0  0.80012444574E+01 -0.60450287351E+01 -0.97160733483E+01  0.13962964105E+02  0.00000000000E+00 0. -1.
</event>
<event>
 7    1  0.2395003E-008  0.4614232E+02  0.7816164E-02  0.1320468E+00
        -11   -1    0    0    0    0  0.00000000000E+00  0.00000000000E+00  0.45593999997E+02  0.45594000000E+02  0.51100000000E-03 0. -1.
         11   -1    0    0    0    0 -0.00000000000E+00 -0.00000000000E+00 -0.45593999997E+02  0.45594000000E+02  0.51100000000E-03 0.  1.
    9900012    2    1    2    0    0 -0.47406670451E+01 -0.44755506127E+02 -0.18931958038E+01  0.46142318264E+02  0.10000004587E+02 0.  0.
         12    1    1    2    0    0  0.47406670451E+01  0.44755506127E+02  0.18931958038E+01  0.45045681736E+02  0.00000000000E+00 0. -1.
         11    1    3    3    0    0  0.22410825562E+00 -0.13336825318E+02  0.24152097559E+01  0.13555602993E+02  0.51100000000E-03 0. -1.
        -11    1    3    3    0    0 -0.56716903988E+01 -0.22499108820E+02 -0.16924969125E+01  0.23264619398E+02  0.51100000000E-03 0.  1.
         12    1    3    3    0    0  0.70691509810E+00 -0.89195719886E+01 -0.26159086472E+01  0.93220958730E+01  0.00000000000E+00 0. -1.
</event>
<event>
 7    1  0.2395003E-008  0.4614232E+02  0.7816164E-02  0.1320468E+00
        -11   -1    0    0    0    0  0.00000000000E+00  0.00000000000E+00  0.45593999997E+02  0.45594000000E+02  0.51100000000E-03 0. -1.
         11   -1    0    0    0    0 -0.00000000000E+00 -0.00000000000E+00 -0.45593999997E+02  0.45594000000E+02  0.51100000000E-03 0.  1.
    9900012    2    1    2    0    0  0.16513933603E+02 -0.41086436858E+02  0.82648751005E+01  0.46142318107E+02  0.10000003158E+02 0.  0.
         12    1    1    2    0    0 -0.16513933603E+02  0.41086436858E+02 -0.82648751005E+01  0.45045681893E+02  0.00000000000E+00 0. -1.
         11    1    3    3    0    0  0.21978497368E+01 -0.84297295086E+01  0.11917547397E+00  0.87123525014E+01  0.51100000000E-03 0. -1.
        -11    1    3    3    0    0  0.21064634134E+01 -0.10280327516E+01  0.17580181875E+01  0.29299603511E+01  0.51100000000E-03 0.  1.
        -12    1    3    3    0    0  0.12209620453E+02 -0.31628674598E+02  0.63876814390E+01  0.34500005255E+02  0.00000000000E+00 0.  1.
</event>
<event>
 7    1  0.2534529E-008  0.4614232E+02  0.7816164E-02  0.1320468E+00
        -11   -1    0    0    0    0  0.00000000000E+00  0.00000000000E+00  0.45593999997E+02  0.45594000000E+02  0.51100000000E-03 0. -1.
         11   -1    0    0    0    0 -0.00000000000E+00 -0.00000000000E+00 -0.45593999997E+02  0.45594000000E+02  0.51100000000E-03 0.  1.
    9900012    2    1    2    0    0 -0.18577819381E+02  0.79506823525E+00 -0.41028600116E+02  0.46142317255E+02  0.99999953833E+01 0.  0.
         12    1    1    2    0    0  0.18577819381E+02 -0.79506823525E+00  0.41028600116E+02  0.45045682745E+02  0.00000000000E+00 0. -1.
         11    1    3    3    0    0 -0.10312519087E+00  0.12923329911E+01 -0.22891664446E+01  0.26307874557E+01  0.51100000000E-03 0. -1.
        -11    1    3    3    0    0 -0.77744879965E+00 -0.10546562245E+01 -0.55740529089E+00  0.14238775605E+01  0.51100000000E-03 0.  1.
        -12    1    3    3    0    0 -0.17697245391E+02  0.55739146863E+00 -0.38182028381E+02  0.42087652239E+02  0.00000000000E+00 0.  1.
</event>
<event>
 7    1  0.2395003E-008  0.4614232E+02  0.7816164E-02  0.1320468E+00
        -11   -1    0    0    0    0  0.00000000000E+00  0.00000000000E+00  0.45593999997E+02  0.45594000000E+02  0.51100000000E-03 0.  1.
         11   -1    0    0    0    0 -0.00000000000E+00 -0.00000000000E+00 -0.45593999997E+02  0.45594000000E+02  0.51100000000E-03 0. -1.
    9900012    2    1    2    0    0  0.11266596210E+02  0.15815997793E+02  0.40645187657E+02  0.46142320340E+02  0.10000023516E+02 0.  0.
         12    1    1    2    0    0 -0.11266596210E+02 -0.15815997793E+02 -0.40645187657E+02  0.45045679660E+02  0.00000000000E+00 0. -1.
         11    1    3    3    0    0  0.27978570554E+01  0.58792101003E+01  0.20528576301E+02  0.21536377613E+02  0.51100000000E-03 0. -1.
        -11    1    3    3    0    0  0.56874861066E+00 -0.74308511311E-01 -0.20935318201E+00  0.61059458966E+00  0.51100000000E-03 0.  1.
         12    1    3    3    0    0  0.78999905438E+01  0.10011096204E+02  0.20325964538E+02  0.23995348137E+02  0.00000000000E+00 0. -1.
</event>
<event>
 7    1  0.2395003E-008  0.4614232E+02  0.7816164E-02  0.1320468E+00
        -11   -1    0    0    0    0  0.00000000000E+00  0.00000000000E+00  0.45593999997E+02  0.45594000000E+02  0.51100000000E-03 0.  1.
         11   -1    0    0    0    0 -0.00000000000E+00 -0.00000000000E+00 -0.45593999997E+02  0.45594000000E+02  0.51100000000E-03 0. -1.
    9900012    2    1    2    0    0  0.13629992156E+02 -0.13792924924E+01  0.42911937899E+02  0.46142317098E+02  0.99999939487E+01 0.  0.
         12    1    1    2    0    0 -0.13629992156E+02  0.13792924924E+01 -0.42911937899E+02  0.45045682902E+02  0.00000000000E+00 0. -1.
         11    1    3    3    0    0  0.97107445272E+01 -0.15218855699E+01  0.17053901528E+02  0.19683756058E+02  0.51100000000E-03 0. -1.
        -11    1    3    3    0    0  0.85151955059E+00  0.18591252235E+01  0.11177949078E+02  0.11363449212E+02  0.51100000000E-03 0.  1.
        -12    1    3    3    0    0  0.30677280777E+01 -0.17165321460E+01  0.14680087293E+02  0.15095111828E+02  0.00000000000E+00 0.  1.
</event>
<event>
 7    1  0.2395003E-008  0.4614232E+02  0.7816164E-02  0.1320468E+00
        -11   -1    0    0    0    0  0.00000000000E+00  0.00000000000E+00  0.45593999997E+02  0.45594000000E+02  0.51100000000E-03 0.  1.
         11   -1    0    0    0    0 -0.00000000000E+00 -0.00000000000E+00 -0.45593999997E+02  0.45594000000E+02  0.51100000000E-03 0. -1.
    9900012    2    1    2    0    0  0.38731404722E+02  0.23638167679E+01  0.22878031271E+02  0.46142315897E+02  0.99999830033E+01 0.  0.
         12    1    1    2    0    0 -0.38731404722E+02 -0.23638167679E+01 -0.22878031271E+02  0.45045684103E+02  0.00000000000E+00 0. -1.
         11    1    3    3    0    0  0.19267291383E+02  0.19118562316E+01  0.14772557085E+02  0.24353894033E+02  0.51100000000E-03 0. -1.
        -11    1    3    3    0    0  0.14728035554E+02  0.19711010108E+00  0.85393343518E+01  0.17025689857E+02  0.51100000000E-03 0.  1.
        -12    1    3    3    0    0  0.47360777851E+01  0.25485043528E+00 -0.43386016547E+00  0.47627320073E+01  0.00000000000E+00 0.  1.
</event>
<event>
 7    1  0.2395003E-008  0.4614232E+02  0.7816164E-02  0.1320468E+00
        -11   -1    0    0    0    0  0.00000000000E+00  0.00000000000E+00  0.45593999997E+02  0.45594000000E+02  0.51100000000E-03 0.  1.
         11   -1    0    0    0    0 -0.00000000000E+00 -0.00000000000E+00 -0.45593999997E+02  0.45594000000E+02  0.51100000000E-03 0. -1.
    9900012    2    1    2    0    0  0.35354713487E+02  0.20739005183E+02  0.18682918375E+02  0.46142317179E+02  0.99999946936E+01 0.  0.
         12    1    1    2    0    0 -0.35354713487E+02 -0.20739005183E+02 -0.18682918375E+02  0.45045682821E+02  0.00000000000E+00 0. -1.
         11    1    3    3    0    0  0.21546133707E+02  0.15683424521E+02  0.12291076842E+02  0.29347508457E+02  0.51100000000E-03 0. -1.
        -11    1    3    3    0    0  0.13718593519E+02  0.52065583035E+01  0.69308266739E+01  0.16227890071E+02  0.51100000000E-03 0.  1.
         12    1    3    3    0    0  0.89986261236E-01 -0.15097764148E+00 -0.53898514046E+00  0.56691865120E+00  0.00000000000E+00 0. -1.
</event>
<event>
 7    1  0.2395003E-008  0.4614232E+02  0.7816164E-02  0.1320468E+00
        -11   -1    0    0    0    0  0.00000000000E+00  0.00000000000E+00  0.45593999997E+02  0.45594000000E+02  0.51100000000E-03 0. -1.
         11   -1    0    0    0    0 -0.00000000000E+00 -0.00000000000E+00 -0.45593999997E+02  0.45594000000E+02  0.51100000000E-03 0.  1.
    9900012    2    1    2    0    0 -0.68855546809E+01  0.36975219024E+02 -0.24789831784E+02  0.46142318243E+02  0.10000004390E+02 0.  0.
         12    1    1    2    0    0  0.68855546809E+01 -0.36975219024E+02  0.24789831784E+02  0.45045681757E+02  0.00000000000E+00 0. -1.
         11    1    3    3    0    0 -0.19029987071E+01  0.62878146307E+01 -0.48437453583E+01  0.81621006039E+01  0.51100000000E-03 0.  1.
        -11    1    3    3    0    0 -0.33919571497E+01  0.44630582011E+01 -0.12749206141E+01  0.57488855133E+01  0.51100000000E-03 0. -1.
         12    1    3    3    0    0 -0.15905988240E+01  0.26224346192E+02 -0.18671165811E+02  0.32231332125E+02  0.00000000000E+00 0. -1.
</event>
<event>
 7    1  0.2395003E-008  0.4614232E+02  0.7816164E-02  0.1320468E+00
        -11   -1    0    0    0    0  0.00000000000E+00  0.00000000000E+00  0.45593999997E+02  0.45594000000E+02  0.51100000000E-03 0.  1.
         11   -1    0    0    0    0 -0.00000000000E+00 -0.00000000000E+00 -0.45593999997E+02  0.45594000000E+02  0.51100000000E-03 0. -1.
    9900012    2    1    2    0    0  0.19189821686E+01  0.21968756304E+02  0.39278551103E+02  0.46142319598E+02  0.10000016753E+02 0.  0.
         12    1    1    2    0    0 -0.19189821686E+01 -0.21968756304E+02 -0.39278551103E+02  0.45045680402E+02  0.00000000000E+00 0. -1.
         11    1    3    3    0    0 -0.16987502401E+01  0.67122892449E+01  0.71676227772E+01  0.99657110043E+01  0.51100000000E-03 0. -1.
        -11    1    3    3    0    0 -0.61136536539E+00  0.81708235037E+01  0.13090720463E+02  0.15443545152E+02  0.51100000000E-03 0.  1.
         12    1    3    3    0    0  0.42290977741E+01  0.70856435558E+01  0.19020207862E+02  0.20733063442E+02  0.00000000000E+00 0. -1.
</event>
<event>
 7    1  0.2664973E-008  0.4614232E+02  0.7816164E-02  0.1320468E+00
        -11   -1    0    0    0    0  0.00000000000E+00  0.00000000000E+00  0.45593999997E+02  0.45594000000E+02  0.51100000000E-03 0.  1.
         11   -1    0    0    0    0 -0.00000000000E+00 -0.00000000000E+00 -0.45593999997E+02  0.45594000000E+02  0.51100000000E-03 0. -1.
    9900012    2    1    2    0    0 -0.69767408826E+01  0.44339204545E+02 -0.38044122425E+01  0.46142317349E+02  0.99999962410E+01 0.  0.
         12    1    1    2    0    0  0.69767408826E+01 -0.44339204545E+02  0.38044122425E+01  0.45045682651E+02  0.00000000000E+00 0. -1.
         11    1    3    3    0    0  0.12495518376E+01  0.14038873390E+01 -0.36834260178E+00  0.19151908493E+01  0.51100000000E-03 0. -1.
        -11    1    3    3    0    0 -0.86801582900E+00  0.11289462357E+02  0.12864887355E+01  0.11395633607E+02  0.51100000000E-03 0.  1.
        -12    1    3    3    0    0 -0.73582768912E+01  0.31645854849E+02 -0.47225583762E+01  0.32831492892E+02  0.00000000000E+00 0.  1.
</event>
<event>
 7    1  0.2395003E-008  0.4614232E+02  0.7816164E-02  0.1320468E+00
        -11   -1    0    0    0    0  0.00000000000E+00  0.00000000000E+00  0.45593999997E+02  0.45594000000E+02  0.51100000000E-03 0. -1.
         11   -1    0    0    0    0 -0.00000000000E+00 -0.00000000000E+00 -0.45593999997E+02  0.45594000000E+02  0.51100000000E-03 0.  1.
    9900012    2    1    2    0    0 -0.28433958685E+02  0.23932636237E+02  0.25452944268E+02  0.46142318124E+02  0.10000003306E+02 0.  0.
         12    1    1    2    0    0  0.28433958685E+02 -0.23932636237E+02 -0.25452944268E+02  0.45045681876E+02  0.00000000000E+00 0. -1.
         11    1    3    3    0    0 -0.72806335093E+01  0.39687249929E+01  0.77986114313E+01  0.11383178066E+02  0.51100000000E-03 0. -1.
        -11    1    3    3    0    0 -0.16642443743E+02  0.16253046863E+02  0.17141155711E+02  0.28895530545E+02  0.51100000000E-03 0.  1.
        -12    1    3    3    0    0 -0.45108814330E+01  0.37108643810E+01  0.51317712564E+00  0.58636095129E+01  0.00000000000E+00 0.  1.
</event>
<event>
 7    1  0.2395003E-008  0.4614232E+02  0.7816164E-02  0.1320468E+00
        -11   -1    0    0    0    0  0.00000000000E+00  0.00000000000E+00  0.45593999997E+02  0.45594000000E+02  0.51100000000E-03 0.  1.
         11   -1    0    0    0    0 -0.00000000000E+00 -0.00000000000E+00 -0.45593999997E+02  0.45594000000E+02  0.51100000000E-03 0. -1.
    9900012    2    1    2    0    0 -0.32653637214E+01 -0.44295978823E+02  0.75044726072E+01  0.46142318196E+02  0.10000003965E+02 0.  0.
         12    1    1    2    0    0  0.32653637214E+01  0.44295978823E+02 -0.75044726072E+01  0.45045681804E+02  0.00000000000E+00 0. -1.
         11    1    3    3    0    0 -0.60173992748E+00 -0.12670092760E+02  0.45318223611E+01  0.13469623442E+02  0.51100000000E-03 0. -1.
        -11    1    3    3    0    0 -0.26552499481E+01 -0.19843301351E+02  0.51930547489E+01  0.20682716908E+02  0.51100000000E-03 0.  1.
        -12    1    3    3    0    0 -0.83738458623E-02 -0.11782584712E+02 -0.22204045028E+01  0.11989977847E+02  0.00000000000E+00 0.  1.
</event>
<event>
 7    1  0.2395003E-008  0.4614232E+02  0.7816164E-02  0.1320468E+00
        -11   -1    0    0    0    0  0.00000000000E+00  0.00000000000E+00  0.45593999997E+02  0.45594000000E+02  0.51100000000E-03 0.  1.
         11   -1    0    0    0    0 -0.00000000000E+00 -0.00000000000E+00 -0.45593999997E+02  0.45594000000E+02  0.51100000000E-03 0. -1.
    9900012    2    1    2    0    0 -0.12444606843E+02  0.38898257878E+02  0.19004483105E+02  0.46142322255E+02  0.10000040979E+02 0.  0.
         12    1    1    2    0    0  0.12444606843E+02 -0.38898257878E+02 -0.19004483105E+02  0.45045677745E+02  0.00000000000E+00 0. -1.
         11    1    3    3    0    0 -0.63888520423E+01  0.11870003621E+02  0.46547122982E+01  0.14261162758E+02  0.51100000000E-03 0. -1.
        -11    1    3    3    0    0 -0.63587559219E+00  0.12107789692E+02  0.91058147455E+01  0.15163072625E+02  0.51100000000E-03 0.  1.
         12    1    3    3    0    0 -0.54198792086E+01  0.14920464565E+02  0.52439560613E+01  0.16718086872E+02  0.00000000000E+00 0. -1.
</event>
<event>
 7    1  0.2395003E-008  0.4614232E+02  0.7816164E-02  0.1320468E+00
        -11   -1    0    0    0    0  0.00000000000E+00  0.00000000000E+00  0.45593999997E+02  0.45594000000E+02  0.51100000000E-03 0.  1.
         11   -1    0    0    0    0 -0.00000000000E+00 -0.00000000000E+00 -0.45593999997E+02  0.45594000000E+02  0.51100000000E-03 0. -1.
    9900012    2    1    2    0    0 -0.35023022784E+02 -0.20512994516E+02  0.19537614717E+02  0.46142318100E+02  0.10000003093E+02 0.  0.
         12    1    1    2    0    0  0.35023022784E+02  0.20512994516E+02 -0.19537614717E+02  0.45045681900E+02  0.00000000000E+00 0. -1.
         11    1    3    3    0    0 -0.77101105469E+01 -0.52488739711E+01  0.31929701668E+01  0.98585770452E+01  0.51100000000E-03 0. -1.
        -11    1    3    3    0    0 -0.24178943216E+02 -0.15498423401E+02  0.16527354677E+02  0.33135719033E+02  0.51100000000E-03 0.  1.
        -12    1    3    3    0    0 -0.31339690218E+01  0.23430285640E+00 -0.18271012720E+00  0.31480220217E+01  0.00000000000E+00 0.  1.
</event>
<event>
 7    1  0.2395003E-008  0.4614232E+02  0.7816164E-02  0.1320468E+00
        -11   -1    0    0    0    0  0.00000000000E+00  0.00000000000E+00  0.45593999997E+02  0.45594000000E+02  0.51100000000E-03 0.  1.
         11   -1    0    0    0    0 -0.00000000000E+00 -0.00000000000E+00 -0.45593999997E+02  0.45594000000E+02  0.51100000000E-03 0. -1.
    9900012    2    1    2    0    0  0.26286052135E+02  0.14571768750E+01  0.36551794234E+02  0.46142316933E+02  0.99999924470E+01 0.  0.
         12    1    1    2    0    0 -0.26286052135E+02 -0.14571768750E+01 -0.36551794234E+02  0.45045683067E+02  0.00000000000E+00 0. -1.
         11    1    3    3    0    0  0.22075768386E+01  0.13308444039E+01  0.29339172906E+01  0.39054338114E+01  0.51100000000E-03 0. -1.
        -11    1    3    3    0    0 -0.12281487720E+00  0.93648021436E+00  0.19562221512E+00  0.96454496947E+00  0.51100000000E-03 0.  1.
        -12    1    3    3    0    0  0.24201290174E+02 -0.81014774324E+00  0.33422254728E+02  0.41272338152E+02  0.00000000000E+00 0.  1.
</event>
<event>
 7    1  0.2395003E-008  0.4614232E+02  0.7816164E-02  0.1320468E+00
        -11   -1    0    0    0    0  0.00000000000E+00  0.00000000000E+00  0.45593999997E+02  0.45594000000E+02  0.51100000000E-03 0.  1.
         11   -1    0    0    0    0 -0.00000000000E+00 -0.00000000000E+00 -0.45593999997E+02  0.45594000000E+02  0.51100000000E-03 0. -1.
    9900012    2    1    2    0    0 -0.42779156033E+00 -0.16722183051E+02  0.41824624398E+02  0.46142316326E+02  0.99999869179E+01 0.  0.
         12    1    1    2    0    0  0.42779156033E+00  0.16722183051E+02 -0.41824624398E+02  0.45045683674E+02  0.00000000000E+00 0. -1.
         11    1    3    3    0    0 -0.29934772202E+01 -0.38959811028E+01  0.13889551671E+02  0.14732929801E+02  0.51100000000E-03 0. -1.
        -11    1    3    3    0    0 -0.22134513534E+00 -0.90403972411E+01  0.22343932881E+02  0.24104545480E+02  0.51100000000E-03 0.  1.
         12    1    3    3    0    0  0.27870307952E+01 -0.37858047073E+01  0.55911398454E+01  0.73048410459E+01  0.00000000000E+00 0. -1.
</event>
<event>
 7    1  0.2395003E-008  0.4614232E+02  0.7816164E-02  0.1320468E+00
        -11   -1    0    0    0    0  0.00000000000E+00  0.00000000000E+00  0.45593999997E+02  0.45594000000E+02  0.51100000000E-03 0.  1.
         11   -1    0    0    0    0 -0.00000000000E+00 -0.00000000000E+00 -0.45593999997E+02  0.45594000000E+02  0.51100000000E-03 0. -1.
    9900012    2    1    2    0    0 -0.43328719971E+02 -0.26263756112E+01  0.12034851997E+02  0.46142317790E+02  0.10000000261E+02 0.  0.
         12    1    1    2    0    0  0.43328719971E+02  0.26263756112E+01 -0.12034851997E+02  0.45045682210E+02  0.00000000000E+00 0. -1.
         11    1    3    3    0    0 -0.17466095127E+02 -0.32410888824E+01  0.66035461723E+01  0.18951938119E+02  0.51100000000E-03 0.  1.
        -11    1    3    3    0    0 -0.13850111148E+02 -0.25303348870E+01  0.14672608740E+01  0.14155600595E+02  0.51100000000E-03 0. -1.
        -12    1    3    3    0    0 -0.12012513695E+02  0.31450481581E+01  0.39640449508E+01  0.13034779076E+02  0.00000000000E+00 0.  1.
</event>
<event>
 7    1  0.2395003E-008  0.4614232E+02  0.7816164E-02  0.1320468E+00
        -11   -1    0    0    0    0  0.00000000000E+00  0.00000000000E+00  0.45593999997E+02  0.45594000000E+02  0.51100000000E-03 0.  1.
         11   -1    0    0    0    0 -0.00000000000E+00 -0.00000000000E+00 -0.45593999997E+02  0.45594000000E+02  0.51100000000E-03 0. -1.
    9900012    2    1    2    0    0  0.10371726480E+02  0.59521544049E+01  0.43429394441E+02  0.46142321475E+02  0.10000033866E+02 0.  0.
         12    1    1    2    0    0 -0.10371726480E+02 -0.59521544049E+01 -0.43429394441E+02  0.45045678525E+02  0.00000000000E+00 0. -1.
         11    1    3    3    0    0 -0.51716087522E+00  0.23534920469E+01  0.58217226958E+01  0.63007011986E+01  0.51100000000E-03 0. -1.
        -11    1    3    3    0    0  0.53467690956E+01 -0.89144911574E+00  0.10569163708E+02  0.11878124559E+02  0.51100000000E-03 0.  1.
        -12    1    3    3    0    0  0.55421182598E+01  0.44901114738E+01  0.27038508037E+02  0.27963495717E+02  0.00000000000E+00 0.  1.
</event>
<event>
 7    1  0.2395003E-008  0.4614232E+02  0.7816164E-02  0.1320468E+00
        -11   -1    0    0    0    0  0.00000000000E+00  0.00000000000E+00  0.45593999997E+02  0.45594000000E+02  0.51100000000E-03 0.  1.
         11   -1    0    0    0    0 -0.00000000000E+00 -0.00000000000E+00 -0.45593999997E+02  0.45594000000E+02  0.51100000000E-03 0. -1.
    9900012    2    1    2    0    0 -0.15124795442E+02 -0.64953353516E+01  0.41930474184E+02  0.46142317812E+02  0.10000000462E+02 0.  0.
         12    1    1    2    0    0  0.15124795442E+02  0.64953353516E+01 -0.41930474184E+02  0.45045682188E+02  0.00000000000E+00 0. -1.
         11    1    3    3    0    0 -0.59922784795E+01 -0.10257794004E+01  0.17714632075E+02  0.18728796399E+02  0.51100000000E-03 0. -1.
        -11    1    3    3    0    0 -0.10280581543E+02 -0.42688091968E+01  0.20129367300E+02  0.23002271996E+02  0.51100000000E-03 0.  1.
         12    1    3    3    0    0  0.11480645801E+01 -0.12007467544E+01  0.40864748085E+01  0.44112494159E+01  0.00000000000E+00 0. -1.
</event>
<event>
 7    1  0.2395003E-008  0.4614232E+02  0.7816164E-02  0.1320468E+00
        -11   -1    0    0    0    0  0.00000000000E+00  0.00000000000E+00  0.45593999997E+02  0.45594000000E+02  0.51100000000E-03 0.  1.
         11   -1    0    0    0    0 -0.00000000000E+00 -0.00000000000E+00 -0.45593999997E+02  0.45594000000E+02  0.51100000000E-03 0. -1.
    9900012    2    1    2    0    0  0.33661627453E+02 -0.99881437356E+01  0.28217821729E+02  0.46142316065E+02  0.99999845328E+01 0.  0.
         12    1    1    2    0    0 -0.33661627453E+02  0.99881437356E+01 -0.28217821729E+02  0.45045683935E+02  0.00000000000E+00 0. -1.
         11    1    3    3    0    0  0.21444183425E+02 -0.10424324664E+02  0.18025184958E+02  0.29890246578E+02  0.51100000000E-03 0.  1.
        -11    1    3    3    0    0  0.13844495489E+01 -0.98983053121E+00  0.10069804315E+01  0.19774920694E+01  0.51100000000E-03 0. -1.
         12    1    3    3    0    0  0.10832994479E+02  0.14260114596E+01  0.91856563391E+01  0.14274577417E+02  0.00000000000E+00 0. -1.
</event>
<event>
 7    1  0.2395003E-008  0.4614232E+02  0.7816164E-02  0.1320468E+00
        -11   -1    0    0    0    0  0.00000000000E+00  0.00000000000E+00  0.45593999997E+02  0.45594000000E+02  0.51100000000E-03 0.  1.
         11   -1    0    0    0    0 -0.00000000000E+00 -0.00000000000E+00 -0.45593999997E+02  0.45594000000E+02  0.51100000000E-03 0. -1.
    9900012    2    1    2    0    0 -0.24777663467E+02 -0.22116499698E+02  0.30430927367E+02  0.46142317563E+02  0.99999981942E+01 0.  0.
         12    1    1    2    0    0  0.24777663467E+02  0.22116499698E+02 -0.30430927367E+02  0.45045682437E+02  0.00000000000E+00 0. -1.
         11    1    3    3    0    0  0.36076200529E-01 -0.13645016028E+01  0.13751187448E+01  0.19375546288E+01  0.51100000000E-03 0. -1.
        -11    1    3    3    0    0 -0.53784053872E+01 -0.81997178455E+01  0.57635890383E+01  0.11374602240E+02  0.51100000000E-03 0.  1.
        -12    1    3    3    0    0 -0.19435334280E+02 -0.12552280250E+02  0.23292219584E+02  0.32830160694E+02  0.00000000000E+00 0.  1.
</event>
<event>
 7    1  0.2395003E-008  0.4614232E+02  0.7816164E-02  0.1320468E+00
        -11   -1    0    0    0    0  0.00000000000E+00  0.00000000000E+00  0.45593999997E+02  0.45594000000E+02  0.51100000000E-03 0.  1.
         11   -1    0    0    0    0 -0.00000000000E+00 -0.00000000000E+00 -0.45593999997E+02  0.45594000000E+02  0.51100000000E-03 0. -1.
    9900012    2    1    2    0    0  0.39195128244E+02 -0.17420072605E+02  0.13762139407E+02  0.46142317758E+02  0.99999999679E+01 0.  0.
         12    1    1    2    0    0 -0.39195128244E+02  0.17420072605E+02 -0.13762139407E+02  0.45045682242E+02  0.00000000000E+00 0. -1.
         11    1    3    3    0    0 -0.94629021686E-01 -0.22153044067E+00  0.29138134548E+00  0.37806578462E+00  0.51100000000E-03 0. -1.
        -11    1    3    3    0    0 -0.55653860471E-01 -0.53552643012E+00 -0.57379599599E+00  0.78684688198E+00  0.51100000000E-03 0.  1.
        -12    1    3    3    0    0  0.39345411126E+02 -0.16663015734E+02  0.14044554058E+02  0.44977405091E+02  0.00000000000E+00 0.  1.
</event>
<event>
 7    1  0.2395003E-008  0.4614232E+02  0.7816164E-02  0.1320468E+00
        -11   -1    0    0    0    0  0.00000000000E+00  0.00000000000E+00  0.45593999997E+02  0.45594000000E+02  0.51100000000E-03 0. -1.
         11   -1    0    0    0    0 -0.00000000000E+00 -0.00000000000E+00 -0.45593999997E+02  0.45594000000E+02  0.51100000000E-03 0.  1.
    9900012    2    1    2    0    0  0.12809733255E+02 -0.41068345580E+02 -0.13357214857E+02  0.46142318038E+02  0.10000002522E+02 0.  0.
         12    1    1    2    0    0 -0.12809733255E+02  0.41068345580E+02  0.13357214857E+02  0.45045681962E+02  0.00000000000E+00 0. -1.
         11    1    3    3    0    0 -0.47136371007E+00 -0.21577311374E+01 -0.17610084978E+01  0.28247369079E+01  0.51100000000E-03 0. -1.
        -11    1    3    3    0    0  0.15729449228E+01 -0.12329438917E+02 -0.12827064162E+01  0.12495381376E+02  0.51100000000E-03 0.  1.
        -12    1    3    3    0    0  0.11708152042E+02 -0.26581175526E+02 -0.10313499943E+02  0.30822199754E+02  0.00000000000E+00 0.  1.
</event>
<event>
 7    1  0.2395003E-008  0.4614232E+02  0.7816164E-02  0.1320468E+00
        -11   -1    0    0    0    0  0.00000000000E+00  0.00000000000E+00  0.45593999997E+02  0.45594000000E+02  0.51100000000E-03 0. -1.
         11   -1    0    0    0    0 -0.00000000000E+00 -0.00000000000E+00 -0.45593999997E+02  0.45594000000E+02  0.51100000000E-03 0.  1.
    9900012    2    1    2    0    0 -0.33537688715E+02 -0.14527493107E+02 -0.26330378507E+02  0.46142318158E+02  0.10000003618E+02 0.  0.
         12    1    1    2    0    0  0.33537688715E+02  0.14527493107E+02  0.26330378507E+02  0.45045681842E+02  0.00000000000E+00 0. -1.
         11    1    3    3    0    0 -0.21896703463E+02 -0.12690795891E+02 -0.13643116754E+02  0.28751635743E+02  0.51100000000E-03 0. -1.
        -11    1    3    3    0    0 -0.19852036546E+01 -0.59478420513E-01 -0.30017579897E+01  0.35993225089E+01  0.51100000000E-03 0.  1.
         12    1    3    3    0    0 -0.96557815971E+01 -0.17772187956E+01 -0.96855037634E+01  0.13791359906E+02  0.00000000000E+00 0. -1.
</event>
<event>
 7    1  0.2395003E-008  0.4614232E+02  0.7816164E-02  0.1320468E+00
        -11   -1    0    0    0    0  0.00000000000E+00  0.00000000000E+00  0.45593999997E+02  0.45594000000E+02  0.51100000000E-03 0.  1.
         11   -1    0    0    0    0 -0.00000000000E+00 -0.00000000000E+00 -0.45593999997E+02  0.45594000000E+02  0.51100000000E-03 0. -1.
    9900012    2    1    2    0    0 -0.28998137837E+02 -0.13609382289E+02  0.31670272890E+02  0.46142317974E+02  0.10000001937E+02 0.  0.
         12    1    1    2    0    0  0.28998137837E+02  0.13609382289E+02 -0.31670272890E+02  0.45045682026E+02  0.00000000000E+00 0. -1.
         11    1    3    3    0    0 -0.10779325001E+02 -0.20667457788E+01  0.87474175954E+01  0.14035049000E+02  0.51100000000E-03 0. -1.
        -11    1    3    3    0    0 -0.57652287057E+01 -0.66622455974E+00  0.44343168747E+01  0.73037581832E+01  0.51100000000E-03 0.  1.
         12    1    3    3    0    0 -0.12453584131E+02 -0.10876411951E+02  0.18488538420E+02  0.24803510790E+02  0.00000000000E+00 0. -1.
</event>
<event>
 7    1  0.2395003E-008  0.4614232E+02  0.7816164E-02  0.1320468E+00
        -11   -1    0    0    0    0  0.00000000000E+00  0.00000000000E+00  0.45593999997E+02  0.45594000000E+02  0.51100000000E-03 0.  1.
         11   -1    0    0    0    0 -0.00000000000E+00 -0.00000000000E+00 -0.45593999997E+02  0.45594000000E+02  0.51100000000E-03 0. -1.
    9900012    2    1    2    0    0 -0.16229599687E+02 -0.36179042452E+02  0.21372656898E+02  0.46142317836E+02  0.10000000679E+02 0.  0.
         12    1    1    2    0    0  0.16229599687E+02  0.36179042452E+02 -0.21372656898E+02  0.45045682164E+02  0.00000000000E+00 0. -1.
         11    1    3    3    0    0 -0.28106422807E+01 -0.18459856611E+01  0.37399438135E+01  0.50293690539E+01  0.51100000000E-03 0. -1.
        -11    1    3    3    0    0 -0.30785004575E+01 -0.41650540087E+01  0.33608502841E+01  0.61741521568E+01  0.51100000000E-03 0.  1.
        -12    1    3    3    0    0 -0.10340456949E+02 -0.30168002782E+02  0.14271862801E+02  0.34938796625E+02  0.00000000000E+00 0.  1.
</event>
<event>
 7    1  0.2395003E-008  0.4614232E+02  0.7816164E-02  0.1320468E+00
        -11   -1    0    0    0    0  0.00000000000E+00  0.00000000000E+00  0.45593999997E+02  0.45594000000E+02  0.51100000000E-03 0.  1.
         11   -1    0    0    0    0 -0.00000000000E+00 -0.00000000000E+00 -0.45593999997E+02  0.45594000000E+02  0.51100000000E-03 0. -1.
    9900012    2    1    2    0    0 -0.17532272883E+02  0.40023035112E+02 -0.10949407699E+02  0.46142318065E+02  0.10000002775E+02 0.  0.
         12    1    1    2    0    0  0.17532272883E+02 -0.40023035112E+02  0.10949407699E+02  0.45045681935E+02  0.00000000000E+00 0. -1.
         11    1    3    3    0    0 -0.11679020222E+02  0.18953672892E+02 -0.30045047429E+01  0.22464823134E+02  0.51100000000E-03 0. -1.
        -11    1    3    3    0    0 -0.19268542006E+01  0.32875497052E+01 -0.23834334187E-02  0.38106109899E+01  0.51100000000E-03 0.  1.
         12    1    3    3    0    0 -0.39263984603E+01  0.17781812515E+02 -0.79425195224E+01  0.19866883941E+02  0.00000000000E+00 0. -1.
</event>
<event>
 7    1  0.2395003E-008  0.4614232E+02  0.7816164E-02  0.1320468E+00
        -11   -1    0    0    0    0  0.00000000000E+00  0.00000000000E+00  0.45593999997E+02  0.45594000000E+02  0.51100000000E-03 0.  1.
         11   -1    0    0    0    0 -0.00000000000E+00 -0.00000000000E+00 -0.45593999997E+02  0.45594000000E+02  0.51100000000E-03 0. -1.
    9900012    2    1    2    0    0 -0.24914729068E+02 -0.15014019933E+02  0.34394024845E+02  0.46142318030E+02  0.10000002454E+02 0.  0.
         12    1    1    2    0    0  0.24914729068E+02  0.15014019933E+02 -0.34394024845E+02  0.45045681970E+02  0.00000000000E+00 0. -1.
         11    1    3    3    0    0 -0.15205503860E+01 -0.12748585935E+01  0.32684497447E+01  0.38236241845E+01  0.51100000000E-03 0. -1.
        -11    1    3    3    0    0 -0.34748468972E+01 -0.46465749707E+01  0.11646978242E+02  0.13012198982E+02  0.51100000000E-03 0.  1.
         12    1    3    3    0    0 -0.19919331785E+02 -0.90925863684E+01  0.19478596859E+02  0.29306494864E+02  0.00000000000E+00 0. -1.
</event>
<event>
 7    1  0.2395003E-008  0.4614232E+02  0.7816164E-02  0.1320468E+00
        -11   -1    0    0    0    0  0.00000000000E+00  0.00000000000E+00  0.45593999997E+02  0.45594000000E+02  0.51100000000E-03 0.  1.
         11   -1    0    0    0    0 -0.00000000000E+00 -0.00000000000E+00 -0.45593999997E+02  0.45594000000E+02  0.51100000000E-03 0. -1.
    9900012    2    1    2    0    0 -0.13071766453E+02  0.30602985536E+02  0.30359508599E+02  0.46142316919E+02  0.99999923165E+01 0.  0.
         12    1    1    2    0    0  0.13071766453E+02 -0.30602985536E+02 -0.30359508599E+02  0.45045683081E+02  0.00000000000E+00 0. -1.
         11    1    3    3    0    0 -0.29046424540E+01  0.15581479836E+02  0.11847386812E+02  0.19788381344E+02  0.51100000000E-03 0. -1.
        -11    1    3    3    0    0 -0.53636936024E+01  0.65775947943E+01  0.54925812852E+01  0.10109520848E+02  0.51100000000E-03 0.  1.
         12    1    3    3    0    0 -0.48034303969E+01  0.84439109060E+01  0.13019540501E+02  0.16244414727E+02  0.00000000000E+00 0. -1.
</event>
<event>
 7    1  0.2395003E-008  0.4614231E+02  0.7816164E-02  0.1320468E+00
        -11   -1    0    0    0    0  0.00000000000E+00  0.00000000000E+00  0.45593999997E+02  0.45594000000E+02  0.51100000000E-03 0. -1.
         11   -1    0    0    0    0 -0.00000000000E+00 -0.00000000000E+00 -0.45593999997E+02  0.45594000000E+02  0.51100000000E-03 0.  1.
    9900012    2    1    2    0    0  0.29675044051E+02  0.33879353660E+02 -0.83361416767E+00  0.46142314786E+02  0.99999728716E+01 0.  0.
         12    1    1    2    0    0 -0.29675044051E+02 -0.33879353660E+02  0.83361416767E+00  0.45045685214E+02  0.00000000000E+00 0. -1.
         11    1    3    3    0    0 -0.10307453603E+00  0.51863932561E+00  0.11047473678E+00  0.54019999874E+00  0.51100000000E-03 0. -1.
        -11    1    3    3    0    0  0.21215906324E+02  0.27642865939E+02  0.19704604207E+01  0.34901653729E+02  0.51100000000E-03 0.  1.
        -12    1    3    3    0    0  0.85622122624E+01  0.57178483952E+01 -0.29145493252E+01  0.10700461059E+02  0.00000000000E+00 0.  1.
</event>
<event>
 7    1  0.2395003E-008  0.4614232E+02  0.7816164E-02  0.1320468E+00
        -11   -1    0    0    0    0  0.00000000000E+00  0.00000000000E+00  0.45593999997E+02  0.45594000000E+02  0.51100000000E-03 0.  1.
         11   -1    0    0    0    0 -0.00000000000E+00 -0.00000000000E+00 -0.45593999997E+02  0.45594000000E+02  0.51100000000E-03 0. -1.
    9900012    2    1    2    0    0  0.14958012011E+02  0.58493082214E+00  0.42485636784E+02  0.46142316519E+02  0.99999886706E+01 0.  0.
         12    1    1    2    0    0 -0.14958012011E+02 -0.58493082214E+00 -0.42485636784E+02  0.45045683481E+02  0.00000000000E+00 0. -1.
         11    1    3    3    0    0 -0.74968007940E+00  0.91301053450E-01  0.54655582833E+01  0.55174888956E+01  0.51100000000E-03 0. -1.
        -11    1    3    3    0    0  0.79431503062E+01  0.25879498188E+01  0.14811882058E+02  0.17005380660E+02  0.51100000000E-03 0.  1.
        -12    1    3    3    0    0  0.77645417843E+01 -0.20943200501E+01  0.22208196443E+02  0.23619446963E+02  0.00000000000E+00 0.  1.
</event>
<event>
 7    1  0.2395003E-008  0.4614232E+02  0.7816164E-02  0.1320468E+00
        -11   -1    0    0    0    0  0.00000000000E+00  0.00000000000E+00  0.45593999997E+02  0.45594000000E+02  0.51100000000E-03 0. -1.
         11   -1    0    0    0    0 -0.00000000000E+00 -0.00000000000E+00 -0.45593999997E+02  0.45594000000E+02  0.51100000000E-03 0.  1.
    9900012    2    1    2    0    0 -0.11533526297E+02 -0.32544267005E+02 -0.28930293567E+02  0.46142318413E+02  0.10000005949E+02 0.  0.
         12    1    1    2    0    0  0.11533526297E+02  0.32544267005E+02  0.28930293567E+02  0.45045681587E+02  0.00000000000E+00 0. -1.
         11    1    3    3    0    0 -0.89053698780E+01 -0.15702275730E+02 -0.11849861599E+02  0.21593663328E+02  0.51100000000E-03 0. -1.
        -11    1    3    3    0    0 -0.96181218413E+00 -0.91970354874E+01 -0.61470018338E+01  0.11103881134E+02  0.51100000000E-03 0.  1.
         12    1    3    3    0    0 -0.16663442353E+01 -0.76449557881E+01 -0.10933430134E+02  0.13444773951E+02  0.00000000000E+00 0. -1.
</event>
<event>
 7    1  0.2395003E-008  0.4614232E+02  0.7816164E-02  0.1320468E+00
        -11   -1    0    0    0    0  0.00000000000E+00  0.00000000000E+00  0.45593999997E+02  0.45594000000E+02  0.51100000000E-03 0.  1.
         11   -1    0    0    0    0 -0.00000000000E+00 -0.00000000000E+00 -0.45593999997E+02  0.45594000000E+02  0.51100000000E-03 0. -1.
    9900012    2    1    2    0    0 -0.23162129955E+02 -0.29881855084E+02  0.24488852759E+02  0.46142318334E+02  0.10000005221E+02 0.  0.
         12    1    1    2    0    0  0.23162129955E+02  0.29881855084E+02 -0.24488852759E+02  0.45045681666E+02  0.00000000000E+00 0. -1.
         11    1    3    3    0    0 -0.76336471349E+00 -0.49615612070E+00  0.11602343753E+00  0.91780078508E+00  0.51100000000E-03 0. -1.
        -11    1    3    3    0    0 -0.60492460510E+01 -0.15514740810E+02  0.10442028996E+02  0.19655445302E+02  0.51100000000E-03 0.  1.
        -12    1    3    3    0    0 -0.16349519191E+02 -0.13870958154E+02  0.13930800325E+02  0.25569072247E+02  0.00000000000E+00 0.  1.
</event>
<event>
 7    1  0.2395003E-008  0.4614232E+02  0.7816164E-02  0.1320468E+00
        -11   -1    0    0    0    0  0.00000000000E+00  0.00000000000E+00  0.45593999997E+02  0.45594000000E+02  0.51100000000E-03 0.  1.
         11   -1    0    0    0    0 -0.00000000000E+00 -0.00000000000E+00 -0.45593999997E+02  0.45594000000E+02  0.51100000000E-03 0. -1.
    9900012    2    1    2    0    0  0.24333717685E+02  0.14293933430E+02  0.35109361070E+02  0.46142316700E+02  0.99999903196E+01 0.  0.
         12    1    1    2    0    0 -0.24333717685E+02 -0.14293933430E+02 -0.35109361070E+02  0.45045683300E+02  0.00000000000E+00 0. -1.
         11    1    3    3    0    0  0.23180592389E+01  0.12911700738E+01  0.67884648863E+01  0.72886058041E+01  0.51100000000E-03 0.  1.
        -11    1    3    3    0    0  0.57453928000E+01  0.15824150851E+00  0.46814301914E+01  0.74128515229E+01  0.51100000000E-03 0. -1.
         12    1    3    3    0    0  0.16270265646E+02  0.12844521848E+02  0.23639465992E+02  0.31440859373E+02  0.00000000000E+00 0. -1.
</event>
<event>
 7    1  0.2395003E-008  0.4614232E+02  0.7816164E-02  0.1320468E+00
        -11   -1    0    0    0    0  0.00000000000E+00  0.00000000000E+00  0.45593999997E+02  0.45594000000E+02  0.51100000000E-03 0.  1.
         11   -1    0    0    0    0 -0.00000000000E+00 -0.00000000000E+00 -0.45593999997E+02  0.45594000000E+02  0.51100000000E-03 0. -1.
    9900012    2    1    2    0    0  0.18192661235E+02  0.97073019500E+01  0.40048832961E+02  0.46142315906E+02  0.99999830867E+01 0.  0.
         12    1    1    2    0    0 -0.18192661235E+02 -0.97073019500E+01 -0.40048832961E+02  0.45045684094E+02  0.00000000000E+00 0. -1.
         11    1    3    3    0    0  0.41264627062E+01  0.62415293782E+01  0.15717817630E+02  0.17407876802E+02  0.51100000000E-03 0. -1.
        -11    1    3    3    0    0  0.42576165276E+01  0.18154175840E+01  0.12191233440E+02  0.13040291889E+02  0.51100000000E-03 0.  1.
         12    1    3    3    0    0  0.98085820014E+01  0.16503549878E+01  0.12139781890E+02  0.15694147215E+02  0.00000000000E+00 0. -1.
</event>
<event>
 7    1  0.2395003E-008  0.4614232E+02  0.7816164E-02  0.1320468E+00
        -11   -1    0    0    0    0  0.00000000000E+00  0.00000000000E+00  0.45593999997E+02  0.45594000000E+02  0.51100000000E-03 0.  1.
         11   -1    0    0    0    0 -0.00000000000E+00 -0.00000000000E+00 -0.45593999997E+02  0.45594000000E+02  0.51100000000E-03 0. -1.
    9900012    2    1    2    0    0 -0.72119192552E+01 -0.43690968894E+02 -0.82583789567E+01  0.46142319128E+02  0.10000012462E+02 0.  0.
         12    1    1    2    0    0  0.72119192552E+01  0.43690968894E+02  0.82583789567E+01  0.45045680872E+02  0.00000000000E+00 0. -1.
         11    1    3    3    0    0 -0.27625666623E+01 -0.73903251247E+01 -0.20911822605E+01  0.81622131509E+01  0.51100000000E-03 0. -1.
        -11    1    3    3    0    0  0.14567065244E+01 -0.66727802619E+01  0.10733721712E+01  0.69137629697E+01  0.51100000000E-03 0.  1.
        -12    1    3    3    0    0 -0.59060591173E+01 -0.29627863508E+02 -0.72405688674E+01  0.31066343007E+02  0.00000000000E+00 0.  1.
</event>
<event>
 7    1  0.2395003E-008  0.4614232E+02  0.7816164E-02  0.1320468E+00
        -11   -1    0    0    0    0  0.00000000000E+00  0.00000000000E+00  0.45593999997E+02  0.45594000000E+02  0.51100000000E-03 0.  1.
         11   -1    0    0    0    0 -0.00000000000E+00 -0.00000000000E+00 -0.45593999997E+02  0.45594000000E+02  0.51100000000E-03 0. -1.
    9900012    2    1    2    0    0 -0.74825176835E+01 -0.43354539722E+02  0.96700261334E+01  0.46142316624E+02  0.99999896269E+01 0.  0.
         12    1    1    2    0    0  0.74825176835E+01  0.43354539722E+02 -0.96700261334E+01  0.45045683376E+02  0.00000000000E+00 0. -1.
         11    1    3    3    0    0 -0.54917329979E+00 -0.10874070333E+02  0.62213029778E+01  0.12540000316E+02  0.51100000000E-03 0. -1.
        -11    1    3    3    0    0 -0.24044094214E+01 -0.50403959097E+01  0.55652657716E-01  0.55847894384E+01  0.51100000000E-03 0.  1.
        -12    1    3    3    0    0 -0.45289349623E+01 -0.27440073479E+02  0.33930704980E+01  0.28017526869E+02  0.00000000000E+00 0.  1.
</event>
<event>
 7    1  0.2395003E-008  0.4614232E+02  0.7816164E-02  0.1320468E+00
        -11   -1    0    0    0    0  0.00000000000E+00  0.00000000000E+00  0.45593999997E+02  0.45594000000E+02  0.51100000000E-03 0.  1.
         11   -1    0    0    0    0 -0.00000000000E+00 -0.00000000000E+00 -0.45593999997E+02  0.45594000000E+02  0.51100000000E-03 0. -1.
    9900012    2    1    2    0    0  0.56286211048E+01 -0.43691674976E+02  0.94058275559E+01  0.46142318411E+02  0.10000005930E+02 0.  0.
         12    1    1    2    0    0 -0.56286211048E+01  0.43691674976E+02 -0.94058275559E+01  0.45045681589E+02  0.00000000000E+00 0. -1.
         11    1    3    3    0    0  0.64621582388E+00 -0.14134590376E+02  0.96087660567E+00  0.14181943594E+02  0.51100000000E-03 0. -1.
        -11    1    3    3    0    0  0.43242563823E+01 -0.16415195008E+02  0.80721390980E+01  0.18796735097E+02  0.51100000000E-03 0.  1.
        -12    1    3    3    0    0  0.65814889865E+00 -0.13141889592E+02  0.37281185221E+00  0.13163639721E+02  0.00000000000E+00 0.  1.
</event>
<event>
 7    1  0.2395003E-008  0.4614232E+02  0.7816164E-02  0.1320468E+00
        -11   -1    0    0    0    0  0.00000000000E+00  0.00000000000E+00  0.45593999997E+02  0.45594000000E+02  0.51100000000E-03 0.  1.
         11   -1    0    0    0    0 -0.00000000000E+00 -0.00000000000E+00 -0.45593999997E+02  0.45594000000E+02  0.51100000000E-03 0. -1.
    9900012    2    1    2    0    0 -0.33689132226E+02 -0.25998589234E+02  0.14772583719E+02  0.46142317610E+02  0.99999986198E+01 0.  0.
         12    1    1    2    0    0  0.33689132226E+02  0.25998589234E+02 -0.14772583719E+02  0.45045682390E+02  0.00000000000E+00 0. -1.
         11    1    3    3    0    0 -0.98946113357E+01 -0.11946146148E+02  0.58000250425E+01  0.16560616898E+02  0.51100000000E-03 0. -1.
        -11    1    3    3    0    0 -0.55000499630E+01 -0.28243833515E+01  0.45216968059E+01  0.76598585612E+01  0.51100000000E-03 0.  1.
        -12    1    3    3    0    0 -0.18294470927E+02 -0.11228059734E+02  0.44508618706E+01  0.21921842151E+02  0.00000000000E+00 0.  1.
</event>
<event>
 7    1  0.2395003E-008  0.4614232E+02  0.7816164E-02  0.1320468E+00
        -11   -1    0    0    0    0  0.00000000000E+00  0.00000000000E+00  0.45593999997E+02  0.45594000000E+02  0.51100000000E-03 0. -1.
         11   -1    0    0    0    0 -0.00000000000E+00 -0.00000000000E+00 -0.45593999997E+02  0.45594000000E+02  0.51100000000E-03 0.  1.
    9900012    2    1    2    0    0 -0.27996681851E+02  0.26521931093E+02 -0.23278453975E+02  0.46142318264E+02  0.10000004586E+02 0.  0.
         12    1    1    2    0    0  0.27996681851E+02 -0.26521931093E+02  0.23278453975E+02  0.45045681736E+02  0.00000000000E+00 0. -1.
         11    1    3    3    0    0 -0.11396271233E+02  0.12701581689E+02 -0.63277764441E+01  0.18200162922E+02  0.51100000000E-03 0. -1.
        -11    1    3    3    0    0 -0.12250150301E+02  0.75871023406E+01 -0.92558603614E+01  0.17126040278E+02  0.51100000000E-03 0.  1.
         12    1    3    3    0    0 -0.43502603169E+01  0.62332470641E+01 -0.76948171697E+01  0.10816115063E+02  0.00000000000E+00 0. -1.
</event>
<event>
 7    1  0.2395003E-008  0.4614232E+02  0.7816164E-02  0.1320468E+00
        -11   -1    0    0    0    0  0.00000000000E+00  0.00000000000E+00  0.45593999997E+02  0.45594000000E+02  0.51100000000E-03 0.  1.
         11   -1    0    0    0    0 -0.00000000000E+00 -0.00000000000E+00 -0.45593999997E+02  0.45594000000E+02  0.51100000000E-03 0. -1.
    9900012    2    1    2    0    0 -0.17136967537E+02 -0.25898637640E+02  0.32629715533E+02  0.46142318479E+02  0.10000006545E+02 0.  0.
         12    1    1    2    0    0  0.17136967537E+02  0.25898637640E+02 -0.32629715533E+02  0.45045681521E+02  0.00000000000E+00 0. -1.
         11    1    3    3    0    0 -0.38116566066E-01 -0.44196064304E+01  0.57944886442E+01  0.72876932414E+01  0.51100000000E-03 0. -1.
        -11    1    3    3    0    0 -0.89291388194E+01 -0.15802612379E+02  0.17333597938E+02  0.25097922141E+02  0.51100000000E-03 0.  1.
        -12    1    3    3    0    0 -0.81697121513E+01 -0.56764188307E+01  0.95016289504E+01  0.13756703097E+02  0.00000000000E+00 0.  1.
</event>
<event>
 7    1  0.2395003E-008  0.4614232E+02  0.7816164E-02  0.1320468E+00
        -11   -1    0    0    0    0  0.00000000000E+00  0.00000000000E+00  0.45593999997E+02  0.45594000000E+02  0.51100000000E-03 0.  1.
         11   -1    0    0    0    0 -0.00000000000E+00 -0.00000000000E+00 -0.45593999997E+02  0.45594000000E+02  0.51100000000E-03 0. -1.
    9900012    2    1    2    0    0  0.20333204938E+02 -0.35985307516E+02  0.17908992628E+02  0.46142316555E+02  0.99999890001E+01 0.  0.
         12    1    1    2    0    0 -0.20333204938E+02  0.35985307516E+02 -0.17908992628E+02  0.45045683445E+02  0.00000000000E+00 0. -1.
         11    1    3    3    0    0  0.14625387040E+02 -0.26477399469E+02  0.13471259039E+02  0.33112376071E+02  0.51100000000E-03 0.  1.
        -11    1    3    3    0    0  0.19773177906E+01 -0.78674796208E+01  0.35719665216E+01  0.88637444865E+01  0.51100000000E-03 0. -1.
        -12    1    3    3    0    0  0.37305001072E+01 -0.16404284266E+01  0.86576706708E+00  0.41661959972E+01  0.00000000000E+00 0.  1.
</event>
<event>
 7    1  0.2395003E-008  0.4614232E+02  0.7816164E-02  0.1320468E+00
        -11   -1    0    0    0    0  0.00000000000E+00  0.00000000000E+00  0.45593999997E+02  0.45594000000E+02  0.51100000000E-03 0. -1.
         11   -1    0    0    0    0 -0.00000000000E+00 -0.00000000000E+00 -0.45593999997E+02  0.45594000000E+02  0.51100000000E-03 0.  1.
    9900012    2    1    2    0    0  0.37253642736E+02 -0.16219933484E+02 -0.19447196701E+02  0.46142316535E+02  0.99999888178E+01 0.  0.
         12    1    1    2    0    0 -0.37253642736E+02  0.16219933484E+02  0.19447196701E+02  0.45045683465E+02  0.00000000000E+00 0. -1.
         11    1    3    3    0    0  0.14427577027E+02 -0.61935833609E+01 -0.77213436870E+01  0.17496702612E+02  0.51100000000E-03 0. -1.
        -11    1    3    3    0    0  0.15980476336E+02 -0.10694446229E+02 -0.80380484642E+01  0.20841233827E+02  0.51100000000E-03 0.  1.
         12    1    3    3    0    0  0.68455893727E+01  0.66809610603E+00 -0.36878045501E+01  0.78043800949E+01  0.00000000000E+00 0. -1.
</event>
<event>
 7    1  0.2395003E-008  0.4614232E+02  0.7816164E-02  0.1320468E+00
        -11   -1    0    0    0    0  0.00000000000E+00  0.00000000000E+00  0.45593999997E+02  0.45594000000E+02  0.51100000000E-03 0.  1.
         11   -1    0    0    0    0 -0.00000000000E+00 -0.00000000000E+00 -0.45593999997E+02  0.45594000000E+02  0.51100000000E-03 0. -1.
    9900012    2    1    2    0    0 -0.22078562273E+02 -0.41432192838E+01  0.39044646296E+02  0.46142316717E+02  0.99999904767E+01 0.  0.
         12    1    1    2    0    0  0.22078562273E+02  0.41432192838E+01 -0.39044646296E+02  0.45045683283E+02  0.00000000000E+00 0. -1.
         11    1    3    3    0    0 -0.19317069118E+02 -0.48121902642E+01  0.26273893384E+02  0.32963977435E+02  0.51100000000E-03 0. -1.
        -11    1    3    3    0    0 -0.20790826708E+01  0.50850936278E+00  0.59800525037E+01  0.63515505770E+01  0.51100000000E-03 0.  1.
         12    1    3    3    0    0 -0.68241048414E+00  0.16046161765E+00  0.67907004076E+01  0.68267887052E+01  0.00000000000E+00 0. -1.
</event>
<event>
 7    1  0.2395003E-008  0.4614232E+02  0.7816164E-02  0.1320468E+00
        -11   -1    0    0    0    0  0.00000000000E+00  0.00000000000E+00  0.45593999997E+02  0.45594000000E+02  0.51100000000E-03 0.  1.
         11   -1    0    0    0    0 -0.00000000000E+00 -0.00000000000E+00 -0.45593999997E+02  0.45594000000E+02  0.51100000000E-03 0. -1.
    9900012    2    1    2    0    0 -0.35753130024E+02  0.23399103500E+02  0.14258651905E+02  0.46142317574E+02  0.99999982893E+01 0.  0.
         12    1    1    2    0    0  0.35753130024E+02 -0.23399103500E+02 -0.14258651905E+02  0.45045682426E+02  0.00000000000E+00 0. -1.
         11    1    3    3    0    0 -0.14382941071E+01  0.16272922917E+01 -0.36626502849E+00  0.22024805274E+01  0.51100000000E-03 0. -1.
        -11    1    3    3    0    0 -0.22079436897E+02  0.94740720798E+01  0.96626969621E+01  0.25896472507E+02  0.51100000000E-03 0.  1.
        -12    1    3    3    0    0 -0.12235399020E+02  0.12297739129E+02  0.49622199713E+01  0.18043364540E+02  0.00000000000E+00 0.  1.
</event>
<event>
 7    1  0.2395003E-008  0.4614232E+02  0.7816164E-02  0.1320468E+00
        -11   -1    0    0    0    0  0.00000000000E+00  0.00000000000E+00  0.45593999997E+02  0.45594000000E+02  0.51100000000E-03 0.  1.
         11   -1    0    0    0    0 -0.00000000000E+00 -0.00000000000E+00 -0.45593999997E+02  0.45594000000E+02  0.51100000000E-03 0. -1.
    9900012    2    1    2    0    0 -0.92223135632E+00 -0.49143671791E+00  0.45033559963E+02  0.46142317147E+02  0.99999943998E+01 0.  0.
         12    1    1    2    0    0  0.92223135632E+00  0.49143671791E+00 -0.45033559963E+02  0.45045682853E+02  0.00000000000E+00 0. -1.
         11    1    3    3    0    0  0.10988906266E+01  0.14560913481E+01  0.48461776334E+01  0.51781464386E+01  0.51100000000E-03 0. -1.
        -11    1    3    3    0    0 -0.13270749053E+01 -0.47156532730E+01  0.20877492285E+02  0.21444537718E+02  0.51100000000E-03 0.  1.
        -12    1    3    3    0    0 -0.69404707770E+00  0.27681252069E+01  0.19309890045E+02  0.19519632990E+02  0.00000000000E+00 0.  1.
</event>
<event>
 7    1  0.2395003E-008  0.4614232E+02  0.7816164E-02  0.1320468E+00
        -11   -1    0    0    0    0  0.00000000000E+00  0.00000000000E+00  0.45593999997E+02  0.45594000000E+02  0.51100000000E-03 0.  1.
         11   -1    0    0    0    0 -0.00000000000E+00 -0.00000000000E+00 -0.45593999997E+02  0.45594000000E+02  0.51100000000E-03 0. -1.
    9900012    2    1    2    0    0  0.89535019998E+01  0.39520833297E+02  0.19673637290E+02  0.46142318001E+02  0.10000002190E+02 0.  0.
         12    1    1    2    0    0 -0.89535019998E+01 -0.39520833297E+02 -0.19673637290E+02  0.45045681999E+02  0.00000000000E+00 0. -1.
         11    1    3    3    0    0  0.53841936791E+01  0.12527143516E+02  0.53110624442E+01  0.14633053366E+02  0.51100000000E-03 0. -1.
        -11    1    3    3    0    0  0.49936951962E+01  0.24631288385E+02  0.11882928615E+02  0.27800024316E+02  0.51100000000E-03 0.  1.
        -12    1    3    3    0    0 -0.14243868755E+01  0.23624013955E+01  0.24796462302E+01  0.37092403200E+01  0.00000000000E+00 0.  1.
</event>
<event>
 7    1  0.2395003E-008  0.4614232E+02  0.7816164E-02  0.1320468E+00
        -11   -1    0    0    0    0  0.00000000000E+00  0.00000000000E+00  0.45593999997E+02  0.45594000000E+02  0.51100000000E-03 0. -1.
         11   -1    0    0    0    0 -0.00000000000E+00 -0.00000000000E+00 -0.45593999997E+02  0.45594000000E+02  0.51100000000E-03 0.  1.
    9900012    2    1    2    0    0 -0.29868998946E+02 -0.22124286635E+02 -0.25445478413E+02  0.46142317312E+02  0.99999959091E+01 0.  0.
         12    1    1    2    0    0  0.29868998946E+02  0.22124286635E+02  0.25445478413E+02  0.45045682688E+02  0.00000000000E+00 0. -1.
         11    1    3    3    0    0 -0.73683797946E+01 -0.48714809062E+01 -0.99180546544E+01  0.13281270851E+02  0.51100000000E-03 0. -1.
        -11    1    3    3    0    0 -0.14091743948E+02 -0.11314408450E+02 -0.12997249747E+02  0.22260314178E+02  0.51100000000E-03 0.  1.
         12    1    3    3    0    0 -0.84088752034E+01 -0.59383972780E+01 -0.25301740116E+01  0.10600732284E+02  0.00000000000E+00 0. -1.
</event>
<event>
 7    1  0.2395003E-008  0.4614232E+02  0.7816164E-02  0.1320468E+00
        -11   -1    0    0    0    0  0.00000000000E+00  0.00000000000E+00  0.45593999997E+02  0.45594000000E+02  0.51100000000E-03 0.  1.
         11   -1    0    0    0    0 -0.00000000000E+00 -0.00000000000E+00 -0.45593999997E+02  0.45594000000E+02  0.51100000000E-03 0. -1.
    9900012    2    1    2    0    0  0.39773882462E+02  0.16736890013E+02  0.12923939704E+02  0.46142318399E+02  0.10000005818E+02 0.  0.
         12    1    1    2    0    0 -0.39773882462E+02 -0.16736890013E+02 -0.12923939704E+02  0.45045681601E+02  0.00000000000E+00 0. -1.
         11    1    3    3    0    0  0.20257277028E+01  0.28476188975E+01  0.18485074679E+01  0.39534145029E+01  0.51100000000E-03 0. -1.
        -11    1    3    3    0    0  0.29601361351E+02  0.91812883636E+01  0.10645180176E+02  0.32769749939E+02  0.51100000000E-03 0.  1.
         12    1    3    3    0    0  0.81467934082E+01  0.47079827519E+01  0.43025206019E+00  0.94191539569E+01  0.00000000000E+00 0. -1.
</event>
<event>
 7    1  0.2395003E-008  0.4614232E+02  0.7816164E-02  0.1320468E+00
        -11   -1    0    0    0    0  0.00000000000E+00  0.00000000000E+00  0.45593999997E+02  0.45594000000E+02  0.51100000000E-03 0.  1.
         11   -1    0    0    0    0 -0.00000000000E+00 -0.00000000000E+00 -0.45593999997E+02  0.45594000000E+02  0.51100000000E-03 0. -1.
    9900012    2    1    2    0    0 -0.87532674514E+01 -0.25851717343E+02  0.35835494172E+02  0.46142316264E+02  0.99999863512E+01 0.  0.
         12    1    1    2    0    0  0.87532674514E+01  0.25851717343E+02 -0.35835494172E+02  0.45045683736E+02  0.00000000000E+00 0. -1.
         11    1    3    3    0    0 -0.51296118693E+01 -0.11703568237E+02  0.11450155434E+02  0.17157869540E+02  0.51100000000E-03 0. -1.
        -11    1    3    3    0    0 -0.41316175421E+01 -0.12456440955E+02  0.23697675264E+02  0.27088982963E+02  0.51100000000E-03 0.  1.
        -12    1    3    3    0    0  0.50796196005E+00 -0.16917081499E+01  0.68766347408E+00  0.18954637614E+01  0.00000000000E+00 0.  1.
</event>
<event>
 7    1  0.2395003E-008  0.4614232E+02  0.7816164E-02  0.1320468E+00
        -11   -1    0    0    0    0  0.00000000000E+00  0.00000000000E+00  0.45593999997E+02  0.45594000000E+02  0.51100000000E-03 0.  1.
         11   -1    0    0    0    0 -0.00000000000E+00 -0.00000000000E+00 -0.45593999997E+02  0.45594000000E+02  0.51100000000E-03 0. -1.
    9900012    2    1    2    0    0  0.24957792957E+02  0.28793887937E+02  0.24023605904E+02  0.46142322600E+02  0.10000044121E+02 0.  0.
         12    1    1    2    0    0 -0.24957792957E+02 -0.28793887937E+02 -0.24023605904E+02  0.45045677400E+02  0.00000000000E+00 0. -1.
         11    1    3    3    0    0  0.11367421877E+02  0.10926509054E+02  0.11690352054E+02  0.19628326766E+02  0.51100000000E-03 0. -1.
        -11    1    3    3    0    0  0.77766385093E+01  0.48833113314E+01  0.39051674684E+01  0.99786356422E+01  0.51100000000E-03 0.  1.
         12    1    3    3    0    0  0.58137325712E+01  0.12984067551E+02  0.84280863821E+01  0.16535360191E+02  0.00000000000E+00 0. -1.
</event>
<event>
 7    1  0.2395003E-008  0.4614232E+02  0.7816164E-02  0.1320468E+00
        -11   -1    0    0    0    0  0.00000000000E+00  0.00000000000E+00  0.45593999997E+02  0.45594000000E+02  0.51100000000E-03 0.  1.
         11   -1    0    0    0    0 -0.00000000000E+00 -0.00000000000E+00 -0.45593999997E+02  0.45594000000E+02  0.51100000000E-03 0. -1.
    9900012    2    1    2    0    0  0.13522630816E+02  0.15248193856E+02  0.40171438096E+02  0.46142318756E+02  0.10000009071E+02 0.  0.
         12    1    1    2    0    0 -0.13522630816E+02 -0.15248193856E+02 -0.40171438096E+02  0.45045681244E+02  0.00000000000E+00 0. -1.
         11    1    3    3    0    0  0.25466516935E+01  0.27930884386E+01  0.25372968772E+01  0.45524338082E+01  0.51100000000E-03 0. -1.
        -11    1    3    3    0    0  0.76233723168E+01  0.11369578986E+02  0.33300780620E+02  0.36004515300E+02  0.51100000000E-03 0.  1.
        -12    1    3    3    0    0  0.33526068055E+01  0.10855264316E+01  0.43333605983E+01  0.55853696476E+01  0.00000000000E+00 0.  1.
</event>
<event>
 7    1  0.2395003E-008  0.4614232E+02  0.7816164E-02  0.1320468E+00
        -11   -1    0    0    0    0  0.00000000000E+00  0.00000000000E+00  0.45593999997E+02  0.45594000000E+02  0.51100000000E-03 0.  1.
         11   -1    0    0    0    0 -0.00000000000E+00 -0.00000000000E+00 -0.45593999997E+02  0.45594000000E+02  0.51100000000E-03 0. -1.
    9900012    2    1    2    0    0  0.31476033586E+02 -0.60403359448E+01  0.31652602713E+02  0.46142316443E+02  0.99999879796E+01 0.  0.
         12    1    1    2    0    0 -0.31476033586E+02  0.60403359448E+01 -0.31652602713E+02  0.45045683557E+02  0.00000000000E+00 0. -1.
         11    1    3    3    0    0 -0.26952112219E+00 -0.33571514633E+00  0.83056307156E-01  0.43845741647E+00  0.51100000000E-03 0. -1.
        -11    1    3    3    0    0  0.26454467920E+02 -0.20235249793E+01  0.26548084825E+02  0.37533109842E+02  0.51100000000E-03 0.  1.
         12    1    3    3    0    0  0.52910867888E+01 -0.36810958192E+01  0.50214615801E+01  0.81707491845E+01  0.00000000000E+00 0. -1.
</event>
<event>
 7    1  0.2395003E-008  0.4614232E+02  0.7816164E-02  0.1320468E+00
        -11   -1    0    0    0    0  0.00000000000E+00  0.00000000000E+00  0.45593999997E+02  0.45594000000E+02  0.51100000000E-03 0.  1.
         11   -1    0    0    0    0 -0.00000000000E+00 -0.00000000000E+00 -0.45593999997E+02  0.45594000000E+02  0.51100000000E-03 0. -1.
    9900012    2    1    2    0    0  0.32305683585E+02  0.25074442217E+02  0.18887259070E+02  0.46142318747E+02  0.10000008993E+02 0.  0.
         12    1    1    2    0    0 -0.32305683585E+02 -0.25074442217E+02 -0.18887259070E+02  0.45045681253E+02  0.00000000000E+00 0. -1.
         11    1    3    3    0    0  0.29577861359E+01  0.15306351671E+01 -0.10020775350E+01  0.34778588942E+01  0.51100000000E-03 0. -1.
        -11    1    3    3    0    0  0.10499709899E+02  0.84852309081E+01  0.55226438158E+01  0.14585700069E+02  0.51100000000E-03 0.  1.
         12    1    3    3    0    0  0.18848187549E+02  0.15058576142E+02  0.14366692789E+02  0.28078759784E+02  0.00000000000E+00 0. -1.
</event>
<event>
 7    1  0.2395003E-008  0.4614231E+02  0.7816164E-02  0.1320468E+00
        -11   -1    0    0    0    0  0.00000000000E+00  0.00000000000E+00  0.45593999997E+02  0.45594000000E+02  0.51100000000E-03 0.  1.
         11   -1    0    0    0    0 -0.00000000000E+00 -0.00000000000E+00 -0.45593999997E+02  0.45594000000E+02  0.51100000000E-03 0. -1.
    9900012    2    1    2    0    0  0.18687816706E+02 -0.40261438983E+02  0.76743916418E+01  0.46142309314E+02  0.99999229766E+01 0.  0.
         12    1    1    2    0    0 -0.18687816706E+02  0.40261438983E+02 -0.76743916418E+01  0.45045690686E+02  0.00000000000E+00 0. -1.
         11    1    3    3    0    0  0.55327980103E+01 -0.12380334464E+02  0.24058208509E+01  0.13772164300E+02  0.51100000000E-03 0. -1.
        -11    1    3    3    0    0  0.12039603985E+02 -0.27897693550E+02  0.39459621797E+01  0.30639908409E+02  0.51100000000E-03 0.  1.
         12    1    3    3    0    0  0.11154147107E+01  0.16589030985E-01  0.13226086112E+01  0.17302366056E+01  0.00000000000E+00 0. -1.
</event>
<event>
 7    1  0.2395003E-008  0.4614232E+02  0.7816164E-02  0.1320468E+00
        -11   -1    0    0    0    0  0.00000000000E+00  0.00000000000E+00  0.45593999997E+02  0.45594000000E+02  0.51100000000E-03 0.  1.
         11   -1    0    0    0    0 -0.00000000000E+00 -0.00000000000E+00 -0.45593999997E+02  0.45594000000E+02  0.51100000000E-03 0. -1.
    9900012    2    1    2    0    0  0.43111189811E+02  0.10053475496E+02  0.83346523535E+01  0.46142317784E+02  0.10000000210E+02 0.  0.
         12    1    1    2    0    0 -0.43111189811E+02 -0.10053475496E+02 -0.83346523535E+01  0.45045682216E+02  0.00000000000E+00 0. -1.
         11    1    3    3    0    0  0.33077912324E+01  0.25529571664E+01  0.15182494796E+01  0.44456894712E+01  0.51100000000E-03 0. -1.
        -11    1    3    3    0    0  0.20438639992E+02  0.37175234658E+01  0.71295152523E+01  0.21963332476E+02  0.51100000000E-03 0.  1.
         12    1    3    3    0    0  0.19364758586E+02  0.37829948640E+01 -0.31311237835E+00  0.19733295837E+02  0.00000000000E+00 0. -1.
</event>
<event>
 7    1  0.2395003E-008  0.4614232E+02  0.7816164E-02  0.1320468E+00
        -11   -1    0    0    0    0  0.00000000000E+00  0.00000000000E+00  0.45593999997E+02  0.45594000000E+02  0.51100000000E-03 0.  1.
         11   -1    0    0    0    0 -0.00000000000E+00 -0.00000000000E+00 -0.45593999997E+02  0.45594000000E+02  0.51100000000E-03 0. -1.
    9900012    2    1    2    0    0 -0.28525295541E+01  0.36117039964E+02  0.26768189256E+02  0.46142318113E+02  0.10000003208E+02 0.  0.
         12    1    1    2    0    0  0.28525295541E+01 -0.36117039964E+02 -0.26768189256E+02  0.45045681887E+02  0.00000000000E+00 0. -1.
         11    1    3    3    0    0 -0.20333918714E+01  0.21503657963E+02  0.13220074949E+02  0.25324145991E+02  0.51100000000E-03 0. -1.
        -11    1    3    3    0    0  0.28022687352E-01  0.14584131514E+02  0.13636048097E+02  0.19965958161E+02  0.51100000000E-03 0.  1.
         12    1    3    3    0    0 -0.84716037006E+00  0.29250487221E-01 -0.87933790506E-01  0.85221396088E+00  0.00000000000E+00 0. -1.
</event>
<event>
 7    1  0.2395003E-008  0.4614232E+02  0.7816164E-02  0.1320468E+00
        -11   -1    0    0    0    0  0.00000000000E+00  0.00000000000E+00  0.45593999997E+02  0.45594000000E+02  0.51100000000E-03 0.  1.
         11   -1    0    0    0    0 -0.00000000000E+00 -0.00000000000E+00 -0.45593999997E+02  0.45594000000E+02  0.51100000000E-03 0. -1.
    9900012    2    1    2    0    0  0.41946429875E+02  0.16413934781E+02 -0.43967434062E+00  0.46142317101E+02  0.99999939844E+01 0.  0.
         12    1    1    2    0    0 -0.41946429875E+02 -0.16413934781E+02  0.43967434062E+00  0.45045682899E+02  0.00000000000E+00 0. -1.
         11    1    3    3    0    0  0.30893942718E+01  0.30403103141E+00 -0.92230532035E+00  0.32384315957E+01  0.51100000000E-03 0. -1.
        -11    1    3    3    0    0  0.38322366017E+02  0.14654491366E+02 -0.56497835943E+00  0.41032634026E+02  0.51100000000E-03 0.  1.
         12    1    3    3    0    0  0.53466958671E+00  0.14554123830E+01  0.10476093392E+01  0.18712514794E+01  0.00000000000E+00 0. -1.
</event>
<event>
 7    1  0.2395003E-008  0.4614232E+02  0.7816164E-02  0.1320468E+00
        -11   -1    0    0    0    0  0.00000000000E+00  0.00000000000E+00  0.45593999997E+02  0.45594000000E+02  0.51100000000E-03 0. -1.
         11   -1    0    0    0    0 -0.00000000000E+00 -0.00000000000E+00 -0.45593999997E+02  0.45594000000E+02  0.51100000000E-03 0.  1.
    9900012    2    1    2    0    0  0.12916751536E+02  0.36012351033E+02  0.23777754681E+02  0.46142317467E+02  0.99999973209E+01 0.  0.
         12    1    1    2    0    0 -0.12916751536E+02 -0.36012351033E+02 -0.23777754681E+02  0.45045682533E+02  0.00000000000E+00 0. -1.
         11    1    3    3    0    0  0.34781526255E+01  0.60865058382E+01  0.28685491107E+01  0.75744091035E+01  0.51100000000E-03 0. -1.
        -11    1    3    3    0    0  0.10703164040E+01  0.17539403817E+01 -0.60980043470E+00  0.21433014017E+01  0.51100000000E-03 0.  1.
        -12    1    3    3    0    0  0.83682825064E+01  0.28171904813E+02  0.21519006005E+02  0.36424606962E+02  0.00000000000E+00 0.  1.
</event>
<event>
 7    1  0.2395003E-008  0.4614232E+02  0.7816164E-02  0.1320468E+00
        -11   -1    0    0    0    0  0.00000000000E+00  0.00000000000E+00  0.45593999997E+02  0.45594000000E+02  0.51100000000E-03 0.  1.
         11   -1    0    0    0    0 -0.00000000000E+00 -0.00000000000E+00 -0.45593999997E+02  0.45594000000E+02  0.51100000000E-03 0. -1.
    9900012    2    1    2    0    0 -0.43107658632E+01  0.37064464422E+02  0.25234031534E+02  0.46142316825E+02  0.99999914618E+01 0.  0.
         12    1    1    2    0    0  0.43107658632E+01 -0.37064464422E+02 -0.25234031534E+02  0.45045683175E+02  0.00000000000E+00 0. -1.
         11    1    3    3    0    0 -0.37403925332E+01  0.15815267853E+02  0.15781766921E+02  0.22653419189E+02  0.51100000000E-03 0. -1.
        -11    1    3    3    0    0 -0.15522329855E+01  0.18798580403E+02  0.82368366320E+01  0.20582554029E+02  0.51100000000E-03 0.  1.
         12    1    3    3    0    0  0.98185965548E+00  0.24506161667E+01  0.12154279815E+01  0.29063436063E+01  0.00000000000E+00 0. -1.
</event>
<event>
 7    1  0.2395003E-008  0.4614232E+02  0.7816164E-02  0.1320468E+00
        -11   -1    0    0    0    0  0.00000000000E+00  0.00000000000E+00  0.45593999997E+02  0.45594000000E+02  0.51100000000E-03 0. -1.
         11   -1    0    0    0    0 -0.00000000000E+00 -0.00000000000E+00 -0.45593999997E+02  0.45594000000E+02  0.51100000000E-03 0.  1.
    9900012    2    1    2    0    0 -0.16709813053E+02 -0.49870445216E+01 -0.41533420181E+02  0.46142318107E+02  0.10000003151E+02 0.  0.
         12    1    1    2    0    0  0.16709813053E+02  0.49870445216E+01  0.41533420181E+02  0.45045681893E+02  0.00000000000E+00 0. -1.
         11    1    3    3    0    0 -0.21563856379E+01  0.90954090183E-01 -0.93102494590E+01  0.95571448098E+01  0.51100000000E-03 0. -1.
        -11    1    3    3    0    0 -0.94202338255E+01  0.87621002275E+00 -0.17303774475E+02  0.19721286993E+02  0.51100000000E-03 0.  1.
         12    1    3    3    0    0 -0.51331935892E+01 -0.59542086345E+01 -0.14919396247E+02  0.16863886304E+02  0.00000000000E+00 0. -1.
</event>
<event>
 7    1  0.2395003E-008  0.4614232E+02  0.7816164E-02  0.1320468E+00
        -11   -1    0    0    0    0  0.00000000000E+00  0.00000000000E+00  0.45593999997E+02  0.45594000000E+02  0.51100000000E-03 0. -1.
         11   -1    0    0    0    0 -0.00000000000E+00 -0.00000000000E+00 -0.45593999997E+02  0.45594000000E+02  0.51100000000E-03 0.  1.
    9900012    2    1    2    0    0  0.35431705954E+01  0.22383317281E+02 -0.38930021156E+02  0.46142317659E+02  0.99999990669E+01 0.  0.
         12    1    1    2    0    0 -0.35431705954E+01 -0.22383317281E+02  0.38930021156E+02  0.45045682341E+02  0.00000000000E+00 0. -1.
         11    1    3    3    0    0  0.22329961983E+01  0.10772140749E+02 -0.16576206414E+02  0.19894620069E+02  0.51100000000E-03 0.  1.
        -11    1    3    3    0    0 -0.10553616565E+01  0.57543352000E+01 -0.47207604280E+01  0.75174291550E+01  0.51100000000E-03 0. -1.
         12    1    3    3    0    0  0.23655360536E+01  0.58568413321E+01 -0.17633054314E+02  0.18730268435E+02  0.00000000000E+00 0. -1.
</event>
<event>
 7    1  0.2625824E-008  0.4614232E+02  0.7816164E-02  0.1320468E+00
        -11   -1    0    0    0    0  0.00000000000E+00  0.00000000000E+00  0.45593999997E+02  0.45594000000E+02  0.51100000000E-03 0.  1.
         11   -1    0    0    0    0 -0.00000000000E+00 -0.00000000000E+00 -0.45593999997E+02  0.45594000000E+02  0.51100000000E-03 0. -1.
    9900012    2    1    2    0    0  0.44301810336E+02  0.80998159091E+00  0.81121514025E+01  0.46142317969E+02  0.10000001897E+02 0.  0.
         12    1    1    2    0    0 -0.44301810336E+02 -0.80998159091E+00 -0.81121514025E+01  0.45045682031E+02  0.00000000000E+00 0. -1.
         11    1    3    3    0    0 -0.18687330786E+00  0.42337593464E+00  0.12675649292E+00  0.47982943307E+00  0.51100000000E-03 0. -1.
        -11    1    3    3    0    0  0.11624545951E+02  0.54326031829E+00  0.49893118450E+01  0.12661691565E+02  0.51100000000E-03 0.  1.
        -12    1    3    3    0    0  0.32864137693E+02 -0.15665466202E+00  0.29960830646E+01  0.33000796971E+02  0.00000000000E+00 0.  1.
</event>
<event>
 7    1  0.2395003E-008  0.4614232E+02  0.7816164E-02  0.1320468E+00
        -11   -1    0    0    0    0  0.00000000000E+00  0.00000000000E+00  0.45593999997E+02  0.45594000000E+02  0.51100000000E-03 0. -1.
         11   -1    0    0    0    0 -0.00000000000E+00 -0.00000000000E+00 -0.45593999997E+02  0.45594000000E+02  0.51100000000E-03 0.  1.
    9900012    2    1    2    0    0  0.24158540829E+02 -0.28193153005E+02  0.25507342403E+02  0.46142317768E+02  0.10000000058E+02 0.  0.
         12    1    1    2    0    0 -0.24158540829E+02  0.28193153005E+02 -0.25507342403E+02  0.45045682232E+02  0.00000000000E+00 0. -1.
         11    1    3    3    0    0  0.33067249998E+01 -0.27233225345E+01  0.20388422492E+01  0.47442379609E+01  0.51100000000E-03 0. -1.
        -11    1    3    3    0    0  0.18287345230E+01 -0.18168090032E+00 -0.24562704492E+00  0.18540795052E+01  0.51100000000E-03 0.  1.
        -12    1    3    3    0    0  0.19023081306E+02 -0.25288149570E+02  0.23714127198E+02  0.39544000301E+02  0.00000000000E+00 0.  1.
</event>
<event>
 7    1  0.2395003E-008  0.4614232E+02  0.7816164E-02  0.1320468E+00
        -11   -1    0    0    0    0  0.00000000000E+00  0.00000000000E+00  0.45593999997E+02  0.45594000000E+02  0.51100000000E-03 0.  1.
         11   -1    0    0    0    0 -0.00000000000E+00 -0.00000000000E+00 -0.45593999997E+02  0.45594000000E+02  0.51100000000E-03 0. -1.
    9900012    2    1    2    0    0  0.63399360909E+00  0.45041117927E+02  0.96362517873E-01  0.46142317213E+02  0.99999949993E+01 0.  0.
         12    1    1    2    0    0 -0.63399360909E+00 -0.45041117927E+02 -0.96362517873E-01  0.45045682787E+02  0.00000000000E+00 0. -1.
         11    1    3    3    0    0  0.16352238909E+01  0.14901589901E+01 -0.13068529197E+00  0.22162152187E+01  0.51100000000E-03 0. -1.
        -11    1    3    3    0    0 -0.72412344545E+00  0.42108302931E+02 -0.81934688660E+00  0.42122498265E+02  0.51100000000E-03 0.  1.
        -12    1    3    3    0    0 -0.27710683635E+00  0.14426560064E+01  0.10463946964E+01  0.18036037293E+01  0.00000000000E+00 0.  1.
</event>
<event>
 7    1  0.2395003E-008  0.4614232E+02  0.7816164E-02  0.1320468E+00
        -11   -1    0    0    0    0  0.00000000000E+00  0.00000000000E+00  0.45593999997E+02  0.45594000000E+02  0.51100000000E-03 0.  1.
         11   -1    0    0    0    0 -0.00000000000E+00 -0.00000000000E+00 -0.45593999997E+02  0.45594000000E+02  0.51100000000E-03 0. -1.
    9900012    2    1    2    0    0 -0.27552649685E+02 -0.34335899632E+02  0.95399544728E+01  0.46142320523E+02  0.10000025185E+02 0.  0.
         12    1    1    2    0    0  0.27552649685E+02  0.34335899632E+02 -0.95399544728E+01  0.45045679477E+02  0.00000000000E+00 0. -1.
         11    1    3    3    0    0 -0.88847488171E+01 -0.13909897268E+02  0.28606643830E+01  0.16751340380E+02  0.51100000000E-03 0. -1.
        -11    1    3    3    0    0 -0.18166877345E+02 -0.17458085174E+02  0.74686472227E+01  0.26279285797E+02  0.51100000000E-03 0.  1.
         12    1    3    3    0    0 -0.50102352243E+00 -0.29679171906E+01 -0.78935713287E+00  0.31116943461E+01  0.00000000000E+00 0. -1.
</event>
<event>
 7    1  0.2395003E-008  0.4614232E+02  0.7816164E-02  0.1320468E+00
        -11   -1    0    0    0    0  0.00000000000E+00  0.00000000000E+00  0.45593999997E+02  0.45594000000E+02  0.51100000000E-03 0.  1.
         11   -1    0    0    0    0 -0.00000000000E+00 -0.00000000000E+00 -0.45593999997E+02  0.45594000000E+02  0.51100000000E-03 0. -1.
    9900012    2    1    2    0    0 -0.43429411840E+02  0.11868392874E+02  0.14632328829E+01  0.46142316381E+02  0.99999874179E+01 0.  0.
         12    1    1    2    0    0  0.43429411840E+02 -0.11868392874E+02 -0.14632328829E+01  0.45045683619E+02  0.00000000000E+00 0. -1.
         11    1    3    3    0    0 -0.21660003623E+02  0.73066022850E+01  0.33617679755E+01  0.23105057413E+02  0.51100000000E-03 0. -1.
        -11    1    3    3    0    0 -0.17544976652E+02  0.43753845460E+01  0.66102166734E+00  0.18094395418E+02  0.51100000000E-03 0.  1.
         12    1    3    3    0    0 -0.42244315654E+01  0.18640604297E+00 -0.25595567599E+01  0.49428635497E+01  0.00000000000E+00 0. -1.
</event>
<event>
 7    1  0.2395003E-008  0.4614232E+02  0.7816164E-02  0.1320468E+00
        -11   -1    0    0    0    0  0.00000000000E+00  0.00000000000E+00  0.45593999997E+02  0.45594000000E+02  0.51100000000E-03 0.  1.
         11   -1    0    0    0    0 -0.00000000000E+00 -0.00000000000E+00 -0.45593999997E+02  0.45594000000E+02  0.51100000000E-03 0. -1.
    9900012    2    1    2    0    0  0.17952030802E+02 -0.21868360144E+01  0.41255977742E+02  0.46142319173E+02  0.10000012877E+02 0.  0.
         12    1    1    2    0    0 -0.17952030802E+02  0.21868360144E+01 -0.41255977742E+02  0.45045680827E+02  0.00000000000E+00 0. -1.
         11    1    3    3    0    0  0.49898490894E+00 -0.24700701429E+00  0.91262225580E+01  0.91431907365E+01  0.51100000000E-03 0. -1.
        -11    1    3    3    0    0  0.62353846949E-01 -0.68191608540E+00  0.27591854393E+01  0.28428862269E+01  0.51100000000E-03 0.  1.
        -12    1    3    3    0    0  0.17390692046E+02 -0.12579129147E+01  0.29370569745E+02  0.34156242210E+02  0.00000000000E+00 0.  1.
</event>
<event>
 7    1  0.2395003E-008  0.4614232E+02  0.7816164E-02  0.1320468E+00
        -11   -1    0    0    0    0  0.00000000000E+00  0.00000000000E+00  0.45593999997E+02  0.45594000000E+02  0.51100000000E-03 0.  1.
         11   -1    0    0    0    0 -0.00000000000E+00 -0.00000000000E+00 -0.45593999997E+02  0.45594000000E+02  0.51100000000E-03 0. -1.
    9900012    2    1    2    0    0  0.34716568477E+02 -0.25744712727E+02  0.12691853074E+02  0.46142317692E+02  0.99999993673E+01 0.  0.
         12    1    1    2    0    0 -0.34716568477E+02  0.25744712727E+02 -0.12691853074E+02  0.45045682308E+02  0.00000000000E+00 0. -1.
         11    1    3    3    0    0  0.94664371634E+01 -0.58787930995E+01  0.74573598718E+01  0.13408424866E+02  0.51100000000E-03 0. -1.
        -11    1    3    3    0    0  0.14623166045E+01 -0.81519588894E+00  0.10390315821E+01  0.19704063233E+01  0.51100000000E-03 0.  1.
        -12    1    3    3    0    0  0.23787814709E+02 -0.19050723738E+02  0.41954616202E+01  0.30763486502E+02  0.00000000000E+00 0.  1.
</event>
<event>
 7    1  0.2395003E-008  0.4614232E+02  0.7816164E-02  0.1320468E+00
        -11   -1    0    0    0    0  0.00000000000E+00  0.00000000000E+00  0.45593999997E+02  0.45594000000E+02  0.51100000000E-03 0.  1.
         11   -1    0    0    0    0 -0.00000000000E+00 -0.00000000000E+00 -0.45593999997E+02  0.45594000000E+02  0.51100000000E-03 0. -1.
    9900012    2    1    2    0    0 -0.20044396126E+02 -0.13644202907E+02  0.37962762602E+02  0.46142318372E+02  0.10000005568E+02 0.  0.
         12    1    1    2    0    0  0.20044396126E+02  0.13644202907E+02 -0.37962762602E+02  0.45045681628E+02  0.00000000000E+00 0. -1.
         11    1    3    3    0    0 -0.12512360593E+01 -0.14340623168E+01  0.39407101616E+01  0.43762224856E+01  0.51100000000E-03 0. -1.
        -11    1    3    3    0    0 -0.16996418105E+02 -0.69954772129E+01  0.28835297273E+02  0.34194872407E+02  0.51100000000E-03 0.  1.
         12    1    3    3    0    0 -0.17967419617E+01 -0.52146633769E+01  0.51867551670E+01  0.75712234793E+01  0.00000000000E+00 0. -1.
</event>
<event>
 7    1  0.2395003E-008  0.4614232E+02  0.7816164E-02  0.1320468E+00
        -11   -1    0    0    0    0  0.00000000000E+00  0.00000000000E+00  0.45593999997E+02  0.45594000000E+02  0.51100000000E-03 0.  1.
         11   -1    0    0    0    0 -0.00000000000E+00 -0.00000000000E+00 -0.45593999997E+02  0.45594000000E+02  0.51100000000E-03 0. -1.
    9900012    2    1    2    0    0 -0.96670044361E-01 -0.41352536331E+02 -0.17862581835E+02  0.46142318343E+02  0.10000005307E+02 0.  0.
         12    1    1    2    0    0  0.96670044361E-01  0.41352536331E+02  0.17862581835E+02  0.45045681657E+02  0.00000000000E+00 0. -1.
         11    1    3    3    0    0 -0.55591047829E+00 -0.75693539659E+01 -0.38645850726E+01  0.85169932468E+01  0.51100000000E-03 0. -1.
        -11    1    3    3    0    0  0.35256215218E+01 -0.27278170895E+02 -0.92978498652E+01  0.29034094215E+02  0.51100000000E-03 0.  1.
         12    1    3    3    0    0 -0.30663810879E+01 -0.65050114705E+01 -0.47001468973E+01  0.85912308818E+01  0.00000000000E+00 0. -1.
</event>
<event>
 7    1  0.2395003E-008  0.4614232E+02  0.7816164E-02  0.1320468E+00
        -11   -1    0    0    0    0  0.00000000000E+00  0.00000000000E+00  0.45593999997E+02  0.45594000000E+02  0.51100000000E-03 0.  1.
         11   -1    0    0    0    0 -0.00000000000E+00 -0.00000000000E+00 -0.45593999997E+02  0.45594000000E+02  0.51100000000E-03 0. -1.
    9900012    2    1    2    0    0 -0.14055159276E+02  0.20903415571E+02  0.37344521103E+02  0.46142317175E+02  0.99999946519E+01 0.  0.
         12    1    1    2    0    0  0.14055159276E+02 -0.20903415571E+02 -0.37344521103E+02  0.45045682825E+02  0.00000000000E+00 0. -1.
         11    1    3    3    0    0 -0.58675074777E+01  0.12165062725E+02  0.16751042554E+02  0.21517755971E+02  0.51100000000E-03 0. -1.
        -11    1    3    3    0    0 -0.17195703873E+01  0.40678476678E+01  0.30941890618E+01  0.53924311008E+01  0.51100000000E-03 0.  1.
         12    1    3    3    0    0 -0.64680814112E+01  0.46705051781E+01  0.17499289487E+02  0.19232130103E+02  0.00000000000E+00 0. -1.
</event>
<event>
 7    1  0.2395003E-008  0.4614232E+02  0.7816164E-02  0.1320468E+00
        -11   -1    0    0    0    0  0.00000000000E+00  0.00000000000E+00  0.45593999997E+02  0.45594000000E+02  0.51100000000E-03 0.  1.
         11   -1    0    0    0    0 -0.00000000000E+00 -0.00000000000E+00 -0.45593999997E+02  0.45594000000E+02  0.51100000000E-03 0. -1.
    9900012    2    1    2    0    0  0.90961093662E+01  0.32037544664E+02  0.30331007101E+02  0.46142318015E+02  0.10000002318E+02 0.  0.
         12    1    1    2    0    0 -0.90961093662E+01 -0.32037544664E+02 -0.30331007101E+02  0.45045681985E+02  0.00000000000E+00 0. -1.
         11    1    3    3    0    0  0.89908842260E+00  0.23864621498E+01  0.53675402514E+01  0.59425625950E+01  0.51100000000E-03 0. -1.
        -11    1    3    3    0    0  0.53574113515E+01  0.27175631761E+02  0.22636498581E+02  0.35771886815E+02  0.51100000000E-03 0.  1.
        -12    1    3    3    0    0  0.28396095921E+01  0.24754507527E+01  0.23269682687E+01  0.44278686056E+01  0.00000000000E+00 0.  1.
</event>
<event>
 7    1  0.2395003E-008  0.4614232E+02  0.7816164E-02  0.1320468E+00
        -11   -1    0    0    0    0  0.00000000000E+00  0.00000000000E+00  0.45593999997E+02  0.45594000000E+02  0.51100000000E-03 0.  1.
         11   -1    0    0    0    0 -0.00000000000E+00 -0.00000000000E+00 -0.45593999997E+02  0.45594000000E+02  0.51100000000E-03 0. -1.
    9900012    2    1    2    0    0 -0.15932105599E+02  0.31084929645E+02  0.28443078058E+02  0.46142317307E+02  0.99999958590E+01 0.  0.
         12    1    1    2    0    0  0.15932105599E+02 -0.31084929645E+02 -0.28443078058E+02  0.45045682693E+02  0.00000000000E+00 0. -1.
         11    1    3    3    0    0 -0.23310700221E+01  0.64832419236E+01  0.90908673106E+01  0.11406585028E+02  0.51100000000E-03 0. -1.
        -11    1    3    3    0    0 -0.10274026779E+02  0.18906512376E+02  0.17881855290E+02  0.27978073296E+02  0.51100000000E-03 0.  1.
         12    1    3    3    0    0 -0.33270087982E+01  0.56951753449E+01  0.14703554577E+01  0.67576589825E+01  0.00000000000E+00 0. -1.
</event>
<event>
 7    1  0.2395003E-008  0.4614232E+02  0.7816164E-02  0.1320468E+00
        -11   -1    0    0    0    0  0.00000000000E+00  0.00000000000E+00  0.45593999997E+02  0.45594000000E+02  0.51100000000E-03 0.  1.
         11   -1    0    0    0    0 -0.00000000000E+00 -0.00000000000E+00 -0.45593999997E+02  0.45594000000E+02  0.51100000000E-03 0. -1.
    9900012    2    1    2    0    0 -0.38675444276E+02  0.21014916829E+02  0.95758461540E+01  0.46142317090E+02  0.99999938759E+01 0.  0.
         12    1    1    2    0    0  0.38675444276E+02 -0.21014916829E+02 -0.95758461540E+01  0.45045682910E+02  0.00000000000E+00 0. -1.
         11    1    3    3    0    0 -0.10004368939E+01  0.11714306520E+01  0.19457125020E+01  0.24817173797E+01  0.51100000000E-03 0. -1.
        -11    1    3    3    0    0 -0.22568178715E+02  0.15058727172E+02  0.52994310490E+01  0.27643659748E+02  0.51100000000E-03 0.  1.
        -12    1    3    3    0    0 -0.15106828668E+02  0.47847590057E+01  0.23307026031E+01  0.16016939962E+02  0.00000000000E+00 0.  1.
</event>
<event>
 7    1  0.2395003E-008  0.4614232E+02  0.7816164E-02  0.1320468E+00
        -11   -1    0    0    0    0  0.00000000000E+00  0.00000000000E+00  0.45593999997E+02  0.45594000000E+02  0.51100000000E-03 0.  1.
         11   -1    0    0    0    0 -0.00000000000E+00 -0.00000000000E+00 -0.45593999997E+02  0.45594000000E+02  0.51100000000E-03 0. -1.
    9900012    2    1    2    0    0  0.13749375816E+02 -0.31637515188E+02  0.28967837274E+02  0.46142319864E+02  0.10000019173E+02 0.  0.
         12    1    1    2    0    0 -0.13749375816E+02  0.31637515188E+02 -0.28967837274E+02  0.45045680136E+02  0.00000000000E+00 0. -1.
         11    1    3    3    0    0  0.46088236923E+01 -0.80970052256E+01  0.61460243139E+01  0.11161378256E+02  0.51100000000E-03 0. -1.
        -11    1    3    3    0    0 -0.70706951299E+00 -0.55293120543E+01  0.25465576860E+01  0.61284741494E+01  0.51100000000E-03 0.  1.
        -12    1    3    3    0    0  0.98476216365E+01 -0.18011197908E+02  0.20275255274E+02  0.28852467458E+02  0.00000000000E+00 0.  1.
</event>
<event>
 7    1  0.2395003E-008  0.4614232E+02  0.7816164E-02  0.1320468E+00
        -11   -1    0    0    0    0  0.00000000000E+00  0.00000000000E+00  0.45593999997E+02  0.45594000000E+02  0.51100000000E-03 0.  1.
         11   -1    0    0    0    0 -0.00000000000E+00 -0.00000000000E+00 -0.45593999997E+02  0.45594000000E+02  0.51100000000E-03 0. -1.
    9900012    2    1    2    0    0  0.24307319471E+02 -0.36381212925E+02  0.10708636072E+02  0.46142319627E+02  0.10000017012E+02 0.  0.
         12    1    1    2    0    0 -0.24307319471E+02  0.36381212925E+02 -0.10708636072E+02  0.45045680373E+02  0.00000000000E+00 0. -1.
         11    1    3    3    0    0  0.14122507025E+02 -0.23172075431E+02  0.63215658438E+01  0.27863102473E+02  0.51100000000E-03 0. -1.
        -11    1    3    3    0    0  0.67779049602E+01 -0.11756299180E+02  0.51194175031E+01  0.14503758199E+02  0.51100000000E-03 0.  1.
         12    1    3    3    0    0  0.34069074862E+01 -0.14528383139E+01 -0.73234727536E+00  0.37754589546E+01  0.00000000000E+00 0. -1.
</event>
<event>
 7    1  0.2395003E-008  0.4614232E+02  0.7816164E-02  0.1320468E+00
        -11   -1    0    0    0    0  0.00000000000E+00  0.00000000000E+00  0.45593999997E+02  0.45594000000E+02  0.51100000000E-03 0.  1.
         11   -1    0    0    0    0 -0.00000000000E+00 -0.00000000000E+00 -0.45593999997E+02  0.45594000000E+02  0.51100000000E-03 0. -1.
    9900012    2    1    2    0    0 -0.90385215019E+01  0.13545756365E+01  0.44108772390E+02  0.46142317101E+02  0.99999939788E+01 0.  0.
         12    1    1    2    0    0  0.90385215019E+01 -0.13545756365E+01 -0.44108772390E+02  0.45045682899E+02  0.00000000000E+00 0. -1.
         11    1    3    3    0    0 -0.31889841568E+01  0.18344860013E+00  0.26729308961E+01  0.41650730098E+01  0.51100000000E-03 0. -1.
        -11    1    3    3    0    0 -0.38960559010E+01  0.16010178524E+01  0.19464982981E+02  0.19915523405E+02  0.51100000000E-03 0.  1.
        -12    1    3    3    0    0 -0.19534814441E+01 -0.42989081605E+00  0.21970858513E+02  0.22061720686E+02  0.00000000000E+00 0.  1.
</event>
<event>
 7    1  0.2395003E-008  0.4614232E+02  0.7816164E-02  0.1320468E+00
        -11   -1    0    0    0    0  0.00000000000E+00  0.00000000000E+00  0.45593999997E+02  0.45594000000E+02  0.51100000000E-03 0.  1.
         11   -1    0    0    0    0 -0.00000000000E+00 -0.00000000000E+00 -0.45593999997E+02  0.45594000000E+02  0.51100000000E-03 0. -1.
    9900012    2    1    2    0    0 -0.15712279859E+02  0.21790613644E+02  0.36158081351E+02  0.46142318427E+02  0.10000006076E+02 0.  0.
         12    1    1    2    0    0  0.15712279859E+02 -0.21790613644E+02 -0.36158081351E+02  0.45045681573E+02  0.00000000000E+00 0. -1.
         11    1    3    3    0    0 -0.48033272275E-02 -0.22161889071E-01 -0.14143405873E+00  0.14324131865E+00  0.51100000000E-03 0. -1.
        -11    1    3    3    0    0 -0.99017885675E+01  0.93111448034E+01  0.23717864153E+02  0.27336421028E+02  0.51100000000E-03 0.  1.
        -12    1    3    3    0    0 -0.58056879644E+01  0.12501630730E+02  0.12581651256E+02  0.18662656081E+02  0.00000000000E+00 0.  1.
</event>
<event>
 7    1  0.2395003E-008  0.4614232E+02  0.7816164E-02  0.1320468E+00
        -11   -1    0    0    0    0  0.00000000000E+00  0.00000000000E+00  0.45593999997E+02  0.45594000000E+02  0.51100000000E-03 0. -1.
         11   -1    0    0    0    0 -0.00000000000E+00 -0.00000000000E+00 -0.45593999997E+02  0.45594000000E+02  0.51100000000E-03 0.  1.
    9900012    2    1    2    0    0  0.25025999460E+02  0.37188638739E+02  0.44517395710E+01  0.46142317794E+02  0.10000000297E+02 0.  0.
         12    1    1    2    0    0 -0.25025999460E+02 -0.37188638739E+02 -0.44517395710E+01  0.45045682206E+02  0.00000000000E+00 0. -1.
         11    1    3    3    0    0  0.71017754789E+01  0.12152356821E+02  0.17489855880E+01  0.14183580017E+02  0.51100000000E-03 0. -1.
        -11    1    3    3    0    0  0.14656533453E+02  0.17793365225E+02  0.51960104436E+01  0.23630834595E+02  0.51100000000E-03 0.  1.
         12    1    3    3    0    0  0.32676905275E+01  0.72429166933E+01 -0.24932564606E+01  0.83279031807E+01  0.00000000000E+00 0. -1.
</event>
<event>
 7    1  0.2395003E-008  0.4614231E+02  0.7816164E-02  0.1320468E+00
        -11   -1    0    0    0    0  0.00000000000E+00  0.00000000000E+00  0.45593999997E+02  0.45594000000E+02  0.51100000000E-03 0. -1.
         11   -1    0    0    0    0 -0.00000000000E+00 -0.00000000000E+00 -0.45593999997E+02  0.45594000000E+02  0.51100000000E-03 0.  1.
    9900012    2    1    2    0    0 -0.41019471969E+01 -0.25530177426E+01 -0.44785822696E+02  0.46142314469E+02  0.99999699776E+01 0.  0.
         12    1    1    2    0    0  0.41019471969E+01  0.25530177426E+01  0.44785822696E+02  0.45045685531E+02  0.00000000000E+00 0. -1.
         11    1    3    3    0    0 -0.51124520106E+01 -0.29363652879E+01 -0.12529815696E+02  0.13847587815E+02  0.51100000000E-03 0. -1.
        -11    1    3    3    0    0  0.71999740931E+00  0.52476476364E+00 -0.10923544122E+02  0.10959817096E+02  0.51100000000E-03 0.  1.
         12    1    3    3    0    0  0.29050740437E+00 -0.14141721838E+00 -0.21332462879E+02  0.21334909558E+02  0.00000000000E+00 0. -1.
</event>
<event>
 7    1  0.2395003E-008  0.4614230E+02  0.7816164E-02  0.1320468E+00
        -11   -1    0    0    0    0  0.00000000000E+00  0.00000000000E+00  0.45593999997E+02  0.45594000000E+02  0.51100000000E-03 0.  1.
         11   -1    0    0    0    0 -0.00000000000E+00 -0.00000000000E+00 -0.45593999997E+02  0.45594000000E+02  0.51100000000E-03 0. -1.
    9900012    2    1    2    0    0  0.29627864722E+02  0.11144089692E+02  0.32048612201E+02  0.46142304900E+02  0.99998827219E+01 0.  0.
         12    1    1    2    0    0 -0.29627864722E+02 -0.11144089692E+02 -0.32048612201E+02  0.45045695100E+02  0.00000000000E+00 0. -1.
         11    1    3    3    0    0  0.25940856795E+02  0.10258124464E+02  0.28709614185E+02  0.40029977713E+02  0.51100000000E-03 0.  1.
        -11    1    3    3    0    0 -0.93809997736E-01  0.13065616483E+01  0.98256965476E+00  0.16374819217E+01  0.51100000000E-03 0. -1.
         12    1    3    3    0    0  0.37808179245E+01 -0.42059642070E+00  0.23564283608E+01  0.44748452651E+01  0.00000000000E+00 0. -1.
</event>
<event>
 7    1  0.2395003E-008  0.4614232E+02  0.7816164E-02  0.1320468E+00
        -11   -1    0    0    0    0  0.00000000000E+00  0.00000000000E+00  0.45593999997E+02  0.45594000000E+02  0.51100000000E-03 0.  1.
         11   -1    0    0    0    0 -0.00000000000E+00 -0.00000000000E+00 -0.45593999997E+02  0.45594000000E+02  0.51100000000E-03 0. -1.
    9900012    2    1    2    0    0 -0.16327957806E+02  0.25932787922E+02  0.33015175381E+02  0.46142317621E+02  0.99999987236E+01 0.  0.
         12    1    1    2    0    0  0.16327957806E+02 -0.25932787922E+02 -0.33015175381E+02  0.45045682379E+02  0.00000000000E+00 0. -1.
         11    1    3    3    0    0 -0.43666681686E+00  0.18413994235E+01  0.61287355574E+01  0.64142676542E+01  0.51100000000E-03 0. -1.
        -11    1    3    3    0    0 -0.11263210715E+02  0.16490352603E+02  0.15515624205E+02  0.25288856030E+02  0.51100000000E-03 0.  1.
        -12    1    3    3    0    0 -0.46280802738E+01  0.76010358961E+01  0.11370815619E+02  0.14439193937E+02  0.00000000000E+00 0.  1.
</event>
<event>
 7    1  0.2395003E-008  0.4614232E+02  0.7816164E-02  0.1320468E+00
        -11   -1    0    0    0    0  0.00000000000E+00  0.00000000000E+00  0.45593999997E+02  0.45594000000E+02  0.51100000000E-03 0.  1.
         11   -1    0    0    0    0 -0.00000000000E+00 -0.00000000000E+00 -0.45593999997E+02  0.45594000000E+02  0.51100000000E-03 0. -1.
    9900012    2    1    2    0    0 -0.15751623942E+01 -0.22071250379E+01  0.44963995680E+02  0.46142318242E+02  0.10000004388E+02 0.  0.
         12    1    1    2    0    0  0.15751623942E+01  0.22071250379E+01 -0.44963995680E+02  0.45045681758E+02  0.00000000000E+00 0. -1.
         11    1    3    3    0    0 -0.46513352328E+01  0.26469302312E+00  0.26661477436E+02  0.27065464363E+02  0.51100000000E-03 0. -1.
        -11    1    3    3    0    0 -0.75296513048E+00  0.62839160054E-01  0.33971233861E+01  0.34801368951E+01  0.51100000000E-03 0.  1.
         12    1    3    3    0    0  0.38291379691E+01 -0.25346572210E+01  0.14905394858E+02  0.15596716984E+02  0.00000000000E+00 0. -1.
</event>
<event>
 7    1  0.2395003E-008  0.4614232E+02  0.7816164E-02  0.1320468E+00
        -11   -1    0    0    0    0  0.00000000000E+00  0.00000000000E+00  0.45593999997E+02  0.45594000000E+02  0.51100000000E-03 0.  1.
         11   -1    0    0    0    0 -0.00000000000E+00 -0.00000000000E+00 -0.45593999997E+02  0.45594000000E+02  0.51100000000E-03 0. -1.
    9900012    2    1    2    0    0  0.34984647937E+02  0.49123980938E+01  0.27947383549E+02  0.46142317704E+02  0.99999994775E+01 0.  0.
         12    1    1    2    0    0 -0.34984647937E+02 -0.49123980938E+01 -0.27947383549E+02  0.45045682296E+02  0.00000000000E+00 0. -1.
         11    1    3    3    0    0  0.49999579998E+01  0.67476711026E+00  0.72775398170E+01  0.88553642896E+01  0.51100000000E-03 0. -1.
        -11    1    3    3    0    0  0.19323814137E+02  0.55353821468E+01  0.15411759504E+02  0.25329283045E+02  0.51100000000E-03 0.  1.
         12    1    3    3    0    0  0.10660875800E+02 -0.12977511632E+01  0.52580842281E+01  0.11957670369E+02  0.00000000000E+00 0. -1.
</event>
<event>
 7    1  0.2395003E-008  0.4614231E+02  0.7816164E-02  0.1320468E+00
        -11   -1    0    0    0    0  0.00000000000E+00  0.00000000000E+00  0.45593999997E+02  0.45594000000E+02  0.51100000000E-03 0.  1.
         11   -1    0    0    0    0 -0.00000000000E+00 -0.00000000000E+00 -0.45593999997E+02  0.45594000000E+02  0.51100000000E-03 0. -1.
    9900012    2    1    2    0    0 -0.32274920237E+02 -0.19923319135E+02  0.24300303266E+02  0.46142313630E+02  0.99999623304E+01 0.  0.
         12    1    1    2    0    0  0.32274920237E+02  0.19923319135E+02 -0.24300303266E+02  0.45045686370E+02  0.00000000000E+00 0. -1.
         11    1    3    3    0    0 -0.79716642198E+01 -0.86636126527E+01  0.44203468629E+01  0.12575574789E+02  0.51100000000E-03 0. -1.
        -11    1    3    3    0    0 -0.88411956119E+01 -0.23588284392E+01  0.57389908707E+01  0.10801241962E+02  0.51100000000E-03 0.  1.
         12    1    3    3    0    0 -0.15462060406E+02 -0.89008780435E+01  0.14140965533E+02  0.22765496879E+02  0.00000000000E+00 0. -1.
</event>
<event>
 7    1  0.2395003E-008  0.4614232E+02  0.7816164E-02  0.1320468E+00
        -11   -1    0    0    0    0  0.00000000000E+00  0.00000000000E+00  0.45593999997E+02  0.45594000000E+02  0.51100000000E-03 0. -1.
         11   -1    0    0    0    0 -0.00000000000E+00 -0.00000000000E+00 -0.45593999997E+02  0.45594000000E+02  0.51100000000E-03 0.  1.
    9900012    2    1    2    0    0  0.16476742204E+02  0.41754849777E+02 -0.37633814074E+01  0.46142317042E+02  0.99999934387E+01 0.  0.
         12    1    1    2    0    0 -0.16476742204E+02 -0.41754849777E+02  0.37633814074E+01  0.45045682958E+02  0.00000000000E+00 0. -1.
         11    1    3    3    0    0  0.19841739593E+01  0.90333365829E+01 -0.11724739952E+01  0.93227040954E+01  0.51100000000E-03 0.  1.
        -11    1    3    3    0    0  0.24278935747E+01  0.14676125085E+02 -0.26654990976E+01  0.15112518004E+02  0.51100000000E-03 0. -1.
         12    1    3    3    0    0  0.12064674670E+02  0.18045388109E+02  0.74591685316E-01  0.21707094942E+02  0.00000000000E+00 0. -1.
</event>
<event>
 7    1  0.2395003E-008  0.4614232E+02  0.7816164E-02  0.1320468E+00
        -11   -1    0    0    0    0  0.00000000000E+00  0.00000000000E+00  0.45593999997E+02  0.45594000000E+02  0.51100000000E-03 0. -1.
         11   -1    0    0    0    0 -0.00000000000E+00 -0.00000000000E+00 -0.45593999997E+02  0.45594000000E+02  0.51100000000E-03 0.  1.
    9900012    2    1    2    0    0 -0.34216558072E+02 -0.24854764800E+02 -0.15510683963E+02  0.46142317670E+02  0.99999991676E+01 0.  0.
         12    1    1    2    0    0  0.34216558072E+02  0.24854764800E+02  0.15510683963E+02  0.45045682330E+02  0.00000000000E+00 0. -1.
         11    1    3    3    0    0 -0.15011731631E+02 -0.60083975696E+01 -0.57359845844E+01  0.17156760980E+02  0.51100000000E-03 0. -1.
        -11    1    3    3    0    0 -0.81501049911E+00 -0.43351809484E+00 -0.13441531572E+01  0.16306219744E+01  0.51100000000E-03 0.  1.
        -12    1    3    3    0    0 -0.18389815942E+02 -0.18412849136E+02 -0.84305462210E+01  0.27354934715E+02  0.00000000000E+00 0.  1.
</event>
<event>
 7    1  0.2395003E-008  0.4614231E+02  0.7816164E-02  0.1320468E+00
        -11   -1    0    0    0    0  0.00000000000E+00  0.00000000000E+00  0.45593999997E+02  0.45594000000E+02  0.51100000000E-03 0. -1.
         11   -1    0    0    0    0 -0.00000000000E+00 -0.00000000000E+00 -0.45593999997E+02  0.45594000000E+02  0.51100000000E-03 0.  1.
    9900012    2    1    2    0    0  0.41918400681E+01  0.39034884424E+02 -0.22086648039E+02  0.46142314893E+02  0.99999738500E+01 0.  0.
         12    1    1    2    0    0 -0.41918400681E+01 -0.39034884424E+02  0.22086648039E+02  0.45045685107E+02  0.00000000000E+00 0. -1.
         11    1    3    3    0    0 -0.20903492460E+00  0.10383061308E+01  0.94996207124E-01  0.10633906909E+01  0.51100000000E-03 0. -1.
        -11    1    3    3    0    0  0.14451833233E+01  0.27004846385E+02 -0.11226415643E+02  0.29281097855E+02  0.51100000000E-03 0.  1.
         12    1    3    3    0    0  0.29556916694E+01  0.10991731908E+02 -0.10955228603E+02  0.15797826348E+02  0.00000000000E+00 0. -1.
</event>
<event>
 7    1  0.2395003E-008  0.4614232E+02  0.7816164E-02  0.1320468E+00
        -11   -1    0    0    0    0  0.00000000000E+00  0.00000000000E+00  0.45593999997E+02  0.45594000000E+02  0.51100000000E-03 0.  1.
         11   -1    0    0    0    0 -0.00000000000E+00 -0.00000000000E+00 -0.45593999997E+02  0.45594000000E+02  0.51100000000E-03 0. -1.
    9900012    2    1    2    0    0  0.16604830201E+02  0.49518462846E+01  0.41579710207E+02  0.46142317981E+02  0.10000002006E+02 0.  0.
         12    1    1    2    0    0 -0.16604830201E+02 -0.49518462846E+01 -0.41579710207E+02  0.45045682019E+02  0.00000000000E+00 0. -1.
         11    1    3    3    0    0  0.49790754630E+01  0.41208161999E+01  0.18199341030E+02  0.19312905862E+02  0.51100000000E-03 0. -1.
        -11    1    3    3    0    0  0.31512989384E+01  0.30644390555E+01  0.78769559688E+01  0.90204161389E+01  0.51100000000E-03 0.  1.
        -12    1    3    3    0    0  0.84744557999E+01 -0.22334089708E+01  0.15503413208E+02  0.17808995980E+02  0.00000000000E+00 0.  1.
</event>
<event>
 7    1  0.2395003E-008  0.4614232E+02  0.7816164E-02  0.1320468E+00
        -11   -1    0    0    0    0  0.00000000000E+00  0.00000000000E+00  0.45593999997E+02  0.45594000000E+02  0.51100000000E-03 0. -1.
         11   -1    0    0    0    0 -0.00000000000E+00 -0.00000000000E+00 -0.45593999997E+02  0.45594000000E+02  0.51100000000E-03 0.  1.
    9900012    2    1    2    0    0 -0.67543794317E+01 -0.44449496053E+02 -0.27810365341E+01  0.46142317575E+02  0.99999983052E+01 0.  0.
         12    1    1    2    0    0  0.67543794317E+01  0.44449496053E+02  0.27810365341E+01  0.45045682425E+02  0.00000000000E+00 0. -1.
         11    1    3    3    0    0 -0.72152257740E+00 -0.48577228579E+01 -0.16942020606E+01  0.51950348485E+01  0.51100000000E-03 0. -1.
        -11    1    3    3    0    0 -0.81082288651E+00 -0.15642475214E+02 -0.42556508504E+01  0.16231297822E+02  0.51100000000E-03 0.  1.
         12    1    3    3    0    0 -0.52220339678E+01 -0.23949297981E+02  0.31688163770E+01  0.24715984904E+02  0.00000000000E+00 0. -1.
</event>
<event>
 7    1  0.2434770E-008  0.4614232E+02  0.7816164E-02  0.1320468E+00
        -11   -1    0    0    0    0  0.00000000000E+00  0.00000000000E+00  0.45593999997E+02  0.45594000000E+02  0.51100000000E-03 0.  1.
         11   -1    0    0    0    0 -0.00000000000E+00 -0.00000000000E+00 -0.45593999997E+02  0.45594000000E+02  0.51100000000E-03 0. -1.
    9900012    2    1    2    0    0  0.15103517609E+02  0.39895103510E+02 -0.14469898219E+02  0.46142317824E+02  0.10000000575E+02 0.  0.
         12    1    1    2    0    0 -0.15103517609E+02 -0.39895103510E+02  0.14469898219E+02  0.45045682176E+02  0.00000000000E+00 0. -1.
         11    1    3    3    0    0 -0.80659138774E+00  0.15377358721E+01 -0.34494712319E+00  0.17703700342E+01  0.51100000000E-03 0. -1.
        -11    1    3    3    0    0  0.50916776989E+01  0.16780785834E+02 -0.89436604265E+01  0.19685248718E+02  0.51100000000E-03 0.  1.
        -12    1    3    3    0    0  0.10818431298E+02  0.21576581804E+02 -0.51812906688E+01  0.24686699072E+02  0.00000000000E+00 0.  1.
</event>
<event>
 7    1  0.2395003E-008  0.4614232E+02  0.7816164E-02  0.1320468E+00
        -11   -1    0    0    0    0  0.00000000000E+00  0.00000000000E+00  0.45593999997E+02  0.45594000000E+02  0.51100000000E-03 0.  1.
         11   -1    0    0    0    0 -0.00000000000E+00 -0.00000000000E+00 -0.45593999997E+02  0.45594000000E+02  0.51100000000E-03 0. -1.
    9900012    2    1    2    0    0  0.17724324665E+02  0.21958584699E+01  0.41353839091E+02  0.46142317779E+02  0.10000000160E+02 0.  0.
         12    1    1    2    0    0 -0.17724324665E+02 -0.21958584699E+01 -0.41353839091E+02  0.45045682221E+02  0.00000000000E+00 0. -1.
         11    1    3    3    0    0  0.25944877520E+01  0.31250061335E+01  0.95277425716E+01  0.10357360127E+02  0.51100000000E-03 0. -1.
        -11    1    3    3    0    0  0.51046992261E+01 -0.29057348453E+01  0.86444918995E+01  0.10451243450E+02  0.51100000000E-03 0.  1.
         12    1    3    3    0    0  0.10025137687E+02  0.19765871817E+01  0.23181604619E+02  0.25333714202E+02  0.00000000000E+00 0. -1.
</event>
<event>
 7    1  0.2395003E-008  0.4614232E+02  0.7816164E-02  0.1320468E+00
        -11   -1    0    0    0    0  0.00000000000E+00  0.00000000000E+00  0.45593999997E+02  0.45594000000E+02  0.51100000000E-03 0.  1.
         11   -1    0    0    0    0 -0.00000000000E+00 -0.00000000000E+00 -0.45593999997E+02  0.45594000000E+02  0.51100000000E-03 0. -1.
    9900012    2    1    2    0    0 -0.43933241348E+02 -0.92031366115E+01 -0.37796868561E+01  0.46142318170E+02  0.10000003724E+02 0.  0.
         12    1    1    2    0    0  0.43933241348E+02  0.92031366115E+01  0.37796868561E+01  0.45045681830E+02  0.00000000000E+00 0. -1.
         11    1    3    3    0    0 -0.14684977085E+01  0.41288676486E+00 -0.10565222647E+01  0.18555863110E+01  0.51100000000E-03 0. -1.
        -11    1    3    3    0    0 -0.10207458860E+02 -0.67211689338E+00  0.21686921154E+01  0.10456920352E+02  0.51100000000E-03 0.  1.
         12    1    3    3    0    0 -0.32257284779E+02 -0.89439064829E+01 -0.48918567068E+01  0.33829811506E+02  0.00000000000E+00 0. -1.
</event>
<event>
 7    1  0.2395003E-008  0.4614232E+02  0.7816164E-02  0.1320468E+00
        -11   -1    0    0    0    0  0.00000000000E+00  0.00000000000E+00  0.45593999997E+02  0.45594000000E+02  0.51100000000E-03 0.  1.
         11   -1    0    0    0    0 -0.00000000000E+00 -0.00000000000E+00 -0.45593999997E+02  0.45594000000E+02  0.51100000000E-03 0. -1.
    9900012    2    1    2    0    0 -0.19607644386E+00 -0.29014675401E+02  0.34456112312E+02  0.46142317518E+02  0.99999977841E+01 0.  0.
         12    1    1    2    0    0  0.19607644386E+00  0.29014675401E+02 -0.34456112312E+02  0.45045682482E+02  0.00000000000E+00 0. -1.
         11    1    3    3    0    0 -0.22566044419E+01 -0.29098757019E+01  0.67734634953E+01  0.77096983204E+01  0.51100000000E-03 0. -1.
        -11    1    3    3    0    0 -0.43967405757E+00 -0.20520912367E+02  0.21876430881E+02  0.29997989699E+02  0.51100000000E-03 0.  1.
        -12    1    3    3    0    0  0.25002020556E+01 -0.55838873327E+01  0.58062179351E+01  0.84346294983E+01  0.00000000000E+00 0.  1.
</event>
<event>
 7    1  0.2395003E-008  0.4614232E+02  0.7816164E-02  0.1320468E+00
        -11   -1    0    0    0    0  0.00000000000E+00  0.00000000000E+00  0.45593999997E+02  0.45594000000E+02  0.51100000000E-03 0.  1.
         11   -1    0    0    0    0 -0.00000000000E+00 -0.00000000000E+00 -0.45593999997E+02  0.45594000000E+02  0.51100000000E-03 0. -1.
    9900012    2    1    2    0    0 -0.41444844876E+02  0.51067968611E+01  0.16892571112E+02  0.46142317635E+02  0.99999988519E+01 0.  0.
         12    1    1    2    0    0  0.41444844876E+02 -0.51067968611E+01 -0.16892571112E+02  0.45045682365E+02  0.00000000000E+00 0. -1.
         11    1    3    3    0    0 -0.82852326052E+01  0.47356848313E+01  0.41902410210E+01  0.10422567353E+02  0.51100000000E-03 0. -1.
        -11    1    3    3    0    0 -0.74267139168E+01  0.75562745233E+00  0.44620142725E+01  0.86969318772E+01  0.51100000000E-03 0.  1.
         12    1    3    3    0    0 -0.25732898354E+02 -0.38451542248E+00  0.82403158185E+01  0.27022818405E+02  0.00000000000E+00 0. -1.
</event>
<event>
 7    1  0.2395003E-008  0.4614232E+02  0.7816164E-02  0.1320468E+00
        -11   -1    0    0    0    0  0.00000000000E+00  0.00000000000E+00  0.45593999997E+02  0.45594000000E+02  0.51100000000E-03 0.  1.
         11   -1    0    0    0    0 -0.00000000000E+00 -0.00000000000E+00 -0.45593999997E+02  0.45594000000E+02  0.51100000000E-03 0. -1.
    9900012    2    1    2    0    0 -0.24511374894E+02 -0.33602965917E+02  0.17295857320E+02  0.46142317654E+02  0.99999990197E+01 0.  0.
         12    1    1    2    0    0  0.24511374894E+02  0.33602965917E+02 -0.17295857320E+02  0.45045682346E+02  0.00000000000E+00 0. -1.
         11    1    3    3    0    0 -0.39022535202E+01 -0.47899196213E+01  0.64771573052E+00  0.62121210905E+01  0.51100000000E-03 0. -1.
        -11    1    3    3    0    0 -0.20234494244E+02 -0.26584570660E+02  0.13451557872E+02  0.36015532260E+02  0.51100000000E-03 0.  1.
         12    1    3    3    0    0 -0.37462712998E+00 -0.22284756352E+01  0.31965837180E+01  0.39146643035E+01  0.00000000000E+00 0. -1.
</event>
<event>
 7    1  0.2395003E-008  0.4614232E+02  0.7816164E-02  0.1320468E+00
        -11   -1    0    0    0    0  0.00000000000E+00  0.00000000000E+00  0.45593999997E+02  0.45594000000E+02  0.51100000000E-03 0.  1.
         11   -1    0    0    0    0 -0.00000000000E+00 -0.00000000000E+00 -0.45593999997E+02  0.45594000000E+02  0.51100000000E-03 0. -1.
    9900012    2    1    2    0    0 -0.98452415648E+01 -0.25283614758E+02  0.35957243425E+02  0.46142319726E+02  0.10000017913E+02 0.  0.
         12    1    1    2    0    0  0.98452415648E+01  0.25283614758E+02 -0.35957243425E+02  0.45045680274E+02  0.00000000000E+00 0. -1.
         11    1    3    3    0    0 -0.35717780848E+01 -0.33286186240E+01  0.11757181036E+02  0.12730616906E+02  0.51100000000E-03 0. -1.
        -11    1    3    3    0    0 -0.35696793739E+01 -0.72096245828E+01  0.85789525385E+01  0.11760940625E+02  0.51100000000E-03 0.  1.
         12    1    3    3    0    0 -0.27037841061E+01 -0.14745371551E+02  0.15621109850E+02  0.21650762195E+02  0.00000000000E+00 0. -1.
</event>
<event>
 7    1  0.2395003E-008  0.4614232E+02  0.7816164E-02  0.1320468E+00
        -11   -1    0    0    0    0  0.00000000000E+00  0.00000000000E+00  0.45593999997E+02  0.45594000000E+02  0.51100000000E-03 0.  1.
         11   -1    0    0    0    0 -0.00000000000E+00 -0.00000000000E+00 -0.45593999997E+02  0.45594000000E+02  0.51100000000E-03 0. -1.
    9900012    2    1    2    0    0  0.30974941466E+00 -0.20517747129E+02  0.40100369340E+02  0.46142317486E+02  0.99999974947E+01 0.  0.
         12    1    1    2    0    0 -0.30974941466E+00  0.20517747129E+02 -0.40100369340E+02  0.45045682514E+02  0.00000000000E+00 0. -1.
         11    1    3    3    0    0  0.33296673075E+00  0.59600328385E+00  0.51444143242E+00  0.85483156625E+00  0.51100000000E-03 0. -1.
        -11    1    3    3    0    0  0.22484474975E+01 -0.57622076677E+01  0.14847974952E+02  0.16084803815E+02  0.51100000000E-03 0.  1.
        -12    1    3    3    0    0 -0.22716648136E+01 -0.15351542745E+02  0.24737952956E+02  0.29202682105E+02  0.00000000000E+00 0.  1.
</event>
<event>
 7    1  0.2395003E-008  0.4614232E+02  0.7816164E-02  0.1320468E+00
        -11   -1    0    0    0    0  0.00000000000E+00  0.00000000000E+00  0.45593999997E+02  0.45594000000E+02  0.51100000000E-03 0.  1.
         11   -1    0    0    0    0 -0.00000000000E+00 -0.00000000000E+00 -0.45593999997E+02  0.45594000000E+02  0.51100000000E-03 0. -1.
    9900012    2    1    2    0    0  0.11674365092E+02 -0.29090652363E+02  0.32350527089E+02  0.46142318097E+02  0.10000003062E+02 0.  0.
         12    1    1    2    0    0 -0.11674365092E+02  0.29090652363E+02 -0.32350527089E+02  0.45045681903E+02  0.00000000000E+00 0. -1.
         11    1    3    3    0    0  0.16710098837E+01 -0.15096278406E+02  0.14078861087E+02  0.20710003030E+02  0.51100000000E-03 0. -1.
        -11    1    3    3    0    0  0.59600909518E+01 -0.53509749151E+01  0.67695640262E+01  0.10487259607E+02  0.51100000000E-03 0.  1.
         12    1    3    3    0    0  0.40432642563E+01 -0.86433990417E+01  0.11502101976E+02  0.14945055460E+02  0.00000000000E+00 0. -1.
</event>
<event>
 7    1  0.2628895E-008  0.4614232E+02  0.7816164E-02  0.1320468E+00
        -11   -1    0    0    0    0  0.00000000000E+00  0.00000000000E+00  0.45593999997E+02  0.45594000000E+02  0.51100000000E-03 0.  1.
         11   -1    0    0    0    0 -0.00000000000E+00 -0.00000000000E+00 -0.45593999997E+02  0.45594000000E+02  0.51100000000E-03 0. -1.
    9900012    2    1    2    0    0  0.23738308695E+02 -0.37076061407E+02  0.95379156807E+01  0.46142318024E+02  0.10000002399E+02 0.  0.
         12    1    1    2    0    0 -0.23738308695E+02  0.37076061407E+02 -0.95379156807E+01  0.45045681976E+02  0.00000000000E+00 0. -1.
         11    1    3    3    0    0  0.44733111527E+01 -0.22525484847E+01  0.11467979399E+00  0.50097543913E+01  0.51100000000E-03 0. -1.
        -11    1    3    3    0    0  0.66518805269E+01 -0.80492300288E+01  0.24528958011E+01  0.10726337524E+02  0.51100000000E-03 0.  1.
        -12    1    3    3    0    0  0.12613117016E+02 -0.26774282893E+02  0.69703400856E+01  0.30406226109E+02  0.00000000000E+00 0.  1.
</event>
<event>
 7    1  0.2395003E-008  0.4614232E+02  0.7816164E-02  0.1320468E+00
        -11   -1    0    0    0    0  0.00000000000E+00  0.00000000000E+00  0.45593999997E+02  0.45594000000E+02  0.51100000000E-03 0. -1.
         11   -1    0    0    0    0 -0.00000000000E+00 -0.00000000000E+00 -0.45593999997E+02  0.45594000000E+02  0.51100000000E-03 0.  1.
    9900012    2    1    2    0    0 -0.26212266052E+02 -0.36255815394E+02 -0.52484733464E+01  0.46142317478E+02  0.99999974154E+01 0.  0.
         12    1    1    2    0    0  0.26212266052E+02  0.36255815394E+02  0.52484733464E+01  0.45045682522E+02  0.00000000000E+00 0. -1.
         11    1    3    3    0    0 -0.16842991035E+02 -0.21999657981E+02 -0.67099080675E+01  0.28507791300E+02  0.51100000000E-03 0.  1.
        -11    1    3    3    0    0 -0.12682971663E+01 -0.12596226180E+01 -0.11121092242E+01  0.21052349107E+01  0.51100000000E-03 0. -1.
        -12    1    3    3    0    0 -0.81009778510E+01 -0.12996534795E+02  0.25735439453E+01  0.15529291267E+02  0.00000000000E+00 0.  1.
</event>
<event>
 7    1  0.2395003E-008  0.4614232E+02  0.7816164E-02  0.1320468E+00
        -11   -1    0    0    0    0  0.00000000000E+00  0.00000000000E+00  0.45593999997E+02  0.45594000000E+02  0.51100000000E-03 0.  1.
         11   -1    0    0    0    0 -0.00000000000E+00 -0.00000000000E+00 -0.45593999997E+02  0.45594000000E+02  0.51100000000E-03 0. -1.
    9900012    2    1    2    0    0  0.15575539831E+02 -0.24244115944E+02  0.34622809457E+02  0.46142317259E+02  0.99999954214E+01 0.  0.
         12    1    1    2    0    0 -0.15575539831E+02  0.24244115944E+02 -0.34622809457E+02  0.45045682741E+02  0.00000000000E+00 0. -1.
         11    1    3    3    0    0  0.39147305572E+01 -0.12324230671E+02  0.19051622715E+02  0.23025553311E+02  0.51100000000E-03 0. -1.
        -11    1    3    3    0    0  0.80065222612E+01 -0.10398115573E+02  0.11755006530E+02  0.17618325260E+02  0.51100000000E-03 0.  1.
         12    1    3    3    0    0  0.36542870130E+01 -0.15217697001E+01  0.38161802122E+01  0.54984386880E+01  0.00000000000E+00 0. -1.
</event>
<event>
 7    1  0.2395003E-008  0.4614232E+02  0.7816164E-02  0.1320468E+00
        -11   -1    0    0    0    0  0.00000000000E+00  0.00000000000E+00  0.45593999997E+02  0.45594000000E+02  0.51100000000E-03 0.  1.
         11   -1    0    0    0    0 -0.00000000000E+00 -0.00000000000E+00 -0.45593999997E+02  0.45594000000E+02  0.51100000000E-03 0. -1.
    9900012    2    1    2    0    0  0.21676604144E+02 -0.35711993477E+02 -0.16849089291E+02  0.46142318129E+02  0.10000003351E+02 0.  0.
         12    1    1    2    0    0 -0.21676604144E+02  0.35711993477E+02  0.16849089291E+02  0.45045681871E+02  0.00000000000E+00 0. -1.
         11    1    3    3    0    0  0.10356204434E+02 -0.14057120171E+02 -0.99177172447E+01  0.20080207006E+02  0.51100000000E-03 0. -1.
        -11    1    3    3    0    0  0.57140415867E+01 -0.14403588060E+02 -0.67302477514E+01  0.16894077522E+02  0.51100000000E-03 0.  1.
         12    1    3    3    0    0  0.56063581235E+01 -0.72512852458E+01 -0.20112429450E+00  0.91680336009E+01  0.00000000000E+00 0. -1.
</event>
<event>
 7    1  0.2395003E-008  0.4614232E+02  0.7816164E-02  0.1320468E+00
        -11   -1    0    0    0    0  0.00000000000E+00  0.00000000000E+00  0.45593999997E+02  0.45594000000E+02  0.51100000000E-03 0.  1.
         11   -1    0    0    0    0 -0.00000000000E+00 -0.00000000000E+00 -0.45593999997E+02  0.45594000000E+02  0.51100000000E-03 0. -1.
    9900012    2    1    2    0    0  0.20643060405E+02  0.25142548523E+01  0.39958179223E+02  0.46142317553E+02  0.99999980994E+01 0.  0.
         12    1    1    2    0    0 -0.20643060405E+02 -0.25142548523E+01 -0.39958179223E+02  0.45045682447E+02  0.00000000000E+00 0. -1.
         11    1    3    3    0    0  0.39906004047E+01  0.14093243971E+01  0.98251777913E+01  0.10697906605E+02  0.51100000000E-03 0. -1.
        -11    1    3    3    0    0  0.10281285199E+02  0.10318583248E+01  0.25651921715E+02  0.27654848488E+02  0.51100000000E-03 0.  1.
         12    1    3    3    0    0  0.63711748012E+01  0.73072130391E-01  0.44810797163E+01  0.77895624593E+01  0.00000000000E+00 0. -1.
</event>
<event>
 7    1  0.2395003E-008  0.4614232E+02  0.7816164E-02  0.1320468E+00
        -11   -1    0    0    0    0  0.00000000000E+00  0.00000000000E+00  0.45593999997E+02  0.45594000000E+02  0.51100000000E-03 0. -1.
         11   -1    0    0    0    0 -0.00000000000E+00 -0.00000000000E+00 -0.45593999997E+02  0.45594000000E+02  0.51100000000E-03 0.  1.
    9900012    2    1    2    0    0 -0.23567765709E+02 -0.33668474122E+02  0.18442013636E+02  0.46142316553E+02  0.99999889813E+01 0.  0.
         12    1    1    2    0    0  0.23567765709E+02  0.33668474122E+02 -0.18442013636E+02  0.45045683447E+02  0.00000000000E+00 0. -1.
         11    1    3    3    0    0  0.80852790615E+00 -0.78010098679E+00  0.39344444398E+00  0.11904090542E+01  0.51100000000E-03 0. -1.
        -11    1    3    3    0    0 -0.11033280559E+02 -0.17894656471E+02  0.78702406712E+01  0.22447554401E+02  0.51100000000E-03 0.  1.
         12    1    3    3    0    0 -0.13343013057E+02 -0.14993716664E+02  0.10178328521E+02  0.22504353097E+02  0.00000000000E+00 0. -1.
</event>
<event>
 7    1  0.2395003E-008  0.4614232E+02  0.7816164E-02  0.1320468E+00
        -11   -1    0    0    0    0  0.00000000000E+00  0.00000000000E+00  0.45593999997E+02  0.45594000000E+02  0.51100000000E-03 0.  1.
         11   -1    0    0    0    0 -0.00000000000E+00 -0.00000000000E+00 -0.45593999997E+02  0.45594000000E+02  0.51100000000E-03 0. -1.
    9900012    2    1    2    0    0  0.15242150820E+02  0.31963145546E+02 -0.27841473261E+02  0.46142317985E+02  0.10000002044E+02 0.  0.
         12    1    1    2    0    0 -0.15242150820E+02 -0.31963145546E+02  0.27841473261E+02  0.45045682015E+02  0.00000000000E+00 0. -1.
         11    1    3    3    0    0 -0.32071525533E+00  0.63681818742E+01 -0.45625701953E+01  0.78405131022E+01  0.51100000000E-03 0. -1.
        -11    1    3    3    0    0  0.12590473010E+02  0.23797037679E+02 -0.20170443518E+02  0.33640240856E+02  0.51100000000E-03 0.  1.
         12    1    3    3    0    0  0.29723930661E+01  0.17979259932E+01 -0.31084595483E+01  0.46615640272E+01  0.00000000000E+00 0. -1.
</event>
<event>
 7    1  0.2395003E-008  0.4614232E+02  0.7816164E-02  0.1320468E+00
        -11   -1    0    0    0    0  0.00000000000E+00  0.00000000000E+00  0.45593999997E+02  0.45594000000E+02  0.51100000000E-03 0. -1.
         11   -1    0    0    0    0 -0.00000000000E+00 -0.00000000000E+00 -0.45593999997E+02  0.45594000000E+02  0.51100000000E-03 0.  1.
    9900012    2    1    2    0    0  0.30348033055E+02 -0.21823859409E+02 -0.25136213047E+02  0.46142321448E+02  0.10000033624E+02 0.  0.
         12    1    1    2    0    0 -0.30348033055E+02  0.21823859409E+02  0.25136213047E+02  0.45045678552E+02  0.00000000000E+00 0. -1.
         11    1    3    3    0    0  0.35445649928E+01 -0.60716643837E+00 -0.17218698513E+01  0.39871578998E+01  0.51100000000E-03 0. -1.
        -11    1    3    3    0    0  0.19777284924E+02 -0.11304315635E+02 -0.13552573176E+02  0.26506617870E+02  0.51100000000E-03 0.  1.
         12    1    3    3    0    0  0.70261831384E+01 -0.99123773353E+01 -0.98617700201E+01  0.15648545679E+02  0.00000000000E+00 0. -1.
</event>
<event>
 7    1  0.2395003E-008  0.4614232E+02  0.7816164E-02  0.1320468E+00
        -11   -1    0    0    0    0  0.00000000000E+00  0.00000000000E+00  0.45593999997E+02  0.45594000000E+02  0.51100000000E-03 0. -1.
         11   -1    0    0    0    0 -0.00000000000E+00 -0.00000000000E+00 -0.45593999997E+02  0.45594000000E+02  0.51100000000E-03 0.  1.
    9900012    2    1    2    0    0 -0.17839135322E+02  0.40108306507E+02 -0.10109523509E+02  0.46142318015E+02  0.10000002319E+02 0.  0.
         12    1    1    2    0    0  0.17839135322E+02 -0.40108306507E+02  0.10109523509E+02  0.45045681985E+02  0.00000000000E+00 0. -1.
         11    1    3    3    0    0  0.18306285947E+00  0.17966792878E+00  0.71814545862E+00  0.76257834745E+00  0.51100000000E-03 0. -1.
        -11    1    3    3    0    0 -0.12249485616E+02  0.22500697623E+02 -0.77411686208E+01  0.26762977847E+02  0.51100000000E-03 0.  1.
         12    1    3    3    0    0 -0.57727125653E+01  0.17427940955E+02 -0.30865003470E+01  0.18616761821E+02  0.00000000000E+00 0. -1.
</event>
<event>
 7    1  0.2395003E-008  0.4614232E+02  0.7816164E-02  0.1320468E+00
        -11   -1    0    0    0    0  0.00000000000E+00  0.00000000000E+00  0.45593999997E+02  0.45594000000E+02  0.51100000000E-03 0.  1.
         11   -1    0    0    0    0 -0.00000000000E+00 -0.00000000000E+00 -0.45593999997E+02  0.45594000000E+02  0.51100000000E-03 0. -1.
    9900012    2    1    2    0    0  0.37096262944E+02  0.17819057243E+02  0.18315620652E+02  0.46142317795E+02  0.10000000308E+02 0.  0.
         12    1    1    2    0    0 -0.37096262944E+02 -0.17819057243E+02 -0.18315620652E+02  0.45045682205E+02  0.00000000000E+00 0. -1.
         11    1    3    3    0    0  0.70017968092E+01  0.25736122155E+01 -0.30946707472E+00  0.74662178193E+01  0.51100000000E-03 0. -1.
        -11    1    3    3    0    0  0.11325259648E+02  0.68380833934E+01  0.87550140032E+01  0.15864147032E+02  0.51100000000E-03 0.  1.
         12    1    3    3    0    0  0.18769206487E+02  0.84073616343E+01  0.98700737235E+01  0.22811952944E+02  0.00000000000E+00 0. -1.
</event>
<event>
 7    1  0.2395003E-008  0.4614232E+02  0.7816164E-02  0.1320468E+00
        -11   -1    0    0    0    0  0.00000000000E+00  0.00000000000E+00  0.45593999997E+02  0.45594000000E+02  0.51100000000E-03 0.  1.
         11   -1    0    0    0    0 -0.00000000000E+00 -0.00000000000E+00 -0.45593999997E+02  0.45594000000E+02  0.51100000000E-03 0. -1.
    9900012    2    1    2    0    0 -0.11101895954E+02  0.20738677288E+02  0.38415734787E+02  0.46142317536E+02  0.99999979441E+01 0.  0.
         12    1    1    2    0    0  0.11101895954E+02 -0.20738677288E+02 -0.38415734787E+02  0.45045682464E+02  0.00000000000E+00 0. -1.
         11    1    3    3    0    0  0.96283634292E+00  0.18959074358E+01  0.37714745194E+01  0.43296118925E+01  0.51100000000E-03 0. -1.
        -11    1    3    3    0    0 -0.14072338885E+01  0.19433991515E+00  0.50461726482E+01  0.52423214205E+01  0.51100000000E-03 0.  1.
        -12    1    3    3    0    0 -0.10657498409E+02  0.18648429937E+02  0.29598087620E+02  0.36570384223E+02  0.00000000000E+00 0.  1.
</event>
<event>
 7    1  0.2395003E-008  0.4614232E+02  0.7816164E-02  0.1320468E+00
        -11   -1    0    0    0    0  0.00000000000E+00  0.00000000000E+00  0.45593999997E+02  0.45594000000E+02  0.51100000000E-03 0.  1.
         11   -1    0    0    0    0 -0.00000000000E+00 -0.00000000000E+00 -0.45593999997E+02  0.45594000000E+02  0.51100000000E-03 0. -1.
    9900012    2    1    2    0    0  0.32384846735E+01 -0.75287557242E+01  0.44293831794E+02  0.46142317846E+02  0.10000000777E+02 0.  0.
         12    1    1    2    0    0 -0.32384846735E+01  0.75287557242E+01 -0.44293831794E+02  0.45045682154E+02  0.00000000000E+00 0. -1.
         11    1    3    3    0    0 -0.17408281591E+01 -0.23465952195E+01  0.19581974430E+02  0.19798755381E+02  0.51100000000E-03 0. -1.
        -11    1    3    3    0    0  0.39995570508E+01 -0.21991366393E+01  0.70070412955E+01  0.83624928424E+01  0.51100000000E-03 0.  1.
        -12    1    3    3    0    0  0.97975578184E+00 -0.29830238653E+01  0.17704816068E+02  0.17981069623E+02  0.00000000000E+00 0.  1.
</event>
<event>
 7    1  0.2395003E-008  0.4614232E+02  0.7816164E-02  0.1320468E+00
        -11   -1    0    0    0    0  0.00000000000E+00  0.00000000000E+00  0.45593999997E+02  0.45594000000E+02  0.51100000000E-03 0.  1.
         11   -1    0    0    0    0 -0.00000000000E+00 -0.00000000000E+00 -0.45593999997E+02  0.45594000000E+02  0.51100000000E-03 0. -1.
    9900012    2    1    2    0    0 -0.19778054166E+02  0.21541066032E+02  0.34262582911E+02  0.46142317187E+02  0.99999947657E+01 0.  0.
         12    1    1    2    0    0  0.19778054166E+02 -0.21541066032E+02 -0.34262582911E+02  0.45045682813E+02  0.00000000000E+00 0. -1.
         11    1    3    3    0    0 -0.87998954669E+01  0.36383367319E+01  0.12378022775E+02  0.15617013238E+02  0.51100000000E-03 0. -1.
        -11    1    3    3    0    0 -0.60944001139E+01  0.13013711743E+02  0.14812673674E+02  0.20637676897E+02  0.51100000000E-03 0.  1.
         12    1    3    3    0    0 -0.48837585848E+01  0.48890175568E+01  0.70718864621E+01  0.98876270519E+01  0.00000000000E+00 0. -1.
</event>
<event>
 7    1  0.2395003E-008  0.4614232E+02  0.7816164E-02  0.1320468E+00
        -11   -1    0    0    0    0  0.00000000000E+00  0.00000000000E+00  0.45593999997E+02  0.45594000000E+02  0.51100000000E-03 0.  1.
         11   -1    0    0    0    0 -0.00000000000E+00 -0.00000000000E+00 -0.45593999997E+02  0.45594000000E+02  0.51100000000E-03 0. -1.
    9900012    2    1    2    0    0 -0.75087563925E+01  0.12587388178E+02  0.42594480156E+02  0.46142317594E+02  0.99999984763E+01 0.  0.
         12    1    1    2    0    0  0.75087563925E+01 -0.12587388178E+02 -0.42594480156E+02  0.45045682406E+02  0.00000000000E+00 0. -1.
         11    1    3    3    0    0 -0.70256135556E+01  0.72612072498E+01  0.21452041895E+02  0.23712327559E+02  0.51100000000E-03 0. -1.
        -11    1    3    3    0    0 -0.12340295692E+01  0.26749382000E+01  0.18046615228E+02  0.18285470867E+02  0.51100000000E-03 0.  1.
        -12    1    3    3    0    0  0.75088673228E+00  0.26512427280E+01  0.30958230321E+01  0.41445191680E+01  0.00000000000E+00 0.  1.
</event>
<event>
 7    1  0.2395003E-008  0.4614232E+02  0.7816164E-02  0.1320468E+00
        -11   -1    0    0    0    0  0.00000000000E+00  0.00000000000E+00  0.45593999997E+02  0.45594000000E+02  0.51100000000E-03 0.  1.
         11   -1    0    0    0    0 -0.00000000000E+00 -0.00000000000E+00 -0.45593999997E+02  0.45594000000E+02  0.51100000000E-03 0. -1.
    9900012    2    1    2    0    0 -0.42510805566E+01 -0.29699816520E+02  0.33600038803E+02  0.46142318799E+02  0.10000009468E+02 0.  0.
         12    1    1    2    0    0  0.42510805566E+01  0.29699816520E+02 -0.33600038803E+02  0.45045681201E+02  0.00000000000E+00 0. -1.
         11    1    3    3    0    0  0.29653820616E+01 -0.11232792594E+02  0.11237572680E+02  0.16163296701E+02  0.51100000000E-03 0. -1.
        -11    1    3    3    0    0 -0.36992822811E+01 -0.73737837396E+01  0.79758070873E+01  0.11474793026E+02  0.51100000000E-03 0.  1.
         12    1    3    3    0    0 -0.35171803371E+01 -0.11093240187E+02  0.14386659036E+02  0.18504229073E+02  0.00000000000E+00 0. -1.
</event>
<event>
 7    1  0.2395003E-008  0.4614232E+02  0.7816164E-02  0.1320468E+00
        -11   -1    0    0    0    0  0.00000000000E+00  0.00000000000E+00  0.45593999997E+02  0.45594000000E+02  0.51100000000E-03 0. -1.
         11   -1    0    0    0    0 -0.00000000000E+00 -0.00000000000E+00 -0.45593999997E+02  0.45594000000E+02  0.51100000000E-03 0.  1.
    9900012    2    1    2    0    0  0.63232658658E+01 -0.44382068228E+02  0.44002066358E+01  0.46142317745E+02  0.99999998505E+01 0.  0.
         12    1    1    2    0    0 -0.63232658658E+01  0.44382068228E+02 -0.44002066358E+01  0.45045682255E+02  0.00000000000E+00 0. -1.
         11    1    3    3    0    0  0.28895216296E+01 -0.65656609246E+01  0.24894850140E+01  0.75930741154E+01  0.51100000000E-03 0. -1.
        -11    1    3    3    0    0  0.25472411922E+01 -0.47964875447E+01  0.87696036054E+00  0.55012535111E+01  0.51100000000E-03 0.  1.
        -12    1    3    3    0    0  0.88650304405E+00 -0.33019919759E+02  0.10337612613E+01  0.33047990118E+02  0.00000000000E+00 0.  1.
</event>
<event>
 7    1  0.2395003E-008  0.4614233E+02  0.7816164E-02  0.1320468E+00
        -11   -1    0    0    0    0  0.00000000000E+00  0.00000000000E+00  0.45593999997E+02  0.45594000000E+02  0.51100000000E-03 0.  1.
         11   -1    0    0    0    0 -0.00000000000E+00 -0.00000000000E+00 -0.45593999997E+02  0.45594000000E+02  0.51100000000E-03 0. -1.
    9900012    2    1    2    0    0  0.13173278174E+02 -0.32798461200E+02  0.27925588207E+02  0.46142325494E+02  0.10000070518E+02 0.  0.
         12    1    1    2    0    0 -0.13173278174E+02  0.32798461200E+02 -0.27925588207E+02  0.45045674506E+02  0.00000000000E+00 0. -1.
         11    1    3    3    0    0  0.70515937244E+00  0.19196333324E+00  0.11322721253E+01  0.13476424187E+01  0.51100000000E-03 0. -1.
        -11    1    3    3    0    0  0.11741708181E+02 -0.22504562877E+02  0.18653500420E+02  0.31500414910E+02  0.51100000000E-03 0.  1.
        -12    1    3    3    0    0  0.72641062065E+00 -0.10485861655E+02  0.81398156617E+01  0.13294268165E+02  0.00000000000E+00 0.  1.
</event>
<event>
 7    1  0.2395003E-008  0.4614232E+02  0.7816164E-02  0.1320468E+00
        -11   -1    0    0    0    0  0.00000000000E+00  0.00000000000E+00  0.45593999997E+02  0.45594000000E+02  0.51100000000E-03 0.  1.
         11   -1    0    0    0    0 -0.00000000000E+00 -0.00000000000E+00 -0.45593999997E+02  0.45594000000E+02  0.51100000000E-03 0. -1.
    9900012    2    1    2    0    0  0.19567877600E+02  0.87019728920E+01  0.39629372279E+02  0.46142319706E+02  0.10000017732E+02 0.  0.
         12    1    1    2    0    0 -0.19567877600E+02 -0.87019728920E+01 -0.39629372279E+02  0.45045680294E+02  0.00000000000E+00 0. -1.
         11    1    3    3    0    0  0.29186866452E+01 -0.14130344166E+00  0.64526134671E+01  0.70834256693E+01  0.51100000000E-03 0. -1.
        -11    1    3    3    0    0  0.10534289766E+02  0.52731592304E+01  0.27720233278E+02  0.30119575070E+02  0.51100000000E-03 0.  1.
         12    1    3    3    0    0  0.61149011896E+01  0.35701171033E+01  0.54565255332E+01  0.89393189664E+01  0.00000000000E+00 0. -1.
</event>
<event>
 7    1  0.2395003E-008  0.4614232E+02  0.7816164E-02  0.1320468E+00
        -11   -1    0    0    0    0  0.00000000000E+00  0.00000000000E+00  0.45593999997E+02  0.45594000000E+02  0.51100000000E-03 0.  1.
         11   -1    0    0    0    0 -0.00000000000E+00 -0.00000000000E+00 -0.45593999997E+02  0.45594000000E+02  0.51100000000E-03 0. -1.
    9900012    2    1    2    0    0  0.17068349205E+02 -0.23186197723E+02  0.34643689777E+02  0.46142317068E+02  0.99999936817E+01 0.  0.
         12    1    1    2    0    0 -0.17068349205E+02  0.23186197723E+02 -0.34643689777E+02  0.45045682932E+02  0.00000000000E+00 0. -1.
         11    1    3    3    0    0  0.51024631310E+00 -0.36931899584E+01  0.29578404631E+01  0.47590780447E+01  0.51100000000E-03 0. -1.
        -11    1    3    3    0    0  0.97926880825E+01 -0.86196495581E+01  0.11050373730E+02  0.17096954648E+02  0.51100000000E-03 0.  1.
        -12    1    3    3    0    0  0.67654148092E+01 -0.10873358207E+02  0.20635475583E+02  0.24286284376E+02  0.00000000000E+00 0.  1.
</event>
<event>
 7    1  0.2395003E-008  0.4614232E+02  0.7816164E-02  0.1320468E+00
        -11   -1    0    0    0    0  0.00000000000E+00  0.00000000000E+00  0.45593999997E+02  0.45594000000E+02  0.51100000000E-03 0.  1.
         11   -1    0    0    0    0 -0.00000000000E+00 -0.00000000000E+00 -0.45593999997E+02  0.45594000000E+02  0.51100000000E-03 0. -1.
    9900012    2    1    2    0    0 -0.48471387001E+01  0.36828146985E+02  0.25481489794E+02  0.46142317787E+02  0.10000000233E+02 0.  0.
         12    1    1    2    0    0  0.48471387001E+01 -0.36828146985E+02 -0.25481489794E+02  0.45045682213E+02  0.00000000000E+00 0. -1.
         11    1    3    3    0    0 -0.11349089714E+01  0.26028206300E+02  0.13850119114E+02  0.29505615420E+02  0.51100000000E-03 0. -1.
        -11    1    3    3    0    0 -0.94282118810E+00  0.76106166001E+01  0.73430930147E+01  0.10617504985E+02  0.51100000000E-03 0.  1.
         12    1    3    3    0    0 -0.27694085405E+01  0.31893240850E+01  0.42882776652E+01  0.60191973815E+01  0.00000000000E+00 0. -1.
</event>
<event>
 7    1  0.2395003E-008  0.4614232E+02  0.7816164E-02  0.1320468E+00
        -11   -1    0    0    0    0  0.00000000000E+00  0.00000000000E+00  0.45593999997E+02  0.45594000000E+02  0.51100000000E-03 0. -1.
         11   -1    0    0    0    0 -0.00000000000E+00 -0.00000000000E+00 -0.45593999997E+02  0.45594000000E+02  0.51100000000E-03 0.  1.
    9900012    2    1    2    0    0 -0.16977977246E+02 -0.40532091422E+02 -0.99000685785E+01  0.46142317585E+02  0.99999983913E+01 0.  0.
         12    1    1    2    0    0  0.16977977246E+02  0.40532091422E+02  0.99000685785E+01  0.45045682415E+02  0.00000000000E+00 0. -1.
         11    1    3    3    0    0 -0.36716859461E+01 -0.58536232203E+01 -0.29386367215E+01  0.75087794304E+01  0.51100000000E-03 0.  1.
        -11    1    3    3    0    0 -0.13807800866E+02 -0.33236695940E+02 -0.78918618317E+01  0.36845824800E+02  0.51100000000E-03 0. -1.
         12    1    3    3    0    0  0.50150956609E+00 -0.14417722612E+01  0.93042997465E+00  0.17877133539E+01  0.00000000000E+00 0. -1.
</event>
<event>
 7    1  0.2395003E-008  0.4614232E+02  0.7816164E-02  0.1320468E+00
        -11   -1    0    0    0    0  0.00000000000E+00  0.00000000000E+00  0.45593999997E+02  0.45594000000E+02  0.51100000000E-03 0.  1.
         11   -1    0    0    0    0 -0.00000000000E+00 -0.00000000000E+00 -0.45593999997E+02  0.45594000000E+02  0.51100000000E-03 0. -1.
    9900012    2    1    2    0    0 -0.14721963842E+02  0.87131003414E+01  0.41670843063E+02  0.46142317648E+02  0.99999989709E+01 0.  0.
         12    1    1    2    0    0  0.14721963842E+02 -0.87131003414E+01 -0.41670843063E+02  0.45045682352E+02  0.00000000000E+00 0. -1.
         11    1    3    3    0    0 -0.57126398845E+01 -0.13439623918E+01  0.13959389976E+02  0.15142822000E+02  0.51100000000E-03 0. -1.
        -11    1    3    3    0    0 -0.32308001455E+01  0.35014449421E+01  0.13501899998E+02  0.14317803256E+02  0.51100000000E-03 0.  1.
        -12    1    3    3    0    0 -0.57785238122E+01  0.65556177910E+01  0.14209553089E+02  0.16681692392E+02  0.00000000000E+00 0.  1.
</event>
<event>
 7    1  0.2395003E-008  0.4614232E+02  0.7816164E-02  0.1320468E+00
        -11   -1    0    0    0    0  0.00000000000E+00  0.00000000000E+00  0.45593999997E+02  0.45594000000E+02  0.51100000000E-03 0.  1.
         11   -1    0    0    0    0 -0.00000000000E+00 -0.00000000000E+00 -0.45593999997E+02  0.45594000000E+02  0.51100000000E-03 0. -1.
    9900012    2    1    2    0    0  0.18318894251E+02 -0.23299253626E+02  0.33921621182E+02  0.46142317746E+02  0.99999998638E+01 0.  0.
         12    1    1    2    0    0 -0.18318894251E+02  0.23299253626E+02 -0.33921621182E+02  0.45045682254E+02  0.00000000000E+00 0. -1.
         11    1    3    3    0    0  0.31788373656E+01 -0.10319767868E+01  0.14870906758E+01  0.36580626054E+01  0.51100000000E-03 0.  1.
        -11    1    3    3    0    0  0.47083345868E+01 -0.41011068986E+01  0.52040052432E+01  0.81282939911E+01  0.51100000000E-03 0. -1.
         12    1    3    3    0    0  0.10431722299E+02 -0.18166169940E+02  0.27230525263E+02  0.34355961150E+02  0.00000000000E+00 0. -1.
</event>
<event>
 7    1  0.2395003E-008  0.4614232E+02  0.7816164E-02  0.1320468E+00
        -11   -1    0    0    0    0  0.00000000000E+00  0.00000000000E+00  0.45593999997E+02  0.45594000000E+02  0.51100000000E-03 0.  1.
         11   -1    0    0    0    0 -0.00000000000E+00 -0.00000000000E+00 -0.45593999997E+02  0.45594000000E+02  0.51100000000E-03 0. -1.
    9900012    2    1    2    0    0  0.41380679978E+02 -0.15904572136E+02 -0.79873272145E+01  0.46142317784E+02  0.10000000212E+02 0.  0.
         12    1    1    2    0    0 -0.41380679978E+02  0.15904572136E+02  0.79873272145E+01  0.45045682216E+02  0.00000000000E+00 0. -1.
         11    1    3    3    0    0  0.39475295670E+01 -0.11918733873E+01 -0.19963847127E+01  0.45813866936E+01  0.51100000000E-03 0. -1.
        -11    1    3    3    0    0  0.15389275834E+02 -0.51790961159E+01  0.17396441461E+01  0.16330315652E+02  0.51100000000E-03 0.  1.
         12    1    3    3    0    0  0.22043874576E+02 -0.95336026326E+01 -0.77305866479E+01  0.25230615439E+02  0.00000000000E+00 0. -1.
</event>
<event>
 7    1  0.2395003E-008  0.4614232E+02  0.7816164E-02  0.1320468E+00
        -11   -1    0    0    0    0  0.00000000000E+00  0.00000000000E+00  0.45593999997E+02  0.45594000000E+02  0.51100000000E-03 0.  1.
         11   -1    0    0    0    0 -0.00000000000E+00 -0.00000000000E+00 -0.45593999997E+02  0.45594000000E+02  0.51100000000E-03 0. -1.
    9900012    2    1    2    0    0  0.11890533504E+02 -0.22766532363E+02  0.37005588849E+02  0.46142318865E+02  0.10000010066E+02 0.  0.
         12    1    1    2    0    0 -0.11890533504E+02  0.22766532363E+02 -0.37005588849E+02  0.45045681135E+02  0.00000000000E+00 0. -1.
         11    1    3    3    0    0  0.94638222633E+00  0.49789803553E+00  0.28772078150E+01  0.30695059609E+01  0.51100000000E-03 0. -1.
        -11    1    3    3    0    0  0.97380065775E+01 -0.18410425043E+02  0.30329858944E+02  0.36792293571E+02  0.51100000000E-03 0.  1.
        -12    1    3    3    0    0  0.12061446999E+01 -0.48540053552E+01  0.37985220902E+01  0.62805193333E+01  0.00000000000E+00 0.  1.
</event>
<event>
 7    1  0.2395003E-008  0.4614232E+02  0.7816164E-02  0.1320468E+00
        -11   -1    0    0    0    0  0.00000000000E+00  0.00000000000E+00  0.45593999997E+02  0.45594000000E+02  0.51100000000E-03 0.  1.
         11   -1    0    0    0    0 -0.00000000000E+00 -0.00000000000E+00 -0.45593999997E+02  0.45594000000E+02  0.51100000000E-03 0. -1.
    9900012    2    1    2    0    0 -0.43735874186E+02  0.18584387134E+01  0.10622286508E+02  0.46142318121E+02  0.10000003285E+02 0.  0.
         12    1    1    2    0    0  0.43735874186E+02 -0.18584387134E+01 -0.10622286508E+02  0.45045681879E+02  0.00000000000E+00 0. -1.
         11    1    3    3    0    0 -0.17498149063E+01  0.83588315054E+00  0.19506517310E+01  0.27505627214E+01  0.51100000000E-03 0. -1.
        -11    1    3    3    0    0 -0.21464530736E+02 -0.27161068353E+01  0.37262902310E+01  0.21954237751E+02  0.51100000000E-03 0.  1.
        -12    1    3    3    0    0 -0.20521528543E+02  0.37386623981E+01  0.49453445457E+01  0.21437517649E+02  0.00000000000E+00 0.  1.
</event>
<event>
 7    1  0.2395003E-008  0.4614232E+02  0.7816164E-02  0.1320468E+00
        -11   -1    0    0    0    0  0.00000000000E+00  0.00000000000E+00  0.45593999997E+02  0.45594000000E+02  0.51100000000E-03 0.  1.
         11   -1    0    0    0    0 -0.00000000000E+00 -0.00000000000E+00 -0.45593999997E+02  0.45594000000E+02  0.51100000000E-03 0. -1.
    9900012    2    1    2    0    0  0.21788308887E+02 -0.38865459345E+02  0.66226258718E+01  0.46142317547E+02  0.99999980450E+01 0.  0.
         12    1    1    2    0    0 -0.21788308887E+02  0.38865459345E+02 -0.66226258718E+01  0.45045682453E+02  0.00000000000E+00 0. -1.
         11    1    3    3    0    0  0.87645600499E+01 -0.11778081693E+02  0.22047455848E+01  0.14845929563E+02  0.51100000000E-03 0.  1.
        -11    1    3    3    0    0  0.74522952804E+01 -0.87495720433E+01  0.38557695487E+01  0.12122651317E+02  0.51100000000E-03 0. -1.
         12    1    3    3    0    0  0.55714535571E+01 -0.18337805608E+02  0.56211073832E+00  0.19173736666E+02  0.00000000000E+00 0. -1.
</event>
<event>
 7    1  0.2395003E-008  0.4614232E+02  0.7816164E-02  0.1320468E+00
        -11   -1    0    0    0    0  0.00000000000E+00  0.00000000000E+00  0.45593999997E+02  0.45594000000E+02  0.51100000000E-03 0.  1.
         11   -1    0    0    0    0 -0.00000000000E+00 -0.00000000000E+00 -0.45593999997E+02  0.45594000000E+02  0.51100000000E-03 0. -1.
    9900012    2    1    2    0    0 -0.43444813910E+02  0.10808753125E+02 -0.49832236382E+01  0.46142317436E+02  0.99999970363E+01 0.  0.
         12    1    1    2    0    0  0.43444813910E+02 -0.10808753125E+02  0.49832236382E+01  0.45045682564E+02  0.00000000000E+00 0. -1.
         11    1    3    3    0    0 -0.40564352987E+01  0.24670678471E+00 -0.18132702635E+01  0.44501102099E+01  0.51100000000E-03 0. -1.
        -11    1    3    3    0    0 -0.37762474753E+02  0.11129416963E+02 -0.43450515625E+01  0.39607422218E+02  0.51100000000E-03 0.  1.
        -12    1    3    3    0    0 -0.16259038584E+01 -0.56737062217E+00  0.11750981878E+01  0.20847850082E+01  0.00000000000E+00 0.  1.
</event>
<event>
 7    1  0.2395003E-008  0.4614232E+02  0.7816164E-02  0.1320468E+00
        -11   -1    0    0    0    0  0.00000000000E+00  0.00000000000E+00  0.45593999997E+02  0.45594000000E+02  0.51100000000E-03 0.  1.
         11   -1    0    0    0    0 -0.00000000000E+00 -0.00000000000E+00 -0.45593999997E+02  0.45594000000E+02  0.51100000000E-03 0. -1.
    9900012    2    1    2    0    0 -0.27157713719E+02 -0.33460061082E+02  0.13114740703E+02  0.46142317346E+02  0.99999962147E+01 0.  0.
         12    1    1    2    0    0  0.27157713719E+02  0.33460061082E+02 -0.13114740703E+02  0.45045682654E+02  0.00000000000E+00 0. -1.
         11    1    3    3    0    0 -0.14809836096E+02 -0.16176967573E+02  0.10448226343E+02  0.24293846114E+02  0.51100000000E-03 0. -1.
        -11    1    3    3    0    0 -0.89113487173E+01 -0.87806780972E+01  0.17458766117E+01  0.12631727087E+02  0.51100000000E-03 0.  1.
         12    1    3    3    0    0 -0.34365289057E+01 -0.85024154121E+01  0.92063774816E+00  0.92167441444E+01  0.00000000000E+00 0. -1.
</event>
<event>
 7    1  0.2395003E-008  0.4614232E+02  0.7816164E-02  0.1320468E+00
        -11   -1    0    0    0    0  0.00000000000E+00  0.00000000000E+00  0.45593999997E+02  0.45594000000E+02  0.51100000000E-03 0.  1.
         11   -1    0    0    0    0 -0.00000000000E+00 -0.00000000000E+00 -0.45593999997E+02  0.45594000000E+02  0.51100000000E-03 0. -1.
    9900012    2    1    2    0    0 -0.33683276999E+02  0.14306115362E+02  0.26265668569E+02  0.46142318392E+02  0.10000005754E+02 0.  0.
         12    1    1    2    0    0  0.33683276999E+02 -0.14306115362E+02 -0.26265668569E+02  0.45045681608E+02  0.00000000000E+00 0. -1.
         11    1    3    3    0    0 -0.18078043193E+02  0.74865189783E+01  0.18935050480E+02  0.27228656761E+02  0.51100000000E-03 0. -1.
        -11    1    3    3    0    0 -0.20600811639E+01  0.19843793603E+01  0.23219514156E+01  0.36841762288E+01  0.51100000000E-03 0.  1.
        -12    1    3    3    0    0 -0.13545152642E+02  0.48352170239E+01  0.50086666740E+01  0.15229485402E+02  0.00000000000E+00 0.  1.
</event>
<event>
 7    1  0.2395003E-008  0.4614232E+02  0.7816164E-02  0.1320468E+00
        -11   -1    0    0    0    0  0.00000000000E+00  0.00000000000E+00  0.45593999997E+02  0.45594000000E+02  0.51100000000E-03 0.  1.
         11   -1    0    0    0    0 -0.00000000000E+00 -0.00000000000E+00 -0.45593999997E+02  0.45594000000E+02  0.51100000000E-03 0. -1.
    9900012    2    1    2    0    0 -0.27513046768E+02  0.34334694844E+02 -0.96578682383E+01  0.46142318393E+02  0.10000005762E+02 0.  0.
         12    1    1    2    0    0  0.27513046768E+02 -0.34334694844E+02  0.96578682383E+01  0.45045681607E+02  0.00000000000E+00 0. -1.
         11    1    3    3    0    0 -0.18594111277E+02  0.16661212013E+02 -0.30719467768E+01  0.25154995869E+02  0.51100000000E-03 0. -1.
        -11    1    3    3    0    0 -0.79691592517E+01  0.13782233611E+02 -0.53603993049E+01  0.16798551826E+02  0.51100000000E-03 0.  1.
         12    1    3    3    0    0 -0.94977623965E+00  0.38912492204E+01 -0.12255221566E+01  0.41887706976E+01  0.00000000000E+00 0. -1.
</event>
<event>
 7    1  0.2395003E-008  0.4614232E+02  0.7816164E-02  0.1320468E+00
        -11   -1    0    0    0    0  0.00000000000E+00  0.00000000000E+00  0.45593999997E+02  0.45594000000E+02  0.51100000000E-03 0.  1.
         11   -1    0    0    0    0 -0.00000000000E+00 -0.00000000000E+00 -0.45593999997E+02  0.45594000000E+02  0.51100000000E-03 0. -1.
    9900012    2    1    2    0    0  0.11164822364E+02 -0.11656962324E+02  0.42054436487E+02  0.46142315886E+02  0.99999828976E+01 0.  0.
         12    1    1    2    0    0 -0.11164822364E+02  0.11656962324E+02 -0.42054436487E+02  0.45045684114E+02  0.00000000000E+00 0. -1.
         11    1    3    3    0    0  0.53584206975E+00 -0.46986786761E+01  0.14440745849E+02  0.15195389069E+02  0.51100000000E-03 0. -1.
        -11    1    3    3    0    0  0.39839570648E+01 -0.56481481199E+01  0.17058581832E+02  0.18405670470E+02  0.51100000000E-03 0.  1.
         12    1    3    3    0    0  0.66450232298E+01 -0.13101355282E+01  0.10555108807E+02  0.12541256346E+02  0.00000000000E+00 0. -1.
</event>
<event>
 7    1  0.2395003E-008  0.4614232E+02  0.7816164E-02  0.1320468E+00
        -11   -1    0    0    0    0  0.00000000000E+00  0.00000000000E+00  0.45593999997E+02  0.45594000000E+02  0.51100000000E-03 0. -1.
         11   -1    0    0    0    0 -0.00000000000E+00 -0.00000000000E+00 -0.45593999997E+02  0.45594000000E+02  0.51100000000E-03 0.  1.
    9900012    2    1    2    0    0 -0.93997564628E+01 -0.32053252211E+02 -0.30221632565E+02  0.46142317923E+02  0.10000001480E+02 0.  0.
         12    1    1    2    0    0  0.93997564628E+01  0.32053252211E+02  0.30221632565E+02  0.45045682077E+02  0.00000000000E+00 0. -1.
         11    1    3    3    0    0 -0.41806686359E+00  0.52895634572E+00 -0.14395147144E+01  0.15895840941E+01  0.51100000000E-03 0. -1.
        -11    1    3    3    0    0 -0.91318066241E+01 -0.30702609367E+02 -0.26362705134E+02  0.41485326760E+02  0.51100000000E-03 0.  1.
        -12    1    3    3    0    0  0.15011702490E+00 -0.18795991897E+01 -0.24194127162E+01  0.30674070689E+01  0.00000000000E+00 0.  1.
</event>
<event>
 7    1  0.2395003E-008  0.4614232E+02  0.7816164E-02  0.1320468E+00
        -11   -1    0    0    0    0  0.00000000000E+00  0.00000000000E+00  0.45593999997E+02  0.45594000000E+02  0.51100000000E-03 0.  1.
         11   -1    0    0    0    0 -0.00000000000E+00 -0.00000000000E+00 -0.45593999997E+02  0.45594000000E+02  0.51100000000E-03 0. -1.
    9900012    2    1    2    0    0  0.44667902661E+02 -0.39592495985E+01  0.42680506676E+01  0.46142318276E+02  0.10000004693E+02 0.  0.
         12    1    1    2    0    0 -0.44667902661E+02  0.39592495985E+01 -0.42680506676E+01  0.45045681724E+02  0.00000000000E+00 0. -1.
         11    1    3    3    0    0  0.55547619975E+01 -0.22087211954E+01  0.83370034798E+00  0.60356347387E+01  0.51100000000E-03 0. -1.
        -11    1    3    3    0    0  0.20102358420E+02  0.29104383321E+01  0.29651520524E+01  0.20527240250E+02  0.51100000000E-03 0.  1.
        -12    1    3    3    0    0  0.19010782244E+02 -0.46609667352E+01  0.46919826724E+00  0.19579443287E+02  0.00000000000E+00 0.  1.
</event>
<event>
 7    1  0.2395003E-008  0.4614232E+02  0.7816164E-02  0.1320468E+00
        -11   -1    0    0    0    0  0.00000000000E+00  0.00000000000E+00  0.45593999997E+02  0.45594000000E+02  0.51100000000E-03 0.  1.
         11   -1    0    0    0    0 -0.00000000000E+00 -0.00000000000E+00 -0.45593999997E+02  0.45594000000E+02  0.51100000000E-03 0. -1.
    9900012    2    1    2    0    0 -0.39128415704E+02 -0.20968913810E+02 -0.76410196281E+01  0.46142318266E+02  0.10000004606E+02 0.  0.
         12    1    1    2    0    0  0.39128415704E+02  0.20968913810E+02  0.76410196281E+01  0.45045681734E+02  0.00000000000E+00 0. -1.
         11    1    3    3    0    0 -0.12091112993E+02 -0.21045186537E+01 -0.23662520780E+01  0.12498926407E+02  0.51100000000E-03 0. -1.
        -11    1    3    3    0    0 -0.23357395469E+02 -0.16395205395E+02 -0.59774373995E+01  0.29156481975E+02  0.51100000000E-03 0.  1.
         12    1    3    3    0    0 -0.36799072421E+01 -0.24691897616E+01  0.70266984950E+00  0.44869098840E+01  0.00000000000E+00 0. -1.
</event>
<event>
 7    1  0.2395003E-008  0.4614231E+02  0.7816164E-02  0.1320468E+00
        -11   -1    0    0    0    0  0.00000000000E+00  0.00000000000E+00  0.45593999997E+02  0.45594000000E+02  0.51100000000E-03 0. -1.
         11   -1    0    0    0    0 -0.00000000000E+00 -0.00000000000E+00 -0.45593999997E+02  0.45594000000E+02  0.51100000000E-03 0.  1.
    9900012    2    1    2    0    0  0.44316364929E+02  0.34732071418E+01 -0.72876878297E+01  0.46142314721E+02  0.99999722793E+01 0.  0.
         12    1    1    2    0    0 -0.44316364929E+02 -0.34732071418E+01  0.72876878297E+01  0.45045685279E+02  0.00000000000E+00 0. -1.
         11    1    3    3    0    0  0.13163773427E+02  0.10519000677E+01 -0.41373730293E+00  0.13212214175E+02  0.51100000000E-03 0. -1.
        -11    1    3    3    0    0  0.29019816799E+02  0.19423408969E+01 -0.40597831161E+01  0.29366720866E+02  0.51100000000E-03 0.  1.
         12    1    3    3    0    0  0.21327747029E+01  0.47896617720E+00 -0.28141674106E+01  0.35633796805E+01  0.00000000000E+00 0. -1.
</event>
<event>
 7    1  0.2395003E-008  0.4614232E+02  0.7816164E-02  0.1320468E+00
        -11   -1    0    0    0    0  0.00000000000E+00  0.00000000000E+00  0.45593999997E+02  0.45594000000E+02  0.51100000000E-03 0.  1.
         11   -1    0    0    0    0 -0.00000000000E+00 -0.00000000000E+00 -0.45593999997E+02  0.45594000000E+02  0.51100000000E-03 0. -1.
    9900012    2    1    2    0    0 -0.36493549009E+02 -0.31849139797E+00  0.26405168198E+02  0.46142318036E+02  0.10000002503E+02 0.  0.
         12    1    1    2    0    0  0.36493549009E+02  0.31849139797E+00 -0.26405168198E+02  0.45045681964E+02  0.00000000000E+00 0. -1.
         11    1    3    3    0    0 -0.75418474323E+01 -0.93936123814E+00  0.55956085258E+01  0.94378332928E+01  0.51100000000E-03 0.  1.
        -11    1    3    3    0    0  0.30106526610E+00  0.39405981502E+00  0.16794398326E+01  0.17511258792E+01  0.51100000000E-03 0. -1.
         12    1    3    3    0    0 -0.29252766843E+02  0.22681002515E+00  0.19130119840E+02  0.34953358864E+02  0.00000000000E+00 0. -1.
</event>
<event>
 7    1  0.2395003E-008  0.4614232E+02  0.7816164E-02  0.1320468E+00
        -11   -1    0    0    0    0  0.00000000000E+00  0.00000000000E+00  0.45593999997E+02  0.45594000000E+02  0.51100000000E-03 0.  1.
         11   -1    0    0    0    0 -0.00000000000E+00 -0.00000000000E+00 -0.45593999997E+02  0.45594000000E+02  0.51100000000E-03 0. -1.
    9900012    2    1    2    0    0 -0.44845911023E+02  0.19882537209E+01  0.37422681712E+01  0.46142318082E+02  0.10000002928E+02 0.  0.
         12    1    1    2    0    0  0.44845911023E+02 -0.19882537209E+01 -0.37422681712E+01  0.45045681918E+02  0.00000000000E+00 0. -1.
         11    1    3    3    0    0 -0.23004232251E+01 -0.20273553297E+01  0.11900719369E+01  0.32891318191E+01  0.51100000000E-03 0. -1.
        -11    1    3    3    0    0 -0.10148549874E+02  0.16271581157E+01  0.10838498584E+01  0.10335155483E+02  0.51100000000E-03 0.  1.
         12    1    3    3    0    0 -0.32396937924E+02  0.23884509348E+01  0.14683463759E+01  0.32518030780E+02  0.00000000000E+00 0. -1.
</event>
<event>
 7    1  0.2395003E-008  0.4614231E+02  0.7816164E-02  0.1320468E+00
        -11   -1    0    0    0    0  0.00000000000E+00  0.00000000000E+00  0.45593999997E+02  0.45594000000E+02  0.51100000000E-03 0.  1.
         11   -1    0    0    0    0 -0.00000000000E+00 -0.00000000000E+00 -0.45593999997E+02  0.45594000000E+02  0.51100000000E-03 0. -1.
    9900012    2    1    2    0    0 -0.44456249710E+02 -0.37170565070E+01 -0.62401342337E+01  0.46142312941E+02  0.99999560445E+01 0.  0.
         12    1    1    2    0    0  0.44456249710E+02  0.37170565070E+01  0.62401342337E+01  0.45045687059E+02  0.00000000000E+00 0. -1.
         11    1    3    3    0    0 -0.25487920926E+02 -0.33984269210E+01 -0.37891740745E+01  0.25991176562E+02  0.51100000000E-03 0.  1.
        -11    1    3    3    0    0 -0.14710684066E+02 -0.70684520552E-01 -0.45490309175E+01  0.15398146140E+02  0.51100000000E-03 0. -1.
         12    1    3    3    0    0 -0.42576447181E+01 -0.24794506544E+00  0.20980707582E+01  0.47529902385E+01  0.00000000000E+00 0. -1.
</event>
<event>
 7    1  0.2395003E-008  0.4614232E+02  0.7816164E-02  0.1320468E+00
        -11   -1    0    0    0    0  0.00000000000E+00  0.00000000000E+00  0.45593999997E+02  0.45594000000E+02  0.51100000000E-03 0.  1.
         11   -1    0    0    0    0 -0.00000000000E+00 -0.00000000000E+00 -0.45593999997E+02  0.45594000000E+02  0.51100000000E-03 0. -1.
    9900012    2    1    2    0    0 -0.36411137267E+02  0.26232191067E+02 -0.39006231120E+01  0.46142316234E+02  0.99999860788E+01 0.  0.
         12    1    1    2    0    0  0.36411137267E+02 -0.26232191067E+02  0.39006231120E+01  0.45045683766E+02  0.00000000000E+00 0. -1.
         11    1    3    3    0    0 -0.19102991472E+01  0.26020250609E+00  0.50231689496E+00  0.19923028635E+01  0.51100000000E-03 0. -1.
        -11    1    3    3    0    0 -0.26207124537E+02  0.23462519212E+02 -0.24039433891E+01  0.35257369845E+02  0.51100000000E-03 0.  1.
        -12    1    3    3    0    0 -0.82937135831E+01  0.25094693482E+01 -0.19989966179E+01  0.88926435263E+01  0.00000000000E+00 0.  1.
</event>
<event>
 7    1  0.2395003E-008  0.4614232E+02  0.7816164E-02  0.1320468E+00
        -11   -1    0    0    0    0  0.00000000000E+00  0.00000000000E+00  0.45593999997E+02  0.45594000000E+02  0.51100000000E-03 0.  1.
         11   -1    0    0    0    0 -0.00000000000E+00 -0.00000000000E+00 -0.45593999997E+02  0.45594000000E+02  0.51100000000E-03 0. -1.
    9900012    2    1    2    0    0  0.72568554180E+01 -0.31339686983E+02  0.31532129488E+02  0.46142321841E+02  0.10000037206E+02 0.  0.
         12    1    1    2    0    0 -0.72568554180E+01  0.31339686983E+02 -0.31532129488E+02  0.45045678159E+02  0.00000000000E+00 0. -1.
         11    1    3    3    0    0  0.27299953178E+01 -0.65620519506E+01  0.44407204527E+01  0.83805368944E+01  0.51100000000E-03 0. -1.
        -11    1    3    3    0    0  0.21958498249E+01 -0.10469530901E+02  0.62974444779E+01  0.12413325137E+02  0.51100000000E-03 0.  1.
        -12    1    3    3    0    0  0.23310102753E+01 -0.14308104131E+02  0.20793964558E+02  0.25348459810E+02  0.00000000000E+00 0.  1.
</event>
<event>
 7    1  0.2395003E-008  0.4614232E+02  0.7816164E-02  0.1320468E+00
        -11   -1    0    0    0    0  0.00000000000E+00  0.00000000000E+00  0.45593999997E+02  0.45594000000E+02  0.51100000000E-03 0. -1.
         11   -1    0    0    0    0 -0.00000000000E+00 -0.00000000000E+00 -0.45593999997E+02  0.45594000000E+02  0.51100000000E-03 0.  1.
    9900012    2    1    2    0    0  0.28737022948E+01 -0.29503156615E+02 -0.33917829492E+02  0.46142316826E+02  0.99999914730E+01 0.  0.
         12    1    1    2    0    0 -0.28737022948E+01  0.29503156615E+02  0.33917829492E+02  0.45045683174E+02  0.00000000000E+00 0. -1.
         11    1    3    3    0    0  0.45354848607E+01 -0.15885930122E+02 -0.20448031669E+02  0.26287932558E+02  0.51100000000E-03 0. -1.
        -11    1    3    3    0    0 -0.16392317752E+01 -0.12835129993E+02 -0.13875917640E+02  0.18972841995E+02  0.51100000000E-03 0.  1.
         12    1    3    3    0    0 -0.22550790713E-01 -0.78209649946E+00  0.40611981704E+00  0.88154227262E+00  0.00000000000E+00 0. -1.
</event>
<event>
 7    1  0.2395003E-008  0.4614232E+02  0.7816164E-02  0.1320468E+00
        -11   -1    0    0    0    0  0.00000000000E+00  0.00000000000E+00  0.45593999997E+02  0.45594000000E+02  0.51100000000E-03 0.  1.
         11   -1    0    0    0    0 -0.00000000000E+00 -0.00000000000E+00 -0.45593999997E+02  0.45594000000E+02  0.51100000000E-03 0. -1.
    9900012    2    1    2    0    0 -0.31428293068E+02  0.30086272364E+02 -0.11670136994E+02  0.46142317772E+02  0.10000000097E+02 0.  0.
         12    1    1    2    0    0  0.31428293068E+02 -0.30086272364E+02  0.11670136994E+02  0.45045682228E+02  0.00000000000E+00 0. -1.
         11    1    3    3    0    0 -0.10861958751E+02  0.10346037026E+02 -0.63713176876E+01  0.16297739702E+02  0.51100000000E-03 0. -1.
        -11    1    3    3    0    0 -0.17899062095E+02  0.15900012843E+02 -0.68775663077E+01  0.24909591544E+02  0.51100000000E-03 0.  1.
        -12    1    3    3    0    0 -0.26672722219E+01  0.38402224947E+01  0.15787470017E+01  0.49349865259E+01  0.00000000000E+00 0.  1.
</event>
<event>
 7    1  0.2395003E-008  0.4614232E+02  0.7816164E-02  0.1320468E+00
        -11   -1    0    0    0    0  0.00000000000E+00  0.00000000000E+00  0.45593999997E+02  0.45594000000E+02  0.51100000000E-03 0. -1.
         11   -1    0    0    0    0 -0.00000000000E+00 -0.00000000000E+00 -0.45593999997E+02  0.45594000000E+02  0.51100000000E-03 0.  1.
    9900012    2    1    2    0    0 -0.25952771876E+02 -0.21689108021E+02 -0.29751466107E+02  0.46142317518E+02  0.99999977843E+01 0.  0.
         12    1    1    2    0    0  0.25952771876E+02  0.21689108021E+02  0.29751466107E+02  0.45045682482E+02  0.00000000000E+00 0. -1.
         11    1    3    3    0    0 -0.24450193706E+01 -0.13675124148E+01 -0.12562407537E+01  0.30702363134E+01  0.51100000000E-03 0. -1.
        -11    1    3    3    0    0 -0.19374255124E+02 -0.11447590969E+02 -0.19473147892E+02  0.29759243769E+02  0.51100000000E-03 0.  1.
        -12    1    3    3    0    0 -0.41334973816E+01 -0.88740046366E+01 -0.90220774605E+01  0.13312837436E+02  0.00000000000E+00 0.  1.
</event>
<event>
 7    1  0.2395003E-008  0.4614232E+02  0.7816164E-02  0.1320468E+00
        -11   -1    0    0    0    0  0.00000000000E+00  0.00000000000E+00  0.45593999997E+02  0.45594000000E+02  0.51100000000E-03 0. -1.
         11   -1    0    0    0    0 -0.00000000000E+00 -0.00000000000E+00 -0.45593999997E+02  0.45594000000E+02  0.51100000000E-03 0.  1.
    9900012    2    1    2    0    0  0.31245518679E+02  0.32299361613E+02  0.30955064114E+01  0.46142319208E+02  0.10000013190E+02 0.  0.
         12    1    1    2    0    0 -0.31245518679E+02 -0.32299361613E+02 -0.30955064114E+01  0.45045680792E+02  0.00000000000E+00 0. -1.
         11    1    3    3    0    0  0.23420074626E+01 -0.57083873915E-01 -0.21784612390E+00  0.23528099623E+01  0.51100000000E-03 0. -1.
        -11    1    3    3    0    0  0.24033215584E+02  0.24968284443E+02  0.41398934931E+01  0.34901997045E+02  0.51100000000E-03 0.  1.
        -12    1    3    3    0    0  0.48702956319E+01  0.73881610441E+01 -0.82654095780E+00  0.88875122003E+01  0.00000000000E+00 0.  1.
</event>
<event>
 7    1  0.2395003E-008  0.4614232E+02  0.7816164E-02  0.1320468E+00
        -11   -1    0    0    0    0  0.00000000000E+00  0.00000000000E+00  0.45593999997E+02  0.45594000000E+02  0.51100000000E-03 0.  1.
         11   -1    0    0    0    0 -0.00000000000E+00 -0.00000000000E+00 -0.45593999997E+02  0.45594000000E+02  0.51100000000E-03 0. -1.
    9900012    2    1    2    0    0  0.10005565899E+02 -0.30255013883E+02  0.31837655411E+02  0.46142317454E+02  0.99999971961E+01 0.  0.
         12    1    1    2    0    0 -0.10005565899E+02  0.30255013883E+02 -0.31837655411E+02  0.45045682546E+02  0.00000000000E+00 0. -1.
         11    1    3    3    0    0  0.23004489074E+01 -0.14116815603E+01  0.10456776525E+01  0.28945383081E+01  0.51100000000E-03 0. -1.
        -11    1    3    3    0    0  0.39780087872E+01 -0.20978132259E+02  0.18929064491E+02  0.28534471605E+02  0.51100000000E-03 0.  1.
         12    1    3    3    0    0  0.37271082040E+01 -0.78652000637E+01  0.11862913267E+02  0.14713307541E+02  0.00000000000E+00 0. -1.
</event>
<event>
 7    1  0.2395003E-008  0.4614232E+02  0.7816164E-02  0.1320468E+00
        -11   -1    0    0    0    0  0.00000000000E+00  0.00000000000E+00  0.45593999997E+02  0.45594000000E+02  0.51100000000E-03 0. -1.
         11   -1    0    0    0    0 -0.00000000000E+00 -0.00000000000E+00 -0.45593999997E+02  0.45594000000E+02  0.51100000000E-03 0.  1.
    9900012    2    1    2    0    0  0.30230759504E+02 -0.27753281217E+02  0.18573373173E+02  0.46142316194E+02  0.99999857133E+01 0.  0.
         12    1    1    2    0    0 -0.30230759504E+02  0.27753281217E+02 -0.18573373173E+02  0.45045683806E+02  0.00000000000E+00 0. -1.
         11    1    3    3    0    0  0.14518480481E+01  0.42431905347E+00  0.11892309474E+01  0.19241049662E+01  0.51100000000E-03 0. -1.
        -11    1    3    3    0    0  0.29072309724E+00 -0.16597894838E+01  0.29093466841E+00  0.17099895591E+01  0.51100000000E-03 0.  1.
        -12    1    3    3    0    0  0.28488188359E+02 -0.26517810786E+02  0.17093207558E+02  0.42508221669E+02  0.00000000000E+00 0.  1.
</event>
<event>
 7    1  0.2395003E-008  0.4614232E+02  0.7816164E-02  0.1320468E+00
        -11   -1    0    0    0    0  0.00000000000E+00  0.00000000000E+00  0.45593999997E+02  0.45594000000E+02  0.51100000000E-03 0.  1.
         11   -1    0    0    0    0 -0.00000000000E+00 -0.00000000000E+00 -0.45593999997E+02  0.45594000000E+02  0.51100000000E-03 0. -1.
    9900012    2    1    2    0    0 -0.10544168516E+02 -0.14637604392E+02  0.41275592500E+02  0.46142317762E+02  0.10000000009E+02 0.  0.
         12    1    1    2    0    0  0.10544168516E+02  0.14637604392E+02 -0.41275592500E+02  0.45045682238E+02  0.00000000000E+00 0. -1.
         11    1    3    3    0    0 -0.93884774894E+01 -0.83136651562E+01  0.27804016251E+02  0.30501210760E+02  0.51100000000E-03 0. -1.
        -11    1    3    3    0    0 -0.18855711273E+01 -0.16457497031E+01  0.81136733901E+01  0.84909108289E+01  0.51100000000E-03 0.  1.
         12    1    3    3    0    0  0.72988010077E+00 -0.46781895322E+01  0.53579028593E+01  0.71501961728E+01  0.00000000000E+00 0. -1.
</event>
<event>
 7    1  0.2395003E-008  0.4614232E+02  0.7816164E-02  0.1320468E+00
        -11   -1    0    0    0    0  0.00000000000E+00  0.00000000000E+00  0.45593999997E+02  0.45594000000E+02  0.51100000000E-03 0.  1.
         11   -1    0    0    0    0 -0.00000000000E+00 -0.00000000000E+00 -0.45593999997E+02  0.45594000000E+02  0.51100000000E-03 0. -1.
    9900012    2    1    2    0    0  0.53986554941E-01 -0.19674161117E+01  0.45002665196E+02  0.46142317461E+02  0.99999972591E+01 0.  0.
         12    1    1    2    0    0 -0.53986554941E-01  0.19674161117E+01 -0.45002665196E+02  0.45045682539E+02  0.00000000000E+00 0. -1.
         11    1    3    3    0    0 -0.71457353481E-02  0.17107116608E+00  0.31297383657E+01  0.31344184315E+01  0.51100000000E-03 0. -1.
        -11    1    3    3    0    0  0.42314341676E+01 -0.93449696184E+00  0.30986344158E+02  0.31287886541E+02  0.51100000000E-03 0.  1.
         12    1    3    3    0    0 -0.41703018773E+01 -0.12039903160E+01  0.10886582673E+02  0.11720012488E+02  0.00000000000E+00 0. -1.
</event>
<event>
 7    1  0.2395003E-008  0.4614232E+02  0.7816164E-02  0.1320468E+00
        -11   -1    0    0    0    0  0.00000000000E+00  0.00000000000E+00  0.45593999997E+02  0.45594000000E+02  0.51100000000E-03 0.  1.
         11   -1    0    0    0    0 -0.00000000000E+00 -0.00000000000E+00 -0.45593999997E+02  0.45594000000E+02  0.51100000000E-03 0. -1.
    9900012    2    1    2    0    0 -0.40146631411E+02  0.17206860149E+02  0.11012967882E+02  0.46142317506E+02  0.99999976693E+01 0.  0.
         12    1    1    2    0    0  0.40146631411E+02 -0.17206860149E+02 -0.11012967882E+02  0.45045682494E+02  0.00000000000E+00 0. -1.
         11    1    3    3    0    0 -0.62769323946E+01  0.58552484319E+01 -0.40083358761E+00  0.85932812308E+01  0.51100000000E-03 0. -1.
        -11    1    3    3    0    0 -0.24346718742E+02  0.90522492728E+01  0.83785097273E+01  0.27292954327E+02  0.51100000000E-03 0.  1.
         12    1    3    3    0    0 -0.95229802740E+01  0.22993624447E+01  0.30352917419E+01  0.10256081947E+02  0.00000000000E+00 0. -1.
</event>
<event>
 7    1  0.2395003E-008  0.4614232E+02  0.7816164E-02  0.1320468E+00
        -11   -1    0    0    0    0  0.00000000000E+00  0.00000000000E+00  0.45593999997E+02  0.45594000000E+02  0.51100000000E-03 0.  1.
         11   -1    0    0    0    0 -0.00000000000E+00 -0.00000000000E+00 -0.45593999997E+02  0.45594000000E+02  0.51100000000E-03 0. -1.
    9900012    2    1    2    0    0  0.26192180627E+02  0.59098059561E+01  0.36168460548E+02  0.46142315735E+02  0.99999815264E+01 0.  0.
         12    1    1    2    0    0 -0.26192180627E+02 -0.59098059561E+01 -0.36168460548E+02  0.45045684265E+02  0.00000000000E+00 0. -1.
         11    1    3    3    0    0  0.91798046240E+00  0.13336232404E+01  0.79467347398E+00  0.18035368773E+01  0.51100000000E-03 0. -1.
        -11    1    3    3    0    0  0.17872505620E+02  0.47709122990E+01  0.19812558900E+02  0.27105821362E+02  0.51100000000E-03 0.  1.
        -12    1    3    3    0    0  0.74016945446E+01 -0.19472958326E+00  0.15561228175E+02  0.17232957496E+02  0.00000000000E+00 0.  1.
</event>
<event>
 7    1  0.2395003E-008  0.4614232E+02  0.7816164E-02  0.1320468E+00
        -11   -1    0    0    0    0  0.00000000000E+00  0.00000000000E+00  0.45593999997E+02  0.45594000000E+02  0.51100000000E-03 0.  1.
         11   -1    0    0    0    0 -0.00000000000E+00 -0.00000000000E+00 -0.45593999997E+02  0.45594000000E+02  0.51100000000E-03 0. -1.
    9900012    2    1    2    0    0 -0.15458812339E+02 -0.37327907502E+02  0.19918984742E+02  0.46142317514E+02  0.99999977491E+01 0.  0.
         12    1    1    2    0    0  0.15458812339E+02  0.37327907502E+02 -0.19918984742E+02  0.45045682486E+02  0.00000000000E+00 0. -1.
         11    1    3    3    0    0  0.10185410910E+01 -0.34375200367E+01  0.24014748568E+01  0.43152116641E+01  0.51100000000E-03 0. -1.
        -11    1    3    3    0    0 -0.61622828378E+01 -0.18108143285E+02  0.87999082610E+01  0.21055093651E+02  0.51100000000E-03 0.  1.
        -12    1    3    3    0    0 -0.10315070593E+02 -0.15782244181E+02  0.87176016244E+01  0.20772012199E+02  0.00000000000E+00 0.  1.
</event>
<event>
 7    1  0.2395003E-008  0.4614232E+02  0.7816164E-02  0.1320468E+00
        -11   -1    0    0    0    0  0.00000000000E+00  0.00000000000E+00  0.45593999997E+02  0.45594000000E+02  0.51100000000E-03 0. -1.
         11   -1    0    0    0    0 -0.00000000000E+00 -0.00000000000E+00 -0.45593999997E+02  0.45594000000E+02  0.51100000000E-03 0.  1.
    9900012    2    1    2    0    0  0.13434540392E+02 -0.41641711781E+02 -0.10704882086E+02  0.46142317232E+02  0.99999951707E+01 0.  0.
         12    1    1    2    0    0 -0.13434540392E+02  0.41641711781E+02  0.10704882086E+02  0.45045682768E+02  0.00000000000E+00 0. -1.
         11    1    3    3    0    0  0.17955703638E+01 -0.52228402742E+00 -0.13275132789E+01  0.22932826480E+01  0.51100000000E-03 0. -1.
        -11    1    3    3    0    0  0.73793735332E+01 -0.25238394970E+02 -0.43285550045E+01  0.26648979776E+02  0.51100000000E-03 0.  1.
         12    1    3    3    0    0  0.42595964953E+01 -0.15881032784E+02 -0.50488138022E+01  0.17200054808E+02  0.00000000000E+00 0. -1.
</event>
<event>
 7    1  0.2395003E-008  0.4614232E+02  0.7816164E-02  0.1320468E+00
        -11   -1    0    0    0    0  0.00000000000E+00  0.00000000000E+00  0.45593999997E+02  0.45594000000E+02  0.51100000000E-03 0.  1.
         11   -1    0    0    0    0 -0.00000000000E+00 -0.00000000000E+00 -0.45593999997E+02  0.45594000000E+02  0.51100000000E-03 0. -1.
    9900012    2    1    2    0    0 -0.34712751431E+02 -0.13765185492E+01  0.28674791483E+02  0.46142316724E+02  0.99999905442E+01 0.  0.
         12    1    1    2    0    0  0.34712751431E+02  0.13765185492E+01 -0.28674791483E+02  0.45045683276E+02  0.00000000000E+00 0. -1.
         11    1    3    3    0    0 -0.21844228059E+02 -0.26152785743E+00  0.16274568665E+02  0.27241517612E+02  0.51100000000E-03 0. -1.
        -11    1    3    3    0    0 -0.30542632442E+01  0.23491646155E+01  0.35396283645E+01  0.52322144046E+01  0.51100000000E-03 0.  1.
         12    1    3    3    0    0 -0.98142601278E+01 -0.34641553072E+01  0.88605944528E+01  0.13668584707E+02  0.00000000000E+00 0. -1.
</event>
<event>
 7    1  0.2395003E-008  0.4614232E+02  0.7816164E-02  0.1320468E+00
        -11   -1    0    0    0    0  0.00000000000E+00  0.00000000000E+00  0.45593999997E+02  0.45594000000E+02  0.51100000000E-03 0.  1.
         11   -1    0    0    0    0 -0.00000000000E+00 -0.00000000000E+00 -0.45593999997E+02  0.45594000000E+02  0.51100000000E-03 0. -1.
    9900012    2    1    2    0    0 -0.74356728977E+01  0.43005362005E+01  0.44219109737E+02  0.46142317532E+02  0.99999979115E+01 0.  0.
         12    1    1    2    0    0  0.74356728977E+01 -0.43005362005E+01 -0.44219109737E+02  0.45045682468E+02  0.00000000000E+00 0. -1.
         11    1    3    3    0    0 -0.72059289336E+01 -0.61454787348E+00  0.22853673816E+02  0.23970679758E+02  0.51100000000E-03 0. -1.
        -11    1    3    3    0    0 -0.10734811051E+01  0.10675448311E+01  0.27035239153E+01  0.30985569982E+01  0.51100000000E-03 0.  1.
        -12    1    3    3    0    0  0.84373714111E+00  0.38475392428E+01  0.18661912005E+02  0.19073080776E+02  0.00000000000E+00 0.  1.
</event>
<event>
 7    1  0.2395003E-008  0.4614232E+02  0.7816164E-02  0.1320468E+00
        -11   -1    0    0    0    0  0.00000000000E+00  0.00000000000E+00  0.45593999997E+02  0.45594000000E+02  0.51100000000E-03 0.  1.
         11   -1    0    0    0    0 -0.00000000000E+00 -0.00000000000E+00 -0.45593999997E+02  0.45594000000E+02  0.51100000000E-03 0. -1.
    9900012    2    1    2    0    0 -0.37361428009E+02 -0.10607438798E+02  0.22819277313E+02  0.46142317879E+02  0.10000001072E+02 0.  0.
         12    1    1    2    0    0  0.37361428009E+02  0.10607438798E+02 -0.22819277313E+02  0.45045682121E+02  0.00000000000E+00 0. -1.
         11    1    3    3    0    0 -0.18239213831E+02 -0.70784930986E+01  0.83434152887E+01  0.21269380919E+02  0.51100000000E-03 0. -1.
        -11    1    3    3    0    0 -0.18636650567E+02 -0.44598073378E+01  0.13919457709E+02  0.23684719315E+02  0.51100000000E-03 0.  1.
        -12    1    3    3    0    0 -0.48556361101E+00  0.93086163884E+00  0.55640431443E+00  0.11882176451E+01  0.00000000000E+00 0.  1.
</event>
<event>
 7    1  0.2395003E-008  0.4614232E+02  0.7816164E-02  0.1320468E+00
        -11   -1    0    0    0    0  0.00000000000E+00  0.00000000000E+00  0.45593999997E+02  0.45594000000E+02  0.51100000000E-03 0.  1.
         11   -1    0    0    0    0 -0.00000000000E+00 -0.00000000000E+00 -0.45593999997E+02  0.45594000000E+02  0.51100000000E-03 0. -1.
    9900012    2    1    2    0    0 -0.25694167818E+02  0.14133972204E+02  0.34192894665E+02  0.46142317902E+02  0.10000001286E+02 0.  0.
         12    1    1    2    0    0  0.25694167818E+02 -0.14133972204E+02 -0.34192894665E+02  0.45045682098E+02  0.00000000000E+00 0. -1.
         11    1    3    3    0    0 -0.67983969706E+01  0.33520743166E+01  0.12048116515E+02  0.14234174209E+02  0.51100000000E-03 0. -1.
        -11    1    3    3    0    0 -0.15108149641E+02  0.80269684737E+01  0.21000048867E+02  0.27086721122E+02  0.51100000000E-03 0.  1.
        -12    1    3    3    0    0 -0.37876212059E+01  0.27549294141E+01  0.11447292821E+01  0.48214225707E+01  0.00000000000E+00 0.  1.
</event>
<event>
 7    1  0.2395003E-008  0.4614232E+02  0.7816164E-02  0.1320468E+00
        -11   -1    0    0    0    0  0.00000000000E+00  0.00000000000E+00  0.45593999997E+02  0.45594000000E+02  0.51100000000E-03 0.  1.
         11   -1    0    0    0    0 -0.00000000000E+00 -0.00000000000E+00 -0.45593999997E+02  0.45594000000E+02  0.51100000000E-03 0. -1.
    9900012    2    1    2    0    0 -0.58540362641E+01 -0.41645558498E+02  0.16139738404E+02  0.46142318309E+02  0.10000004999E+02 0.  0.
         12    1    1    2    0    0  0.58540362641E+01  0.41645558498E+02 -0.16139738404E+02  0.45045681691E+02  0.00000000000E+00 0. -1.
         11    1    3    3    0    0  0.18440683979E+01 -0.21749056256E+01  0.49993915570E+00  0.28949511493E+01  0.51100000000E-03 0. -1.
        -11    1    3    3    0    0 -0.24092241427E+01 -0.18387371689E+02  0.62500742786E+01  0.19569446270E+02  0.51100000000E-03 0.  1.
         12    1    3    3    0    0 -0.52888805193E+01 -0.21083281184E+02  0.93897249702E+01  0.23677920889E+02  0.00000000000E+00 0. -1.
</event>
<event>
 7    1  0.2395003E-008  0.4614232E+02  0.7816164E-02  0.1320468E+00
        -11   -1    0    0    0    0  0.00000000000E+00  0.00000000000E+00  0.45593999997E+02  0.45594000000E+02  0.51100000000E-03 0.  1.
         11   -1    0    0    0    0 -0.00000000000E+00 -0.00000000000E+00 -0.45593999997E+02  0.45594000000E+02  0.51100000000E-03 0. -1.
    9900012    2    1    2    0    0  0.42825306271E+02  0.20889484490E+01  0.13810970948E+02  0.46142317839E+02  0.10000000713E+02 0.  0.
         12    1    1    2    0    0 -0.42825306271E+02 -0.20889484490E+01 -0.13810970948E+02  0.45045682161E+02  0.00000000000E+00 0. -1.
         11    1    3    3    0    0  0.14211920019E+02  0.18973873571E-01  0.54271701628E+00  0.14222291399E+02  0.51100000000E-03 0. -1.
        -11    1    3    3    0    0  0.87327354630E+01  0.26808728965E+01  0.38579696525E+01  0.99162330678E+01  0.51100000000E-03 0.  1.
        -12    1    3    3    0    0  0.19880650789E+02 -0.61089832113E+00  0.94102842794E+01  0.22003793372E+02  0.00000000000E+00 0.  1.
</event>
<event>
 7    1  0.2395003E-008  0.4614231E+02  0.7816164E-02  0.1320468E+00
        -11   -1    0    0    0    0  0.00000000000E+00  0.00000000000E+00  0.45593999997E+02  0.45594000000E+02  0.51100000000E-03 0.  1.
         11   -1    0    0    0    0 -0.00000000000E+00 -0.00000000000E+00 -0.45593999997E+02  0.45594000000E+02  0.51100000000E-03 0. -1.
    9900012    2    1    2    0    0 -0.22812031712E+02  0.12757869880E+02  0.36687357296E+02  0.46142309639E+02  0.99999259386E+01 0.  0.
         12    1    1    2    0    0  0.22812031712E+02 -0.12757869880E+02 -0.36687357296E+02  0.45045690361E+02  0.00000000000E+00 0. -1.
         11    1    3    3    0    0 -0.46866331142E+01  0.45749329866E+01  0.44031331717E+01  0.78919024176E+01  0.51100000000E-03 0. -1.
        -11    1    3    3    0    0  0.12951758174E+00  0.53674256950E+00  0.19817271268E+01  0.20572092884E+01  0.51100000000E-03 0.  1.
        -12    1    3    3    0    0 -0.18254916180E+02  0.76461943238E+01  0.30302496998E+02  0.36193197933E+02  0.00000000000E+00 0.  1.
</event>
<event>
 7    1  0.2395003E-008  0.4614232E+02  0.7816164E-02  0.1320468E+00
        -11   -1    0    0    0    0  0.00000000000E+00  0.00000000000E+00  0.45593999997E+02  0.45594000000E+02  0.51100000000E-03 0.  1.
         11   -1    0    0    0    0 -0.00000000000E+00 -0.00000000000E+00 -0.45593999997E+02  0.45594000000E+02  0.51100000000E-03 0. -1.
    9900012    2    1    2    0    0  0.23023336496E+02  0.25040115858E+02  0.29530188346E+02  0.46142318194E+02  0.10000003949E+02 0.  0.
         12    1    1    2    0    0 -0.23023336496E+02 -0.25040115858E+02 -0.29530188346E+02  0.45045681806E+02  0.00000000000E+00 0. -1.
         11    1    3    3    0    0  0.46534696805E+01  0.38396553895E+01  0.65930595654E+01  0.89367873573E+01  0.51100000000E-03 0. -1.
        -11    1    3    3    0    0  0.17091216364E+00 -0.44750775055E+00 -0.33123953847E+00  0.58240368084E+00  0.51100000000E-03 0.  1.
        -12    1    3    3    0    0  0.18198954652E+02  0.21647968219E+02  0.23268368319E+02  0.36623127156E+02  0.00000000000E+00 0.  1.
</event>
<event>
 7    1  0.2395003E-008  0.4614232E+02  0.7816164E-02  0.1320468E+00
        -11   -1    0    0    0    0  0.00000000000E+00  0.00000000000E+00  0.45593999997E+02  0.45594000000E+02  0.51100000000E-03 0.  1.
         11   -1    0    0    0    0 -0.00000000000E+00 -0.00000000000E+00 -0.45593999997E+02  0.45594000000E+02  0.51100000000E-03 0. -1.
    9900012    2    1    2    0    0  0.43740270324E+02  0.10754747958E+02  0.48747567447E+00  0.46142317807E+02  0.10000000420E+02 0.  0.
         12    1    1    2    0    0 -0.43740270324E+02 -0.10754747958E+02 -0.48747567447E+00  0.45045682193E+02  0.00000000000E+00 0. -1.
         11    1    3    3    0    0  0.19153449020E+02  0.54297887732E+01 -0.34043248651E+01  0.20197193952E+02  0.51100000000E-03 0.  1.
        -11    1    3    3    0    0  0.23885415752E+02  0.42520099902E+01  0.31512873962E+01  0.24464735583E+02  0.51100000000E-03 0. -1.
        -12    1    3    3    0    0  0.70140555227E+00  0.10729491943E+01  0.74051314342E+00  0.14803882727E+01  0.00000000000E+00 0.  1.
</event>
<event>
 7    1  0.2395003E-008  0.4614232E+02  0.7816164E-02  0.1320468E+00
        -11   -1    0    0    0    0  0.00000000000E+00  0.00000000000E+00  0.45593999997E+02  0.45594000000E+02  0.51100000000E-03 0.  1.
         11   -1    0    0    0    0 -0.00000000000E+00 -0.00000000000E+00 -0.45593999997E+02  0.45594000000E+02  0.51100000000E-03 0. -1.
    9900012    2    1    2    0    0 -0.44520019454E+02  0.45328943029E+01  0.51511384435E+01  0.46142317741E+02  0.99999998173E+01 0.  0.
         12    1    1    2    0    0  0.44520019454E+02 -0.45328943029E+01 -0.51511384435E+01  0.45045682259E+02  0.00000000000E+00 0. -1.
         11    1    3    3    0    0 -0.13264765743E+01 -0.13507192340E+00  0.22232145467E+01  0.25923864890E+01  0.51100000000E-03 0. -1.
        -11    1    3    3    0    0 -0.18024145071E+02  0.20426001734E+01  0.86774911089E+00  0.18160259078E+02  0.51100000000E-03 0.  1.
         12    1    3    3    0    0 -0.25169397808E+02  0.26253660529E+01  0.20601747859E+01  0.25389672174E+02  0.00000000000E+00 0. -1.
</event>
<event>
 7    1  0.2395003E-008  0.4614232E+02  0.7816164E-02  0.1320468E+00
        -11   -1    0    0    0    0  0.00000000000E+00  0.00000000000E+00  0.45593999997E+02  0.45594000000E+02  0.51100000000E-03 0.  1.
         11   -1    0    0    0    0 -0.00000000000E+00 -0.00000000000E+00 -0.45593999997E+02  0.45594000000E+02  0.51100000000E-03 0. -1.
    9900012    2    1    2    0    0  0.29538987533E+02  0.33659254586E+02 -0.48596502835E+01  0.46142318691E+02  0.10000008481E+02 0.  0.
         12    1    1    2    0    0 -0.29538987533E+02 -0.33659254586E+02  0.48596502835E+01  0.45045681309E+02  0.00000000000E+00 0. -1.
         11    1    3    3    0    0  0.15858213900E+02  0.19860891857E+02 -0.49069424533E+01  0.25884668396E+02  0.51100000000E-03 0. -1.
        -11    1    3    3    0    0  0.56674483961E+00 -0.25115759208E+00  0.81433082299E+00  0.10234328506E+01  0.51100000000E-03 0.  1.
        -12    1    3    3    0    0  0.13114028793E+02  0.14049520321E+02 -0.76703865326E+00  0.19234217445E+02  0.00000000000E+00 0.  1.
</event>
<event>
 7    1  0.2395003E-008  0.4614232E+02  0.7816164E-02  0.1320468E+00
        -11   -1    0    0    0    0  0.00000000000E+00  0.00000000000E+00  0.45593999997E+02  0.45594000000E+02  0.51100000000E-03 0.  1.
         11   -1    0    0    0    0 -0.00000000000E+00 -0.00000000000E+00 -0.45593999997E+02  0.45594000000E+02  0.51100000000E-03 0. -1.
    9900012    2    1    2    0    0  0.83756876704E+01  0.40303325757E+02  0.18292163186E+02  0.46142318242E+02  0.10000004386E+02 0.  0.
         12    1    1    2    0    0 -0.83756876704E+01 -0.40303325757E+02 -0.18292163186E+02  0.45045681758E+02  0.00000000000E+00 0. -1.
         11    1    3    3    0    0  0.44206539758E+01  0.27986701725E+02  0.11682934961E+02  0.30647815984E+02  0.51100000000E-03 0. -1.
        -11    1    3    3    0    0  0.38983130828E+01  0.12841512081E+02  0.60357415583E+01  0.14715007775E+02  0.51100000000E-03 0.  1.
         12    1    3    3    0    0  0.56720611768E-01 -0.52488804890E+00  0.57348666700E+00  0.77949448292E+00  0.00000000000E+00 0. -1.
</event>
<event>
 7    1  0.2395003E-008  0.4614232E+02  0.7816164E-02  0.1320468E+00
        -11   -1    0    0    0    0  0.00000000000E+00  0.00000000000E+00  0.45593999997E+02  0.45594000000E+02  0.51100000000E-03 0. -1.
         11   -1    0    0    0    0 -0.00000000000E+00 -0.00000000000E+00 -0.45593999997E+02  0.45594000000E+02  0.51100000000E-03 0.  1.
    9900012    2    1    2    0    0 -0.23175004186E+01  0.38205080125E+02 -0.23751094233E+02  0.46142318378E+02  0.10000005625E+02 0.  0.
         12    1    1    2    0    0  0.23175004186E+01 -0.38205080125E+02  0.23751094233E+02  0.45045681622E+02  0.00000000000E+00 0. -1.
         11    1    3    3    0    0  0.24538811538E+01  0.84050678491E+01 -0.87256710139E+01  0.12361392849E+02  0.51100000000E-03 0. -1.
        -11    1    3    3    0    0 -0.29838762827E+01  0.18638729339E+02 -0.82315343831E+01  0.20592812037E+02  0.51100000000E-03 0.  1.
         12    1    3    3    0    0 -0.17875052896E+01  0.11161282937E+02 -0.67938888355E+01  0.13188113492E+02  0.00000000000E+00 0. -1.
</event>
<event>
 7    1  0.2395003E-008  0.4614232E+02  0.7816164E-02  0.1320468E+00
        -11   -1    0    0    0    0  0.00000000000E+00  0.00000000000E+00  0.45593999997E+02  0.45594000000E+02  0.51100000000E-03 0.  1.
         11   -1    0    0    0    0 -0.00000000000E+00 -0.00000000000E+00 -0.45593999997E+02  0.45594000000E+02  0.51100000000E-03 0. -1.
    9900012    2    1    2    0    0  0.30794043779E+02  0.33213026650E+01  0.32707939309E+02  0.46142317882E+02  0.10000001103E+02 0.  0.
         12    1    1    2    0    0 -0.30794043779E+02 -0.33213026650E+01 -0.32707939309E+02  0.45045682118E+02  0.00000000000E+00 0. -1.
         11    1    3    3    0    0  0.85854128228E+01 -0.21627346569E+01  0.10088823844E+02  0.13422782921E+02  0.51100000000E-03 0. -1.
        -11    1    3    3    0    0  0.16575824976E+01  0.55935775323E+00  0.46904986208E+01  0.50061200950E+01  0.51100000000E-03 0.  1.
         12    1    3    3    0    0  0.20551048458E+02  0.49246795686E+01  0.17928616844E+02  0.27713414866E+02  0.00000000000E+00 0. -1.
</event>
<event>
 7    1  0.2395003E-008  0.4614232E+02  0.7816164E-02  0.1320468E+00
        -11   -1    0    0    0    0  0.00000000000E+00  0.00000000000E+00  0.45593999997E+02  0.45594000000E+02  0.51100000000E-03 0. -1.
         11   -1    0    0    0    0 -0.00000000000E+00 -0.00000000000E+00 -0.45593999997E+02  0.45594000000E+02  0.51100000000E-03 0.  1.
    9900012    2    1    2    0    0  0.43648630210E+01 -0.24127539869E+02 -0.37787873531E+02  0.46142316574E+02  0.99999891741E+01 0.  0.
         12    1    1    2    0    0 -0.43648630210E+01  0.24127539869E+02  0.37787873531E+02  0.45045683426E+02  0.00000000000E+00 0. -1.
         11    1    3    3    0    0  0.36930554087E+01 -0.18777349853E+02 -0.30097888454E+02  0.35666656914E+02  0.51100000000E-03 0. -1.
        -11    1    3    3    0    0  0.13202902157E+01 -0.54557562812E+01 -0.79808203302E+01  0.97571479572E+01  0.51100000000E-03 0.  1.
         12    1    3    3    0    0 -0.64848260346E+00  0.10556626491E+00  0.29083525301E+00  0.71851170323E+00  0.00000000000E+00 0. -1.
</event>
<event>
 7    1  0.2395003E-008  0.4614232E+02  0.7816164E-02  0.1320468E+00
        -11   -1    0    0    0    0  0.00000000000E+00  0.00000000000E+00  0.45593999997E+02  0.45594000000E+02  0.51100000000E-03 0.  1.
         11   -1    0    0    0    0 -0.00000000000E+00 -0.00000000000E+00 -0.45593999997E+02  0.45594000000E+02  0.51100000000E-03 0. -1.
    9900012    2    1    2    0    0 -0.32531409860E+02 -0.27353434408E+02  0.14920135235E+02  0.46142318333E+02  0.10000005212E+02 0.  0.
         12    1    1    2    0    0  0.32531409860E+02  0.27353434408E+02 -0.14920135235E+02  0.45045681667E+02  0.00000000000E+00 0. -1.
         11    1    3    3    0    0 -0.20685461168E+02 -0.11009773401E+02  0.85229296414E+01  0.24934789833E+02  0.51100000000E-03 0. -1.
        -11    1    3    3    0    0 -0.36635434833E+01 -0.41735828429E+01  0.16520667693E+01  0.57939338512E+01  0.51100000000E-03 0.  1.
         12    1    3    3    0    0 -0.81824052092E+01 -0.12170078164E+02  0.47451388247E+01  0.15413594648E+02  0.00000000000E+00 0. -1.
</event>
<event>
 7    1  0.2395003E-008  0.4614232E+02  0.7816164E-02  0.1320468E+00
        -11   -1    0    0    0    0  0.00000000000E+00  0.00000000000E+00  0.45593999997E+02  0.45594000000E+02  0.51100000000E-03 0.  1.
         11   -1    0    0    0    0 -0.00000000000E+00 -0.00000000000E+00 -0.45593999997E+02  0.45594000000E+02  0.51100000000E-03 0. -1.
    9900012    2    1    2    0    0 -0.25386005690E+02 -0.23794618965E+01  0.37134917454E+02  0.46142320761E+02  0.10000027352E+02 0.  0.
         12    1    1    2    0    0  0.25386005690E+02  0.23794618965E+01 -0.37134917454E+02  0.45045679239E+02  0.00000000000E+00 0. -1.
         11    1    3    3    0    0 -0.14842313909E+02 -0.13671078480E+01  0.22687845365E+02  0.27145931437E+02  0.51100000000E-03 0.  1.
        -11    1    3    3    0    0 -0.43964242278E+01 -0.33346379689E+01  0.47406292562E+01  0.72747455200E+01  0.51100000000E-03 0. -1.
         12    1    3    3    0    0 -0.61472675532E+01  0.23222839204E+01  0.97064428332E+01  0.11721643803E+02  0.00000000000E+00 0. -1.
</event>
<event>
 7    1  0.2395003E-008  0.4614232E+02  0.7816164E-02  0.1320468E+00
        -11   -1    0    0    0    0  0.00000000000E+00  0.00000000000E+00  0.45593999997E+02  0.45594000000E+02  0.51100000000E-03 0.  1.
         11   -1    0    0    0    0 -0.00000000000E+00 -0.00000000000E+00 -0.45593999997E+02  0.45594000000E+02  0.51100000000E-03 0. -1.
    9900012    2    1    2    0    0  0.22490772827E+02 -0.13039532580E+02  0.36786535289E+02  0.46142318178E+02  0.10000003798E+02 0.  0.
         12    1    1    2    0    0 -0.22490772827E+02  0.13039532580E+02 -0.36786535289E+02  0.45045681822E+02  0.00000000000E+00 0. -1.
         11    1    3    3    0    0  0.13471057618E+02 -0.44604692335E+01  0.13761561481E+02  0.19767289996E+02  0.51100000000E-03 0. -1.
        -11    1    3    3    0    0  0.73374742308E+00 -0.20678260322E+01  0.55564516141E+01  0.59739806311E+01  0.51100000000E-03 0.  1.
         12    1    3    3    0    0  0.82859677861E+01 -0.65112373145E+01  0.17468522194E+02  0.20401047550E+02  0.00000000000E+00 0. -1.
</event>
<event>
 7    1  0.2395003E-008  0.4614232E+02  0.7816164E-02  0.1320468E+00
        -11   -1    0    0    0    0  0.00000000000E+00  0.00000000000E+00  0.45593999997E+02  0.45594000000E+02  0.51100000000E-03 0.  1.
         11   -1    0    0    0    0 -0.00000000000E+00 -0.00000000000E+00 -0.45593999997E+02  0.45594000000E+02  0.51100000000E-03 0. -1.
    9900012    2    1    2    0    0 -0.15271443695E+02 -0.41942304414E+02 -0.60613225105E+01  0.46142317381E+02  0.99999965294E+01 0.  0.
         12    1    1    2    0    0  0.15271443695E+02  0.41942304414E+02  0.60613225105E+01  0.45045682619E+02  0.00000000000E+00 0. -1.
         11    1    3    3    0    0 -0.57553713757E+01 -0.20360659128E+02 -0.61940866386E+01  0.22046483832E+02  0.51100000000E-03 0. -1.
        -11    1    3    3    0    0  0.28818840688E-01 -0.92937028429E+00 -0.93614593210E+00  0.13194427302E+01  0.51100000000E-03 0.  1.
        -12    1    3    3    0    0 -0.95448911603E+01 -0.20652275001E+02  0.10689100602E+01  0.22776390818E+02  0.00000000000E+00 0.  1.
</event>
<event>
 7    1  0.2395003E-008  0.4614232E+02  0.7816164E-02  0.1320468E+00
        -11   -1    0    0    0    0  0.00000000000E+00  0.00000000000E+00  0.45593999997E+02  0.45594000000E+02  0.51100000000E-03 0. -1.
         11   -1    0    0    0    0 -0.00000000000E+00 -0.00000000000E+00 -0.45593999997E+02  0.45594000000E+02  0.51100000000E-03 0.  1.
    9900012    2    1    2    0    0 -0.21807702737E+02  0.22608107658E+02 -0.32286391446E+02  0.46142317597E+02  0.99999985012E+01 0.  0.
         12    1    1    2    0    0  0.21807702737E+02 -0.22608107658E+02  0.32286391446E+02  0.45045682403E+02  0.00000000000E+00 0. -1.
         11    1    3    3    0    0 -0.54192709274E+01  0.28105162772E+01 -0.43858840362E+01  0.75168795500E+01  0.51100000000E-03 0. -1.
        -11    1    3    3    0    0 -0.16034702769E+02  0.17864901974E+02 -0.22590454111E+02  0.32963540960E+02  0.51100000000E-03 0.  1.
         12    1    3    3    0    0 -0.35372904036E+00  0.19326894075E+01 -0.53100532997E+01  0.56618970871E+01  0.00000000000E+00 0. -1.
</event>
<event>
 7    1  0.2395003E-008  0.4614232E+02  0.7816164E-02  0.1320468E+00
        -11   -1    0    0    0    0  0.00000000000E+00  0.00000000000E+00  0.45593999997E+02  0.45594000000E+02  0.51100000000E-03 0.  1.
         11   -1    0    0    0    0 -0.00000000000E+00 -0.00000000000E+00 -0.45593999997E+02  0.45594000000E+02  0.51100000000E-03 0. -1.
    9900012    2    1    2    0    0 -0.44205584947E+01  0.35655168938E+02  0.27171326300E+02  0.46142318938E+02  0.10000010736E+02 0.  0.
         12    1    1    2    0    0  0.44205584947E+01 -0.35655168938E+02 -0.27171326300E+02  0.45045681062E+02  0.00000000000E+00 0. -1.
         11    1    3    3    0    0 -0.94034732038E+00  0.21079552375E+02  0.13009768334E+02  0.24788825179E+02  0.51100000000E-03 0. -1.
        -11    1    3    3    0    0  0.91214741388E+00  0.63986363341E+01  0.40488435019E+01  0.76267747970E+01  0.51100000000E-03 0.  1.
         12    1    3    3    0    0 -0.43923585882E+01  0.81769802290E+01  0.10112714464E+02  0.13726718962E+02  0.00000000000E+00 0. -1.
</event>
<event>
 7    1  0.2395003E-008  0.4614232E+02  0.7816164E-02  0.1320468E+00
        -11   -1    0    0    0    0  0.00000000000E+00  0.00000000000E+00  0.45593999997E+02  0.45594000000E+02  0.51100000000E-03 0. -1.
         11   -1    0    0    0    0 -0.00000000000E+00 -0.00000000000E+00 -0.45593999997E+02  0.45594000000E+02  0.51100000000E-03 0.  1.
    9900012    2    1    2    0    0  0.18820894738E+02  0.38216162156E+01 -0.40746565949E+02  0.46142318011E+02  0.10000002276E+02 0.  0.
         12    1    1    2    0    0 -0.18820894738E+02 -0.38216162156E+01  0.40746565949E+02  0.45045681989E+02  0.00000000000E+00 0. -1.
         11    1    3    3    0    0  0.35400302985E+01 -0.13501144978E+01 -0.14011957739E+02  0.14515150141E+02  0.51100000000E-03 0. -1.
        -11    1    3    3    0    0  0.76474528911E+01 -0.43323325959E-01 -0.12507274939E+02  0.14660059321E+02  0.51100000000E-03 0.  1.
         12    1    3    3    0    0  0.76334115485E+01  0.52150540393E+01 -0.14227333271E+02  0.16967108549E+02  0.00000000000E+00 0. -1.
</event>
<event>
 7    1  0.2395003E-008  0.4614232E+02  0.7816164E-02  0.1320468E+00
        -11   -1    0    0    0    0  0.00000000000E+00  0.00000000000E+00  0.45593999997E+02  0.45594000000E+02  0.51100000000E-03 0.  1.
         11   -1    0    0    0    0 -0.00000000000E+00 -0.00000000000E+00 -0.45593999997E+02  0.45594000000E+02  0.51100000000E-03 0. -1.
    9900012    2    1    2    0    0 -0.22867476923E+02 -0.28364084861E+01  0.38705899976E+02  0.46142318666E+02  0.10000008247E+02 0.  0.
         12    1    1    2    0    0  0.22867476923E+02  0.28364084861E+01 -0.38705899976E+02  0.45045681334E+02  0.00000000000E+00 0. -1.
         11    1    3    3    0    0  0.29098305864E+00 -0.29658295740E+00  0.38741787013E+01  0.38963949314E+01  0.51100000000E-03 0. -1.
        -11    1    3    3    0    0 -0.45059587734E+01 -0.31952964758E+00  0.11070302233E+02  0.11956477552E+02  0.51100000000E-03 0.  1.
        -12    1    3    3    0    0 -0.18652501209E+02 -0.22202958812E+01  0.23761419042E+02  0.30289446182E+02  0.00000000000E+00 0.  1.
</event>
<event>
 7    1  0.2395003E-008  0.4614232E+02  0.7816164E-02  0.1320468E+00
        -11   -1    0    0    0    0  0.00000000000E+00  0.00000000000E+00  0.45593999997E+02  0.45594000000E+02  0.51100000000E-03 0.  1.
         11   -1    0    0    0    0 -0.00000000000E+00 -0.00000000000E+00 -0.45593999997E+02  0.45594000000E+02  0.51100000000E-03 0. -1.
    9900012    2    1    2    0    0 -0.24549265049E+02  0.37511481605E+02  0.43971860861E+01  0.46142324157E+02  0.10000058321E+02 0.  0.
         12    1    1    2    0    0  0.24549265049E+02 -0.37511481605E+02 -0.43971860861E+01  0.45045675843E+02  0.00000000000E+00 0. -1.
         11    1    3    3    0    0 -0.73863578350E+01  0.10528026781E+02 -0.23948323197E+01  0.13081775570E+02  0.51100000000E-03 0. -1.
        -11    1    3    3    0    0 -0.13209681081E+01  0.32465319277E+01  0.22460591678E+01  0.41628966293E+01  0.51100000000E-03 0.  1.
        -12    1    3    3    0    0 -0.15841939106E+02  0.23736922896E+02  0.45459592380E+01  0.28897651957E+02  0.00000000000E+00 0.  1.
</event>
<event>
 7    1  0.2395003E-008  0.4614232E+02  0.7816164E-02  0.1320468E+00
        -11   -1    0    0    0    0  0.00000000000E+00  0.00000000000E+00  0.45593999997E+02  0.45594000000E+02  0.51100000000E-03 0. -1.
         11   -1    0    0    0    0 -0.00000000000E+00 -0.00000000000E+00 -0.45593999997E+02  0.45594000000E+02  0.51100000000E-03 0.  1.
    9900012    2    1    2    0    0 -0.69635331136E+01 -0.43559095535E+02  0.91229363667E+01  0.46142316908E+02  0.99999922211E+01 0.  0.
         12    1    1    2    0    0  0.69635331136E+01  0.43559095535E+02 -0.91229363667E+01  0.45045683092E+02  0.00000000000E+00 0. -1.
         11    1    3    3    0    0 -0.11159068338E+01 -0.90700189156E+01 -0.87411457813E+00  0.91801180683E+01  0.51100000000E-03 0. -1.
        -11    1    3    3    0    0  0.10187742411E+01 -0.64507402901E+01  0.40435698414E+00  0.65431992233E+01  0.51100000000E-03 0.  1.
         12    1    3    3    0    0 -0.68664005208E+01 -0.28038336330E+02  0.95926939606E+01  0.30418999616E+02  0.00000000000E+00 0. -1.
</event>
<event>
 7    1  0.2395003E-008  0.4614232E+02  0.7816164E-02  0.1320468E+00
        -11   -1    0    0    0    0  0.00000000000E+00  0.00000000000E+00  0.45593999997E+02  0.45594000000E+02  0.51100000000E-03 0.  1.
         11   -1    0    0    0    0 -0.00000000000E+00 -0.00000000000E+00 -0.45593999997E+02  0.45594000000E+02  0.51100000000E-03 0. -1.
    9900012    2    1    2    0    0 -0.22990621165E+02  0.36887656812E+02  0.11825633606E+02  0.46142317667E+02  0.99999991413E+01 0.  0.
         12    1    1    2    0    0  0.22990621165E+02 -0.36887656812E+02 -0.11825633606E+02  0.45045682333E+02  0.00000000000E+00 0. -1.
         11    1    3    3    0    0 -0.17933592555E+02  0.25347249578E+02  0.80468506588E+01  0.32075670045E+02  0.51100000000E-03 0. -1.
        -11    1    3    3    0    0 -0.50162748655E+01  0.90535503874E+01  0.47606080045E+01  0.11392680851E+02  0.51100000000E-03 0.  1.
         12    1    3    3    0    0 -0.40753745002E-01  0.24868568470E+01 -0.98182505723E+00  0.26739667702E+01  0.00000000000E+00 0. -1.
</event>
<event>
 7    1  0.2395003E-008  0.4614232E+02  0.7816164E-02  0.1320468E+00
        -11   -1    0    0    0    0  0.00000000000E+00  0.00000000000E+00  0.45593999997E+02  0.45594000000E+02  0.51100000000E-03 0. -1.
         11   -1    0    0    0    0 -0.00000000000E+00 -0.00000000000E+00 -0.45593999997E+02  0.45594000000E+02  0.51100000000E-03 0.  1.
    9900012    2    1    2    0    0  0.40501929366E+02  0.14450275816E+02 -0.13412559780E+02  0.46142317484E+02  0.99999974728E+01 0.  0.
         12    1    1    2    0    0 -0.40501929366E+02 -0.14450275816E+02  0.13412559780E+02  0.45045682516E+02  0.00000000000E+00 0. -1.
         11    1    3    3    0    0  0.65982003220E+01  0.22312169631E+01 -0.12662594554E+01  0.70794060412E+01  0.51100000000E-03 0. -1.
        -11    1    3    3    0    0  0.24170365662E+02  0.48731200825E+01 -0.58594802186E+01  0.25343389360E+02  0.51100000000E-03 0.  1.
        -12    1    3    3    0    0  0.97333633818E+01  0.73459387702E+01 -0.62868201055E+01  0.13719522083E+02  0.00000000000E+00 0.  1.
</event>
<event>
 7    1  0.2395003E-008  0.4614232E+02  0.7816164E-02  0.1320468E+00
        -11   -1    0    0    0    0  0.00000000000E+00  0.00000000000E+00  0.45593999997E+02  0.45594000000E+02  0.51100000000E-03 0.  1.
         11   -1    0    0    0    0 -0.00000000000E+00 -0.00000000000E+00 -0.45593999997E+02  0.45594000000E+02  0.51100000000E-03 0. -1.
    9900012    2    1    2    0    0 -0.36293947217E+02  0.48201199005E+01  0.26241747769E+02  0.46142317782E+02  0.10000000192E+02 0.  0.
         12    1    1    2    0    0  0.36293947217E+02 -0.48201199005E+01 -0.26241747769E+02  0.45045682218E+02  0.00000000000E+00 0. -1.
         11    1    3    3    0    0 -0.62859839859E+01  0.29560067030E+01  0.72818276061E+01  0.10063626774E+02  0.51100000000E-03 0. -1.
        -11    1    3    3    0    0 -0.17791793804E+02  0.33370599306E+01  0.13676579289E+02  0.22687721725E+02  0.51100000000E-03 0.  1.
        -12    1    3    3    0    0 -0.12216169428E+02 -0.14729467331E+01  0.52833408744E+01  0.13390969284E+02  0.00000000000E+00 0.  1.
</event>
<event>
 7    1  0.2395003E-008  0.4614232E+02  0.7816164E-02  0.1320468E+00
        -11   -1    0    0    0    0  0.00000000000E+00  0.00000000000E+00  0.45593999997E+02  0.45594000000E+02  0.51100000000E-03 0.  1.
         11   -1    0    0    0    0 -0.00000000000E+00 -0.00000000000E+00 -0.45593999997E+02  0.45594000000E+02  0.51100000000E-03 0. -1.
    9900012    2    1    2    0    0 -0.21175704568E+02 -0.28443211244E+01  0.39656183490E+02  0.46142317458E+02  0.99999972393E+01 0.  0.
         12    1    1    2    0    0  0.21175704568E+02  0.28443211244E+01 -0.39656183490E+02  0.45045682542E+02  0.00000000000E+00 0. -1.
         11    1    3    3    0    0 -0.58926096339E+01 -0.55666733954E+00  0.10200568505E+02  0.11793401753E+02  0.51100000000E-03 0. -1.
        -11    1    3    3    0    0 -0.14825396081E+02  0.19327536854E+00  0.22461571401E+02  0.26913786698E+02  0.51100000000E-03 0.  1.
         12    1    3    3    0    0 -0.45769885337E+00 -0.24809291534E+01  0.69940435842E+01  0.74351290078E+01  0.00000000000E+00 0. -1.
</event>
<event>
 7    1  0.2395003E-008  0.4614232E+02  0.7816164E-02  0.1320468E+00
        -11   -1    0    0    0    0  0.00000000000E+00  0.00000000000E+00  0.45593999997E+02  0.45594000000E+02  0.51100000000E-03 0.  1.
         11   -1    0    0    0    0 -0.00000000000E+00 -0.00000000000E+00 -0.45593999997E+02  0.45594000000E+02  0.51100000000E-03 0. -1.
    9900012    2    1    2    0    0  0.82103760637E+01  0.97341986516E+01  0.43208200379E+02  0.46142317870E+02  0.10000000996E+02 0.  0.
         12    1    1    2    0    0 -0.82103760637E+01 -0.97341986516E+01 -0.43208200379E+02  0.45045682130E+02  0.00000000000E+00 0. -1.
         11    1    3    3    0    0  0.70669483066E+00  0.43859752969E+01  0.45283401181E+01  0.63436630881E+01  0.51100000000E-03 0. -1.
        -11    1    3    3    0    0  0.19772479635E+00  0.48759897054E+00  0.35826446412E+01  0.36210759089E+01  0.51100000000E-03 0.  1.
         12    1    3    3    0    0  0.73059564367E+01  0.48606243841E+01  0.35097215620E+02  0.36177578873E+02  0.00000000000E+00 0. -1.
</event>
<event>
 7    1  0.2395003E-008  0.4614232E+02  0.7816164E-02  0.1320468E+00
        -11   -1    0    0    0    0  0.00000000000E+00  0.00000000000E+00  0.45593999997E+02  0.45594000000E+02  0.51100000000E-03 0.  1.
         11   -1    0    0    0    0 -0.00000000000E+00 -0.00000000000E+00 -0.45593999997E+02  0.45594000000E+02  0.51100000000E-03 0. -1.
    9900012    2    1    2    0    0  0.10954856373E+02  0.12245230277E+02  0.41942329408E+02  0.46142317201E+02  0.99999948882E+01 0.  0.
         12    1    1    2    0    0 -0.10954856373E+02 -0.12245230277E+02 -0.41942329408E+02  0.45045682799E+02  0.00000000000E+00 0. -1.
         11    1    3    3    0    0 -0.11245686147E+01  0.24065554840E+01  0.36209043379E+01  0.44907808176E+01  0.51100000000E-03 0. -1.
        -11    1    3    3    0    0  0.66113071891E+01  0.82909109053E+01  0.26173273791E+02  0.28239845035E+02  0.51100000000E-03 0.  1.
        -12    1    3    3    0    0  0.54681177988E+01  0.15477638873E+01  0.12148151279E+02  0.13411691348E+02  0.00000000000E+00 0.  1.
</event>
<event>
 7    1  0.2395003E-008  0.4614232E+02  0.7816164E-02  0.1320468E+00
        -11   -1    0    0    0    0  0.00000000000E+00  0.00000000000E+00  0.45593999997E+02  0.45594000000E+02  0.51100000000E-03 0. -1.
         11   -1    0    0    0    0 -0.00000000000E+00 -0.00000000000E+00 -0.45593999997E+02  0.45594000000E+02  0.51100000000E-03 0.  1.
    9900012    2    1    2    0    0 -0.32396741714E+02  0.21956759476E+02 -0.22303931331E+02  0.46142317485E+02  0.99999974866E+01 0.  0.
         12    1    1    2    0    0  0.32396741714E+02 -0.21956759476E+02  0.22303931331E+02  0.45045682515E+02  0.00000000000E+00 0. -1.
         11    1    3    3    0    0 -0.62845675149E+01  0.17519292322E+01 -0.20886919555E+01  0.68503780356E+01  0.51100000000E-03 0. -1.
        -11    1    3    3    0    0 -0.98895266746E+01  0.43467186370E+01 -0.85848100160E+01  0.13798393531E+02  0.51100000000E-03 0.  1.
        -12    1    3    3    0    0 -0.16222647524E+02  0.15858111607E+02 -0.11630429360E+02  0.25493545919E+02  0.00000000000E+00 0.  1.
</event>
<event>
 7    1  0.2395003E-008  0.4614232E+02  0.7816164E-02  0.1320468E+00
        -11   -1    0    0    0    0  0.00000000000E+00  0.00000000000E+00  0.45593999997E+02  0.45594000000E+02  0.51100000000E-03 0. -1.
         11   -1    0    0    0    0 -0.00000000000E+00 -0.00000000000E+00 -0.45593999997E+02  0.45594000000E+02  0.51100000000E-03 0.  1.
    9900012    2    1    2    0    0  0.26850757683E+02  0.36168194106E+02 -0.10985926454E+00  0.46142317387E+02  0.99999965849E+01 0.  0.
         12    1    1    2    0    0 -0.26850757683E+02 -0.36168194106E+02  0.10985926454E+00  0.45045682613E+02  0.00000000000E+00 0. -1.
         11    1    3    3    0    0  0.67033516302E+01  0.77492921759E+01  0.28152251956E+01  0.10626003269E+02  0.51100000000E-03 0. -1.
        -11    1    3    3    0    0  0.45988176403E+01  0.75032667155E+01 -0.34411230262E+01  0.94493101883E+01  0.51100000000E-03 0.  1.
         12    1    3    3    0    0  0.15548588412E+02  0.20915635215E+02  0.51603856604E+00  0.26067003930E+02  0.00000000000E+00 0. -1.
</event>
<event>
 7    1  0.2395003E-008  0.4614232E+02  0.7816164E-02  0.1320468E+00
        -11   -1    0    0    0    0  0.00000000000E+00  0.00000000000E+00  0.45593999997E+02  0.45594000000E+02  0.51100000000E-03 0. -1.
         11   -1    0    0    0    0 -0.00000000000E+00 -0.00000000000E+00 -0.45593999997E+02  0.45594000000E+02  0.51100000000E-03 0.  1.
    9900012    2    1    2    0    0  0.15168894180E+01 -0.45016764330E+02  0.55072697235E+00  0.46142319580E+02  0.10000016587E+02 0.  0.
         12    1    1    2    0    0 -0.15168894180E+01  0.45016764330E+02 -0.55072697235E+00  0.45045680420E+02  0.00000000000E+00 0. -1.
         11    1    3    3    0    0 -0.15367280746E+01 -0.26016718723E+02  0.31552184725E+01  0.26252363516E+02  0.51100000000E-03 0. -1.
        -11    1    3    3    0    0 -0.60147011866E+00 -0.71184804782E+01  0.19929684203E+00  0.71466250856E+01  0.51100000000E-03 0.  1.
        -12    1    3    3    0    0  0.36550876113E+01 -0.11881565129E+02 -0.28037883422E+01  0.12743330978E+02  0.00000000000E+00 0.  1.
</event>
<event>
 7    1  0.2395003E-008  0.4614232E+02  0.7816164E-02  0.1320468E+00
        -11   -1    0    0    0    0  0.00000000000E+00  0.00000000000E+00  0.45593999997E+02  0.45594000000E+02  0.51100000000E-03 0.  1.
         11   -1    0    0    0    0 -0.00000000000E+00 -0.00000000000E+00 -0.45593999997E+02  0.45594000000E+02  0.51100000000E-03 0. -1.
    9900012    2    1    2    0    0 -0.75280389561E+01  0.42714182520E+01  0.44206300818E+02  0.46142318559E+02  0.10000007280E+02 0.  0.
         12    1    1    2    0    0  0.75280389561E+01 -0.42714182520E+01 -0.44206300818E+02  0.45045681441E+02  0.00000000000E+00 0. -1.
         11    1    3    3    0    0 -0.64021934013E+01  0.59067186445E+01  0.23736830852E+02  0.25284670151E+02  0.51100000000E-03 0. -1.
        -11    1    3    3    0    0 -0.72046094178E+00 -0.40295069183E+00  0.81369898554E+00  0.11591115256E+01  0.51100000000E-03 0.  1.
        -12    1    3    3    0    0 -0.40538461301E+00 -0.12323497007E+01  0.19655770981E+02  0.19698536883E+02  0.00000000000E+00 0.  1.
</event>
<event>
 7    1  0.2395003E-008  0.4614232E+02  0.7816164E-02  0.1320468E+00
        -11   -1    0    0    0    0  0.00000000000E+00  0.00000000000E+00  0.45593999997E+02  0.45594000000E+02  0.51100000000E-03 0.  1.
         11   -1    0    0    0    0 -0.00000000000E+00 -0.00000000000E+00 -0.45593999997E+02  0.45594000000E+02  0.51100000000E-03 0. -1.
    9900012    2    1    2    0    0 -0.37299661046E+02  0.20320982215E+02  0.14996877472E+02  0.46142319117E+02  0.10000012363E+02 0.  0.
         12    1    1    2    0    0  0.37299661046E+02 -0.20320982215E+02 -0.14996877472E+02  0.45045680883E+02  0.00000000000E+00 0. -1.
         11    1    3    3    0    0 -0.44198429648E+01  0.26994170532E+01  0.36920345009E+01  0.63602659754E+01  0.51100000000E-03 0. -1.
        -11    1    3    3    0    0 -0.20054837212E+02  0.13338745305E+02  0.40056140648E+01  0.24416460968E+02  0.51100000000E-03 0.  1.
        -12    1    3    3    0    0 -0.12824980869E+02  0.42828198569E+01  0.72992289062E+01  0.15365592174E+02  0.00000000000E+00 0.  1.
</event>
<event>
 7    1  0.2395003E-008  0.4614232E+02  0.7816164E-02  0.1320468E+00
        -11   -1    0    0    0    0  0.00000000000E+00  0.00000000000E+00  0.45593999997E+02  0.45594000000E+02  0.51100000000E-03 0. -1.
         11   -1    0    0    0    0 -0.00000000000E+00 -0.00000000000E+00 -0.45593999997E+02  0.45594000000E+02  0.51100000000E-03 0.  1.
    9900012    2    1    2    0    0 -0.20921229588E+02  0.34971726562E+02  0.19193593880E+02  0.46142317052E+02  0.99999935363E+01 0.  0.
         12    1    1    2    0    0  0.20921229588E+02 -0.34971726562E+02 -0.19193593880E+02  0.45045682948E+02  0.00000000000E+00 0. -1.
         11    1    3    3    0    0 -0.13851004049E+02  0.25484594700E+02  0.92161567018E+01  0.30434395424E+02  0.51100000000E-03 0. -1.
        -11    1    3    3    0    0 -0.99298122972E+00  0.33475733831E+01  0.27524356127E+01  0.44461400496E+01  0.51100000000E-03 0.  1.
         12    1    3    3    0    0 -0.60772443095E+01  0.61395584786E+01  0.72250015655E+01  0.11261781579E+02  0.00000000000E+00 0. -1.
</event>
<event>
 7    1  0.2395003E-008  0.4614232E+02  0.7816164E-02  0.1320468E+00
        -11   -1    0    0    0    0  0.00000000000E+00  0.00000000000E+00  0.45593999997E+02  0.45594000000E+02  0.51100000000E-03 0. -1.
         11   -1    0    0    0    0 -0.00000000000E+00 -0.00000000000E+00 -0.45593999997E+02  0.45594000000E+02  0.51100000000E-03 0.  1.
    9900012    2    1    2    0    0 -0.11740820517E+02  0.37673636851E+02 -0.21724725074E+02  0.46142318081E+02  0.10000002916E+02 0.  0.
         12    1    1    2    0    0  0.11740820517E+02 -0.37673636851E+02  0.21724725074E+02  0.45045681919E+02  0.00000000000E+00 0. -1.
         11    1    3    3    0    0 -0.33040749501E+00  0.20636951410E+01 -0.27509803958E+01  0.34548372099E+01  0.51100000000E-03 0. -1.
        -11    1    3    3    0    0 -0.75914258877E+01  0.30452515943E+02 -0.13173104979E+02  0.34036982377E+02  0.51100000000E-03 0.  1.
        -12    1    3    3    0    0 -0.38189871342E+01  0.51574257674E+01 -0.58006396995E+01  0.86504984944E+01  0.00000000000E+00 0.  1.
</event>
<event>
 7    1  0.2395003E-008  0.4614232E+02  0.7816164E-02  0.1320468E+00
        -11   -1    0    0    0    0  0.00000000000E+00  0.00000000000E+00  0.45593999997E+02  0.45594000000E+02  0.51100000000E-03 0.  1.
         11   -1    0    0    0    0 -0.00000000000E+00 -0.00000000000E+00 -0.45593999997E+02  0.45594000000E+02  0.51100000000E-03 0. -1.
    9900012    2    1    2    0    0  0.42166702436E+02  0.10860368827E+02  0.11538418789E+02  0.46142317482E+02  0.99999974516E+01 0.  0.
         12    1    1    2    0    0 -0.42166702436E+02 -0.10860368827E+02 -0.11538418789E+02  0.45045682518E+02  0.00000000000E+00 0. -1.
         11    1    3    3    0    0  0.92367603475E+00  0.38961638100E+00  0.13074144564E+01  0.16475166656E+01  0.51100000000E-03 0. -1.
        -11    1    3    3    0    0  0.45833698475E+01 -0.70382275054E+00 -0.58248707040E+00  0.46735358211E+01  0.51100000000E-03 0.  1.
        -12    1    3    3    0    0  0.36659656554E+02  0.11174575197E+02  0.10813491403E+02  0.39821264995E+02  0.00000000000E+00 0.  1.
</event>
<event>
 7    1  0.2395003E-008  0.4614232E+02  0.7816164E-02  0.1320468E+00
        -11   -1    0    0    0    0  0.00000000000E+00  0.00000000000E+00  0.45593999997E+02  0.45594000000E+02  0.51100000000E-03 0. -1.
         11   -1    0    0    0    0 -0.00000000000E+00 -0.00000000000E+00 -0.45593999997E+02  0.45594000000E+02  0.51100000000E-03 0.  1.
    9900012    2    1    2    0    0 -0.51537706161E+01  0.34959622571E+02 -0.27935226663E+02  0.46142318180E+02  0.10000003821E+02 0.  0.
         12    1    1    2    0    0  0.51537706161E+01 -0.34959622571E+02  0.27935226663E+02  0.45045681820E+02  0.00000000000E+00 0. -1.
         11    1    3    3    0    0  0.10035451001E+01  0.38116630855E+00 -0.17438802360E+01  0.20478059140E+01  0.51100000000E-03 0. -1.
        -11    1    3    3    0    0 -0.53411816039E+01  0.33696022454E+02 -0.24427836805E+02  0.41960330806E+02  0.51100000000E-03 0.  1.
        -12    1    3    3    0    0 -0.81613411227E+00  0.88243380907E+00 -0.17635096219E+01  0.21341814598E+01  0.00000000000E+00 0.  1.
</event>
<event>
 7    1  0.2395003E-008  0.4614232E+02  0.7816164E-02  0.1320468E+00
        -11   -1    0    0    0    0  0.00000000000E+00  0.00000000000E+00  0.45593999997E+02  0.45594000000E+02  0.51100000000E-03 0.  1.
         11   -1    0    0    0    0 -0.00000000000E+00 -0.00000000000E+00 -0.45593999997E+02  0.45594000000E+02  0.51100000000E-03 0. -1.
    9900012    2    1    2    0    0  0.29044741963E+02 -0.14234650641E+02  0.31351096316E+02  0.46142317024E+02  0.99999932759E+01 0.  0.
         12    1    1    2    0    0 -0.29044741963E+02  0.14234650641E+02 -0.31351096316E+02  0.45045682976E+02  0.00000000000E+00 0. -1.
         11    1    3    3    0    0  0.52954981695E+01 -0.38460860276E+01  0.63587607377E+01  0.91251584630E+01  0.51100000000E-03 0.  1.
        -11    1    3    3    0    0  0.23830008042E+02 -0.11305666261E+02  0.23958457793E+02  0.35632780876E+02  0.51100000000E-03 0. -1.
         12    1    3    3    0    0 -0.80764248816E-01  0.91710164812E+00  0.10338777861E+01  0.13843776845E+01  0.00000000000E+00 0. -1.
</event>
<event>
 7    1  0.2395003E-008  0.4614232E+02  0.7816164E-02  0.1320468E+00
        -11   -1    0    0    0    0  0.00000000000E+00  0.00000000000E+00  0.45593999997E+02  0.45594000000E+02  0.51100000000E-03 0.  1.
         11   -1    0    0    0    0 -0.00000000000E+00 -0.00000000000E+00 -0.45593999997E+02  0.45594000000E+02  0.51100000000E-03 0. -1.
    9900012    2    1    2    0    0  0.12779297783E+02 -0.29269259781E+01  0.43095662284E+02  0.46142318129E+02  0.10000003355E+02 0.  0.
         12    1    1    2    0    0 -0.12779297783E+02  0.29269259781E+01 -0.43095662284E+02  0.45045681871E+02  0.00000000000E+00 0. -1.
         11    1    3    3    0    0  0.14408528062E+01 -0.15525117575E+01  0.57124349195E+01  0.60924758954E+01  0.51100000000E-03 0. -1.
        -11    1    3    3    0    0  0.12049535603E+02 -0.19545792987E+01  0.27060504635E+02  0.29686404293E+02  0.51100000000E-03 0.  1.
         12    1    3    3    0    0 -0.71109062604E+00  0.58016507799E+00  0.10322722730E+02  0.10363437941E+02  0.00000000000E+00 0. -1.
</event>
<event>
 7    1  0.2395003E-008  0.4614232E+02  0.7816164E-02  0.1320468E+00
        -11   -1    0    0    0    0  0.00000000000E+00  0.00000000000E+00  0.45593999997E+02  0.45594000000E+02  0.51100000000E-03 0.  1.
         11   -1    0    0    0    0 -0.00000000000E+00 -0.00000000000E+00 -0.45593999997E+02  0.45594000000E+02  0.51100000000E-03 0. -1.
    9900012    2    1    2    0    0 -0.43897177007E+02  0.73245226536E+01  0.69643875335E+01  0.46142317910E+02  0.10000001354E+02 0.  0.
         12    1    1    2    0    0  0.43897177007E+02 -0.73245226536E+01 -0.69643875335E+01  0.45045682090E+02  0.00000000000E+00 0. -1.
         11    1    3    3    0    0 -0.32155573488E+01  0.19023945340E+01  0.17716859824E+00  0.37403613461E+01  0.51100000000E-03 0. -1.
        -11    1    3    3    0    0 -0.12428970920E+01 -0.35375138252E+00 -0.11847336778E+01  0.17531478461E+01  0.51100000000E-03 0.  1.
        -12    1    3    3    0    0 -0.39438722566E+02  0.57758795021E+01  0.79719526130E+01  0.40648808717E+02  0.00000000000E+00 0.  1.
</event>
<event>
 7    1  0.2395003E-008  0.4614232E+02  0.7816164E-02  0.1320468E+00
        -11   -1    0    0    0    0  0.00000000000E+00  0.00000000000E+00  0.45593999997E+02  0.45594000000E+02  0.51100000000E-03 0. -1.
         11   -1    0    0    0    0 -0.00000000000E+00 -0.00000000000E+00 -0.45593999997E+02  0.45594000000E+02  0.51100000000E-03 0.  1.
    9900012    2    1    2    0    0 -0.29679249121E+01 -0.40776617342E+02 -0.18909579133E+02  0.46142320039E+02  0.10000020770E+02 0.  0.
         12    1    1    2    0    0  0.29679249121E+01  0.40776617342E+02  0.18909579133E+02  0.45045679961E+02  0.00000000000E+00 0. -1.
         11    1    3    3    0    0 -0.31285496397E+01 -0.49441829444E+01 -0.31777822817E+01  0.66581580281E+01  0.51100000000E-03 0. -1.
        -11    1    3    3    0    0 -0.13999105743E+01 -0.33487212570E+01 -0.23092594787E+01  0.43019022855E+01  0.51100000000E-03 0.  1.
         12    1    3    3    0    0  0.15605353020E+01 -0.32483713141E+02 -0.13422537373E+02  0.35182259725E+02  0.00000000000E+00 0. -1.
</event>
<event>
 7    1  0.2395003E-008  0.4614232E+02  0.7816164E-02  0.1320468E+00
        -11   -1    0    0    0    0  0.00000000000E+00  0.00000000000E+00  0.45593999997E+02  0.45594000000E+02  0.51100000000E-03 0.  1.
         11   -1    0    0    0    0 -0.00000000000E+00 -0.00000000000E+00 -0.45593999997E+02  0.45594000000E+02  0.51100000000E-03 0. -1.
    9900012    2    1    2    0    0 -0.18057096599E+00  0.25012654759E+01  0.44975822246E+02  0.46142317393E+02  0.99999966401E+01 0.  0.
         12    1    1    2    0    0  0.18057096599E+00 -0.25012654759E+01 -0.44975822246E+02  0.45045682607E+02  0.00000000000E+00 0. -1.
         11    1    3    3    0    0 -0.21019686654E+01 -0.16745820709E+01  0.94039791284E+01  0.97804560779E+01  0.51100000000E-03 0. -1.
        -11    1    3    3    0    0  0.31533891902E+01  0.24256832362E+01  0.11006474337E+02  0.11703430273E+02  0.51100000000E-03 0.  1.
        -12    1    3    3    0    0 -0.12319914908E+01  0.17501643106E+01  0.24565368780E+02  0.24658431042E+02  0.00000000000E+00 0.  1.
</event>
<event>
 7    1  0.2395003E-008  0.4614232E+02  0.7816164E-02  0.1320468E+00
        -11   -1    0    0    0    0  0.00000000000E+00  0.00000000000E+00  0.45593999997E+02  0.45594000000E+02  0.51100000000E-03 0.  1.
         11   -1    0    0    0    0 -0.00000000000E+00 -0.00000000000E+00 -0.45593999997E+02  0.45594000000E+02  0.51100000000E-03 0. -1.
    9900012    2    1    2    0    0 -0.26897317502E+02  0.35254138183E+02  0.79242485407E+01  0.46142315825E+02  0.99999823462E+01 0.  0.
         12    1    1    2    0    0  0.26897317502E+02 -0.35254138183E+02 -0.79242485407E+01  0.45045684175E+02  0.00000000000E+00 0. -1.
         11    1    3    3    0    0 -0.12965346076E+02  0.13830584173E+02  0.28963009637E+01  0.19177429884E+02  0.51100000000E-03 0. -1.
        -11    1    3    3    0    0 -0.79023756910E+01  0.10011800168E+02  0.58492898272E+01  0.14032030356E+02  0.51100000000E-03 0.  1.
         12    1    3    3    0    0 -0.60295957349E+01  0.11411753843E+02 -0.82134225020E+00  0.12932855585E+02  0.00000000000E+00 0. -1.
</event>
<event>
 7    1  0.2395003E-008  0.4614232E+02  0.7816164E-02  0.1320468E+00
        -11   -1    0    0    0    0  0.00000000000E+00  0.00000000000E+00  0.45593999997E+02  0.45594000000E+02  0.51100000000E-03 0.  1.
         11   -1    0    0    0    0 -0.00000000000E+00 -0.00000000000E+00 -0.45593999997E+02  0.45594000000E+02  0.51100000000E-03 0. -1.
    9900012    2    1    2    0    0  0.34059515949E+02 -0.26246439000E+02 -0.13423386327E+02  0.46142317772E+02  0.10000000100E+02 0.  0.
         12    1    1    2    0    0 -0.34059515949E+02  0.26246439000E+02  0.13423386327E+02  0.45045682228E+02  0.00000000000E+00 0. -1.
         11    1    3    3    0    0  0.21421985701E+00 -0.24963990321E+00 -0.96762530777E+00  0.10220123413E+01  0.51100000000E-03 0. -1.
        -11    1    3    3    0    0  0.34048957181E+02 -0.26147766533E+02 -0.12698532914E+02  0.44769296601E+02  0.51100000000E-03 0.  1.
        -12    1    3    3    0    0 -0.20366108894E+00  0.15096743528E+00  0.24277189426E+00  0.35100882938E+00  0.00000000000E+00 0.  1.
</event>
<event>
 7    1  0.2395003E-008  0.4614232E+02  0.7816164E-02  0.1320468E+00
        -11   -1    0    0    0    0  0.00000000000E+00  0.00000000000E+00  0.45593999997E+02  0.45594000000E+02  0.51100000000E-03 0.  1.
         11   -1    0    0    0    0 -0.00000000000E+00 -0.00000000000E+00 -0.45593999997E+02  0.45594000000E+02  0.51100000000E-03 0. -1.
    9900012    2    1    2    0    0 -0.35742651222E+02 -0.25515513826E+01  0.27295896884E+02  0.46142317437E+02  0.99999970465E+01 0.  0.
         12    1    1    2    0    0  0.35742651222E+02  0.25515513826E+01 -0.27295896884E+02  0.45045682563E+02  0.00000000000E+00 0. -1.
         11    1    3    3    0    0 -0.57851030501E+00 -0.29538712534E+00 -0.30367190433E+00  0.71703878097E+00  0.51100000000E-03 0. -1.
        -11    1    3    3    0    0 -0.30183953938E+02 -0.33681711478E+01  0.20345413922E+02  0.36556142030E+02  0.51100000000E-03 0.  1.
        -12    1    3    3    0    0 -0.49801869796E+01  0.11120068905E+01  0.72541548657E+01  0.88691366260E+01  0.00000000000E+00 0.  1.
</event>
<event>
 7    1  0.2395003E-008  0.4614231E+02  0.7816164E-02  0.1320468E+00
        -11   -1    0    0    0    0  0.00000000000E+00  0.00000000000E+00  0.45593999997E+02  0.45594000000E+02  0.51100000000E-03 0.  1.
         11   -1    0    0    0    0 -0.00000000000E+00 -0.00000000000E+00 -0.45593999997E+02  0.45594000000E+02  0.51100000000E-03 0. -1.
    9900012    2    1    2    0    0 -0.37329329075E+02  0.22275749664E+02  0.11807895108E+02  0.46142309649E+02  0.99999260301E+01 0.  0.
         12    1    1    2    0    0  0.37329329075E+02 -0.22275749664E+02 -0.11807895108E+02  0.45045690351E+02  0.00000000000E+00 0. -1.
         11    1    3    3    0    0 -0.10443698671E+02  0.94313392647E+01  0.85877219506E+00  0.14098173364E+02  0.51100000000E-03 0. -1.
        -11    1    3    3    0    0 -0.10440646685E+02  0.28473246563E+01  0.48168528475E+01  0.11845523733E+02  0.51100000000E-03 0.  1.
         12    1    3    3    0    0 -0.16444983719E+02  0.99970857428E+01  0.61322700653E+01  0.20198612552E+02  0.00000000000E+00 0. -1.
</event>
<event>
 7    1  0.2395003E-008  0.4614232E+02  0.7816164E-02  0.1320468E+00
        -11   -1    0    0    0    0  0.00000000000E+00  0.00000000000E+00  0.45593999997E+02  0.45594000000E+02  0.51100000000E-03 0. -1.
         11   -1    0    0    0    0 -0.00000000000E+00 -0.00000000000E+00 -0.45593999997E+02  0.45594000000E+02  0.51100000000E-03 0.  1.
    9900012    2    1    2    0    0 -0.24499787150E+02 -0.33996519232E+02 -0.16526057805E+02  0.46142317889E+02  0.10000001165E+02 0.  0.
         12    1    1    2    0    0  0.24499787150E+02  0.33996519232E+02  0.16526057805E+02  0.45045682111E+02  0.00000000000E+00 0. -1.
         11    1    3    3    0    0 -0.87743779014E+01 -0.16165298263E+02 -0.67144689447E+01  0.19580364373E+02  0.51100000000E-03 0. -1.
        -11    1    3    3    0    0 -0.66951102557E+01 -0.12508053360E+02 -0.60797764000E+01  0.15435011550E+02  0.51100000000E-03 0.  1.
         12    1    3    3    0    0 -0.90302989932E+01 -0.53231676082E+01 -0.37318124600E+01  0.11126941967E+02  0.00000000000E+00 0. -1.
</event>
<event>
 7    1  0.2395003E-008  0.4614231E+02  0.7816164E-02  0.1320468E+00
        -11   -1    0    0    0    0  0.00000000000E+00  0.00000000000E+00  0.45593999997E+02  0.45594000000E+02  0.51100000000E-03 0.  1.
         11   -1    0    0    0    0 -0.00000000000E+00 -0.00000000000E+00 -0.45593999997E+02  0.45594000000E+02  0.51100000000E-03 0. -1.
    9900012    2    1    2    0    0  0.43453168623E+02 -0.11501878853E+02  0.29398906173E+01  0.46142311668E+02  0.99999444347E+01 0.  0.
         12    1    1    2    0    0 -0.43453168623E+02  0.11501878853E+02 -0.29398906173E+01  0.45045688332E+02  0.00000000000E+00 0. -1.
         11    1    3    3    0    0  0.30007225413E+02 -0.86808047537E+01 -0.15521778866E+01  0.31276176311E+02  0.51100000000E-03 0. -1.
        -11    1    3    3    0    0  0.19736648910E+01 -0.47213303021E+00 -0.57104625704E+00  0.21081643174E+01  0.51100000000E-03 0.  1.
         12    1    3    3    0    0  0.11472278319E+02 -0.23489410687E+01  0.50631147610E+01  0.12757971040E+02  0.00000000000E+00 0. -1.
</event>
<event>
 7    1  0.2395003E-008  0.4614232E+02  0.7816164E-02  0.1320468E+00
        -11   -1    0    0    0    0  0.00000000000E+00  0.00000000000E+00  0.45593999997E+02  0.45594000000E+02  0.51100000000E-03 0. -1.
         11   -1    0    0    0    0 -0.00000000000E+00 -0.00000000000E+00 -0.45593999997E+02  0.45594000000E+02  0.51100000000E-03 0.  1.
    9900012    2    1    2    0    0  0.35336745015E+01  0.44756828600E+02 -0.36678241379E+01  0.46142317680E+02  0.99999992566E+01 0.  0.
         12    1    1    2    0    0 -0.35336745015E+01 -0.44756828600E+02  0.36678241379E+01  0.45045682320E+02  0.00000000000E+00 0. -1.
         11    1    3    3    0    0  0.23436103070E+01  0.22037200305E+02  0.21481016761E+01  0.22265332866E+02  0.51100000000E-03 0. -1.
        -11    1    3    3    0    0  0.24278176611E+01  0.11686008064E+02 -0.42223129878E+01  0.12660371649E+02  0.51100000000E-03 0.  1.
        -12    1    3    3    0    0 -0.12377534666E+01  0.11033620231E+02 -0.15936128262E+01  0.11216613165E+02  0.00000000000E+00 0.  1.
</event>
<event>
 7    1  0.2395003E-008  0.4614232E+02  0.7816164E-02  0.1320468E+00
        -11   -1    0    0    0    0  0.00000000000E+00  0.00000000000E+00  0.45593999997E+02  0.45594000000E+02  0.51100000000E-03 0.  1.
         11   -1    0    0    0    0 -0.00000000000E+00 -0.00000000000E+00 -0.45593999997E+02  0.45594000000E+02  0.51100000000E-03 0. -1.
    9900012    2    1    2    0    0 -0.18344166939E+02 -0.40394400033E+02  0.78036856259E+01  0.46142317365E+02  0.99999963835E+01 0.  0.
         12    1    1    2    0    0  0.18344166939E+02  0.40394400033E+02 -0.78036856259E+01  0.45045682635E+02  0.00000000000E+00 0. -1.
         11    1    3    3    0    0 -0.10877087219E+02 -0.13767326169E+02  0.47838018985E+01  0.18186122651E+02  0.51100000000E-03 0.  1.
        -11    1    3    3    0    0 -0.51927556601E+00 -0.10701251265E+01 -0.39296169442E+00  0.12526907257E+01  0.51100000000E-03 0. -1.
        -12    1    3    3    0    0 -0.69478041541E+01 -0.25556948737E+02  0.34128454218E+01  0.26703503987E+02  0.00000000000E+00 0.  1.
</event>
<event>
 7    1  0.2395003E-008  0.4614232E+02  0.7816164E-02  0.1320468E+00
        -11   -1    0    0    0    0  0.00000000000E+00  0.00000000000E+00  0.45593999997E+02  0.45594000000E+02  0.51100000000E-03 0.  1.
         11   -1    0    0    0    0 -0.00000000000E+00 -0.00000000000E+00 -0.45593999997E+02  0.45594000000E+02  0.51100000000E-03 0. -1.
    9900012    2    1    2    0    0 -0.26054426158E+02  0.15683328419E+02  0.33231213394E+02  0.46142318116E+02  0.10000003239E+02 0.  0.
         12    1    1    2    0    0  0.26054426158E+02 -0.15683328419E+02 -0.33231213394E+02  0.45045681884E+02  0.00000000000E+00 0. -1.
         11    1    3    3    0    0 -0.10883759136E+01  0.10939864246E+01  0.21968318420E+01  0.26846673593E+01  0.51100000000E-03 0. -1.
        -11    1    3    3    0    0 -0.39030954472E+01  0.69261014184E+01  0.93242347697E+01  0.12253423572E+02  0.51100000000E-03 0.  1.
        -12    1    3    3    0    0 -0.21062954797E+02  0.76632405758E+01  0.21710146782E+02  0.31204227185E+02  0.00000000000E+00 0.  1.
</event>
<event>
 7    1  0.2395003E-008  0.4614232E+02  0.7816164E-02  0.1320468E+00
        -11   -1    0    0    0    0  0.00000000000E+00  0.00000000000E+00  0.45593999997E+02  0.45594000000E+02  0.51100000000E-03 0.  1.
         11   -1    0    0    0    0 -0.00000000000E+00 -0.00000000000E+00 -0.45593999997E+02  0.45594000000E+02  0.51100000000E-03 0. -1.
    9900012    2    1    2    0    0  0.42594915344E+02  0.76076909564E+01  0.12526363396E+02  0.46142317024E+02  0.99999932812E+01 0.  0.
         12    1    1    2    0    0 -0.42594915344E+02 -0.76076909564E+01 -0.12526363396E+02  0.45045682976E+02  0.00000000000E+00 0. -1.
         11    1    3    3    0    0  0.28762864205E+01  0.16177060650E+01  0.11883984699E+00  0.33021386488E+01  0.51100000000E-03 0. -1.
        -11    1    3    3    0    0  0.23421248092E+01  0.17916754783E-01 -0.11825314622E+01  0.26237855385E+01  0.51100000000E-03 0.  1.
        -12    1    3    3    0    0  0.37376504114E+02  0.59720681366E+01  0.13590055011E+02  0.40216392837E+02  0.00000000000E+00 0.  1.
</event>
<event>
 7    1  0.2395003E-008  0.4614232E+02  0.7816164E-02  0.1320468E+00
        -11   -1    0    0    0    0  0.00000000000E+00  0.00000000000E+00  0.45593999997E+02  0.45594000000E+02  0.51100000000E-03 0.  1.
         11   -1    0    0    0    0 -0.00000000000E+00 -0.00000000000E+00 -0.45593999997E+02  0.45594000000E+02  0.51100000000E-03 0. -1.
    9900012    2    1    2    0    0  0.37415032474E+02  0.23849265460E+02  0.77744048526E+01  0.46142317756E+02  0.99999999561E+01 0.  0.
         12    1    1    2    0    0 -0.37415032474E+02 -0.23849265460E+02 -0.77744048526E+01  0.45045682244E+02  0.00000000000E+00 0. -1.
         11    1    3    3    0    0  0.71503656627E+01  0.85810827194E+01  0.94375505819E+00  0.11209522007E+02  0.51100000000E-03 0. -1.
        -11    1    3    3    0    0  0.25906851151E+02  0.12776714665E+02  0.39770815912E+01  0.29158644558E+02  0.51100000000E-03 0.  1.
        -12    1    3    3    0    0  0.43578156602E+01  0.24914680754E+01  0.28535682032E+01  0.57741511921E+01  0.00000000000E+00 0.  1.
</event>
<event>
 7    1  0.2395003E-008  0.4614232E+02  0.7816164E-02  0.1320468E+00
        -11   -1    0    0    0    0  0.00000000000E+00  0.00000000000E+00  0.45593999997E+02  0.45594000000E+02  0.51100000000E-03 0.  1.
         11   -1    0    0    0    0 -0.00000000000E+00 -0.00000000000E+00 -0.45593999997E+02  0.45594000000E+02  0.51100000000E-03 0. -1.
    9900012    2    1    2    0    0  0.37279215331E+02  0.46404305259E+00  0.25281580162E+02  0.46142317331E+02  0.99999960811E+01 0.  0.
         12    1    1    2    0    0 -0.37279215331E+02 -0.46404305259E+00 -0.25281580162E+02  0.45045682669E+02  0.00000000000E+00 0. -1.
         11    1    3    3    0    0  0.10030595872E+02 -0.40745585491E+01  0.62901380953E+01  0.12521210742E+02  0.51100000000E-03 0. -1.
        -11    1    3    3    0    0  0.17240596740E+02  0.24881520001E+01  0.13385292426E+02  0.21968047932E+02  0.51100000000E-03 0.  1.
        -12    1    3    3    0    0  0.10008022718E+02  0.20504496016E+01  0.56061496402E+01  0.11653058658E+02  0.00000000000E+00 0.  1.
</event>
<event>
 7    1  0.2395003E-008  0.4614232E+02  0.7816164E-02  0.1320468E+00
        -11   -1    0    0    0    0  0.00000000000E+00  0.00000000000E+00  0.45593999997E+02  0.45594000000E+02  0.51100000000E-03 0.  1.
         11   -1    0    0    0    0 -0.00000000000E+00 -0.00000000000E+00 -0.45593999997E+02  0.45594000000E+02  0.51100000000E-03 0. -1.
    9900012    2    1    2    0    0  0.35454469182E+02  0.18176435215E+02  0.21016928278E+02  0.46142318117E+02  0.10000003241E+02 0.  0.
         12    1    1    2    0    0 -0.35454469182E+02 -0.18176435215E+02 -0.21016928278E+02  0.45045681883E+02  0.00000000000E+00 0. -1.
         11    1    3    3    0    0  0.94545462597E+01  0.33215643823E+01  0.54985989749E+01  0.11430477937E+02  0.51100000000E-03 0. -1.
        -11    1    3    3    0    0  0.21592475785E+02  0.87624654151E+01  0.13480931292E+02  0.26921205757E+02  0.51100000000E-03 0.  1.
         12    1    3    3    0    0  0.44074471375E+01  0.60924054176E+01  0.20373980110E+01  0.77906344220E+01  0.00000000000E+00 0. -1.
</event>
<event>
 7    1  0.2395003E-008  0.4614232E+02  0.7816164E-02  0.1320468E+00
        -11   -1    0    0    0    0  0.00000000000E+00  0.00000000000E+00  0.45593999997E+02  0.45594000000E+02  0.51100000000E-03 0. -1.
         11   -1    0    0    0    0 -0.00000000000E+00 -0.00000000000E+00 -0.45593999997E+02  0.45594000000E+02  0.51100000000E-03 0.  1.
    9900012    2    1    2    0    0  0.30556265884E+02 -0.23288829689E+02 -0.23517196333E+02  0.46142317672E+02  0.99999991842E+01 0.  0.
         12    1    1    2    0    0 -0.30556265884E+02  0.23288829689E+02  0.23517196333E+02  0.45045682328E+02  0.00000000000E+00 0. -1.
         11    1    3    3    0    0  0.42820693429E+01 -0.18134860366E+01 -0.99761646375E+00  0.47560580665E+01  0.51100000000E-03 0. -1.
        -11    1    3    3    0    0  0.86676929082E+01 -0.58544796749E+01 -0.32077472087E+01  0.10940451318E+02  0.51100000000E-03 0.  1.
         12    1    3    3    0    0  0.17606503633E+02 -0.15620863977E+02 -0.19311832660E+02  0.30445808288E+02  0.00000000000E+00 0. -1.
</event>
<event>
 7    1  0.2395003E-008  0.4614232E+02  0.7816164E-02  0.1320468E+00
        -11   -1    0    0    0    0  0.00000000000E+00  0.00000000000E+00  0.45593999997E+02  0.45594000000E+02  0.51100000000E-03 0.  1.
         11   -1    0    0    0    0 -0.00000000000E+00 -0.00000000000E+00 -0.45593999997E+02  0.45594000000E+02  0.51100000000E-03 0. -1.
    9900012    2    1    2    0    0 -0.23860462954E+02 -0.67975305984E+01  0.37597670808E+02  0.46142323573E+02  0.10000052995E+02 0.  0.
         12    1    1    2    0    0  0.23860462954E+02  0.67975305984E+01 -0.37597670808E+02  0.45045676427E+02  0.00000000000E+00 0. -1.
         11    1    3    3    0    0 -0.12527320203E+02 -0.10133689986E+01  0.16081331730E+02  0.20410044064E+02  0.51100000000E-03 0. -1.
        -11    1    3    3    0    0 -0.10961295143E+02 -0.30929686443E+01  0.17030937235E+02  0.20488271514E+02  0.51100000000E-03 0.  1.
        -12    1    3    3    0    0 -0.37184760747E+00 -0.26911929555E+01  0.44854018427E+01  0.52440079955E+01  0.00000000000E+00 0.  1.
</event>
<event>
 7    1  0.2395003E-008  0.4614232E+02  0.7816164E-02  0.1320468E+00
        -11   -1    0    0    0    0  0.00000000000E+00  0.00000000000E+00  0.45593999997E+02  0.45594000000E+02  0.51100000000E-03 0.  1.
         11   -1    0    0    0    0 -0.00000000000E+00 -0.00000000000E+00 -0.45593999997E+02  0.45594000000E+02  0.51100000000E-03 0. -1.
    9900012    2    1    2    0    0  0.70222766220E+01 -0.24549275750E+02  0.37109758604E+02  0.46142317716E+02  0.99999995862E+01 0.  0.
         12    1    1    2    0    0 -0.70222766220E+01  0.24549275750E+02 -0.37109758604E+02  0.45045682284E+02  0.00000000000E+00 0. -1.
         11    1    3    3    0    0  0.78782799592E+00 -0.24671274874E+00  0.10500860704E+01  0.13357474118E+01  0.51100000000E-03 0. -1.
        -11    1    3    3    0    0  0.67256367935E+00 -0.87608408517E+01  0.64264068577E+01  0.10885925762E+02  0.51100000000E-03 0.  1.
        -12    1    3    3    0    0  0.55618849467E+01 -0.15541722150E+02  0.29633265676E+02  0.33920644542E+02  0.00000000000E+00 0.  1.
</event>
<event>
 7    1  0.2395003E-008  0.4614232E+02  0.7816164E-02  0.1320468E+00
        -11   -1    0    0    0    0  0.00000000000E+00  0.00000000000E+00  0.45593999997E+02  0.45594000000E+02  0.51100000000E-03 0.  1.
         11   -1    0    0    0    0 -0.00000000000E+00 -0.00000000000E+00 -0.45593999997E+02  0.45594000000E+02  0.51100000000E-03 0. -1.
    9900012    2    1    2    0    0 -0.15125546363E+02 -0.13978807975E+02  0.40061505592E+02  0.46142318126E+02  0.10000003332E+02 0.  0.
         12    1    1    2    0    0  0.15125546363E+02  0.13978807975E+02 -0.40061505592E+02  0.45045681874E+02  0.00000000000E+00 0. -1.
         11    1    3    3    0    0 -0.19809689446E+00 -0.34179806971E+00  0.11041956955E+00  0.41019634630E+00  0.51100000000E-03 0. -1.
        -11    1    3    3    0    0 -0.75122285886E+01 -0.28388132020E+01  0.22650174083E+02  0.24031704580E+02  0.51100000000E-03 0.  1.
        -12    1    3    3    0    0 -0.74152208795E+01 -0.10798196703E+02  0.17300911939E+02  0.21700417200E+02  0.00000000000E+00 0.  1.
</event>
<event>
 7    1  0.2395003E-008  0.4614232E+02  0.7816164E-02  0.1320468E+00
        -11   -1    0    0    0    0  0.00000000000E+00  0.00000000000E+00  0.45593999997E+02  0.45594000000E+02  0.51100000000E-03 0.  1.
         11   -1    0    0    0    0 -0.00000000000E+00 -0.00000000000E+00 -0.45593999997E+02  0.45594000000E+02  0.51100000000E-03 0. -1.
    9900012    2    1    2    0    0  0.72350354044E+01 -0.13324408892E+02  0.42417305919E+02  0.46142318175E+02  0.10000003777E+02 0.  0.
         12    1    1    2    0    0 -0.72350354044E+01  0.13324408892E+02 -0.42417305919E+02  0.45045681825E+02  0.00000000000E+00 0. -1.
         11    1    3    3    0    0  0.26572957655E+01 -0.14207061472E+01  0.13497353405E+02  0.13829612284E+02  0.51100000000E-03 0. -1.
        -11    1    3    3    0    0  0.45076118276E+01 -0.28005152252E+01  0.10982714144E+02  0.12197600590E+02  0.51100000000E-03 0.  1.
        -12    1    3    3    0    0  0.70127811318E-01 -0.91031875196E+01  0.17937238370E+02  0.20115105301E+02  0.00000000000E+00 0.  1.
</event>
<event>
 7    1  0.2395003E-008  0.4614232E+02  0.7816164E-02  0.1320468E+00
        -11   -1    0    0    0    0  0.00000000000E+00  0.00000000000E+00  0.45593999997E+02  0.45594000000E+02  0.51100000000E-03 0.  1.
         11   -1    0    0    0    0 -0.00000000000E+00 -0.00000000000E+00 -0.45593999997E+02  0.45594000000E+02  0.51100000000E-03 0. -1.
    9900012    2    1    2    0    0 -0.35554530874E+02 -0.27012269963E+02  0.59435745819E+01  0.46142317931E+02  0.10000001551E+02 0.  0.
         12    1    1    2    0    0  0.35554530874E+02  0.27012269963E+02 -0.59435745819E+01  0.45045682069E+02  0.00000000000E+00 0. -1.
         11    1    3    3    0    0 -0.63558904655E+01 -0.92503596483E+01  0.10145161244E+01  0.11269238682E+02  0.51100000000E-03 0. -1.
        -11    1    3    3    0    0 -0.16292614503E+02 -0.74009358976E+01  0.13911357277E+01  0.17948771500E+02  0.51100000000E-03 0.  1.
        -12    1    3    3    0    0 -0.12906025906E+02 -0.10360974417E+02  0.35379227299E+01  0.16924307749E+02  0.00000000000E+00 0.  1.
</event>
<event>
 7    1  0.2395003E-008  0.4614232E+02  0.7816164E-02  0.1320468E+00
        -11   -1    0    0    0    0  0.00000000000E+00  0.00000000000E+00  0.45593999997E+02  0.45594000000E+02  0.51100000000E-03 0.  1.
         11   -1    0    0    0    0 -0.00000000000E+00 -0.00000000000E+00 -0.45593999997E+02  0.45594000000E+02  0.51100000000E-03 0. -1.
    9900012    2    1    2    0    0  0.33571724441E+02 -0.11262074708E+02  0.27842742603E+02  0.46142319582E+02  0.10000016606E+02 0.  0.
         12    1    1    2    0    0 -0.33571724441E+02  0.11262074708E+02 -0.27842742603E+02  0.45045680418E+02  0.00000000000E+00 0. -1.
         11    1    3    3    0    0  0.25580842777E+02 -0.97550652051E+01  0.16496946721E+02  0.31963886899E+02  0.51100000000E-03 0. -1.
        -11    1    3    3    0    0  0.22669440918E+01 -0.15556716256E+01  0.31428010593E+01  0.41756853907E+01  0.51100000000E-03 0.  1.
         12    1    3    3    0    0  0.57239375715E+01  0.48662122787E-01  0.82029948230E+01  0.10002747292E+02  0.00000000000E+00 0. -1.
</event>
<event>
 7    1  0.2843540E-008  0.4614232E+02  0.7816164E-02  0.1320468E+00
        -11   -1    0    0    0    0  0.00000000000E+00  0.00000000000E+00  0.45593999997E+02  0.45594000000E+02  0.51100000000E-03 0. -1.
         11   -1    0    0    0    0 -0.00000000000E+00 -0.00000000000E+00 -0.45593999997E+02  0.45594000000E+02  0.51100000000E-03 0.  1.
    9900012    2    1    2    0    0  0.30972632035E+02  0.24402270111E+02 -0.21779319380E+02  0.46142317916E+02  0.10000001412E+02 0.  0.
         12    1    1    2    0    0 -0.30972632035E+02 -0.24402270111E+02  0.21779319380E+02  0.45045682084E+02  0.00000000000E+00 0. -1.
         11    1    3    3    0    0  0.84199353993E+01  0.36268753375E+01 -0.62176358305E+01  0.11077388340E+02  0.51100000000E-03 0. -1.
        -11    1    3    3    0    0  0.16636934214E+02  0.11372074219E+02 -0.11706328164E+02  0.23305573827E+02  0.51100000000E-03 0.  1.
        -12    1    3    3    0    0  0.59157624222E+01  0.94033205549E+01 -0.38553553859E+01  0.11759355750E+02  0.00000000000E+00 0.  1.
</event>
<event>
 7    1  0.2395003E-008  0.4614232E+02  0.7816164E-02  0.1320468E+00
        -11   -1    0    0    0    0  0.00000000000E+00  0.00000000000E+00  0.45593999997E+02  0.45594000000E+02  0.51100000000E-03 0. -1.
         11   -1    0    0    0    0 -0.00000000000E+00 -0.00000000000E+00 -0.45593999997E+02  0.45594000000E+02  0.51100000000E-03 0.  1.
    9900012    2    1    2    0    0  0.22601686511E+02  0.30829735571E+02 -0.23828651641E+02  0.46142317992E+02  0.10000002107E+02 0.  0.
         12    1    1    2    0    0 -0.22601686511E+02 -0.30829735571E+02  0.23828651641E+02  0.45045682008E+02  0.00000000000E+00 0. -1.
         11    1    3    3    0    0  0.14656446314E+01  0.16946760502E+01 -0.62222824934E+00  0.23253406968E+01  0.51100000000E-03 0. -1.
        -11    1    3    3    0    0  0.37296073621E+01  0.63829120085E+01 -0.77586434049E+00  0.74332699749E+01  0.51100000000E-03 0.  1.
        -12    1    3    3    0    0  0.17406434518E+02  0.22752147512E+02 -0.22430559051E+02  0.36383707320E+02  0.00000000000E+00 0.  1.
</event>
<event>
 7    1  0.2395003E-008  0.4614232E+02  0.7816164E-02  0.1320468E+00
        -11   -1    0    0    0    0  0.00000000000E+00  0.00000000000E+00  0.45593999997E+02  0.45594000000E+02  0.51100000000E-03 0.  1.
         11   -1    0    0    0    0 -0.00000000000E+00 -0.00000000000E+00 -0.45593999997E+02  0.45594000000E+02  0.51100000000E-03 0. -1.
    9900012    2    1    2    0    0 -0.13062908179E+02  0.33587517895E+02  0.27025035217E+02  0.46142318110E+02  0.10000003184E+02 0.  0.
         12    1    1    2    0    0  0.13062908179E+02 -0.33587517895E+02 -0.27025035217E+02  0.45045681890E+02  0.00000000000E+00 0. -1.
         11    1    3    3    0    0 -0.41908818589E+00 -0.25405119805E+00 -0.52750297944E-01  0.49290949863E+00  0.51100000000E-03 0. -1.
        -11    1    3    3    0    0 -0.64536527185E+00  0.93312129221E+00  0.28272171651E+01  0.30463697805E+01  0.51100000000E-03 0.  1.
        -12    1    3    3    0    0 -0.11998454721E+02  0.32908447801E+02  0.24250568350E+02  0.42603038831E+02  0.00000000000E+00 0.  1.
</event>
<event>
 7    1  0.2395003E-008  0.4614232E+02  0.7816164E-02  0.1320468E+00
        -11   -1    0    0    0    0  0.00000000000E+00  0.00000000000E+00  0.45593999997E+02  0.45594000000E+02  0.51100000000E-03 0.  1.
         11   -1    0    0    0    0 -0.00000000000E+00 -0.00000000000E+00 -0.45593999997E+02  0.45594000000E+02  0.51100000000E-03 0. -1.
    9900012    2    1    2    0    0  0.15934981946E+02  0.23683614934E+02  0.34846466873E+02  0.46142317415E+02  0.99999968483E+01 0.  0.
         12    1    1    2    0    0 -0.15934981946E+02 -0.23683614934E+02 -0.34846466873E+02  0.45045682585E+02  0.00000000000E+00 0. -1.
         11    1    3    3    0    0  0.18955236472E+01 -0.16775958689E-01  0.17768316385E+01  0.25981574745E+01  0.51100000000E-03 0. -1.
        -11    1    3    3    0    0  0.14431604117E+02  0.22297387728E+02  0.32517885383E+02  0.41986397403E+02  0.51100000000E-03 0.  1.
         12    1    3    3    0    0 -0.39214581779E+00  0.14030031656E+01  0.55174985095E+00  0.15577625375E+01  0.00000000000E+00 0. -1.
</event>
<event>
 7    1  0.2395003E-008  0.4614232E+02  0.7816164E-02  0.1320468E+00
        -11   -1    0    0    0    0  0.00000000000E+00  0.00000000000E+00  0.45593999997E+02  0.45594000000E+02  0.51100000000E-03 0.  1.
         11   -1    0    0    0    0 -0.00000000000E+00 -0.00000000000E+00 -0.45593999997E+02  0.45594000000E+02  0.51100000000E-03 0. -1.
    9900012    2    1    2    0    0 -0.13068761831E+02 -0.33324984387E+02  0.27345321601E+02  0.46142315038E+02  0.99999751710E+01 0.  0.
         12    1    1    2    0    0  0.13068761831E+02  0.33324984387E+02 -0.27345321601E+02  0.45045684962E+02  0.00000000000E+00 0. -1.
         11    1    3    3    0    0 -0.58644935471E+01 -0.59649626306E+01  0.40348857267E+01  0.92872690732E+01  0.51100000000E-03 0. -1.
        -11    1    3    3    0    0 -0.81753811097E+00 -0.59342766950E+00  0.10860171508E+01  0.14832256992E+01  0.51100000000E-03 0.  1.
        -12    1    3    3    0    0 -0.63867301733E+01 -0.26766594087E+02  0.22224418724E+02  0.35371820266E+02  0.00000000000E+00 0.  1.
</event>
<event>
 7    1  0.2395003E-008  0.4614232E+02  0.7816164E-02  0.1320468E+00
        -11   -1    0    0    0    0  0.00000000000E+00  0.00000000000E+00  0.45593999997E+02  0.45594000000E+02  0.51100000000E-03 0. -1.
         11   -1    0    0    0    0 -0.00000000000E+00 -0.00000000000E+00 -0.45593999997E+02  0.45594000000E+02  0.51100000000E-03 0.  1.
    9900012    2    1    2    0    0 -0.42485007989E+02  0.43195215050E+01 -0.14334548808E+02  0.46142318083E+02  0.10000002936E+02 0.  0.
         12    1    1    2    0    0  0.42485007989E+02 -0.43195215050E+01  0.14334548808E+02  0.45045681917E+02  0.00000000000E+00 0. -1.
         11    1    3    3    0    0 -0.11047380079E+02 -0.92812070359E+00 -0.18300971335E+01  0.11236337056E+02  0.51100000000E-03 0. -1.
        -11    1    3    3    0    0 -0.23924962744E+02  0.65399848392E+01 -0.80472905879E+01  0.26075546592E+02  0.51100000000E-03 0.  1.
         12    1    3    3    0    0 -0.75126651654E+01 -0.12923426306E+01 -0.44571610863E+01  0.88304344351E+01  0.00000000000E+00 0. -1.
</event>
<event>
 7    1  0.2395003E-008  0.4614232E+02  0.7816164E-02  0.1320468E+00
        -11   -1    0    0    0    0  0.00000000000E+00  0.00000000000E+00  0.45593999997E+02  0.45594000000E+02  0.51100000000E-03 0. -1.
         11   -1    0    0    0    0 -0.00000000000E+00 -0.00000000000E+00 -0.45593999997E+02  0.45594000000E+02  0.51100000000E-03 0.  1.
    9900012    2    1    2    0    0  0.43036848307E+02  0.12912817149E+02 -0.31941229398E+01  0.46142316741E+02  0.99999906968E+01 0.  0.
         12    1    1    2    0    0 -0.43036848307E+02 -0.12912817149E+02  0.31941229398E+01  0.45045683259E+02  0.00000000000E+00 0. -1.
         11    1    3    3    0    0  0.83195447603E+01  0.27735191704E+01 -0.13032501815E+01  0.88659852754E+01  0.51100000000E-03 0. -1.
        -11    1    3    3    0    0  0.23418929694E+02  0.10822556062E+02  0.10549561171E-01  0.25798722823E+02  0.51100000000E-03 0.  1.
         12    1    3    3    0    0  0.11298373852E+02 -0.68325808289E+00 -0.19014223195E+01  0.11477608642E+02  0.00000000000E+00 0. -1.
</event>
<event>
 7    1  0.2395003E-008  0.4614232E+02  0.7816164E-02  0.1320468E+00
        -11   -1    0    0    0    0  0.00000000000E+00  0.00000000000E+00  0.45593999997E+02  0.45594000000E+02  0.51100000000E-03 0.  1.
         11   -1    0    0    0    0 -0.00000000000E+00 -0.00000000000E+00 -0.45593999997E+02  0.45594000000E+02  0.51100000000E-03 0. -1.
    9900012    2    1    2    0    0 -0.11794130577E+02  0.38756308581E+02  0.19696707488E+02  0.46142320332E+02  0.10000023444E+02 0.  0.
         12    1    1    2    0    0  0.11794130577E+02 -0.38756308581E+02 -0.19696707488E+02  0.45045679668E+02  0.00000000000E+00 0. -1.
         11    1    3    3    0    0 -0.73699398538E+01  0.20393804603E+02  0.13411840064E+02  0.25497073044E+02  0.51100000000E-03 0.  1.
        -11    1    3    3    0    0  0.10402798888E+01  0.93334626555E+00  0.37063491793E+00  0.14459211603E+01  0.51100000000E-03 0. -1.
         12    1    3    3    0    0 -0.54644706115E+01  0.17429157712E+02  0.59142325054E+01  0.19199326128E+02  0.00000000000E+00 0. -1.
</event>
<event>
 7    1  0.2395003E-008  0.4614232E+02  0.7816164E-02  0.1320468E+00
        -11   -1    0    0    0    0  0.00000000000E+00  0.00000000000E+00  0.45593999997E+02  0.45594000000E+02  0.51100000000E-03 0.  1.
         11   -1    0    0    0    0 -0.00000000000E+00 -0.00000000000E+00 -0.45593999997E+02  0.45594000000E+02  0.51100000000E-03 0. -1.
    9900012    2    1    2    0    0 -0.35234675473E+02  0.56059019296E+01  0.27499182409E+02  0.46142317352E+02  0.99999962651E+01 0.  0.
         12    1    1    2    0    0  0.35234675473E+02 -0.56059019296E+01 -0.27499182409E+02  0.45045682648E+02  0.00000000000E+00 0. -1.
         11    1    3    3    0    0 -0.23329383375E+02  0.32544866994E+00  0.19824475510E+02  0.30616594765E+02  0.51100000000E-03 0.  1.
        -11    1    3    3    0    0 -0.11111691677E+02  0.38196223228E+01  0.61136965765E+01  0.13245244155E+02  0.51100000000E-03 0. -1.
        -12    1    3    3    0    0 -0.79360042071E+00  0.14608309368E+01  0.15610103225E+01  0.22804784324E+01  0.00000000000E+00 0.  1.
</event>
<event>
 7    1  0.2395003E-008  0.4614232E+02  0.7816164E-02  0.1320468E+00
        -11   -1    0    0    0    0  0.00000000000E+00  0.00000000000E+00  0.45593999997E+02  0.45594000000E+02  0.51100000000E-03 0.  1.
         11   -1    0    0    0    0 -0.00000000000E+00 -0.00000000000E+00 -0.45593999997E+02  0.45594000000E+02  0.51100000000E-03 0. -1.
    9900012    2    1    2    0    0 -0.34924866051E+01 -0.86812112032E+01  0.44063052957E+02  0.46142317337E+02  0.99999961335E+01 0.  0.
         12    1    1    2    0    0  0.34924866051E+01  0.86812112032E+01 -0.44063052957E+02  0.45045682663E+02  0.00000000000E+00 0. -1.
         11    1    3    3    0    0 -0.51743317692E+00 -0.11097341438E+01  0.17541869106E+00  0.12369393440E+01  0.51100000000E-03 0. -1.
        -11    1    3    3    0    0 -0.11658892674E+01  0.37303709335E+00  0.36107273466E+01  0.38125853026E+01  0.51100000000E-03 0.  1.
        -12    1    3    3    0    0 -0.18091641608E+01 -0.79445141527E+01  0.40276906920E+02  0.41092792690E+02  0.00000000000E+00 0.  1.
</event>
<event>
 7    1  0.2395003E-008  0.4614232E+02  0.7816164E-02  0.1320468E+00
        -11   -1    0    0    0    0  0.00000000000E+00  0.00000000000E+00  0.45593999997E+02  0.45594000000E+02  0.51100000000E-03 0. -1.
         11   -1    0    0    0    0 -0.00000000000E+00 -0.00000000000E+00 -0.45593999997E+02  0.45594000000E+02  0.51100000000E-03 0.  1.
    9900012    2    1    2    0    0  0.84829201162E+01 -0.12321981472E+02 -0.42489084605E+02  0.46142317946E+02  0.10000001690E+02 0.  0.
         12    1    1    2    0    0 -0.84829201162E+01  0.12321981472E+02  0.42489084605E+02  0.45045682054E+02  0.00000000000E+00 0. -1.
         11    1    3    3    0    0  0.12888960780E+01 -0.27239400889E+01 -0.10163071630E+02  0.10600430554E+02  0.51100000000E-03 0. -1.
        -11    1    3    3    0    0 -0.18994559990E+01 -0.26140012020E+01 -0.57032274652E+01  0.65549781965E+01  0.51100000000E-03 0.  1.
         12    1    3    3    0    0  0.90934800372E+01 -0.69840401809E+01 -0.26622785510E+02  0.28986909196E+02  0.00000000000E+00 0. -1.
</event>
<event>
 7    1  0.2395003E-008  0.4614232E+02  0.7816164E-02  0.1320468E+00
        -11   -1    0    0    0    0  0.00000000000E+00  0.00000000000E+00  0.45593999997E+02  0.45594000000E+02  0.51100000000E-03 0. -1.
         11   -1    0    0    0    0 -0.00000000000E+00 -0.00000000000E+00 -0.45593999997E+02  0.45594000000E+02  0.51100000000E-03 0.  1.
    9900012    2    1    2    0    0  0.21090103070E+02 -0.39147240605E+02  0.71982343122E+01  0.46142317947E+02  0.10000001692E+02 0.  0.
         12    1    1    2    0    0 -0.21090103070E+02  0.39147240605E+02 -0.71982343122E+01  0.45045682053E+02  0.00000000000E+00 0. -1.
         11    1    3    3    0    0  0.36072742066E+01 -0.66028261712E+01  0.17594802191E+01  0.77269341625E+01  0.51100000000E-03 0. -1.
        -11    1    3    3    0    0  0.11356870373E+02 -0.19335146119E+02  0.76394110472E+01  0.23689385419E+02  0.51100000000E-03 0.  1.
         12    1    3    3    0    0  0.61259584895E+01 -0.13209268315E+02 -0.22006569542E+01  0.14725998365E+02  0.00000000000E+00 0. -1.
</event>
<event>
 7    1  0.2395003E-008  0.4614232E+02  0.7816164E-02  0.1320468E+00
        -11   -1    0    0    0    0  0.00000000000E+00  0.00000000000E+00  0.45593999997E+02  0.45594000000E+02  0.51100000000E-03 0.  1.
         11   -1    0    0    0    0 -0.00000000000E+00 -0.00000000000E+00 -0.45593999997E+02  0.45594000000E+02  0.51100000000E-03 0. -1.
    9900012    2    1    2    0    0  0.38922512244E+02 -0.48932181037E+01  0.22140639283E+02  0.46142318180E+02  0.10000003818E+02 0.  0.
         12    1    1    2    0    0 -0.38922512244E+02  0.48932181037E+01 -0.22140639283E+02  0.45045681820E+02  0.00000000000E+00 0. -1.
         11    1    3    3    0    0  0.13818607438E+02 -0.24587852124E+01  0.13211802468E+02  0.19275664994E+02  0.51100000000E-03 0. -1.
        -11    1    3    3    0    0  0.18915856934E+02 -0.10896776541E+01  0.74819778302E+01  0.20370985088E+02  0.51100000000E-03 0.  1.
         12    1    3    3    0    0  0.61880478729E+01 -0.13447552372E+01  0.14468589844E+01  0.64956680985E+01  0.00000000000E+00 0. -1.
</event>
<event>
 7    1  0.2395003E-008  0.4614232E+02  0.7816164E-02  0.1320468E+00
        -11   -1    0    0    0    0  0.00000000000E+00  0.00000000000E+00  0.45593999997E+02  0.45594000000E+02  0.51100000000E-03 0. -1.
         11   -1    0    0    0    0 -0.00000000000E+00 -0.00000000000E+00 -0.45593999997E+02  0.45594000000E+02  0.51100000000E-03 0.  1.
    9900012    2    1    2    0    0 -0.42385942590E+02  0.13768498439E+02  0.65554433445E+01  0.46142317455E+02  0.99999972087E+01 0.  0.
         12    1    1    2    0    0  0.42385942590E+02 -0.13768498439E+02 -0.65554433445E+01  0.45045682545E+02  0.00000000000E+00 0. -1.
         11    1    3    3    0    0 -0.26944448070E+01 -0.29661246613E+00  0.51717838883E+00  0.27596169155E+01  0.51100000000E-03 0. -1.
        -11    1    3    3    0    0 -0.32131787692E+02  0.13560914530E+02  0.23476903466E+01  0.34955140300E+02  0.51100000000E-03 0.  1.
        -12    1    3    3    0    0 -0.75597100912E+01  0.50419637472E+00  0.36905746090E+01  0.84275602395E+01  0.00000000000E+00 0.  1.
</event>
<event>
 7    1  0.2395003E-008  0.4614232E+02  0.7816164E-02  0.1320468E+00
        -11   -1    0    0    0    0  0.00000000000E+00  0.00000000000E+00  0.45593999997E+02  0.45594000000E+02  0.51100000000E-03 0.  1.
         11   -1    0    0    0    0 -0.00000000000E+00 -0.00000000000E+00 -0.45593999997E+02  0.45594000000E+02  0.51100000000E-03 0. -1.
    9900012    2    1    2    0    0  0.68150172447E+01  0.26979062667E+02  0.35423144964E+02  0.46142317837E+02  0.10000000688E+02 0.  0.
         12    1    1    2    0    0 -0.68150172447E+01 -0.26979062667E+02 -0.35423144964E+02  0.45045682163E+02  0.00000000000E+00 0. -1.
         11    1    3    3    0    0 -0.39366364974E+00  0.47570746548E+01  0.34755280434E+01  0.59045766810E+01  0.51100000000E-03 0. -1.
        -11    1    3    3    0    0  0.58355663269E+01  0.13933580263E+02  0.14827316209E+02  0.21167139616E+02  0.51100000000E-03 0.  1.
        -12    1    3    3    0    0  0.13731145676E+01  0.82884077499E+01  0.17120300711E+02  0.19070601539E+02  0.00000000000E+00 0.  1.
</event>
<event>
 7    1  0.2395003E-008  0.4614232E+02  0.7816164E-02  0.1320468E+00
        -11   -1    0    0    0    0  0.00000000000E+00  0.00000000000E+00  0.45593999997E+02  0.45594000000E+02  0.51100000000E-03 0.  1.
         11   -1    0    0    0    0 -0.00000000000E+00 -0.00000000000E+00 -0.45593999997E+02  0.45594000000E+02  0.51100000000E-03 0. -1.
    9900012    2    1    2    0    0  0.17977320809E+02  0.40629361239E+02  0.74286219492E+01  0.46142317829E+02  0.10000000621E+02 0.  0.
         12    1    1    2    0    0 -0.17977320809E+02 -0.40629361239E+02 -0.74286219492E+01  0.45045682171E+02  0.00000000000E+00 0. -1.
         11    1    3    3    0    0  0.14963435294E+02  0.30988838418E+02  0.53329461991E+01  0.34823164958E+02  0.51100000000E-03 0. -1.
        -11    1    3    3    0    0  0.30615245916E+01  0.65312802782E+01 -0.55302791286E+00  0.72343897484E+01  0.51100000000E-03 0.  1.
         12    1    3    3    0    0 -0.47639076473E-01  0.31092425428E+01  0.26487036629E+01  0.40847631223E+01  0.00000000000E+00 0. -1.
</event>
<event>
 7    1  0.2395003E-008  0.4614232E+02  0.7816164E-02  0.1320468E+00
        -11   -1    0    0    0    0  0.00000000000E+00  0.00000000000E+00  0.45593999997E+02  0.45594000000E+02  0.51100000000E-03 0. -1.
         11   -1    0    0    0    0 -0.00000000000E+00 -0.00000000000E+00 -0.45593999997E+02  0.45594000000E+02  0.51100000000E-03 0.  1.
    9900012    2    1    2    0    0  0.25044218815E+02  0.61158373479E+01 -0.36939099604E+02  0.46142318275E+02  0.10000004690E+02 0.  0.
         12    1    1    2    0    0 -0.25044218815E+02 -0.61158373479E+01  0.36939099604E+02  0.45045681725E+02  0.00000000000E+00 0. -1.
         11    1    3    3    0    0  0.43290044448E+01  0.20531446866E+01 -0.21691471091E+01  0.52593613708E+01  0.51100000000E-03 0. -1.
        -11    1    3    3    0    0  0.16260972090E+02  0.40998471359E+01 -0.24511864416E+02  0.29699485808E+02  0.51100000000E-03 0.  1.
         12    1    3    3    0    0  0.44542422800E+01 -0.37154474607E-01 -0.10258088078E+02  0.11183471096E+02  0.00000000000E+00 0. -1.
</event>
<event>
 7    1  0.2395003E-008  0.4614232E+02  0.7816164E-02  0.1320468E+00
        -11   -1    0    0    0    0  0.00000000000E+00  0.00000000000E+00  0.45593999997E+02  0.45594000000E+02  0.51100000000E-03 0.  1.
         11   -1    0    0    0    0 -0.00000000000E+00 -0.00000000000E+00 -0.45593999997E+02  0.45594000000E+02  0.51100000000E-03 0. -1.
    9900012    2    1    2    0    0 -0.35449997139E+02 -0.22458658842E+02  0.16371308863E+02  0.46142318653E+02  0.10000008134E+02 0.  0.
         12    1    1    2    0    0  0.35449997139E+02  0.22458658842E+02 -0.16371308863E+02  0.45045681347E+02  0.00000000000E+00 0. -1.
         11    1    3    3    0    0 -0.17157041855E+02 -0.80418857532E+01  0.94159459168E+01  0.21158829114E+02  0.51100000000E-03 0. -1.
        -11    1    3    3    0    0 -0.10056053309E+02 -0.49027851171E+01  0.49771534982E+01  0.12244736308E+02  0.51100000000E-03 0.  1.
         12    1    3    3    0    0 -0.82369019747E+01 -0.95139879713E+01  0.19782094476E+01  0.12738753231E+02  0.00000000000E+00 0. -1.
</event>
<event>
 7    1  0.2395003E-008  0.4614232E+02  0.7816164E-02  0.1320468E+00
        -11   -1    0    0    0    0  0.00000000000E+00  0.00000000000E+00  0.45593999997E+02  0.45594000000E+02  0.51100000000E-03 0. -1.
         11   -1    0    0    0    0 -0.00000000000E+00 -0.00000000000E+00 -0.45593999997E+02  0.45594000000E+02  0.51100000000E-03 0.  1.
    9900012    2    1    2    0    0 -0.31252202910E+02 -0.76999146835E+01 -0.31513876302E+02  0.46142320158E+02  0.10000021859E+02 0.  0.
         12    1    1    2    0    0  0.31252202910E+02  0.76999146835E+01  0.31513876302E+02  0.45045679842E+02  0.00000000000E+00 0. -1.
         11    1    3    3    0    0 -0.75127517739E+01  0.51740081084E+00 -0.29419099123E+01  0.80847991322E+01  0.51100000000E-03 0. -1.
        -11    1    3    3    0    0 -0.54587828149E+01 -0.17328319468E+01 -0.70938994122E+01  0.91172597587E+01  0.51100000000E-03 0.  1.
         12    1    3    3    0    0 -0.18280668321E+02 -0.64844835475E+01 -0.21478066977E+02  0.28940261267E+02  0.00000000000E+00 0. -1.
</event>
<event>
 7    1  0.2395003E-008  0.4614233E+02  0.7816164E-02  0.1320468E+00
        -11   -1    0    0    0    0  0.00000000000E+00  0.00000000000E+00  0.45593999997E+02  0.45594000000E+02  0.51100000000E-03 0.  1.
         11   -1    0    0    0    0 -0.00000000000E+00 -0.00000000000E+00 -0.45593999997E+02  0.45594000000E+02  0.51100000000E-03 0. -1.
    9900012    2    1    2    0    0  0.12229868898E+02  0.48778128881E+01  0.43078411675E+02  0.46142330904E+02  0.10000119847E+02 0.  0.
         12    1    1    2    0    0 -0.12229868898E+02 -0.48778128881E+01 -0.43078411675E+02  0.45045669096E+02  0.00000000000E+00 0. -1.
         11    1    3    3    0    0  0.12826463562E+01  0.68187929194E+00  0.15369971569E+02  0.15438463892E+02  0.51100000000E-03 0. -1.
        -11    1    3    3    0    0  0.42418048213E+01  0.10685280444E+01  0.17847788469E+02  0.18376022797E+02  0.51100000000E-03 0.  1.
         12    1    3    3    0    0  0.67054177208E+01  0.31274055518E+01  0.98606516372E+01  0.12327844216E+02  0.00000000000E+00 0. -1.
</event>
<event>
 7    1  0.2395003E-008  0.4614232E+02  0.7816164E-02  0.1320468E+00
        -11   -1    0    0    0    0  0.00000000000E+00  0.00000000000E+00  0.45593999997E+02  0.45594000000E+02  0.51100000000E-03 0.  1.
         11   -1    0    0    0    0 -0.00000000000E+00 -0.00000000000E+00 -0.45593999997E+02  0.45594000000E+02  0.51100000000E-03 0. -1.
    9900012    2    1    2    0    0  0.32493130305E+02  0.13062601338E+02  0.28331580646E+02  0.46142317270E+02  0.99999955248E+01 0.  0.
         12    1    1    2    0    0 -0.32493130305E+02 -0.13062601338E+02 -0.28331580646E+02  0.45045682730E+02  0.00000000000E+00 0. -1.
         11    1    3    3    0    0  0.24796229847E+00  0.16776143977E+01  0.32463817020E+00  0.17266341742E+01  0.51100000000E-03 0. -1.
        -11    1    3    3    0    0  0.23000903337E+02  0.85424324738E+01  0.22476114604E+02  0.33274471218E+02  0.51100000000E-03 0.  1.
         12    1    3    3    0    0  0.92442646695E+01  0.28425544661E+01  0.55308278711E+01  0.11141211878E+02  0.00000000000E+00 0. -1.
</event>
<event>
 7    1  0.2395003E-008  0.4614232E+02  0.7816164E-02  0.1320468E+00
        -11   -1    0    0    0    0  0.00000000000E+00  0.00000000000E+00  0.45593999997E+02  0.45594000000E+02  0.51100000000E-03 0. -1.
         11   -1    0    0    0    0 -0.00000000000E+00 -0.00000000000E+00 -0.45593999997E+02  0.45594000000E+02  0.51100000000E-03 0.  1.
    9900012    2    1    2    0    0  0.11184686661E+02 -0.37589181721E+02 -0.22160092138E+02  0.46142317835E+02  0.10000000673E+02 0.  0.
         12    1    1    2    0    0 -0.11184686661E+02  0.37589181721E+02  0.22160092138E+02  0.45045682165E+02  0.00000000000E+00 0. -1.
         11    1    3    3    0    0  0.20515190731E+01 -0.48058845403E+01 -0.46291981141E+01  0.69810265837E+01  0.51100000000E-03 0. -1.
        -11    1    3    3    0    0  0.41782092988E+01 -0.14940465095E+02 -0.12632384367E+02  0.20006300639E+02  0.51100000000E-03 0.  1.
        -12    1    3    3    0    0  0.49549582888E+01 -0.17842832086E+02 -0.48985096562E+01  0.19154990612E+02  0.00000000000E+00 0.  1.
</event>
<event>
 7    1  0.2395003E-008  0.4614231E+02  0.7816164E-02  0.1320468E+00
        -11   -1    0    0    0    0  0.00000000000E+00  0.00000000000E+00  0.45593999997E+02  0.45594000000E+02  0.51100000000E-03 0.  1.
         11   -1    0    0    0    0 -0.00000000000E+00 -0.00000000000E+00 -0.45593999997E+02  0.45594000000E+02  0.51100000000E-03 0. -1.
    9900012    2    1    2    0    0  0.10013793306E+02  0.34143056368E+02  0.27624077539E+02  0.46142311922E+02  0.99999467557E+01 0.  0.
         12    1    1    2    0    0 -0.10013793306E+02 -0.34143056368E+02 -0.27624077539E+02  0.45045688078E+02  0.00000000000E+00 0. -1.
         11    1    3    3    0    0  0.54451264174E+00  0.45196656106E+01  0.74873000380E+01  0.87626213754E+01  0.51100000000E-03 0. -1.
        -11    1    3    3    0    0  0.52650538585E+01  0.22786634783E+02  0.16122715172E+02  0.28405870197E+02  0.51100000000E-03 0.  1.
        -12    1    3    3    0    0  0.42042268060E+01  0.68367559747E+01  0.40140623286E+01  0.89738203499E+01  0.00000000000E+00 0.  1.
</event>
<event>
 7    1  0.2395003E-008  0.4614232E+02  0.7816164E-02  0.1320468E+00
        -11   -1    0    0    0    0  0.00000000000E+00  0.00000000000E+00  0.45593999997E+02  0.45594000000E+02  0.51100000000E-03 0. -1.
         11   -1    0    0    0    0 -0.00000000000E+00 -0.00000000000E+00 -0.45593999997E+02  0.45594000000E+02  0.51100000000E-03 0.  1.
    9900012    2    1    2    0    0  0.86120156442E+01 -0.36358991164E+02 -0.25158903020E+02  0.46142318152E+02  0.10000003567E+02 0.  0.
         12    1    1    2    0    0 -0.86120156442E+01  0.36358991164E+02  0.25158903020E+02  0.45045681848E+02  0.00000000000E+00 0. -1.
         11    1    3    3    0    0 -0.16188717639E+01 -0.21809039842E+01 -0.32309539670E+01  0.42209183568E+01  0.51100000000E-03 0. -1.
        -11    1    3    3    0    0  0.39795969417E+01 -0.10181287055E+02 -0.67213897449E+01  0.12832493065E+02  0.51100000000E-03 0.  1.
         12    1    3    3    0    0  0.62512904663E+01 -0.23996800126E+02 -0.15206559308E+02  0.29088906730E+02  0.00000000000E+00 0. -1.
</event>
<event>
 7    1  0.2395003E-008  0.4614232E+02  0.7816164E-02  0.1320468E+00
        -11   -1    0    0    0    0  0.00000000000E+00  0.00000000000E+00  0.45593999997E+02  0.45594000000E+02  0.51100000000E-03 0.  1.
         11   -1    0    0    0    0 -0.00000000000E+00 -0.00000000000E+00 -0.45593999997E+02  0.45594000000E+02  0.51100000000E-03 0. -1.
    9900012    2    1    2    0    0  0.95063262968E+00 -0.17191133648E+02  0.41625409335E+02  0.46142317845E+02  0.10000000761E+02 0.  0.
         12    1    1    2    0    0 -0.95063262968E+00  0.17191133648E+02 -0.41625409335E+02  0.45045682155E+02  0.00000000000E+00 0. -1.
         11    1    3    3    0    0 -0.23670855671E+01 -0.42589243669E+01  0.54739174578E+01  0.73283902353E+01  0.51100000000E-03 0. -1.
        -11    1    3    3    0    0 -0.18257342628E+00 -0.58102456382E+01  0.11019118376E+02  0.12458461281E+02  0.51100000000E-03 0.  1.
         12    1    3    3    0    0  0.35002916230E+01 -0.71219636432E+01  0.25132373502E+02  0.26355466329E+02  0.00000000000E+00 0. -1.
</event>
<event>
 7    1  0.2395003E-008  0.4614232E+02  0.7816164E-02  0.1320468E+00
        -11   -1    0    0    0    0  0.00000000000E+00  0.00000000000E+00  0.45593999997E+02  0.45594000000E+02  0.51100000000E-03 0. -1.
         11   -1    0    0    0    0 -0.00000000000E+00 -0.00000000000E+00 -0.45593999997E+02  0.45594000000E+02  0.51100000000E-03 0.  1.
    9900012    2    1    2    0    0  0.31328016098E+02 -0.26090290021E+01 -0.32262393401E+02  0.46142315935E+02  0.99999833468E+01 0.  0.
         12    1    1    2    0    0 -0.31328016098E+02  0.26090290021E+01  0.32262393401E+02  0.45045684065E+02  0.00000000000E+00 0. -1.
         11    1    3    3    0    0  0.44413048981E+01  0.21778061447E+01 -0.22371582136E+01  0.54288954618E+01  0.51100000000E-03 0. -1.
        -11    1    3    3    0    0  0.77376530521E+01 -0.14039222970E+01 -0.10882639843E+02  0.13426619931E+02  0.51100000000E-03 0.  1.
        -12    1    3    3    0    0  0.19149058148E+02 -0.33829128499E+01 -0.19142595345E+02  0.27286800542E+02  0.00000000000E+00 0.  1.
</event>
<event>
 7    1  0.2395003E-008  0.4614232E+02  0.7816164E-02  0.1320468E+00
        -11   -1    0    0    0    0  0.00000000000E+00  0.00000000000E+00  0.45593999997E+02  0.45594000000E+02  0.51100000000E-03 0.  1.
         11   -1    0    0    0    0 -0.00000000000E+00 -0.00000000000E+00 -0.45593999997E+02  0.45594000000E+02  0.51100000000E-03 0. -1.
    9900012    2    1    2    0    0  0.36922177843E+02  0.19589659654E+02  0.16796174027E+02  0.46142318253E+02  0.10000004489E+02 0.  0.
         12    1    1    2    0    0 -0.36922177843E+02 -0.19589659654E+02 -0.16796174027E+02  0.45045681747E+02  0.00000000000E+00 0. -1.
         11    1    3    3    0    0  0.69677352840E+00  0.26216254741E+01  0.78284888674E+00  0.28233430746E+01  0.51100000000E-03 0. -1.
        -11    1    3    3    0    0  0.19959444668E+02  0.11705204219E+02  0.86069315579E+01  0.24687456499E+02  0.51100000000E-03 0.  1.
         12    1    3    3    0    0  0.16265959647E+02  0.52628299611E+01  0.74063935824E+01  0.18631518680E+02  0.00000000000E+00 0. -1.
</event>
<event>
 7    1  0.2395003E-008  0.4614232E+02  0.7816164E-02  0.1320468E+00
        -11   -1    0    0    0    0  0.00000000000E+00  0.00000000000E+00  0.45593999997E+02  0.45594000000E+02  0.51100000000E-03 0.  1.
         11   -1    0    0    0    0 -0.00000000000E+00 -0.00000000000E+00 -0.45593999997E+02  0.45594000000E+02  0.51100000000E-03 0. -1.
    9900012    2    1    2    0    0 -0.27926485101E+02  0.26238458388E+02  0.23680545778E+02  0.46142317443E+02  0.99999970990E+01 0.  0.
         12    1    1    2    0    0  0.27926485101E+02 -0.26238458388E+02 -0.23680545778E+02  0.45045682557E+02  0.00000000000E+00 0. -1.
         11    1    3    3    0    0 -0.13089520341E+01  0.43404144048E+00 -0.50071761774E+00  0.14671284176E+01  0.51100000000E-03 0. -1.
        -11    1    3    3    0    0 -0.55782891289E+01  0.90304755781E+01  0.58882459213E+01  0.12138296382E+02  0.51100000000E-03 0.  1.
        -12    1    3    3    0    0 -0.21039243938E+02  0.16773941369E+02  0.18293017475E+02  0.32536892643E+02  0.00000000000E+00 0.  1.
</event>
<event>
 7    1  0.2395003E-008  0.4614232E+02  0.7816164E-02  0.1320468E+00
        -11   -1    0    0    0    0  0.00000000000E+00  0.00000000000E+00  0.45593999997E+02  0.45594000000E+02  0.51100000000E-03 0.  1.
         11   -1    0    0    0    0 -0.00000000000E+00 -0.00000000000E+00 -0.45593999997E+02  0.45594000000E+02  0.51100000000E-03 0. -1.
    9900012    2    1    2    0    0  0.23697272063E+02  0.79966439764E+01  0.37464732741E+02  0.46142320768E+02  0.10000027421E+02 0.  0.
         12    1    1    2    0    0 -0.23697272063E+02 -0.79966439764E+01 -0.37464732741E+02  0.45045679232E+02  0.00000000000E+00 0. -1.
         11    1    3    3    0    0  0.49149394015E+00  0.91845235431E+00  0.68549680821E+00  0.12470072797E+01  0.51100000000E-03 0. -1.
        -11    1    3    3    0    0  0.47318306810E+01 -0.19609687486E+01  0.61827664060E+01  0.80288368223E+01  0.51100000000E-03 0.  1.
        -12    1    3    3    0    0  0.18473947442E+02  0.90391603706E+01  0.30596469527E+02  0.36866476666E+02  0.00000000000E+00 0.  1.
</event>
<event>
 7    1  0.2395003E-008  0.4614232E+02  0.7816164E-02  0.1320468E+00
        -11   -1    0    0    0    0  0.00000000000E+00  0.00000000000E+00  0.45593999997E+02  0.45594000000E+02  0.51100000000E-03 0. -1.
         11   -1    0    0    0    0 -0.00000000000E+00 -0.00000000000E+00 -0.45593999997E+02  0.45594000000E+02  0.51100000000E-03 0.  1.
    9900012    2    1    2    0    0  0.20516650815E+01  0.44609988011E+02 -0.59036572094E+01  0.46142317317E+02  0.99999959493E+01 0.  0.
         12    1    1    2    0    0 -0.20516650815E+01 -0.44609988011E+02  0.59036572094E+01  0.45045682683E+02  0.00000000000E+00 0. -1.
         11    1    3    3    0    0  0.19964053351E+01  0.77234946869E+01 -0.27940899047E+01  0.84525110528E+01  0.51100000000E-03 0. -1.
        -11    1    3    3    0    0  0.18044086823E+01  0.15662447776E+02 -0.43579156933E+01  0.16357248867E+02  0.51100000000E-03 0.  1.
         12    1    3    3    0    0 -0.17491489359E+01  0.21224045548E+02  0.12483483887E+01  0.21332557397E+02  0.00000000000E+00 0. -1.
</event>
<event>
 7    1  0.2395003E-008  0.4614232E+02  0.7816164E-02  0.1320468E+00
        -11   -1    0    0    0    0  0.00000000000E+00  0.00000000000E+00  0.45593999997E+02  0.45594000000E+02  0.51100000000E-03 0.  1.
         11   -1    0    0    0    0 -0.00000000000E+00 -0.00000000000E+00 -0.45593999997E+02  0.45594000000E+02  0.51100000000E-03 0. -1.
    9900012    2    1    2    0    0 -0.32196944619E+02 -0.15046238582E+02  0.27678167157E+02  0.46142317904E+02  0.10000001306E+02 0.  0.
         12    1    1    2    0    0  0.32196944619E+02  0.15046238582E+02 -0.27678167157E+02  0.45045682096E+02  0.00000000000E+00 0. -1.
         11    1    3    3    0    0 -0.54882321565E+01 -0.17087572335E+01  0.22362778499E+01  0.61677777497E+01  0.51100000000E-03 0. -1.
        -11    1    3    3    0    0 -0.65379596717E+01 -0.43909322881E+01  0.27993254701E+01  0.83583148048E+01  0.51100000000E-03 0.  1.
         12    1    3    3    0    0 -0.20170752791E+02 -0.89465490600E+01  0.22642563837E+02  0.31616225350E+02  0.00000000000E+00 0. -1.
</event>
<event>
 7    1  0.2395003E-008  0.4614232E+02  0.7816164E-02  0.1320468E+00
        -11   -1    0    0    0    0  0.00000000000E+00  0.00000000000E+00  0.45593999997E+02  0.45594000000E+02  0.51100000000E-03 0.  1.
         11   -1    0    0    0    0 -0.00000000000E+00 -0.00000000000E+00 -0.45593999997E+02  0.45594000000E+02  0.51100000000E-03 0. -1.
    9900012    2    1    2    0    0 -0.29856757072E+02 -0.15042506140E+02  0.30189577185E+02  0.46142317583E+02  0.99999983727E+01 0.  0.
         12    1    1    2    0    0  0.29856757072E+02  0.15042506140E+02 -0.30189577185E+02  0.45045682417E+02  0.00000000000E+00 0. -1.
         11    1    3    3    0    0 -0.12956206120E+01  0.10546245907E+01  0.13521997769E+01  0.21492580802E+01  0.51100000000E-03 0. -1.
        -11    1    3    3    0    0 -0.25599396859E+02 -0.14217098486E+02  0.27692348108E+02  0.40302867800E+02  0.51100000000E-03 0.  1.
        -12    1    3    3    0    0 -0.29617396007E+01 -0.18800322440E+01  0.11450293006E+01  0.36901917024E+01  0.00000000000E+00 0.  1.
</event>
<event>
 7    1  0.2395003E-008  0.4614232E+02  0.7816164E-02  0.1320468E+00
        -11   -1    0    0    0    0  0.00000000000E+00  0.00000000000E+00  0.45593999997E+02  0.45594000000E+02  0.51100000000E-03 0.  1.
         11   -1    0    0    0    0 -0.00000000000E+00 -0.00000000000E+00 -0.45593999997E+02  0.45594000000E+02  0.51100000000E-03 0. -1.
    9900012    2    1    2    0    0  0.82919926904E+01  0.43832219557E+02 -0.62524326404E+01  0.46142317321E+02  0.99999959883E+01 0.  0.
         12    1    1    2    0    0 -0.82919926904E+01 -0.43832219557E+02  0.62524326404E+01  0.45045682679E+02  0.00000000000E+00 0. -1.
         11    1    3    3    0    0  0.31079898272E+01  0.63165311900E+01  0.18055823584E+01  0.72676196209E+01  0.51100000000E-03 0. -1.
        -11    1    3    3    0    0  0.55814085366E+01  0.33170498119E+02 -0.66328819872E+01  0.34284532816E+02  0.51100000000E-03 0.  1.
        -12    1    3    3    0    0 -0.39740567338E+00  0.43451902482E+01 -0.14251330116E+01  0.45901648840E+01  0.00000000000E+00 0.  1.
</event>
<event>
 7    1  0.2395003E-008  0.4614232E+02  0.7816164E-02  0.1320468E+00
        -11   -1    0    0    0    0  0.00000000000E+00  0.00000000000E+00  0.45593999997E+02  0.45594000000E+02  0.51100000000E-03 0. -1.
         11   -1    0    0    0    0 -0.00000000000E+00 -0.00000000000E+00 -0.45593999997E+02  0.45594000000E+02  0.51100000000E-03 0.  1.
    9900012    2    1    2    0    0 -0.44640564203E+02  0.46100837848E+01 -0.38833695334E+01  0.46142318700E+02  0.10000008560E+02 0.  0.
         12    1    1    2    0    0  0.44640564203E+02 -0.46100837848E+01  0.38833695334E+01  0.45045681300E+02  0.00000000000E+00 0. -1.
         11    1    3    3    0    0 -0.27875169477E+01  0.13420533651E+01  0.10206460038E+01  0.32577717070E+01  0.51100000000E-03 0. -1.
        -11    1    3    3    0    0 -0.23742826314E+02  0.19339123912E+01  0.84649786184E+00  0.23836492557E+02  0.51100000000E-03 0.  1.
         12    1    3    3    0    0 -0.18110220941E+02  0.13341180284E+01 -0.57505133990E+01  0.19048054436E+02  0.00000000000E+00 0. -1.
</event>
<event>
 7    1  0.2395003E-008  0.4614232E+02  0.7816164E-02  0.1320468E+00
        -11   -1    0    0    0    0  0.00000000000E+00  0.00000000000E+00  0.45593999997E+02  0.45594000000E+02  0.51100000000E-03 0. -1.
         11   -1    0    0    0    0 -0.00000000000E+00 -0.00000000000E+00 -0.45593999997E+02  0.45594000000E+02  0.51100000000E-03 0.  1.
    9900012    2    1    2    0    0 -0.11734691963E+02 -0.17874957804E+02 -0.39647150315E+02  0.46142316078E+02  0.99999846486E+01 0.  0.
         12    1    1    2    0    0  0.11734691963E+02  0.17874957804E+02  0.39647150315E+02  0.45045683922E+02  0.00000000000E+00 0. -1.
         11    1    3    3    0    0 -0.28194235930E+01 -0.25358470211E+01 -0.71456977251E+01  0.80895405154E+01  0.51100000000E-03 0. -1.
        -11    1    3    3    0    0 -0.83071390249E+01 -0.63731375331E+01 -0.20918622571E+02  0.23392610186E+02  0.51100000000E-03 0.  1.
         12    1    3    3    0    0 -0.60812934529E+00 -0.89659732494E+01 -0.11582830019E+02  0.14660165376E+02  0.00000000000E+00 0. -1.
</event>
<event>
 7    1  0.2395003E-008  0.4614232E+02  0.7816164E-02  0.1320468E+00
        -11   -1    0    0    0    0  0.00000000000E+00  0.00000000000E+00  0.45593999997E+02  0.45594000000E+02  0.51100000000E-03 0. -1.
         11   -1    0    0    0    0 -0.00000000000E+00 -0.00000000000E+00 -0.45593999997E+02  0.45594000000E+02  0.51100000000E-03 0.  1.
    9900012    2    1    2    0    0  0.29704747904E+02  0.24661375334E+02 -0.23206851683E+02  0.46142318227E+02  0.10000004247E+02 0.  0.
         12    1    1    2    0    0 -0.29704747904E+02 -0.24661375334E+02  0.23206851683E+02  0.45045681773E+02  0.00000000000E+00 0. -1.
         11    1    3    3    0    0  0.94504264154E+01  0.12626559054E+02 -0.10195792143E+02  0.18780168547E+02  0.51100000000E-03 0.  1.
        -11    1    3    3    0    0  0.91858255902E+00  0.12328210882E+01  0.23450435808E+00  0.15551959068E+01  0.51100000000E-03 0. -1.
        -12    1    3    3    0    0  0.19335738929E+02  0.10801995192E+02 -0.13245563897E+02  0.25806953773E+02  0.00000000000E+00 0.  1.
</event>
<event>
 7    1  0.2395003E-008  0.4614232E+02  0.7816164E-02  0.1320468E+00
        -11   -1    0    0    0    0  0.00000000000E+00  0.00000000000E+00  0.45593999997E+02  0.45594000000E+02  0.51100000000E-03 0.  1.
         11   -1    0    0    0    0 -0.00000000000E+00 -0.00000000000E+00 -0.45593999997E+02  0.45594000000E+02  0.51100000000E-03 0. -1.
    9900012    2    1    2    0    0  0.16899047167E+02  0.23065619962E+02  0.34806795218E+02  0.46142316381E+02  0.99999874141E+01 0.  0.
         12    1    1    2    0    0 -0.16899047167E+02 -0.23065619962E+02 -0.34806795218E+02  0.45045683619E+02  0.00000000000E+00 0. -1.
         11    1    3    3    0    0  0.16588645848E+01  0.52431147818E+01  0.69894156808E+01  0.88934816662E+01  0.51100000000E-03 0. -1.
        -11    1    3    3    0    0  0.42302530040E+01  0.10506607197E+02  0.15364694431E+02  0.19088155241E+02  0.51100000000E-03 0.  1.
         12    1    3    3    0    0  0.11009929578E+02  0.73158979831E+01  0.12452685106E+02  0.18160679474E+02  0.00000000000E+00 0. -1.
</event>
<event>
 7    1  0.2395003E-008  0.4614232E+02  0.7816164E-02  0.1320468E+00
        -11   -1    0    0    0    0  0.00000000000E+00  0.00000000000E+00  0.45593999997E+02  0.45594000000E+02  0.51100000000E-03 0.  1.
         11   -1    0    0    0    0 -0.00000000000E+00 -0.00000000000E+00 -0.45593999997E+02  0.45594000000E+02  0.51100000000E-03 0. -1.
    9900012    2    1    2    0    0 -0.41074186847E+02 -0.43669130717E+01  0.17970948198E+02  0.46142315034E+02  0.99999751282E+01 0.  0.
         12    1    1    2    0    0  0.41074186847E+02  0.43669130717E+01 -0.17970948198E+02  0.45045684966E+02  0.00000000000E+00 0. -1.
         11    1    3    3    0    0 -0.95632857662E+01 -0.64100690021E+00  0.40599821651E+01  0.10409168071E+02  0.51100000000E-03 0.  1.
        -11    1    3    3    0    0 -0.38451819909E+01  0.73059955774E+00 -0.93067800968E+00  0.40231035378E+01  0.51100000000E-03 0. -1.
         12    1    3    3    0    0 -0.27665719090E+02 -0.44565057292E+01  0.14841644043E+02  0.31710043425E+02  0.00000000000E+00 0. -1.
</event>
<event>
 7    1  0.2395003E-008  0.4614232E+02  0.7816164E-02  0.1320468E+00
        -11   -1    0    0    0    0  0.00000000000E+00  0.00000000000E+00  0.45593999997E+02  0.45594000000E+02  0.51100000000E-03 0.  1.
         11   -1    0    0    0    0 -0.00000000000E+00 -0.00000000000E+00 -0.45593999997E+02  0.45594000000E+02  0.51100000000E-03 0. -1.
    9900012    2    1    2    0    0  0.20377348245E+01 -0.11646909169E+02  0.43466200213E+02  0.46142318549E+02  0.10000007186E+02 0.  0.
         12    1    1    2    0    0 -0.20377348245E+01  0.11646909169E+02 -0.43466200213E+02  0.45045681451E+02  0.00000000000E+00 0. -1.
         11    1    3    3    0    0 -0.50418267409E+00  0.53735665057E+00  0.44267452199E+01  0.44876525981E+01  0.51100000000E-03 0. -1.
        -11    1    3    3    0    0 -0.13322997595E+01 -0.73377689302E+01  0.14051955377E+02  0.15908341387E+02  0.51100000000E-03 0.  1.
        -12    1    3    3    0    0  0.38742172581E+01 -0.48464968894E+01  0.24987499616E+02  0.25746324564E+02  0.00000000000E+00 0.  1.
</event>
<event>
 7    1  0.2395003E-008  0.4614232E+02  0.7816164E-02  0.1320468E+00
        -11   -1    0    0    0    0  0.00000000000E+00  0.00000000000E+00  0.45593999997E+02  0.45594000000E+02  0.51100000000E-03 0.  1.
         11   -1    0    0    0    0 -0.00000000000E+00 -0.00000000000E+00 -0.45593999997E+02  0.45594000000E+02  0.51100000000E-03 0. -1.
    9900012    2    1    2    0    0 -0.26072916596E+02 -0.64880085552E+01  0.36155528912E+02  0.46142317568E+02  0.99999982398E+01 0.  0.
         12    1    1    2    0    0  0.26072916596E+02  0.64880085552E+01 -0.36155528912E+02  0.45045682432E+02  0.00000000000E+00 0. -1.
         11    1    3    3    0    0 -0.13919038120E+01 -0.14017067096E+01  0.49443385596E+01  0.53243461546E+01  0.51100000000E-03 0. -1.
        -11    1    3    3    0    0 -0.99844860323E+01 -0.53432605748E+01  0.10668424671E+02  0.15558138710E+02  0.51100000000E-03 0.  1.
         12    1    3    3    0    0 -0.14696526752E+02  0.25695872919E+00  0.20542765682E+02  0.25259832703E+02  0.00000000000E+00 0. -1.
</event>
<event>
 7    1  0.2395003E-008  0.4614232E+02  0.7816164E-02  0.1320468E+00
        -11   -1    0    0    0    0  0.00000000000E+00  0.00000000000E+00  0.45593999997E+02  0.45594000000E+02  0.51100000000E-03 0. -1.
         11   -1    0    0    0    0 -0.00000000000E+00 -0.00000000000E+00 -0.45593999997E+02  0.45594000000E+02  0.51100000000E-03 0.  1.
    9900012    2    1    2    0    0 -0.40921431431E+02  0.13472285357E+02  0.13154750739E+02  0.46142317742E+02  0.99999998228E+01 0.  0.
         12    1    1    2    0    0  0.40921431431E+02 -0.13472285357E+02 -0.13154750739E+02  0.45045682258E+02  0.00000000000E+00 0. -1.
         11    1    3    3    0    0 -0.23882675897E+02  0.97799289676E+01  0.87232187734E+01  0.27241948621E+02  0.51100000000E-03 0. -1.
        -11    1    3    3    0    0 -0.10379607800E+02  0.38173647438E+01  0.30142213052E+00  0.11063425655E+02  0.51100000000E-03 0.  1.
         12    1    3    3    0    0 -0.66591477344E+01 -0.12500835494E+00  0.41301098354E+01  0.78369434660E+01  0.00000000000E+00 0. -1.
</event>
<event>
 7    1  0.2395003E-008  0.4614232E+02  0.7816164E-02  0.1320468E+00
        -11   -1    0    0    0    0  0.00000000000E+00  0.00000000000E+00  0.45593999997E+02  0.45594000000E+02  0.51100000000E-03 0.  1.
         11   -1    0    0    0    0 -0.00000000000E+00 -0.00000000000E+00 -0.45593999997E+02  0.45594000000E+02  0.51100000000E-03 0. -1.
    9900012    2    1    2    0    0 -0.32101728455E+02  0.31464506742E+02  0.29286997441E+01  0.46142318337E+02  0.10000005254E+02 0.  0.
         12    1    1    2    0    0  0.32101728455E+02 -0.31464506742E+02 -0.29286997441E+01  0.45045681663E+02  0.00000000000E+00 0. -1.
         11    1    3    3    0    0 -0.38030819515E+01  0.16436070657E+01 -0.69730932925E+00  0.42013232532E+01  0.51100000000E-03 0. -1.
        -11    1    3    3    0    0 -0.21939451553E+02  0.23146769014E+02 -0.36801459834E+00  0.31894323715E+02  0.51100000000E-03 0.  1.
         12    1    3    3    0    0 -0.63591949500E+01  0.66741306621E+01  0.39940236717E+01  0.10046671369E+02  0.00000000000E+00 0. -1.
</event>
<event>
 7    1  0.2395003E-008  0.4614232E+02  0.7816164E-02  0.1320468E+00
        -11   -1    0    0    0    0  0.00000000000E+00  0.00000000000E+00  0.45593999997E+02  0.45594000000E+02  0.51100000000E-03 0.  1.
         11   -1    0    0    0    0 -0.00000000000E+00 -0.00000000000E+00 -0.45593999997E+02  0.45594000000E+02  0.51100000000E-03 0. -1.
    9900012    2    1    2    0    0 -0.32815816820E+02 -0.29352178177E+02  0.95228831271E+01  0.46142317628E+02  0.99999987876E+01 0.  0.
         12    1    1    2    0    0  0.32815816820E+02  0.29352178177E+02 -0.95228831271E+01  0.45045682372E+02  0.00000000000E+00 0. -1.
         11    1    3    3    0    0 -0.10630564131E+01 -0.28990203559E-02  0.43913930582E-01  0.10639671217E+01  0.51100000000E-03 0. -1.
        -11    1    3    3    0    0 -0.25917986539E+02 -0.19446844690E+02  0.52159132647E+01  0.32819621358E+02  0.51100000000E-03 0.  1.
        -12    1    3    3    0    0 -0.58347738676E+01 -0.99024344669E+01  0.42630559318E+01  0.12258729148E+02  0.00000000000E+00 0.  1.
</event>
<event>
 7    1  0.2395003E-008  0.4614232E+02  0.7816164E-02  0.1320468E+00
        -11   -1    0    0    0    0  0.00000000000E+00  0.00000000000E+00  0.45593999997E+02  0.45594000000E+02  0.51100000000E-03 0.  1.
         11   -1    0    0    0    0 -0.00000000000E+00 -0.00000000000E+00 -0.45593999997E+02  0.45594000000E+02  0.51100000000E-03 0. -1.
    9900012    2    1    2    0    0  0.41664031903E+02 -0.16151124291E+02  0.56888423529E+01  0.46142319879E+02  0.10000019312E+02 0.  0.
         12    1    1    2    0    0 -0.41664031903E+02  0.16151124291E+02 -0.56888423529E+01  0.45045680121E+02  0.00000000000E+00 0. -1.
         11    1    3    3    0    0  0.10522530875E+01  0.71764313339E+00 -0.90522835081E-01  0.12768879637E+01  0.51100000000E-03 0. -1.
        -11    1    3    3    0    0  0.40563206692E+02 -0.16968115854E+02  0.52000171615E+01  0.44275623898E+02  0.51100000000E-03 0.  1.
        -12    1    3    3    0    0  0.48572123562E-01  0.99348430412E-01  0.57934802658E+00  0.58980801767E+00  0.00000000000E+00 0.  1.
</event>
<event>
 7    1  0.2395003E-008  0.4614232E+02  0.7816164E-02  0.1320468E+00
        -11   -1    0    0    0    0  0.00000000000E+00  0.00000000000E+00  0.45593999997E+02  0.45594000000E+02  0.51100000000E-03 0. -1.
         11   -1    0    0    0    0 -0.00000000000E+00 -0.00000000000E+00 -0.45593999997E+02  0.45594000000E+02  0.51100000000E-03 0.  1.
    9900012    2    1    2    0    0 -0.29799761308E+01 -0.25519410768E+02 -0.36999905577E+02  0.46142316561E+02  0.99999890601E+01 0.  0.
         12    1    1    2    0    0  0.29799761308E+01  0.25519410768E+02  0.36999905577E+02  0.45045683439E+02  0.00000000000E+00 0. -1.
         11    1    3    3    0    0 -0.78507868746E+00 -0.16798148803E+01 -0.40492004602E+00  0.18979165109E+01  0.51100000000E-03 0. -1.
        -11    1    3    3    0    0 -0.22793090528E+00 -0.11612374114E+02 -0.23542208466E+02  0.26251376436E+02  0.51100000000E-03 0.  1.
        -12    1    3    3    0    0 -0.19669665381E+01 -0.12227221774E+02 -0.13052777066E+02  0.17993023615E+02  0.00000000000E+00 0.  1.
</event>
<event>
 7    1  0.2395003E-008  0.4614232E+02  0.7816164E-02  0.1320468E+00
        -11   -1    0    0    0    0  0.00000000000E+00  0.00000000000E+00  0.45593999997E+02  0.45594000000E+02  0.51100000000E-03 0. -1.
         11   -1    0    0    0    0 -0.00000000000E+00 -0.00000000000E+00 -0.45593999997E+02  0.45594000000E+02  0.51100000000E-03 0.  1.
    9900012    2    1    2    0    0 -0.70566254425E+01  0.39924080200E+02 -0.19631234591E+02  0.46142317476E+02  0.99999973999E+01 0.  0.
         12    1    1    2    0    0  0.70566254425E+01 -0.39924080200E+02  0.19631234591E+02  0.45045682524E+02  0.00000000000E+00 0. -1.
         11    1    3    3    0    0  0.10122881181E+01  0.17301572152E+01 -0.10225877832E+01  0.22503015928E+01  0.51100000000E-03 0. -1.
        -11    1    3    3    0    0 -0.16521158895E+01  0.16813955878E+02 -0.44963365294E+01  0.17483010085E+02  0.51100000000E-03 0.  1.
        -12    1    3    3    0    0 -0.64167976711E+01  0.21379967107E+02 -0.14112310279E+02  0.26409005799E+02  0.00000000000E+00 0.  1.
</event>
<event>
 7    1  0.2395003E-008  0.4614232E+02  0.7816164E-02  0.1320468E+00
        -11   -1    0    0    0    0  0.00000000000E+00  0.00000000000E+00  0.45593999997E+02  0.45594000000E+02  0.51100000000E-03 0. -1.
         11   -1    0    0    0    0 -0.00000000000E+00 -0.00000000000E+00 -0.45593999997E+02  0.45594000000E+02  0.51100000000E-03 0.  1.
    9900012    2    1    2    0    0 -0.43087748562E+02  0.48808340796E+01  0.12195780877E+02  0.46142315538E+02  0.99999797238E+01 0.  0.
         12    1    1    2    0    0  0.43087748562E+02 -0.48808340796E+01 -0.12195780877E+02  0.45045684462E+02  0.00000000000E+00 0. -1.
         11    1    3    3    0    0 -0.15701998874E+01  0.11804645232E+01 -0.98891698483E-01  0.19669275548E+01  0.51100000000E-03 0. -1.
        -11    1    3    3    0    0 -0.28215172490E+02  0.49311964058E+01  0.54201581315E+01  0.29151171007E+02  0.51100000000E-03 0.  1.
         12    1    3    3    0    0 -0.13302376185E+02 -0.12308268493E+01  0.68745144439E+01  0.15024216976E+02  0.00000000000E+00 0. -1.
</event>
<event>
 7    1  0.2395003E-008  0.4614232E+02  0.7816164E-02  0.1320468E+00
        -11   -1    0    0    0    0  0.00000000000E+00  0.00000000000E+00  0.45593999997E+02  0.45594000000E+02  0.51100000000E-03 0. -1.
         11   -1    0    0    0    0 -0.00000000000E+00 -0.00000000000E+00 -0.45593999997E+02  0.45594000000E+02  0.51100000000E-03 0.  1.
    9900012    2    1    2    0    0 -0.30705249363E+02 -0.30170331817E+02 -0.13268470527E+02  0.46142316849E+02  0.99999916786E+01 0.  0.
         12    1    1    2    0    0  0.30705249363E+02  0.30170331817E+02  0.13268470527E+02  0.45045683151E+02  0.00000000000E+00 0. -1.
         11    1    3    3    0    0 -0.10473278040E+02 -0.71525137325E+01 -0.35899755099E+01  0.13180892611E+02  0.51100000000E-03 0. -1.
        -11    1    3    3    0    0 -0.13552693027E+02 -0.10975968549E+02 -0.76449382536E+01  0.19041860598E+02  0.51100000000E-03 0.  1.
        -12    1    3    3    0    0 -0.66792782965E+01 -0.12041849536E+02 -0.20335567639E+01  0.13919563640E+02  0.00000000000E+00 0.  1.
</event>
<event>
 7    1  0.2395003E-008  0.4614232E+02  0.7816164E-02  0.1320468E+00
        -11   -1    0    0    0    0  0.00000000000E+00  0.00000000000E+00  0.45593999997E+02  0.45594000000E+02  0.51100000000E-03 0.  1.
         11   -1    0    0    0    0 -0.00000000000E+00 -0.00000000000E+00 -0.45593999997E+02  0.45594000000E+02  0.51100000000E-03 0. -1.
    9900012    2    1    2    0    0 -0.21029812626E+02  0.66660596417E+01  0.39273707831E+02  0.46142317665E+02  0.99999991211E+01 0.  0.
         12    1    1    2    0    0  0.21029812626E+02 -0.66660596417E+01 -0.39273707831E+02  0.45045682335E+02  0.00000000000E+00 0. -1.
         11    1    3    3    0    0 -0.31627116139E+00  0.14404191121E+01  0.17341804730E+01  0.22764482951E+01  0.51100000000E-03 0. -1.
        -11    1    3    3    0    0 -0.60475605460E+01  0.52135742937E+01  0.11964999167E+02  0.14384559458E+02  0.51100000000E-03 0.  1.
         12    1    3    3    0    0 -0.14665980919E+02  0.12066235916E-01  0.25574528191E+02  0.29481309912E+02  0.00000000000E+00 0. -1.
</event>
<event>
 7    1  0.2395003E-008  0.4614232E+02  0.7816164E-02  0.1320468E+00
        -11   -1    0    0    0    0  0.00000000000E+00  0.00000000000E+00  0.45593999997E+02  0.45594000000E+02  0.51100000000E-03 0. -1.
         11   -1    0    0    0    0 -0.00000000000E+00 -0.00000000000E+00 -0.45593999997E+02  0.45594000000E+02  0.51100000000E-03 0.  1.
    9900012    2    1    2    0    0  0.32394920201E+02  0.29507457402E+02 -0.10439933711E+02  0.46142321927E+02  0.10000037988E+02 0.  0.
         12    1    1    2    0    0 -0.32394920201E+02 -0.29507457402E+02  0.10439933711E+02  0.45045678073E+02  0.00000000000E+00 0. -1.
         11    1    3    3    0    0  0.10060845941E+01  0.24758852519E+01 -0.89748466146E-01  0.26739986985E+01  0.51100000000E-03 0. -1.
        -11    1    3    3    0    0  0.26634288047E+02  0.26209439823E+02 -0.96441847649E+01  0.38591842864E+02  0.51100000000E-03 0.  1.
         12    1    3    3    0    0  0.47545475602E+01  0.82213232646E+00 -0.70600048036E+00  0.48764803642E+01  0.00000000000E+00 0. -1.
</event>
<event>
 7    1  0.2395003E-008  0.4614232E+02  0.7816164E-02  0.1320468E+00
        -11   -1    0    0    0    0  0.00000000000E+00  0.00000000000E+00  0.45593999997E+02  0.45594000000E+02  0.51100000000E-03 0.  1.
         11   -1    0    0    0    0 -0.00000000000E+00 -0.00000000000E+00 -0.45593999997E+02  0.45594000000E+02  0.51100000000E-03 0. -1.
    9900012    2    1    2    0    0  0.11460405729E+01  0.25062866369E+02  0.37411934172E+02  0.46142317652E+02  0.99999990081E+01 0.  0.
         12    1    1    2    0    0 -0.11460405729E+01 -0.25062866369E+02 -0.37411934172E+02  0.45045682348E+02  0.00000000000E+00 0. -1.
         11    1    3    3    0    0 -0.28536467901E+01  0.74010134586E+01  0.11760461783E+02  0.14185441897E+02  0.51100000000E-03 0. -1.
        -11    1    3    3    0    0 -0.14397637005E+01  0.45146683024E+01  0.51089369327E+01  0.69682412585E+01  0.51100000000E-03 0.  1.
         12    1    3    3    0    0  0.54394510634E+01  0.13147184608E+02  0.20542535457E+02  0.24988634497E+02  0.00000000000E+00 0. -1.
</event>
<event>
 7    1  0.2395003E-008  0.4614232E+02  0.7816164E-02  0.1320468E+00
        -11   -1    0    0    0    0  0.00000000000E+00  0.00000000000E+00  0.45593999997E+02  0.45594000000E+02  0.51100000000E-03 0.  1.
         11   -1    0    0    0    0 -0.00000000000E+00 -0.00000000000E+00 -0.45593999997E+02  0.45594000000E+02  0.51100000000E-03 0. -1.
    9900012    2    1    2    0    0 -0.25321578012E+02 -0.27749894814E+02 -0.24857080485E+02  0.46142318460E+02  0.10000006369E+02 0.  0.
         12    1    1    2    0    0  0.25321578012E+02  0.27749894814E+02  0.24857080485E+02  0.45045681540E+02  0.00000000000E+00 0. -1.
         11    1    3    3    0    0 -0.35072699045E+01 -0.29033049582E+01  0.40602338517E-01  0.45532154215E+01  0.51100000000E-03 0. -1.
        -11    1    3    3    0    0 -0.20391648755E+02 -0.21283053365E+02 -0.21936530237E+02  0.36742333330E+02  0.51100000000E-03 0.  1.
         12    1    3    3    0    0 -0.14226593525E+01 -0.35635364910E+01 -0.29611525867E+01  0.48467697075E+01  0.00000000000E+00 0. -1.
</event>
<event>
 7    1  0.2395003E-008  0.4614231E+02  0.7816164E-02  0.1320468E+00
        -11   -1    0    0    0    0  0.00000000000E+00  0.00000000000E+00  0.45593999997E+02  0.45594000000E+02  0.51100000000E-03 0.  1.
         11   -1    0    0    0    0 -0.00000000000E+00 -0.00000000000E+00 -0.45593999997E+02  0.45594000000E+02  0.51100000000E-03 0. -1.
    9900012    2    1    2    0    0 -0.16697776380E+02  0.14419530088E+02  0.39273085817E+02  0.46142313707E+02  0.99999630329E+01 0.  0.
         12    1    1    2    0    0  0.16697776380E+02 -0.14419530088E+02 -0.39273085817E+02  0.45045686293E+02  0.00000000000E+00 0. -1.
         11    1    3    3    0    0 -0.48695734579E+01  0.56559865996E+01  0.71444216522E+01  0.10331780635E+02  0.51100000000E-03 0.  1.
        -11    1    3    3    0    0 -0.12508590588E+01  0.39841009581E+01  0.75111830914E+01  0.85939269559E+01  0.51100000000E-03 0. -1.
        -12    1    3    3    0    0 -0.10577343864E+02  0.47794425300E+01  0.24617481073E+02  0.27216606117E+02  0.00000000000E+00 0.  1.
</event>
<event>
 7    1  0.2395003E-008  0.4614232E+02  0.7816164E-02  0.1320468E+00
        -11   -1    0    0    0    0  0.00000000000E+00  0.00000000000E+00  0.45593999997E+02  0.45594000000E+02  0.51100000000E-03 0. -1.
         11   -1    0    0    0    0 -0.00000000000E+00 -0.00000000000E+00 -0.45593999997E+02  0.45594000000E+02  0.51100000000E-03 0.  1.
    9900012    2    1    2    0    0  0.77230270051E+01 -0.31078624074E+02 -0.31679447790E+02  0.46142318379E+02  0.10000005632E+02 0.  0.
         12    1    1    2    0    0 -0.77230270051E+01  0.31078624074E+02  0.31679447790E+02  0.45045681621E+02  0.00000000000E+00 0. -1.
         11    1    3    3    0    0  0.36275491946E+01 -0.34130870095E+01 -0.49503555133E+01  0.70224138344E+01  0.51100000000E-03 0. -1.
        -11    1    3    3    0    0  0.45278756443E+01 -0.14741912129E+02 -0.16890322142E+02  0.22871567795E+02  0.51100000000E-03 0.  1.
         12    1    3    3    0    0 -0.43239783375E+00 -0.12923624936E+02 -0.98387701342E+01  0.16248336749E+02  0.00000000000E+00 0. -1.
</event>
<event>
 7    1  0.2395003E-008  0.4614232E+02  0.7816164E-02  0.1320468E+00
        -11   -1    0    0    0    0  0.00000000000E+00  0.00000000000E+00  0.45593999997E+02  0.45594000000E+02  0.51100000000E-03 0.  1.
         11   -1    0    0    0    0 -0.00000000000E+00 -0.00000000000E+00 -0.45593999997E+02  0.45594000000E+02  0.51100000000E-03 0. -1.
    9900012    2    1    2    0    0 -0.10156747731E+01  0.35180138803E+02  0.28114759429E+02  0.46142318084E+02  0.10000002949E+02 0.  0.
         12    1    1    2    0    0  0.10156747731E+01 -0.35180138803E+02 -0.28114759429E+02  0.45045681916E+02  0.00000000000E+00 0. -1.
         11    1    3    3    0    0  0.19132363852E+01  0.18233828271E+02  0.14278821369E+02  0.23238281064E+02  0.51100000000E-03 0. -1.
        -11    1    3    3    0    0 -0.31726996368E+01  0.17250177807E+02  0.12567780235E+02  0.21577389964E+02  0.51100000000E-03 0.  1.
         12    1    3    3    0    0  0.24378847851E+00 -0.30386727421E+00  0.12681578252E+01  0.13266470564E+01  0.00000000000E+00 0. -1.
</event>
<event>
 7    1  0.2395003E-008  0.4614232E+02  0.7816164E-02  0.1320468E+00
        -11   -1    0    0    0    0  0.00000000000E+00  0.00000000000E+00  0.45593999997E+02  0.45594000000E+02  0.51100000000E-03 0.  1.
         11   -1    0    0    0    0 -0.00000000000E+00 -0.00000000000E+00 -0.45593999997E+02  0.45594000000E+02  0.51100000000E-03 0. -1.
    9900012    2    1    2    0    0 -0.28415475358E+02  0.92859674181E+00  0.34940119821E+02  0.46142317578E+02  0.99999983339E+01 0.  0.
         12    1    1    2    0    0  0.28415475358E+02 -0.92859674181E+00 -0.34940119821E+02  0.45045682422E+02  0.00000000000E+00 0. -1.
         11    1    3    3    0    0 -0.10377641111E+02  0.53815104349E+00  0.18089454380E+02  0.20861768900E+02  0.51100000000E-03 0.  1.
        -11    1    3    3    0    0 -0.12744676488E+02  0.26279269279E+01  0.12773744705E+02  0.18234619074E+02  0.51100000000E-03 0. -1.
         12    1    3    3    0    0 -0.52931577595E+01 -0.22374812295E+01  0.40769207351E+01  0.70459296051E+01  0.00000000000E+00 0. -1.
</event>
<event>
 7    1  0.2395003E-008  0.4614232E+02  0.7816164E-02  0.1320468E+00
        -11   -1    0    0    0    0  0.00000000000E+00  0.00000000000E+00  0.45593999997E+02  0.45594000000E+02  0.51100000000E-03 0.  1.
         11   -1    0    0    0    0 -0.00000000000E+00 -0.00000000000E+00 -0.45593999997E+02  0.45594000000E+02  0.51100000000E-03 0. -1.
    9900012    2    1    2    0    0  0.10174466044E+02  0.42663980184E+02  0.10265404147E+02  0.46142317779E+02  0.10000000166E+02 0.  0.
         12    1    1    2    0    0 -0.10174466044E+02 -0.42663980184E+02 -0.10265404147E+02  0.45045682221E+02  0.00000000000E+00 0. -1.
         11    1    3    3    0    0  0.49179680258E+01  0.84924759315E+01  0.37899564307E+01  0.10520091585E+02  0.51100000000E-03 0. -1.
        -11    1    3    3    0    0  0.17200525691E+01  0.60143672007E+01  0.32836254604E+01  0.70649409121E+01  0.51100000000E-03 0.  1.
        -12    1    3    3    0    0  0.35364454486E+01  0.28157137052E+02  0.31918222556E+01  0.28557285282E+02  0.00000000000E+00 0.  1.
</event>
<event>
 7    1  0.2395003E-008  0.4614232E+02  0.7816164E-02  0.1320468E+00
        -11   -1    0    0    0    0  0.00000000000E+00  0.00000000000E+00  0.45593999997E+02  0.45594000000E+02  0.51100000000E-03 0.  1.
         11   -1    0    0    0    0 -0.00000000000E+00 -0.00000000000E+00 -0.45593999997E+02  0.45594000000E+02  0.51100000000E-03 0. -1.
    9900012    2    1    2    0    0  0.24086897289E+02  0.90949145939E+01  0.36962376949E+02  0.46142318717E+02  0.10000008718E+02 0.  0.
         12    1    1    2    0    0 -0.24086897289E+02 -0.90949145939E+01 -0.36962376949E+02  0.45045681283E+02  0.00000000000E+00 0. -1.
         11    1    3    3    0    0  0.15656345171E+02  0.43922378930E+01  0.20234588169E+02  0.25958648972E+02  0.51100000000E-03 0. -1.
        -11    1    3    3    0    0  0.96550801242E+00 -0.12391733341E+01  0.38364989673E+01  0.41456580733E+01  0.51100000000E-03 0.  1.
        -12    1    3    3    0    0  0.74650441059E+01  0.59418500349E+01  0.12891289813E+02  0.16038011672E+02  0.00000000000E+00 0.  1.
</event>
<event>
 7    1  0.2395003E-008  0.4614232E+02  0.7816164E-02  0.1320468E+00
        -11   -1    0    0    0    0  0.00000000000E+00  0.00000000000E+00  0.45593999997E+02  0.45594000000E+02  0.51100000000E-03 0.  1.
         11   -1    0    0    0    0 -0.00000000000E+00 -0.00000000000E+00 -0.45593999997E+02  0.45594000000E+02  0.51100000000E-03 0. -1.
    9900012    2    1    2    0    0 -0.24661245949E+02  0.37602409807E+02  0.26448475763E+01  0.46142317701E+02  0.99999994518E+01 0.  0.
         12    1    1    2    0    0  0.24661245949E+02 -0.37602409807E+02 -0.26448475763E+01  0.45045682299E+02  0.00000000000E+00 0. -1.
         11    1    3    3    0    0 -0.28306700801E+01  0.58390198455E+01  0.21546017206E+01  0.68373353504E+01  0.51100000000E-03 0. -1.
        -11    1    3    3    0    0 -0.21381006508E+01  0.79021205426E+01  0.16262253811E+01  0.83462322466E+01  0.51100000000E-03 0.  1.
         12    1    3    3    0    0 -0.19692475218E+02  0.23861269419E+02 -0.11359795254E+01  0.30958750104E+02  0.00000000000E+00 0. -1.
</event>
<event>
 7    1  0.2395003E-008  0.4614232E+02  0.7816164E-02  0.1320468E+00
        -11   -1    0    0    0    0  0.00000000000E+00  0.00000000000E+00  0.45593999997E+02  0.45594000000E+02  0.51100000000E-03 0. -1.
         11   -1    0    0    0    0 -0.00000000000E+00 -0.00000000000E+00 -0.45593999997E+02  0.45594000000E+02  0.51100000000E-03 0.  1.
    9900012    2    1    2    0    0 -0.31423460925E+01  0.50957618101E+01 -0.44646078523E+02  0.46142318133E+02  0.10000003389E+02 0.  0.
         12    1    1    2    0    0  0.31423460925E+01 -0.50957618101E+01  0.44646078523E+02  0.45045681867E+02  0.00000000000E+00 0. -1.
         11    1    3    3    0    0 -0.34664535702E+01 -0.10162273892E+01 -0.20213185652E+02  0.20533433540E+02  0.51100000000E-03 0.  1.
        -11    1    3    3    0    0  0.42191171764E+00  0.84695586022E+00 -0.12854067324E+02  0.12888847534E+02  0.51100000000E-03 0. -1.
        -12    1    3    3    0    0 -0.97804239993E-01  0.52650333392E+01 -0.11578825547E+02  0.12720037059E+02  0.00000000000E+00 0.  1.
</event>
<event>
 7    1  0.2395003E-008  0.4614232E+02  0.7816164E-02  0.1320468E+00
        -11   -1    0    0    0    0  0.00000000000E+00  0.00000000000E+00  0.45593999997E+02  0.45594000000E+02  0.51100000000E-03 0.  1.
         11   -1    0    0    0    0 -0.00000000000E+00 -0.00000000000E+00 -0.45593999997E+02  0.45594000000E+02  0.51100000000E-03 0. -1.
    9900012    2    1    2    0    0  0.14980308918E+02  0.34382840210E+02  0.24950433641E+02  0.46142317686E+02  0.99999993181E+01 0.  0.
         12    1    1    2    0    0 -0.14980308918E+02 -0.34382840210E+02 -0.24950433641E+02  0.45045682314E+02  0.00000000000E+00 0. -1.
         11    1    3    3    0    0  0.46673522481E+01  0.71496729752E+01  0.48839088414E+01  0.98363899116E+01  0.51100000000E-03 0. -1.
        -11    1    3    3    0    0  0.82487407895E+00  0.11663712994E+02  0.10502548087E+02  0.15717065077E+02  0.51100000000E-03 0.  1.
        -12    1    3    3    0    0  0.94880825908E+01  0.15569454241E+02  0.95639767127E+01  0.20588862698E+02  0.00000000000E+00 0.  1.
</event>
<event>
 7    1  0.2395003E-008  0.4614232E+02  0.7816164E-02  0.1320468E+00
        -11   -1    0    0    0    0  0.00000000000E+00  0.00000000000E+00  0.45593999997E+02  0.45594000000E+02  0.51100000000E-03 0.  1.
         11   -1    0    0    0    0 -0.00000000000E+00 -0.00000000000E+00 -0.45593999997E+02  0.45594000000E+02  0.51100000000E-03 0. -1.
    9900012    2    1    2    0    0  0.10874472849E+02 -0.26424731243E+02  0.34822304973E+02  0.46142317581E+02  0.99999983557E+01 0.  0.
         12    1    1    2    0    0 -0.10874472849E+02  0.26424731243E+02 -0.34822304973E+02  0.45045682419E+02  0.00000000000E+00 0. -1.
         11    1    3    3    0    0  0.23915537211E+00 -0.48590481363E+01  0.91848092394E+01  0.10393664662E+02  0.51100000000E-03 0. -1.
        -11    1    3    3    0    0  0.77457417166E+01 -0.16726300121E+02  0.15220702426E+02  0.23904715290E+02  0.51100000000E-03 0.  1.
        -12    1    3    3    0    0  0.28895757603E+01 -0.48393829858E+01  0.10416793307E+02  0.11843937629E+02  0.00000000000E+00 0.  1.
</event>
<event>
 7    1  0.2395003E-008  0.4614232E+02  0.7816164E-02  0.1320468E+00
        -11   -1    0    0    0    0  0.00000000000E+00  0.00000000000E+00  0.45593999997E+02  0.45594000000E+02  0.51100000000E-03 0.  1.
         11   -1    0    0    0    0 -0.00000000000E+00 -0.00000000000E+00 -0.45593999997E+02  0.45594000000E+02  0.51100000000E-03 0. -1.
    9900012    2    1    2    0    0  0.36514440899E+01  0.44357555062E+02  0.69417367401E+01  0.46142318254E+02  0.10000004492E+02 0.  0.
         12    1    1    2    0    0 -0.36514440899E+01 -0.44357555062E+02 -0.69417367401E+01  0.45045681746E+02  0.00000000000E+00 0. -1.
         11    1    3    3    0    0  0.44018068905E+00  0.12124748267E+02 -0.16586886520E+01  0.12245592182E+02  0.51100000000E-03 0. -1.
        -11    1    3    3    0    0 -0.11258673808E+00  0.74544331999E+01  0.40544839228E+01  0.84864651208E+01  0.51100000000E-03 0.  1.
        -12    1    3    3    0    0  0.33238501390E+01  0.24778373595E+02  0.45459414693E+01  0.25410260951E+02  0.00000000000E+00 0.  1.
</event>
<event>
 7    1  0.2395003E-008  0.4614232E+02  0.7816164E-02  0.1320468E+00
        -11   -1    0    0    0    0  0.00000000000E+00  0.00000000000E+00  0.45593999997E+02  0.45594000000E+02  0.51100000000E-03 0. -1.
         11   -1    0    0    0    0 -0.00000000000E+00 -0.00000000000E+00 -0.45593999997E+02  0.45594000000E+02  0.51100000000E-03 0.  1.
    9900012    2    1    2    0    0  0.19147525424E+01  0.18157482552E+02 -0.41179523340E+02  0.46142316606E+02  0.99999894696E+01 0.  0.
         12    1    1    2    0    0 -0.19147525424E+01 -0.18157482552E+02  0.41179523340E+02  0.45045683394E+02  0.00000000000E+00 0. -1.
         11    1    3    3    0    0  0.11960216588E+01  0.61050067270E-01 -0.71616414769E+00  0.13953803304E+01  0.51100000000E-03 0. -1.
        -11    1    3    3    0    0 -0.11063680002E+00  0.13060630931E+02 -0.21940761097E+02  0.25534081511E+02  0.51100000000E-03 0.  1.
         12    1    3    3    0    0  0.82936768368E+00  0.50358015538E+01 -0.18522598095E+02  0.19212854765E+02  0.00000000000E+00 0. -1.
</event>
<event>
 7    1  0.2395003E-008  0.4614232E+02  0.7816164E-02  0.1320468E+00
        -11   -1    0    0    0    0  0.00000000000E+00  0.00000000000E+00  0.45593999997E+02  0.45594000000E+02  0.51100000000E-03 0.  1.
         11   -1    0    0    0    0 -0.00000000000E+00 -0.00000000000E+00 -0.45593999997E+02  0.45594000000E+02  0.51100000000E-03 0. -1.
    9900012    2    1    2    0    0 -0.45375637186E+01 -0.16504519912E+02  0.41666831021E+02  0.46142317972E+02  0.10000001922E+02 0.  0.
         12    1    1    2    0    0  0.45375637186E+01  0.16504519912E+02 -0.41666831021E+02  0.45045682028E+02  0.00000000000E+00 0. -1.
         11    1    3    3    0    0  0.67434564816E-01 -0.53369295463E+00 -0.30980553957E+00  0.62076994436E+00  0.51100000000E-03 0. -1.
        -11    1    3    3    0    0  0.52862267041E-01 -0.39491610476E+01  0.50630412185E+01  0.64212969126E+01  0.51100000000E-03 0.  1.
        -12    1    3    3    0    0 -0.46578605504E+01 -0.12021665910E+02  0.36913595342E+02  0.39100251115E+02  0.00000000000E+00 0.  1.
</event>
<event>
 7    1  0.2395003E-008  0.4614233E+02  0.7816164E-02  0.1320468E+00
        -11   -1    0    0    0    0  0.00000000000E+00  0.00000000000E+00  0.45593999997E+02  0.45594000000E+02  0.51100000000E-03 0. -1.
         11   -1    0    0    0    0 -0.00000000000E+00 -0.00000000000E+00 -0.45593999997E+02  0.45594000000E+02  0.51100000000E-03 0.  1.
    9900012    2    1    2    0    0  0.13390681805E+02  0.33124290961E+02 -0.27433260292E+02  0.46142325611E+02  0.10000071584E+02 0.  0.
         12    1    1    2    0    0 -0.13390681805E+02 -0.33124290961E+02  0.27433260292E+02  0.45045674389E+02  0.00000000000E+00 0. -1.
         11    1    3    3    0    0  0.21559165837E+01  0.60778988750E+01 -0.31770752728E+01  0.71890638195E+01  0.51100000000E-03 0. -1.
        -11    1    3    3    0    0 -0.26651209683E+00  0.10343226260E+01 -0.37265179492E+01  0.38765691377E+01  0.51100000000E-03 0.  1.
         12    1    3    3    0    0  0.11501277318E+02  0.26012069460E+02 -0.20529667070E+02  0.35076692654E+02  0.00000000000E+00 0. -1.
</event>
<event>
 7    1  0.2395003E-008  0.4614232E+02  0.7816164E-02  0.1320468E+00
        -11   -1    0    0    0    0  0.00000000000E+00  0.00000000000E+00  0.45593999997E+02  0.45594000000E+02  0.51100000000E-03 0.  1.
         11   -1    0    0    0    0 -0.00000000000E+00 -0.00000000000E+00 -0.45593999997E+02  0.45594000000E+02  0.51100000000E-03 0. -1.
    9900012    2    1    2    0    0 -0.30739114026E+02 -0.11610153206E+02  0.30812737088E+02  0.46142317017E+02  0.99999932164E+01 0.  0.
         12    1    1    2    0    0  0.30739114026E+02  0.11610153206E+02 -0.30812737088E+02  0.45045682983E+02  0.00000000000E+00 0. -1.
         11    1    3    3    0    0 -0.99099851837E+01 -0.50554887303E+01  0.75624741918E+01  0.13452018020E+02  0.51100000000E-03 0. -1.
        -11    1    3    3    0    0 -0.11734628040E+02 -0.30219211495E+01  0.77788043502E+01  0.14399420129E+02  0.51100000000E-03 0.  1.
        -12    1    3    3    0    0 -0.90945008022E+01 -0.35327433258E+01  0.15471458546E+02  0.18290878868E+02  0.00000000000E+00 0.  1.
</event>
<event>
 7    1  0.2395003E-008  0.4614232E+02  0.7816164E-02  0.1320468E+00
        -11   -1    0    0    0    0  0.00000000000E+00  0.00000000000E+00  0.45593999997E+02  0.45594000000E+02  0.51100000000E-03 0.  1.
         11   -1    0    0    0    0 -0.00000000000E+00 -0.00000000000E+00 -0.45593999997E+02  0.45594000000E+02  0.51100000000E-03 0. -1.
    9900012    2    1    2    0    0 -0.66165318188E+01  0.62186346039E+00  0.44552759058E+02  0.46142317109E+02  0.99999940523E+01 0.  0.
         12    1    1    2    0    0  0.66165318188E+01 -0.62186346039E+00 -0.44552759058E+02  0.45045682891E+02  0.00000000000E+00 0. -1.
         11    1    3    3    0    0 -0.62846224003E+01 -0.23004403920E+01  0.16715234625E+02  0.18005209622E+02  0.51100000000E-03 0. -1.
        -11    1    3    3    0    0 -0.14059706087E+01  0.89934187998E+00  0.15425232399E+02  0.15515262292E+02  0.51100000000E-03 0.  1.
         12    1    3    3    0    0  0.10740611902E+01  0.20229619724E+01  0.12412292034E+02  0.12621845194E+02  0.00000000000E+00 0. -1.
</event>
<event>
 7    1  0.2395003E-008  0.4614232E+02  0.7816164E-02  0.1320468E+00
        -11   -1    0    0    0    0  0.00000000000E+00  0.00000000000E+00  0.45593999997E+02  0.45594000000E+02  0.51100000000E-03 0.  1.
         11   -1    0    0    0    0 -0.00000000000E+00 -0.00000000000E+00 -0.45593999997E+02  0.45594000000E+02  0.51100000000E-03 0. -1.
    9900012    2    1    2    0    0 -0.20901880343E+02  0.32790673540E+02  0.22737562176E+02  0.46142316447E+02  0.99999880131E+01 0.  0.
         12    1    1    2    0    0  0.20901880343E+02 -0.32790673540E+02 -0.22737562176E+02  0.45045683553E+02  0.00000000000E+00 0. -1.
         11    1    3    3    0    0 -0.80021610006E+01  0.15151043404E+02  0.58857878847E+01  0.18117151989E+02  0.51100000000E-03 0. -1.
        -11    1    3    3    0    0 -0.12117668321E+02  0.13343895794E+02  0.13685821284E+02  0.22631817094E+02  0.51100000000E-03 0.  1.
        -12    1    3    3    0    0 -0.78205102133E+00  0.42957343425E+01  0.31659530066E+01  0.53933473634E+01  0.00000000000E+00 0.  1.
</event>
<event>
 7    1  0.2395003E-008  0.4614232E+02  0.7816164E-02  0.1320468E+00
        -11   -1    0    0    0    0  0.00000000000E+00  0.00000000000E+00  0.45593999997E+02  0.45594000000E+02  0.51100000000E-03 0. -1.
         11   -1    0    0    0    0 -0.00000000000E+00 -0.00000000000E+00 -0.45593999997E+02  0.45594000000E+02  0.51100000000E-03 0.  1.
    9900012    2    1    2    0    0 -0.87189787748E+01 -0.26590095357E+02 -0.35299569936E+02  0.46142318746E+02  0.10000008979E+02 0.  0.
         12    1    1    2    0    0  0.87189787748E+01  0.26590095357E+02  0.35299569936E+02  0.45045681254E+02  0.00000000000E+00 0. -1.
         11    1    3    3    0    0 -0.23722774835E+01 -0.15958181830E+02 -0.15501068092E+02  0.22373519617E+02  0.51100000000E-03 0. -1.
        -11    1    3    3    0    0 -0.24249433477E+01 -0.69104577803E+01 -0.83415001578E+01  0.11100243336E+02  0.51100000000E-03 0.  1.
        -12    1    3    3    0    0 -0.39217579435E+01 -0.37214557464E+01 -0.11457001687E+02  0.12668555793E+02  0.00000000000E+00 0.  1.
</event>
<event>
 7    1  0.2395003E-008  0.4614232E+02  0.7816164E-02  0.1320468E+00
        -11   -1    0    0    0    0  0.00000000000E+00  0.00000000000E+00  0.45593999997E+02  0.45594000000E+02  0.51100000000E-03 0. -1.
         11   -1    0    0    0    0 -0.00000000000E+00 -0.00000000000E+00 -0.45593999997E+02  0.45594000000E+02  0.51100000000E-03 0.  1.
    9900012    2    1    2    0    0 -0.28766874120E+02  0.27690423088E+02 -0.20852351348E+02  0.46142321693E+02  0.10000035852E+02 0.  0.
         12    1    1    2    0    0  0.28766874120E+02 -0.27690423088E+02  0.20852351348E+02  0.45045678307E+02  0.00000000000E+00 0. -1.
         11    1    3    3    0    0 -0.10714577031E+02  0.15907028921E+02 -0.68679785071E+01  0.20371668048E+02  0.51100000000E-03 0. -1.
        -11    1    3    3    0    0 -0.61898228744E+01  0.47438647039E+01 -0.59325990615E+01  0.97986678396E+01  0.51100000000E-03 0.  1.
         12    1    3    3    0    0 -0.11862474214E+02  0.70395294633E+01 -0.80517737799E+01  0.15971985805E+02  0.00000000000E+00 0. -1.
</event>
<event>
 7    1  0.2395003E-008  0.4614232E+02  0.7816164E-02  0.1320468E+00
        -11   -1    0    0    0    0  0.00000000000E+00  0.00000000000E+00  0.45593999997E+02  0.45594000000E+02  0.51100000000E-03 0.  1.
         11   -1    0    0    0    0 -0.00000000000E+00 -0.00000000000E+00 -0.45593999997E+02  0.45594000000E+02  0.51100000000E-03 0. -1.
    9900012    2    1    2    0    0  0.22539619189E+02 -0.35167732123E+02  0.16861485327E+02  0.46142317595E+02  0.99999984842E+01 0.  0.
         12    1    1    2    0    0 -0.22539619189E+02  0.35167732123E+02 -0.16861485327E+02  0.45045682405E+02  0.00000000000E+00 0. -1.
         11    1    3    3    0    0  0.94328848922E+00 -0.70419986532E+01  0.36470281148E+01  0.79862602347E+01  0.51100000000E-03 0. -1.
        -11    1    3    3    0    0  0.84438266438E+01 -0.13615657254E+02  0.79034747241E+01  0.17864748636E+02  0.51100000000E-03 0.  1.
         12    1    3    3    0    0  0.13152504056E+02 -0.14510076217E+02  0.53109824883E+01  0.20291308725E+02  0.00000000000E+00 0. -1.
</event>
<event>
 7    1  0.2395003E-008  0.4614232E+02  0.7816164E-02  0.1320468E+00
        -11   -1    0    0    0    0  0.00000000000E+00  0.00000000000E+00  0.45593999997E+02  0.45594000000E+02  0.51100000000E-03 0. -1.
         11   -1    0    0    0    0 -0.00000000000E+00 -0.00000000000E+00 -0.45593999997E+02  0.45594000000E+02  0.51100000000E-03 0.  1.
    9900012    2    1    2    0    0  0.27911514350E+02  0.34918768737E+02 -0.55444059235E+01  0.46142317849E+02  0.10000000799E+02 0.  0.
         12    1    1    2    0    0 -0.27911514350E+02 -0.34918768737E+02  0.55444059235E+01  0.45045682151E+02  0.00000000000E+00 0. -1.
         11    1    3    3    0    0  0.53702736689E+01  0.11125587674E+02 -0.20127093713E+01  0.12516770336E+02  0.51100000000E-03 0. -1.
        -11    1    3    3    0    0  0.82865729757E+01  0.13527136045E+02 -0.20743020028E+01  0.15998544631E+02  0.51100000000E-03 0.  1.
        -12    1    3    3    0    0  0.14254667706E+02  0.10266045018E+02 -0.14573945494E+01  0.17627002881E+02  0.00000000000E+00 0.  1.
</event>
<event>
 7    1  0.2395003E-008  0.4614232E+02  0.7816164E-02  0.1320468E+00
        -11   -1    0    0    0    0  0.00000000000E+00  0.00000000000E+00  0.45593999997E+02  0.45594000000E+02  0.51100000000E-03 0. -1.
         11   -1    0    0    0    0 -0.00000000000E+00 -0.00000000000E+00 -0.45593999997E+02  0.45594000000E+02  0.51100000000E-03 0.  1.
    9900012    2    1    2    0    0 -0.77845432403E+00 -0.26112514029E+02 -0.36696648428E+02  0.46142318899E+02  0.10000010373E+02 0.  0.
         12    1    1    2    0    0  0.77845432403E+00  0.26112514029E+02  0.36696648428E+02  0.45045681101E+02  0.00000000000E+00 0. -1.
         11    1    3    3    0    0  0.17758475489E+00 -0.10433267242E+02 -0.83309385168E+01  0.13352495591E+02  0.51100000000E-03 0. -1.
        -11    1    3    3    0    0  0.36544904497E+00 -0.47291406847E+01 -0.46868822952E+01  0.66682224416E+01  0.51100000000E-03 0.  1.
         12    1    3    3    0    0 -0.13214881239E+01 -0.10950106102E+02 -0.23678827616E+02  0.26121600866E+02  0.00000000000E+00 0. -1.
</event>
<event>
 7    1  0.2395003E-008  0.4614232E+02  0.7816164E-02  0.1320468E+00
        -11   -1    0    0    0    0  0.00000000000E+00  0.00000000000E+00  0.45593999997E+02  0.45594000000E+02  0.51100000000E-03 0.  1.
         11   -1    0    0    0    0 -0.00000000000E+00 -0.00000000000E+00 -0.45593999997E+02  0.45594000000E+02  0.51100000000E-03 0. -1.
    9900012    2    1    2    0    0  0.63393017429E+01  0.41069922557E+02  0.17383559090E+02  0.46142318608E+02  0.10000007727E+02 0.  0.
         12    1    1    2    0    0 -0.63393017429E+01 -0.41069922557E+02 -0.17383559090E+02  0.45045681392E+02  0.00000000000E+00 0. -1.
         11    1    3    3    0    0  0.72837718205E-01 -0.15986932420E+00  0.67336253811E+00  0.69590294070E+00  0.51100000000E-03 0.  1.
        -11    1    3    3    0    0  0.14482151886E+01  0.97876007900E+01  0.92911267170E+00  0.99376912346E+01  0.51100000000E-03 0. -1.
        -12    1    3    3    0    0  0.48182488362E+01  0.31442191091E+02  0.15781083880E+02  0.35508724433E+02  0.00000000000E+00 0.  1.
</event>
<event>
 7    1  0.2395003E-008  0.4614232E+02  0.7816164E-02  0.1320468E+00
        -11   -1    0    0    0    0  0.00000000000E+00  0.00000000000E+00  0.45593999997E+02  0.45594000000E+02  0.51100000000E-03 0.  1.
         11   -1    0    0    0    0 -0.00000000000E+00 -0.00000000000E+00 -0.45593999997E+02  0.45594000000E+02  0.51100000000E-03 0. -1.
    9900012    2    1    2    0    0 -0.10374499826E+02  0.36496327448E+02  0.24279649619E+02  0.46142317084E+02  0.99999938218E+01 0.  0.
         12    1    1    2    0    0  0.10374499826E+02 -0.36496327448E+02 -0.24279649619E+02  0.45045682916E+02  0.00000000000E+00 0. -1.
         11    1    3    3    0    0 -0.35320088570E+00  0.21977201383E+01 -0.68307352843E+00  0.23283716152E+01  0.51100000000E-03 0. -1.
        -11    1    3    3    0    0 -0.29659710283E+01  0.16812964957E+02  0.10413159333E+02  0.19997666423E+02  0.51100000000E-03 0.  1.
         12    1    3    3    0    0 -0.70553279121E+01  0.17485642352E+02  0.14549563814E+02  0.23816279046E+02  0.00000000000E+00 0. -1.
</event>
<event>
 7    1  0.2395003E-008  0.4614232E+02  0.7816164E-02  0.1320468E+00
        -11   -1    0    0    0    0  0.00000000000E+00  0.00000000000E+00  0.45593999997E+02  0.45594000000E+02  0.51100000000E-03 0.  1.
         11   -1    0    0    0    0 -0.00000000000E+00 -0.00000000000E+00 -0.45593999997E+02  0.45594000000E+02  0.51100000000E-03 0. -1.
    9900012    2    1    2    0    0 -0.25917622072E+02  0.17144734965E+02  0.32610557508E+02  0.46142317278E+02  0.99999955974E+01 0.  0.
         12    1    1    2    0    0  0.25917622072E+02 -0.17144734965E+02 -0.32610557508E+02  0.45045682722E+02  0.00000000000E+00 0. -1.
         11    1    3    3    0    0 -0.17786274548E+01  0.19327313943E+00  0.37602543347E+01  0.41641785567E+01  0.51100000000E-03 0. -1.
        -11    1    3    3    0    0 -0.18801754841E+02  0.15419288119E+02  0.26450489142E+02  0.35928941082E+02  0.51100000000E-03 0.  1.
         12    1    3    3    0    0 -0.53372397763E+01  0.15321737068E+01  0.23998140321E+01  0.60491976399E+01  0.00000000000E+00 0. -1.
</event>
<event>
 7    1  0.2395003E-008  0.4614232E+02  0.7816164E-02  0.1320468E+00
        -11   -1    0    0    0    0  0.00000000000E+00  0.00000000000E+00  0.45593999997E+02  0.45594000000E+02  0.51100000000E-03 0.  1.
         11   -1    0    0    0    0 -0.00000000000E+00 -0.00000000000E+00 -0.45593999997E+02  0.45594000000E+02  0.51100000000E-03 0. -1.
    9900012    2    1    2    0    0 -0.17250902625E+02  0.19995422815E+02  0.36492504676E+02  0.46142317937E+02  0.10000001608E+02 0.  0.
         12    1    1    2    0    0  0.17250902625E+02 -0.19995422815E+02 -0.36492504676E+02  0.45045682063E+02  0.00000000000E+00 0. -1.
         11    1    3    3    0    0 -0.77939545652E+01  0.71797880530E+01  0.12559826573E+02  0.16433025530E+02  0.51100000000E-03 0. -1.
        -11    1    3    3    0    0 -0.10581537698E+02  0.12598636743E+02  0.22543365009E+02  0.27908742251E+02  0.51100000000E-03 0.  1.
        -12    1    3    3    0    0  0.11245896379E+01  0.21699801902E+00  0.13893130945E+01  0.18005501572E+01  0.00000000000E+00 0.  1.
</event>
<event>
 7    1  0.2395003E-008  0.4614232E+02  0.7816164E-02  0.1320468E+00
        -11   -1    0    0    0    0  0.00000000000E+00  0.00000000000E+00  0.45593999997E+02  0.45594000000E+02  0.51100000000E-03 0.  1.
         11   -1    0    0    0    0 -0.00000000000E+00 -0.00000000000E+00 -0.45593999997E+02  0.45594000000E+02  0.51100000000E-03 0. -1.
    9900012    2    1    2    0    0  0.25782368905E+02 -0.27866491664E+02  0.24245446886E+02  0.46142316536E+02  0.99999888295E+01 0.  0.
         12    1    1    2    0    0 -0.25782368905E+02  0.27866491664E+02 -0.24245446886E+02  0.45045683464E+02  0.00000000000E+00 0. -1.
         11    1    3    3    0    0  0.26415598286E+00 -0.18882301277E+01  0.55963449912E+00  0.19870537064E+01  0.51100000000E-03 0. -1.
        -11    1    3    3    0    0  0.12840239105E+02 -0.16558424325E+02  0.17088657399E+02  0.27038405433E+02  0.51100000000E-03 0.  1.
        -12    1    3    3    0    0  0.12677973818E+02 -0.94198372118E+01  0.65971549878E+01  0.17116857397E+02  0.00000000000E+00 0.  1.
</event>
<event>
 7    1  0.2395003E-008  0.4614231E+02  0.7816164E-02  0.1320468E+00
        -11   -1    0    0    0    0  0.00000000000E+00  0.00000000000E+00  0.45593999997E+02  0.45594000000E+02  0.51100000000E-03 0.  1.
         11   -1    0    0    0    0 -0.00000000000E+00 -0.00000000000E+00 -0.45593999997E+02  0.45594000000E+02  0.51100000000E-03 0. -1.
    9900012    2    1    2    0    0  0.10408640549E+02  0.22650163397E+02  0.37519918827E+02  0.46142311985E+02  0.99999473280E+01 0.  0.
         12    1    1    2    0    0 -0.10408640549E+02 -0.22650163397E+02 -0.37519918827E+02  0.45045688015E+02  0.00000000000E+00 0. -1.
         11    1    3    3    0    0  0.48675973300E+01  0.47839186640E+01  0.55959423489E+01  0.88257550716E+01  0.51100000000E-03 0.  1.
        -11    1    3    3    0    0  0.90204969727E+00  0.14575707316E+01  0.95180238907E+00  0.19606463584E+01  0.51100000000E-03 0. -1.
        -12    1    3    3    0    0  0.46389935217E+01  0.16408674001E+02  0.30972174089E+02  0.35355910555E+02  0.00000000000E+00 0.  1.
</event>
<event>
 7    1  0.2395003E-008  0.4614232E+02  0.7816164E-02  0.1320468E+00
        -11   -1    0    0    0    0  0.00000000000E+00  0.00000000000E+00  0.45593999997E+02  0.45594000000E+02  0.51100000000E-03 0.  1.
         11   -1    0    0    0    0 -0.00000000000E+00 -0.00000000000E+00 -0.45593999997E+02  0.45594000000E+02  0.51100000000E-03 0. -1.
    9900012    2    1    2    0    0 -0.44408518473E+02  0.32668890491E+01 -0.68062030093E+01  0.46142317893E+02  0.10000001207E+02 0.  0.
         12    1    1    2    0    0  0.44408518473E+02 -0.32668890491E+01  0.68062030093E+01  0.45045682107E+02  0.00000000000E+00 0. -1.
         11    1    3    3    0    0 -0.10255454951E+02  0.50311258307E+01 -0.19355332217E+01  0.11585891096E+02  0.51100000000E-03 0. -1.
        -11    1    3    3    0    0 -0.16472594069E+02 -0.46606130817E+00 -0.20759448309E+01  0.16609428518E+02  0.51100000000E-03 0.  1.
         12    1    3    3    0    0 -0.17680469453E+02 -0.12981754734E+01 -0.27947249567E+01  0.17946998279E+02  0.00000000000E+00 0. -1.
</event>
<event>
 7    1  0.2395003E-008  0.4614232E+02  0.7816164E-02  0.1320468E+00
        -11   -1    0    0    0    0  0.00000000000E+00  0.00000000000E+00  0.45593999997E+02  0.45594000000E+02  0.51100000000E-03 0.  1.
         11   -1    0    0    0    0 -0.00000000000E+00 -0.00000000000E+00 -0.45593999997E+02  0.45594000000E+02  0.51100000000E-03 0. -1.
    9900012    2    1    2    0    0  0.20047269175E+01 -0.20610882836E+02  0.40003574895E+02  0.46142318457E+02  0.10000006344E+02 0.  0.
         12    1    1    2    0    0 -0.20047269175E+01  0.20610882836E+02 -0.40003574895E+02  0.45045681543E+02  0.00000000000E+00 0. -1.
         11    1    3    3    0    0 -0.13072885054E+00 -0.58037826222E+01  0.20093789154E+02  0.20915576625E+02  0.51100000000E-03 0. -1.
        -11    1    3    3    0    0  0.60172449494E+00 -0.17275519928E-01  0.10514706190E+01  0.12115946249E+01  0.51100000000E-03 0.  1.
        -12    1    3    3    0    0  0.15337312731E+01 -0.14789824694E+02  0.18858315123E+02  0.24015147206E+02  0.00000000000E+00 0.  1.
</event>
<event>
 7    1  0.2395003E-008  0.4614232E+02  0.7816164E-02  0.1320468E+00
        -11   -1    0    0    0    0  0.00000000000E+00  0.00000000000E+00  0.45593999997E+02  0.45594000000E+02  0.51100000000E-03 0.  1.
         11   -1    0    0    0    0 -0.00000000000E+00 -0.00000000000E+00 -0.45593999997E+02  0.45594000000E+02  0.51100000000E-03 0. -1.
    9900012    2    1    2    0    0  0.10733350401E+02 -0.31701658843E+02  0.30148192343E+02  0.46142317790E+02  0.10000000261E+02 0.  0.
         12    1    1    2    0    0 -0.10733350401E+02  0.31701658843E+02 -0.30148192343E+02  0.45045682210E+02  0.00000000000E+00 0. -1.
         11    1    3    3    0    0  0.23735973224E+01 -0.16637212562E+01  0.18827440123E+01  0.34563937774E+01  0.51100000000E-03 0. -1.
        -11    1    3    3    0    0  0.34221831595E+01 -0.10690561822E+02  0.58190801622E+01  0.12643620678E+02  0.51100000000E-03 0.  1.
         12    1    3    3    0    0  0.49375699196E+01 -0.19347375765E+02  0.22446368169E+02  0.30042303335E+02  0.00000000000E+00 0. -1.
</event>
<event>
 7    1  0.2395003E-008  0.4614232E+02  0.7816164E-02  0.1320468E+00
        -11   -1    0    0    0    0  0.00000000000E+00  0.00000000000E+00  0.45593999997E+02  0.45594000000E+02  0.51100000000E-03 0.  1.
         11   -1    0    0    0    0 -0.00000000000E+00 -0.00000000000E+00 -0.45593999997E+02  0.45594000000E+02  0.51100000000E-03 0. -1.
    9900012    2    1    2    0    0  0.17832600808E+02  0.39691396741E+02 -0.11649249403E+02  0.46142316095E+02  0.99999848080E+01 0.  0.
         12    1    1    2    0    0 -0.17832600808E+02 -0.39691396741E+02  0.11649249403E+02  0.45045683905E+02  0.00000000000E+00 0. -1.
         11    1    3    3    0    0  0.60344233931E+01  0.69292642151E+01 -0.34124123051E+01  0.98017103738E+01  0.51100000000E-03 0. -1.
        -11    1    3    3    0    0  0.10521621995E+02  0.20299120894E+02 -0.55353551631E+01  0.23524434011E+02  0.51100000000E-03 0.  1.
         12    1    3    3    0    0  0.12765554191E+01  0.12463011632E+02 -0.27014819350E+01  0.12816171710E+02  0.00000000000E+00 0. -1.
</event>
<event>
 7    1  0.2395003E-008  0.4614232E+02  0.7816164E-02  0.1320468E+00
        -11   -1    0    0    0    0  0.00000000000E+00  0.00000000000E+00  0.45593999997E+02  0.45594000000E+02  0.51100000000E-03 0.  1.
         11   -1    0    0    0    0 -0.00000000000E+00 -0.00000000000E+00 -0.45593999997E+02  0.45594000000E+02  0.51100000000E-03 0. -1.
    9900012    2    1    2    0    0 -0.63495769539E+01  0.15107967722E+02  0.41958856721E+02  0.46142317926E+02  0.10000001504E+02 0.  0.
         12    1    1    2    0    0  0.63495769539E+01 -0.15107967722E+02 -0.41958856721E+02  0.45045682074E+02  0.00000000000E+00 0. -1.
         11    1    3    3    0    0 -0.39152247938E+01  0.29749330073E+01  0.19185617997E+02  0.19805735274E+02  0.51100000000E-03 0. -1.
        -11    1    3    3    0    0 -0.25972187834E+01  0.12371691811E+02  0.20784277260E+02  0.24326744237E+02  0.51100000000E-03 0.  1.
        -12    1    3    3    0    0  0.16286662337E+00 -0.23865709690E+00  0.19889614640E+01  0.20098384145E+01  0.00000000000E+00 0.  1.
</event>
<event>
 7    1  0.2395003E-008  0.4614232E+02  0.7816164E-02  0.1320468E+00
        -11   -1    0    0    0    0  0.00000000000E+00  0.00000000000E+00  0.45593999997E+02  0.45594000000E+02  0.51100000000E-03 0.  1.
         11   -1    0    0    0    0 -0.00000000000E+00 -0.00000000000E+00 -0.45593999997E+02  0.45594000000E+02  0.51100000000E-03 0. -1.
    9900012    2    1    2    0    0 -0.22815849268E+02  0.36898550211E+02 -0.12126307074E+02  0.46142319755E+02  0.10000018184E+02 0.  0.
         12    1    1    2    0    0  0.22815849268E+02 -0.36898550211E+02  0.12126307074E+02  0.45045680245E+02  0.00000000000E+00 0. -1.
         11    1    3    3    0    0 -0.18153846877E+01  0.10493246998E+02 -0.24478206974E+01  0.10926833052E+02  0.51100000000E-03 0. -1.
        -11    1    3    3    0    0 -0.12621302900E+02  0.18012315019E+02 -0.59828673298E+01  0.22793320973E+02  0.51100000000E-03 0.  1.
        -12    1    3    3    0    0 -0.83791616808E+01  0.83929881943E+01 -0.36956190467E+01  0.12422165731E+02  0.00000000000E+00 0.  1.
</event>
<event>
 7    1  0.2395003E-008  0.4614232E+02  0.7816164E-02  0.1320468E+00
        -11   -1    0    0    0    0  0.00000000000E+00  0.00000000000E+00  0.45593999997E+02  0.45594000000E+02  0.51100000000E-03 0.  1.
         11   -1    0    0    0    0 -0.00000000000E+00 -0.00000000000E+00 -0.45593999997E+02  0.45594000000E+02  0.51100000000E-03 0. -1.
    9900012    2    1    2    0    0 -0.36949923405E+02 -0.23675266526E+02  0.10163580193E+02  0.46142318220E+02  0.10000004180E+02 0.  0.
         12    1    1    2    0    0  0.36949923405E+02  0.23675266526E+02 -0.10163580193E+02  0.45045681780E+02  0.00000000000E+00 0. -1.
         11    1    3    3    0    0 -0.71390853524E+01 -0.86144123956E+01  0.20860928813E+01  0.11380967637E+02  0.51100000000E-03 0. -1.
        -11    1    3    3    0    0 -0.26194264244E+02 -0.11177612972E+02  0.72805426794E+01  0.29395319577E+02  0.51100000000E-03 0.  1.
        -12    1    3    3    0    0 -0.36165738086E+01 -0.38832411581E+01  0.79694463241E+00  0.53660310055E+01  0.00000000000E+00 0.  1.
</event>
<event>
 7    1  0.2395003E-008  0.4614232E+02  0.7816164E-02  0.1320468E+00
        -11   -1    0    0    0    0  0.00000000000E+00  0.00000000000E+00  0.45593999997E+02  0.45594000000E+02  0.51100000000E-03 0. -1.
         11   -1    0    0    0    0 -0.00000000000E+00 -0.00000000000E+00 -0.45593999997E+02  0.45594000000E+02  0.51100000000E-03 0.  1.
    9900012    2    1    2    0    0 -0.32920492651E+02 -0.18984870970E+02 -0.24185314037E+02  0.46142316775E+02  0.99999910078E+01 0.  0.
         12    1    1    2    0    0  0.32920492651E+02  0.18984870970E+02  0.24185314037E+02  0.45045683225E+02  0.00000000000E+00 0. -1.
         11    1    3    3    0    0 -0.82845846876E+01 -0.25658762872E+01 -0.55390938703E+01  0.10290754381E+02  0.51100000000E-03 0. -1.
        -11    1    3    3    0    0 -0.14748984297E+02 -0.73158563210E+01 -0.63822103636E+01  0.17657488522E+02  0.51100000000E-03 0.  1.
        -12    1    3    3    0    0 -0.98869236665E+01 -0.91031383622E+01 -0.12264009803E+02  0.18194073872E+02  0.00000000000E+00 0.  1.
</event>
<event>
 7    1  0.2395003E-008  0.4614232E+02  0.7816164E-02  0.1320468E+00
        -11   -1    0    0    0    0  0.00000000000E+00  0.00000000000E+00  0.45593999997E+02  0.45594000000E+02  0.51100000000E-03 0.  1.
         11   -1    0    0    0    0 -0.00000000000E+00 -0.00000000000E+00 -0.45593999997E+02  0.45594000000E+02  0.51100000000E-03 0. -1.
    9900012    2    1    2    0    0 -0.53095984239E+01  0.42427933837E+02  0.14170111873E+02  0.46142317903E+02  0.10000001291E+02 0.  0.
         12    1    1    2    0    0  0.53095984239E+01 -0.42427933837E+02 -0.14170111873E+02  0.45045682097E+02  0.00000000000E+00 0. -1.
         11    1    3    3    0    0  0.24983417638E+01  0.75279918877E+01  0.29630338192E+01  0.84671094894E+01  0.51100000000E-03 0. -1.
        -11    1    3    3    0    0 -0.23111075836E+01  0.13233579954E+02  0.60602216661E+01  0.14737541979E+02  0.51100000000E-03 0.  1.
        -12    1    3    3    0    0 -0.54968326041E+01  0.21666361995E+02  0.51468563875E+01  0.22937666435E+02  0.00000000000E+00 0.  1.
</event>
<event>
 7    1  0.2395003E-008  0.4614232E+02  0.7816164E-02  0.1320468E+00
        -11   -1    0    0    0    0  0.00000000000E+00  0.00000000000E+00  0.45593999997E+02  0.45594000000E+02  0.51100000000E-03 0. -1.
         11   -1    0    0    0    0 -0.00000000000E+00 -0.00000000000E+00 -0.45593999997E+02  0.45594000000E+02  0.51100000000E-03 0.  1.
    9900012    2    1    2    0    0 -0.38101476122E+02 -0.21722573672E+02 -0.10272331136E+02  0.46142317892E+02  0.10000001191E+02 0.  0.
         12    1    1    2    0    0  0.38101476122E+02  0.21722573672E+02  0.10272331136E+02  0.45045682108E+02  0.00000000000E+00 0. -1.
         11    1    3    3    0    0 -0.14539304604E+02 -0.10322825331E+02 -0.25169646183E+01  0.18007976353E+02  0.51100000000E-03 0. -1.
        -11    1    3    3    0    0 -0.22498010083E+02 -0.10516140743E+02 -0.54183252038E+01  0.25418653034E+02  0.51100000000E-03 0.  1.
         12    1    3    3    0    0 -0.10641614354E+01 -0.88360759834E+00 -0.23370413142E+01  0.27156885044E+01  0.00000000000E+00 0. -1.
</event>
<event>
 7    1  0.2395003E-008  0.4614232E+02  0.7816164E-02  0.1320468E+00
        -11   -1    0    0    0    0  0.00000000000E+00  0.00000000000E+00  0.45593999997E+02  0.45594000000E+02  0.51100000000E-03 0.  1.
         11   -1    0    0    0    0 -0.00000000000E+00 -0.00000000000E+00 -0.45593999997E+02  0.45594000000E+02  0.51100000000E-03 0. -1.
    9900012    2    1    2    0    0 -0.14083185189E+02  0.31176739227E+02  0.29305090134E+02  0.46142317836E+02  0.10000000685E+02 0.  0.
         12    1    1    2    0    0  0.14083185189E+02 -0.31176739227E+02 -0.29305090134E+02  0.45045682164E+02  0.00000000000E+00 0. -1.
         11    1    3    3    0    0  0.11675630431E+01  0.55793790346E+01  0.51492161878E+01  0.76816080010E+01  0.51100000000E-03 0. -1.
        -11    1    3    3    0    0 -0.17914343805E+00  0.14650798352E+01  0.12408052342E+01  0.19282502911E+01  0.51100000000E-03 0.  1.
        -12    1    3    3    0    0 -0.15071604794E+02  0.24132280357E+02  0.22915068712E+02  0.36532459544E+02  0.00000000000E+00 0.  1.
</event>
<event>
 7    1  0.2395003E-008  0.4614233E+02  0.7816164E-02  0.1320468E+00
        -11   -1    0    0    0    0  0.00000000000E+00  0.00000000000E+00  0.45593999997E+02  0.45594000000E+02  0.51100000000E-03 0.  1.
         11   -1    0    0    0    0 -0.00000000000E+00 -0.00000000000E+00 -0.45593999997E+02  0.45594000000E+02  0.51100000000E-03 0. -1.
    9900012    2    1    2    0    0 -0.14196018708E+02 -0.34135495314E+02  0.25736226925E+02  0.46142330244E+02  0.10000113825E+02 0.  0.
         12    1    1    2    0    0  0.14196018708E+02  0.34135495314E+02 -0.25736226925E+02  0.45045669756E+02  0.00000000000E+00 0. -1.
         11    1    3    3    0    0 -0.33092694406E+01 -0.48792485289E+01  0.72507396046E+01  0.93451353929E+01  0.51100000000E-03 0. -1.
        -11    1    3    3    0    0 -0.36499490748E+01 -0.34761692806E+01  0.29366450275E+01  0.58335036981E+01  0.51100000000E-03 0.  1.
        -12    1    3    3    0    0 -0.72368001928E+01 -0.25780077504E+02  0.15548842293E+02  0.30963691153E+02  0.00000000000E+00 0.  1.
</event>
<event>
 7    1  0.2395003E-008  0.4614232E+02  0.7816164E-02  0.1320468E+00
        -11   -1    0    0    0    0  0.00000000000E+00  0.00000000000E+00  0.45593999997E+02  0.45594000000E+02  0.51100000000E-03 0.  1.
         11   -1    0    0    0    0 -0.00000000000E+00 -0.00000000000E+00 -0.45593999997E+02  0.45594000000E+02  0.51100000000E-03 0. -1.
    9900012    2    1    2    0    0 -0.36173996918E+02 -0.20401503959E+02 -0.17445157348E+02  0.46142323940E+02  0.10000056344E+02 0.  0.
         12    1    1    2    0    0  0.36173996918E+02  0.20401503959E+02  0.17445157348E+02  0.45045676060E+02  0.00000000000E+00 0. -1.
         11    1    3    3    0    0 -0.74693884765E+01 -0.11818267986E+01 -0.29272306329E+01  0.81090787537E+01  0.51100000000E-03 0.  1.
        -11    1    3    3    0    0 -0.54263381006E+01 -0.95857929266E+00 -0.15084350387E+01  0.57130898793E+01  0.51100000000E-03 0. -1.
        -12    1    3    3    0    0 -0.23278270341E+02 -0.18261097867E+02 -0.13009491676E+02  0.32320155307E+02  0.00000000000E+00 0.  1.
</event>
<event>
 7    1  0.2395003E-008  0.4614232E+02  0.7816164E-02  0.1320468E+00
        -11   -1    0    0    0    0  0.00000000000E+00  0.00000000000E+00  0.45593999997E+02  0.45594000000E+02  0.51100000000E-03 0. -1.
         11   -1    0    0    0    0 -0.00000000000E+00 -0.00000000000E+00 -0.45593999997E+02  0.45594000000E+02  0.51100000000E-03 0.  1.
    9900012    2    1    2    0    0 -0.39925691344E+02  0.17699036354E+02 -0.11036134335E+02  0.46142323423E+02  0.10000051633E+02 0.  0.
         12    1    1    2    0    0  0.39925691344E+02 -0.17699036354E+02  0.11036134335E+02  0.45045676577E+02  0.00000000000E+00 0. -1.
         11    1    3    3    0    0 -0.77291814731E+01  0.37688499891E+01 -0.33951329818E+01  0.92450746189E+01  0.51100000000E-03 0. -1.
        -11    1    3    3    0    0 -0.15328123293E+02  0.93495100352E+01 -0.73907673343E+01  0.19416182519E+02  0.51100000000E-03 0.  1.
         12    1    3    3    0    0 -0.16868386578E+02  0.45806763294E+01 -0.25023401934E+00  0.17481066285E+02  0.00000000000E+00 0. -1.
</event>
<event>
 7    1  0.2395003E-008  0.4614232E+02  0.7816164E-02  0.1320468E+00
        -11   -1    0    0    0    0  0.00000000000E+00  0.00000000000E+00  0.45593999997E+02  0.45594000000E+02  0.51100000000E-03 0.  1.
         11   -1    0    0    0    0 -0.00000000000E+00 -0.00000000000E+00 -0.45593999997E+02  0.45594000000E+02  0.51100000000E-03 0. -1.
    9900012    2    1    2    0    0  0.22784213369E+02  0.38551016859E+02  0.48797583122E+01  0.46142319620E+02  0.10000016953E+02 0.  0.
         12    1    1    2    0    0 -0.22784213369E+02 -0.38551016859E+02 -0.48797583122E+01  0.45045680380E+02  0.00000000000E+00 0. -1.
         11    1    3    3    0    0  0.44391848634E+00  0.27986950658E+01  0.50823589379E+00  0.28788993867E+01  0.51100000000E-03 0. -1.
        -11    1    3    3    0    0  0.15725634818E+02  0.26061417358E+02 -0.78188991222E+00  0.30448389403E+02  0.51100000000E-03 0.  1.
         12    1    3    3    0    0  0.66146600648E+01  0.96909044350E+01  0.51534123306E+01  0.12815030831E+02  0.00000000000E+00 0. -1.
</event>
<event>
 7    1  0.2395003E-008  0.4614232E+02  0.7816164E-02  0.1320468E+00
        -11   -1    0    0    0    0  0.00000000000E+00  0.00000000000E+00  0.45593999997E+02  0.45594000000E+02  0.51100000000E-03 0.  1.
         11   -1    0    0    0    0 -0.00000000000E+00 -0.00000000000E+00 -0.45593999997E+02  0.45594000000E+02  0.51100000000E-03 0. -1.
    9900012    2    1    2    0    0  0.34171897241E+02 -0.23937203412E+02  0.16982496260E+02  0.46142318215E+02  0.10000004137E+02 0.  0.
         12    1    1    2    0    0 -0.34171897241E+02  0.23937203412E+02 -0.16982496260E+02  0.45045681785E+02  0.00000000000E+00 0. -1.
         11    1    3    3    0    0  0.16607902132E+01 -0.35217616805E+01  0.24857746184E+01  0.46195351694E+01  0.51100000000E-03 0. -1.
        -11    1    3    3    0    0  0.12117501478E+02 -0.91318480560E+01  0.87591193537E+01  0.17519893353E+02  0.51100000000E-03 0.  1.
         12    1    3    3    0    0  0.20393605550E+02 -0.11283593676E+02  0.57376022881E+01  0.24002889692E+02  0.00000000000E+00 0. -1.
</event>
<event>
 7    1  0.2395003E-008  0.4614232E+02  0.7816164E-02  0.1320468E+00
        -11   -1    0    0    0    0  0.00000000000E+00  0.00000000000E+00  0.45593999997E+02  0.45594000000E+02  0.51100000000E-03 0. -1.
         11   -1    0    0    0    0 -0.00000000000E+00 -0.00000000000E+00 -0.45593999997E+02  0.45594000000E+02  0.51100000000E-03 0.  1.
    9900012    2    1    2    0    0 -0.52832213825E+01  0.28463437932E+02 -0.34511355245E+02  0.46142319097E+02  0.10000012185E+02 0.  0.
         12    1    1    2    0    0  0.52832213825E+01 -0.28463437932E+02  0.34511355245E+02  0.45045680903E+02  0.00000000000E+00 0. -1.
         11    1    3    3    0    0 -0.60315035972E+01  0.12925550849E+02 -0.19119872462E+02  0.23854107060E+02  0.51100000000E-03 0. -1.
        -11    1    3    3    0    0 -0.11598340405E+00  0.15136785187E+02 -0.14129781346E+02  0.20707159126E+02  0.51100000000E-03 0.  1.
        -12    1    3    3    0    0  0.86426561875E+00  0.40110189686E+00 -0.12617014373E+01  0.15810529113E+01  0.00000000000E+00 0.  1.
</event>
<event>
 7    1  0.2395003E-008  0.4614232E+02  0.7816164E-02  0.1320468E+00
        -11   -1    0    0    0    0  0.00000000000E+00  0.00000000000E+00  0.45593999997E+02  0.45594000000E+02  0.51100000000E-03 0.  1.
         11   -1    0    0    0    0 -0.00000000000E+00 -0.00000000000E+00 -0.45593999997E+02  0.45594000000E+02  0.51100000000E-03 0. -1.
    9900012    2    1    2    0    0 -0.13729361528E+02 -0.41720027750E+02 -0.10002870215E+02  0.46142317677E+02  0.99999992310E+01 0.  0.
         12    1    1    2    0    0  0.13729361528E+02  0.41720027750E+02  0.10002870215E+02  0.45045682323E+02  0.00000000000E+00 0. -1.
         11    1    3    3    0    0 -0.16883714167E+01 -0.39795324271E+01  0.12502613988E+01  0.45000478003E+01  0.51100000000E-03 0. -1.
        -11    1    3    3    0    0 -0.11945140325E+02 -0.29674899240E+02 -0.97075087581E+01  0.33429354598E+02  0.51100000000E-03 0.  1.
        -12    1    3    3    0    0 -0.95849785577E-01 -0.80655960834E+01 -0.15456228552E+01  0.82129152785E+01  0.00000000000E+00 0.  1.
</event>
<event>
 7    1  0.2395003E-008  0.4614232E+02  0.7816164E-02  0.1320468E+00
        -11   -1    0    0    0    0  0.00000000000E+00  0.00000000000E+00  0.45593999997E+02  0.45594000000E+02  0.51100000000E-03 0. -1.
         11   -1    0    0    0    0 -0.00000000000E+00 -0.00000000000E+00 -0.45593999997E+02  0.45594000000E+02  0.51100000000E-03 0.  1.
    9900012    2    1    2    0    0  0.91017327420E+01 -0.43273821374E+02  0.85818602364E+01  0.46142317851E+02  0.10000000817E+02 0.  0.
         12    1    1    2    0    0 -0.91017327420E+01  0.43273821374E+02 -0.85818602364E+01  0.45045682149E+02  0.00000000000E+00 0. -1.
         11    1    3    3    0    0 -0.67481769338E+00 -0.36068826352E+00  0.95333085280E+00  0.12224217434E+01  0.51100000000E-03 0. -1.
        -11    1    3    3    0    0  0.63687882347E+01 -0.32803929469E+02  0.40169538049E+01  0.33657022601E+02  0.51100000000E-03 0.  1.
        -12    1    3    3    0    0  0.34077622007E+01 -0.10109203641E+02  0.36115755786E+01  0.11262873507E+02  0.00000000000E+00 0.  1.
</event>
<event>
 7    1  0.2395003E-008  0.4614232E+02  0.7816164E-02  0.1320468E+00
        -11   -1    0    0    0    0  0.00000000000E+00  0.00000000000E+00  0.45593999997E+02  0.45594000000E+02  0.51100000000E-03 0.  1.
         11   -1    0    0    0    0 -0.00000000000E+00 -0.00000000000E+00 -0.45593999997E+02  0.45594000000E+02  0.51100000000E-03 0. -1.
    9900012    2    1    2    0    0 -0.16509846998E+02  0.93765555917E+01  0.40848728854E+02  0.46142317725E+02  0.99999996687E+01 0.  0.
         12    1    1    2    0    0  0.16509846998E+02 -0.93765555917E+01 -0.40848728854E+02  0.45045682275E+02  0.00000000000E+00 0. -1.
         11    1    3    3    0    0 -0.36868850872E-01  0.19226450255E+01  0.20532935662E+01  0.28131722194E+01  0.51100000000E-03 0. -1.
        -11    1    3    3    0    0 -0.14531487981E+02  0.49663970406E+01  0.26430891242E+02  0.30568304739E+02  0.51100000000E-03 0.  1.
         12    1    3    3    0    0 -0.19414901661E+01  0.24875135257E+01  0.12364544046E+02  0.12760840767E+02  0.00000000000E+00 0. -1.
</event>
<event>
 7    1  0.3394046E-008  0.4614232E+02  0.7816164E-02  0.1320468E+00
        -11   -1    0    0    0    0  0.00000000000E+00  0.00000000000E+00  0.45593999997E+02  0.45594000000E+02  0.51100000000E-03 0. -1.
         11   -1    0    0    0    0 -0.00000000000E+00 -0.00000000000E+00 -0.45593999997E+02  0.45594000000E+02  0.51100000000E-03 0.  1.
    9900012    2    1    2    0    0 -0.17826967523E+02  0.23557638250E+01 -0.41300884927E+02  0.46142317743E+02  0.99999998315E+01 0.  0.
         12    1    1    2    0    0  0.17826967523E+02 -0.23557638250E+01  0.41300884927E+02  0.45045682257E+02  0.00000000000E+00 0. -1.
         11    1    3    3    0    0 -0.29296622239E+01  0.40735436933E-01 -0.14351156217E+01  0.32625353991E+01  0.51100000000E-03 0. -1.
        -11    1    3    3    0    0  0.34896745065E+00  0.19119867463E+00 -0.93568215018E+00  0.10167775381E+01  0.51100000000E-03 0.  1.
        -12    1    3    3    0    0 -0.15246272749E+02  0.21238297134E+01 -0.38930087155E+02  0.41863004805E+02  0.00000000000E+00 0.  1.
</event>
<event>
 7    1  0.2395003E-008  0.4614232E+02  0.7816164E-02  0.1320468E+00
        -11   -1    0    0    0    0  0.00000000000E+00  0.00000000000E+00  0.45593999997E+02  0.45594000000E+02  0.51100000000E-03 0.  1.
         11   -1    0    0    0    0 -0.00000000000E+00 -0.00000000000E+00 -0.45593999997E+02  0.45594000000E+02  0.51100000000E-03 0. -1.
    9900012    2    1    2    0    0  0.20681815433E+02  0.80299190060E+01  0.39203269366E+02  0.46142318544E+02  0.10000007140E+02 0.  0.
         12    1    1    2    0    0 -0.20681815433E+02 -0.80299190060E+01 -0.39203269366E+02  0.45045681456E+02  0.00000000000E+00 0. -1.
         11    1    3    3    0    0  0.31751744298E+01 -0.11733264342E+01  0.56657313818E+01  0.65999196914E+01  0.51100000000E-03 0. -1.
        -11    1    3    3    0    0  0.10043495728E+02  0.33674086523E+01  0.11960053486E+02  0.15976674470E+02  0.51100000000E-03 0.  1.
        -12    1    3    3    0    0  0.74631452749E+01  0.58358367879E+01  0.21577484498E+02  0.23565724383E+02  0.00000000000E+00 0.  1.
</event>
<event>
 7    1  0.2395003E-008  0.4614232E+02  0.7816164E-02  0.1320468E+00
        -11   -1    0    0    0    0  0.00000000000E+00  0.00000000000E+00  0.45593999997E+02  0.45594000000E+02  0.51100000000E-03 0. -1.
         11   -1    0    0    0    0 -0.00000000000E+00 -0.00000000000E+00 -0.45593999997E+02  0.45594000000E+02  0.51100000000E-03 0.  1.
    9900012    2    1    2    0    0  0.28417465911E+02  0.14995216896E+02 -0.31570623136E+02  0.46142321587E+02  0.10000034884E+02 0.  0.
         12    1    1    2    0    0 -0.28417465911E+02 -0.14995216896E+02  0.31570623136E+02  0.45045678413E+02  0.00000000000E+00 0. -1.
         11    1    3    3    0    0  0.76146204741E+01  0.82668799729E+01 -0.94413245107E+01  0.14678636116E+02  0.51100000000E-03 0. -1.
        -11    1    3    3    0    0  0.18279483447E+01 -0.71353057365E+00 -0.15647028169E+01  0.25097442493E+01  0.51100000000E-03 0.  1.
        -12    1    3    3    0    0  0.18974897092E+02  0.74418674969E+01 -0.20564595808E+02  0.28953941221E+02  0.00000000000E+00 0.  1.
</event>
<event>
 7    1  0.2395003E-008  0.4614232E+02  0.7816164E-02  0.1320468E+00
        -11   -1    0    0    0    0  0.00000000000E+00  0.00000000000E+00  0.45593999997E+02  0.45594000000E+02  0.51100000000E-03 0.  1.
         11   -1    0    0    0    0 -0.00000000000E+00 -0.00000000000E+00 -0.45593999997E+02  0.45594000000E+02  0.51100000000E-03 0. -1.
    9900012    2    1    2    0    0 -0.70176417596E+00 -0.60154251873E+01  0.44636707145E+02  0.46142318321E+02  0.10000005107E+02 0.  0.
         12    1    1    2    0    0  0.70176417596E+00  0.60154251873E+01 -0.44636707145E+02  0.45045681679E+02  0.00000000000E+00 0. -1.
         11    1    3    3    0    0 -0.38899319344E+01 -0.43686342673E+01  0.23108956922E+02  0.23837794070E+02  0.51100000000E-03 0. -1.
        -11    1    3    3    0    0 -0.24237708409E+00 -0.61593404996E+00  0.13472176498E+02  0.13488426937E+02  0.51100000000E-03 0.  1.
         12    1    3    3    0    0  0.34305448425E+01 -0.10308568700E+01  0.80555737257E+01  0.88160973142E+01  0.00000000000E+00 0. -1.
</event>
<event>
 7    1  0.2395003E-008  0.4614232E+02  0.7816164E-02  0.1320468E+00
        -11   -1    0    0    0    0  0.00000000000E+00  0.00000000000E+00  0.45593999997E+02  0.45594000000E+02  0.51100000000E-03 0.  1.
         11   -1    0    0    0    0 -0.00000000000E+00 -0.00000000000E+00 -0.45593999997E+02  0.45594000000E+02  0.51100000000E-03 0. -1.
    9900012    2    1    2    0    0  0.33532592717E+02 -0.27677284816E+02 -0.11774832382E+02  0.46142317113E+02  0.99999940945E+01 0.  0.
         12    1    1    2    0    0 -0.33532592717E+02  0.27677284816E+02  0.11774832382E+02  0.45045682887E+02  0.00000000000E+00 0. -1.
         11    1    3    3    0    0  0.14387428546E+02 -0.86856153927E+01 -0.60825492482E+01  0.17872756378E+02  0.51100000000E-03 0. -1.
        -11    1    3    3    0    0  0.10670528506E+02 -0.85012145012E+01 -0.56944039723E+01  0.14783675573E+02  0.51100000000E-03 0.  1.
         12    1    3    3    0    0  0.84746356642E+01 -0.10490454922E+02  0.21208383472E-02  0.13485885162E+02  0.00000000000E+00 0. -1.
</event>
<event>
 7    1  0.2395003E-008  0.4614232E+02  0.7816164E-02  0.1320468E+00
        -11   -1    0    0    0    0  0.00000000000E+00  0.00000000000E+00  0.45593999997E+02  0.45594000000E+02  0.51100000000E-03 0.  1.
         11   -1    0    0    0    0 -0.00000000000E+00 -0.00000000000E+00 -0.45593999997E+02  0.45594000000E+02  0.51100000000E-03 0. -1.
    9900012    2    1    2    0    0  0.27947735076E+02 -0.77939491189E+00  0.35318977065E+02  0.46142317707E+02  0.99999995100E+01 0.  0.
         12    1    1    2    0    0 -0.27947735076E+02  0.77939491189E+00 -0.35318977065E+02  0.45045682293E+02  0.00000000000E+00 0. -1.
         11    1    3    3    0    0  0.37325559532E+00  0.12030706356E+01  0.31085487413E+01  0.33540683106E+01  0.51100000000E-03 0. -1.
        -11    1    3    3    0    0  0.57517534571E+01  0.17687847706E+01  0.72368125711E+01  0.94118395570E+01  0.51100000000E-03 0.  1.
         12    1    3    3    0    0  0.21822726024E+02 -0.37512503181E+01  0.24973615752E+02  0.33376409840E+02  0.00000000000E+00 0. -1.
</event>
<event>
 7    1  0.2395003E-008  0.4614232E+02  0.7816164E-02  0.1320468E+00
        -11   -1    0    0    0    0  0.00000000000E+00  0.00000000000E+00  0.45593999997E+02  0.45594000000E+02  0.51100000000E-03 0.  1.
         11   -1    0    0    0    0 -0.00000000000E+00 -0.00000000000E+00 -0.45593999997E+02  0.45594000000E+02  0.51100000000E-03 0. -1.
    9900012    2    1    2    0    0  0.40468453968E+02 -0.18820108408E+02  0.61009304818E+01  0.46142316524E+02  0.99999887227E+01 0.  0.
         12    1    1    2    0    0 -0.40468453968E+02  0.18820108408E+02 -0.61009304818E+01  0.45045683476E+02  0.00000000000E+00 0. -1.
         11    1    3    3    0    0  0.96223597545E+00 -0.16512426717E+01  0.78511907870E+00  0.20661347154E+01  0.51100000000E-03 0. -1.
        -11    1    3    3    0    0  0.37725992937E+02 -0.14274886194E+02  0.45402068980E+01  0.40591087666E+02  0.51100000000E-03 0.  1.
        -12    1    3    3    0    0  0.17802250552E+01 -0.28939795425E+01  0.77560450506E+00  0.34850941433E+01  0.00000000000E+00 0.  1.
</event>
<event>
 7    1  0.2395003E-008  0.4614232E+02  0.7816164E-02  0.1320468E+00
        -11   -1    0    0    0    0  0.00000000000E+00  0.00000000000E+00  0.45593999997E+02  0.45594000000E+02  0.51100000000E-03 0.  1.
         11   -1    0    0    0    0 -0.00000000000E+00 -0.00000000000E+00 -0.45593999997E+02  0.45594000000E+02  0.51100000000E-03 0. -1.
    9900012    2    1    2    0    0  0.40776025631E+02  0.10796010660E+02  0.15807448333E+02  0.46142317241E+02  0.99999952579E+01 0.  0.
         12    1    1    2    0    0 -0.40776025631E+02 -0.10796010660E+02 -0.15807448333E+02  0.45045682759E+02  0.00000000000E+00 0. -1.
         11    1    3    3    0    0  0.10325768266E+02 -0.24811046867E+00  0.47385959539E+01  0.11363861182E+02  0.51100000000E-03 0.  1.
        -11    1    3    3    0    0  0.20190969350E+02  0.41857467278E+01  0.73201884132E+01  0.21881062077E+02  0.51100000000E-03 0. -1.
        -12    1    3    3    0    0  0.10259288015E+02  0.68583744009E+01  0.37486639657E+01  0.12897393982E+02  0.00000000000E+00 0.  1.
</event>
<event>
 7    1  0.2395003E-008  0.4614232E+02  0.7816164E-02  0.1320468E+00
        -11   -1    0    0    0    0  0.00000000000E+00  0.00000000000E+00  0.45593999997E+02  0.45594000000E+02  0.51100000000E-03 0.  1.
         11   -1    0    0    0    0 -0.00000000000E+00 -0.00000000000E+00 -0.45593999997E+02  0.45594000000E+02  0.51100000000E-03 0. -1.
    9900012    2    1    2    0    0  0.13943985457E+01  0.45017933858E+02 -0.74484393784E+00  0.46142317536E+02  0.99999979463E+01 0.  0.
         12    1    1    2    0    0 -0.13943985457E+01 -0.45017933858E+02  0.74484393784E+00  0.45045682464E+02  0.00000000000E+00 0. -1.
         11    1    3    3    0    0  0.15314363209E+01  0.11406978800E+02 -0.16914160758E+01  0.11632942497E+02  0.51100000000E-03 0.  1.
        -11    1    3    3    0    0 -0.14964757240E+01  0.10090832060E+01 -0.41036803020E+00  0.18509702025E+01  0.51100000000E-03 0. -1.
         12    1    3    3    0    0  0.13594379487E+01  0.32601871852E+02  0.13569401681E+01  0.32658404836E+02  0.00000000000E+00 0. -1.
</event>
<event>
 7    1  0.2395003E-008  0.4614232E+02  0.7816164E-02  0.1320468E+00
        -11   -1    0    0    0    0  0.00000000000E+00  0.00000000000E+00  0.45593999997E+02  0.45594000000E+02  0.51100000000E-03 0.  1.
         11   -1    0    0    0    0 -0.00000000000E+00 -0.00000000000E+00 -0.45593999997E+02  0.45594000000E+02  0.51100000000E-03 0. -1.
    9900012    2    1    2    0    0 -0.33428669014E+02 -0.87731690874E+01  0.28890639337E+02  0.46142318196E+02  0.10000003970E+02 0.  0.
         12    1    1    2    0    0  0.33428669014E+02  0.87731690874E+01 -0.28890639337E+02  0.45045681804E+02  0.00000000000E+00 0. -1.
         11    1    3    3    0    0 -0.25644546353E+02 -0.85496270911E+01  0.19878017810E+02  0.33554053010E+02  0.51100000000E-03 0.  1.
        -11    1    3    3    0    0 -0.53502373410E+01  0.29119616912E+00  0.31399337600E+01  0.62103960496E+01  0.51100000000E-03 0. -1.
         12    1    3    3    0    0 -0.24338853195E+01 -0.51473816534E+00  0.58726877664E+01  0.63778691371E+01  0.00000000000E+00 0. -1.
</event>
<event>
 7    1  0.2395003E-008  0.4614232E+02  0.7816164E-02  0.1320468E+00
        -11   -1    0    0    0    0  0.00000000000E+00  0.00000000000E+00  0.45593999997E+02  0.45594000000E+02  0.51100000000E-03 0.  1.
         11   -1    0    0    0    0 -0.00000000000E+00 -0.00000000000E+00 -0.45593999997E+02  0.45594000000E+02  0.51100000000E-03 0. -1.
    9900012    2    1    2    0    0 -0.37736808132E+02  0.22568271760E+02  0.97836548910E+01  0.46142317840E+02  0.10000000719E+02 0.  0.
         12    1    1    2    0    0  0.37736808132E+02 -0.22568271760E+02 -0.97836548910E+01  0.45045682160E+02  0.00000000000E+00 0. -1.
         11    1    3    3    0    0 -0.69194206302E+01  0.36153490191E+01  0.55290932114E+00  0.78265470909E+01  0.51100000000E-03 0. -1.
        -11    1    3    3    0    0 -0.20566672499E+02  0.12983467160E+02  0.19558949403E+01  0.24400491029E+02  0.51100000000E-03 0.  1.
         12    1    3    3    0    0 -0.10250715003E+02  0.59694555810E+01  0.72748506296E+01  0.13915279720E+02  0.00000000000E+00 0. -1.
</event>
<event>
 7    1  0.2395003E-008  0.4614232E+02  0.7816164E-02  0.1320468E+00
        -11   -1    0    0    0    0  0.00000000000E+00  0.00000000000E+00  0.45593999997E+02  0.45594000000E+02  0.51100000000E-03 0. -1.
         11   -1    0    0    0    0 -0.00000000000E+00 -0.00000000000E+00 -0.45593999997E+02  0.45594000000E+02  0.51100000000E-03 0.  1.
    9900012    2    1    2    0    0 -0.32132631671E+02  0.12946686728E+02 -0.28792199783E+02  0.46142317813E+02  0.10000000473E+02 0.  0.
         12    1    1    2    0    0  0.32132631671E+02 -0.12946686728E+02  0.28792199783E+02  0.45045682187E+02  0.00000000000E+00 0. -1.
         11    1    3    3    0    0 -0.18797315398E+02  0.45314546700E+01 -0.17106866365E+02  0.25817010375E+02  0.51100000000E-03 0. -1.
        -11    1    3    3    0    0 -0.99161937582E+01  0.38495237917E+01 -0.93477313366E+01  0.14160854970E+02  0.51100000000E-03 0.  1.
         12    1    3    3    0    0 -0.34191225143E+01  0.45657082663E+01 -0.23376020821E+01  0.61644524684E+01  0.00000000000E+00 0. -1.
</event>
<event>
 7    1  0.2395003E-008  0.4614232E+02  0.7816164E-02  0.1320468E+00
        -11   -1    0    0    0    0  0.00000000000E+00  0.00000000000E+00  0.45593999997E+02  0.45594000000E+02  0.51100000000E-03 0.  1.
         11   -1    0    0    0    0 -0.00000000000E+00 -0.00000000000E+00 -0.45593999997E+02  0.45594000000E+02  0.51100000000E-03 0. -1.
    9900012    2    1    2    0    0 -0.34607827980E+02  0.26644991176E+02  0.11020723062E+02  0.46142315977E+02  0.99999837280E+01 0.  0.
         12    1    1    2    0    0  0.34607827980E+02 -0.26644991176E+02 -0.11020723062E+02  0.45045684023E+02  0.00000000000E+00 0. -1.
         11    1    3    3    0    0 -0.16243398602E+02  0.76576692107E+01  0.61912612193E+01  0.18995252345E+02  0.51100000000E-03 0. -1.
        -11    1    3    3    0    0 -0.13701440587E+01  0.11896313296E+01  0.14193463761E+01  0.23037061094E+01  0.51100000000E-03 0.  1.
        -12    1    3    3    0    0 -0.16994285320E+02  0.17797690636E+02  0.34101154667E+01  0.24843357523E+02  0.00000000000E+00 0.  1.
</event>
<event>
 7    1  0.2395003E-008  0.4614232E+02  0.7816164E-02  0.1320468E+00
        -11   -1    0    0    0    0  0.00000000000E+00  0.00000000000E+00  0.45593999997E+02  0.45594000000E+02  0.51100000000E-03 0.  1.
         11   -1    0    0    0    0 -0.00000000000E+00 -0.00000000000E+00 -0.45593999997E+02  0.45594000000E+02  0.51100000000E-03 0. -1.
    9900012    2    1    2    0    0 -0.24449327650E+02  0.31824928283E+02  0.20457706714E+02  0.46142318223E+02  0.10000004210E+02 0.  0.
         12    1    1    2    0    0  0.24449327650E+02 -0.31824928283E+02 -0.20457706714E+02  0.45045681777E+02  0.00000000000E+00 0. -1.
         11    1    3    3    0    0 -0.57245864880E+00  0.25536147809E+01 -0.57380459277E-01  0.26176229927E+01  0.51100000000E-03 0. -1.
        -11    1    3    3    0    0 -0.12930722239E+02  0.18796125993E+02  0.91321294569E+01  0.24574249096E+02  0.51100000000E-03 0.  1.
        -12    1    3    3    0    0 -0.10946146762E+02  0.10475187510E+02  0.11382957717E+02  0.18950446134E+02  0.00000000000E+00 0.  1.
</event>
<event>
 7    1  0.2395003E-008  0.4614232E+02  0.7816164E-02  0.1320468E+00
        -11   -1    0    0    0    0  0.00000000000E+00  0.00000000000E+00  0.45593999997E+02  0.45594000000E+02  0.51100000000E-03 0. -1.
         11   -1    0    0    0    0 -0.00000000000E+00 -0.00000000000E+00 -0.45593999997E+02  0.45594000000E+02  0.51100000000E-03 0.  1.
    9900012    2    1    2    0    0 -0.10143014571E+02 -0.35539449924E+02 -0.25752285306E+02  0.46142318254E+02  0.10000004494E+02 0.  0.
         12    1    1    2    0    0  0.10143014571E+02  0.35539449924E+02  0.25752285306E+02  0.45045681746E+02  0.00000000000E+00 0. -1.
         11    1    3    3    0    0 -0.15782693160E+01 -0.10056159401E+01 -0.67743632039E+00  0.19902556826E+01  0.51100000000E-03 0. -1.
        -11    1    3    3    0    0 -0.33906290065E+00 -0.16657993033E+02 -0.11277605015E+02  0.20119345682E+02  0.51100000000E-03 0.  1.
         12    1    3    3    0    0 -0.82256823544E+01 -0.17875840951E+02 -0.13797243971E+02  0.24032716889E+02  0.00000000000E+00 0. -1.
</event>
<event>
 7    1  0.2611943E-008  0.4614232E+02  0.7816164E-02  0.1320468E+00
        -11   -1    0    0    0    0  0.00000000000E+00  0.00000000000E+00  0.45593999997E+02  0.45594000000E+02  0.51100000000E-03 0. -1.
         11   -1    0    0    0    0 -0.00000000000E+00 -0.00000000000E+00 -0.45593999997E+02  0.45594000000E+02  0.51100000000E-03 0.  1.
    9900012    2    1    2    0    0  0.28153746940E+02  0.33718323391E+01 -0.35001584864E+02  0.46142315822E+02  0.99999823140E+01 0.  0.
         12    1    1    2    0    0 -0.28153746940E+02 -0.33718323391E+01  0.35001584864E+02  0.45045684178E+02  0.00000000000E+00 0. -1.
         11    1    3    3    0    0  0.33287197409E+01  0.30949684058E-01 -0.17921223087E+01  0.37806131284E+01  0.51100000000E-03 0. -1.
        -11    1    3    3    0    0  0.21968493651E+02  0.25447193106E+01 -0.23767972194E+02  0.32465471075E+02  0.51100000000E-03 0.  1.
        -12    1    3    3    0    0  0.28565335477E+01  0.79616334444E+00 -0.94414903619E+01  0.98962316179E+01  0.00000000000E+00 0.  1.
</event>
<event>
 7    1  0.3118141E-008  0.4614232E+02  0.7816164E-02  0.1320468E+00
        -11   -1    0    0    0    0  0.00000000000E+00  0.00000000000E+00  0.45593999997E+02  0.45594000000E+02  0.51100000000E-03 0. -1.
         11   -1    0    0    0    0 -0.00000000000E+00 -0.00000000000E+00 -0.45593999997E+02  0.45594000000E+02  0.51100000000E-03 0.  1.
    9900012    2    1    2    0    0 -0.22583191081E+02  0.33984810742E+02 -0.19082599814E+02  0.46142317673E+02  0.99999992008E+01 0.  0.
         12    1    1    2    0    0  0.22583191081E+02 -0.33984810742E+02  0.19082599814E+02  0.45045682327E+02  0.00000000000E+00 0. -1.
         11    1    3    3    0    0 -0.51053988742E+00  0.30878938064E+01  0.47889087060E+00  0.31662400199E+01  0.51100000000E-03 0. -1.
        -11    1    3    3    0    0 -0.18876508273E+01  0.27296107670E+01 -0.30653799335E+00  0.33328615914E+01  0.51100000000E-03 0.  1.
        -12    1    3    3    0    0 -0.20185000367E+02  0.28167306169E+02 -0.19254952691E+02  0.39643216062E+02  0.00000000000E+00 0.  1.
</event>
<event>
 7    1  0.2395003E-008  0.4614232E+02  0.7816164E-02  0.1320468E+00
        -11   -1    0    0    0    0  0.00000000000E+00  0.00000000000E+00  0.45593999997E+02  0.45594000000E+02  0.51100000000E-03 0.  1.
         11   -1    0    0    0    0 -0.00000000000E+00 -0.00000000000E+00 -0.45593999997E+02  0.45594000000E+02  0.51100000000E-03 0. -1.
    9900012    2    1    2    0    0  0.61453684772E+01 -0.40751176226E+02  0.18184871505E+02  0.46142317974E+02  0.10000001942E+02 0.  0.
         12    1    1    2    0    0 -0.61453684772E+01  0.40751176226E+02 -0.18184871505E+02  0.45045682026E+02  0.00000000000E+00 0. -1.
         11    1    3    3    0    0 -0.12983217886E+01 -0.79028971433E+01  0.18967621543E+01  0.82303784637E+01  0.51100000000E-03 0.  1.
        -11    1    3    3    0    0 -0.19219830794E+00 -0.22603556794E+01 -0.29889628315E+00  0.22881187111E+01  0.51100000000E-03 0. -1.
        -12    1    3    3    0    0  0.76358885738E+01 -0.30587923403E+02  0.16587005634E+02  0.35623820799E+02  0.00000000000E+00 0.  1.
</event>
<event>
 7    1  0.2395003E-008  0.4614232E+02  0.7816164E-02  0.1320468E+00
        -11   -1    0    0    0    0  0.00000000000E+00  0.00000000000E+00  0.45593999997E+02  0.45594000000E+02  0.51100000000E-03 0. -1.
         11   -1    0    0    0    0 -0.00000000000E+00 -0.00000000000E+00 -0.45593999997E+02  0.45594000000E+02  0.51100000000E-03 0.  1.
    9900012    2    1    2    0    0 -0.66738983731E+01  0.44212386392E+02 -0.54623690805E+01  0.46142317566E+02  0.99999982185E+01 0.  0.
         12    1    1    2    0    0  0.66738983731E+01 -0.44212386392E+02  0.54623690805E+01  0.45045682434E+02  0.00000000000E+00 0. -1.
         11    1    3    3    0    0 -0.30056771390E+01  0.19408195528E+02 -0.24507338521E+01  0.19791873216E+02  0.51100000000E-03 0. -1.
        -11    1    3    3    0    0 -0.47444618412E+01  0.18885662450E+02  0.31752034113E+00  0.19475086233E+02  0.51100000000E-03 0.  1.
         12    1    3    3    0    0  0.10762406071E+01  0.59185284141E+01 -0.33291555695E+01  0.68753581171E+01  0.00000000000E+00 0. -1.
</event>
<event>
 7    1  0.2395003E-008  0.4614232E+02  0.7816164E-02  0.1320468E+00
        -11   -1    0    0    0    0  0.00000000000E+00  0.00000000000E+00  0.45593999997E+02  0.45594000000E+02  0.51100000000E-03 0.  1.
         11   -1    0    0    0    0 -0.00000000000E+00 -0.00000000000E+00 -0.45593999997E+02  0.45594000000E+02  0.51100000000E-03 0. -1.
    9900012    2    1    2    0    0  0.28937340376E+02 -0.27863088481E+02 -0.20381170410E+02  0.46142317909E+02  0.10000001350E+02 0.  0.
         12    1    1    2    0    0 -0.28937340376E+02  0.27863088481E+02  0.20381170410E+02  0.45045682091E+02  0.00000000000E+00 0. -1.
         11    1    3    3    0    0  0.68779751773E+01 -0.89999127210E+01 -0.15203822523E+01  0.11428759074E+02  0.51100000000E-03 0. -1.
        -11    1    3    3    0    0  0.34680554439E+01 -0.38300810488E+01 -0.42808818382E+01  0.67099090140E+01  0.51100000000E-03 0.  1.
         12    1    3    3    0    0  0.18591309755E+02 -0.15033094711E+02 -0.14579906320E+02  0.28003649821E+02  0.00000000000E+00 0. -1.
</event>
<event>
 7    1  0.2395003E-008  0.4614232E+02  0.7816164E-02  0.1320468E+00
        -11   -1    0    0    0    0  0.00000000000E+00  0.00000000000E+00  0.45593999997E+02  0.45594000000E+02  0.51100000000E-03 0.  1.
         11   -1    0    0    0    0 -0.00000000000E+00 -0.00000000000E+00 -0.45593999997E+02  0.45594000000E+02  0.51100000000E-03 0. -1.
    9900012    2    1    2    0    0 -0.15240499791E+02  0.27871746963E+02  0.31937539320E+02  0.46142317294E+02  0.99999957379E+01 0.  0.
         12    1    1    2    0    0  0.15240499791E+02 -0.27871746963E+02 -0.31937539320E+02  0.45045682706E+02  0.00000000000E+00 0. -1.
         11    1    3    3    0    0 -0.56325197520E+01  0.88182499243E+01  0.13751420662E+02  0.17279710095E+02  0.51100000000E-03 0. -1.
        -11    1    3    3    0    0 -0.16285197185E+01  0.98525325941E+01  0.60863523674E+01  0.11694792020E+02  0.51100000000E-03 0.  1.
         12    1    3    3    0    0 -0.79794603203E+01  0.92009644444E+01  0.12099766291E+02  0.17167815179E+02  0.00000000000E+00 0. -1.
</event>
<event>
 7    1  0.2395003E-008  0.4614232E+02  0.7816164E-02  0.1320468E+00
        -11   -1    0    0    0    0  0.00000000000E+00  0.00000000000E+00  0.45593999997E+02  0.45594000000E+02  0.51100000000E-03 0. -1.
         11   -1    0    0    0    0 -0.00000000000E+00 -0.00000000000E+00 -0.45593999997E+02  0.45594000000E+02  0.51100000000E-03 0.  1.
    9900012    2    1    2    0    0 -0.27840358572E+02  0.17282403801E+02 -0.30908681439E+02  0.46142316135E+02  0.99999851713E+01 0.  0.
         12    1    1    2    0    0  0.27840358572E+02 -0.17282403801E+02  0.30908681439E+02  0.45045683865E+02  0.00000000000E+00 0. -1.
         11    1    3    3    0    0 -0.13757268039E+02  0.97788536680E+01 -0.14263927382E+02  0.22098597865E+02  0.51100000000E-03 0. -1.
        -11    1    3    3    0    0 -0.12390896199E+02  0.45873141010E+01 -0.15744415663E+02  0.20553938408E+02  0.51100000000E-03 0.  1.
         12    1    3    3    0    0 -0.16921943342E+01  0.29162360321E+01 -0.90033839381E+00  0.34897798617E+01  0.00000000000E+00 0. -1.
</event>
<event>
 7    1  0.2395003E-008  0.4614232E+02  0.7816164E-02  0.1320468E+00
        -11   -1    0    0    0    0  0.00000000000E+00  0.00000000000E+00  0.45593999997E+02  0.45594000000E+02  0.51100000000E-03 0.  1.
         11   -1    0    0    0    0 -0.00000000000E+00 -0.00000000000E+00 -0.45593999997E+02  0.45594000000E+02  0.51100000000E-03 0. -1.
    9900012    2    1    2    0    0 -0.20533066731E+02  0.31468096236E+01  0.39970042596E+02  0.46142317129E+02  0.99999942389E+01 0.  0.
         12    1    1    2    0    0  0.20533066731E+02 -0.31468096236E+01 -0.39970042596E+02  0.45045682871E+02  0.00000000000E+00 0. -1.
         11    1    3    3    0    0 -0.88299821856E+00 -0.43300805258E+00 -0.19923711908E+00  0.10034328669E+01  0.51100000000E-03 0. -1.
        -11    1    3    3    0    0 -0.44329437715E+01  0.29726129168E+01  0.11389917300E+02  0.12578459143E+02  0.51100000000E-03 0.  1.
         12    1    3    3    0    0 -0.15217124741E+02  0.60720475936E+00  0.28779362414E+02  0.32560425120E+02  0.00000000000E+00 0. -1.
</event>
<event>
 7    1  0.2395003E-008  0.4614232E+02  0.7816164E-02  0.1320468E+00
        -11   -1    0    0    0    0  0.00000000000E+00  0.00000000000E+00  0.45593999997E+02  0.45594000000E+02  0.51100000000E-03 0.  1.
         11   -1    0    0    0    0 -0.00000000000E+00 -0.00000000000E+00 -0.45593999997E+02  0.45594000000E+02  0.51100000000E-03 0. -1.
    9900012    2    1    2    0    0 -0.16673004821E+02  0.30590793249E+02  0.28553945013E+02  0.46142317664E+02  0.99999991103E+01 0.  0.
         12    1    1    2    0    0  0.16673004821E+02 -0.30590793249E+02 -0.28553945013E+02  0.45045682336E+02  0.00000000000E+00 0. -1.
         11    1    3    3    0    0  0.63727855271E+00  0.18669757351E+01  0.25185779724E+01  0.31992120301E+01  0.51100000000E-03 0. -1.
        -11    1    3    3    0    0 -0.14473973555E+02  0.19015965261E+02  0.20022619579E+02  0.31177045087E+02  0.51100000000E-03 0.  1.
        -12    1    3    3    0    0 -0.28363098178E+01  0.97078522527E+01  0.60127474620E+01  0.11766060547E+02  0.00000000000E+00 0.  1.
</event>
<event>
 7    1  0.2395003E-008  0.4614232E+02  0.7816164E-02  0.1320468E+00
        -11   -1    0    0    0    0  0.00000000000E+00  0.00000000000E+00  0.45593999997E+02  0.45594000000E+02  0.51100000000E-03 0. -1.
         11   -1    0    0    0    0 -0.00000000000E+00 -0.00000000000E+00 -0.45593999997E+02  0.45594000000E+02  0.51100000000E-03 0.  1.
    9900012    2    1    2    0    0  0.39660566521E+02  0.15810607288E+02  0.14358890009E+02  0.46142316945E+02  0.99999925600E+01 0.  0.
         12    1    1    2    0    0 -0.39660566521E+02 -0.15810607288E+02 -0.14358890009E+02  0.45045683055E+02  0.00000000000E+00 0. -1.
         11    1    3    3    0    0  0.26723954960E+02  0.14236891920E+02  0.93146120060E+01  0.31679975653E+02  0.51100000000E-03 0.  1.
        -11    1    3    3    0    0  0.12413823744E+02  0.20294801789E+01  0.39823216021E+01  0.13193964353E+02  0.51100000000E-03 0. -1.
        -12    1    3    3    0    0  0.52278781650E+00 -0.45576481057E+00  0.10619564009E+01  0.12683769397E+01  0.00000000000E+00 0.  1.
</event>
<event>
 7    1  0.2395003E-008  0.4614232E+02  0.7816164E-02  0.1320468E+00
        -11   -1    0    0    0    0  0.00000000000E+00  0.00000000000E+00  0.45593999997E+02  0.45594000000E+02  0.51100000000E-03 0. -1.
         11   -1    0    0    0    0 -0.00000000000E+00 -0.00000000000E+00 -0.45593999997E+02  0.45594000000E+02  0.51100000000E-03 0.  1.
    9900012    2    1    2    0    0 -0.20059620443E+02 -0.50304934289E+01 -0.40017739025E+02  0.46142315711E+02  0.99999813021E+01 0.  0.
         12    1    1    2    0    0  0.20059620443E+02  0.50304934289E+01  0.40017739025E+02  0.45045684289E+02  0.00000000000E+00 0. -1.
         11    1    3    3    0    0 -0.64815285943E+01 -0.27180375466E+01 -0.15006747610E+02  0.16571071635E+02  0.51100000000E-03 0. -1.
        -11    1    3    3    0    0 -0.10915048980E+02 -0.21855866494E+00 -0.23397100051E+02  0.25818798445E+02  0.51100000000E-03 0.  1.
         12    1    3    3    0    0 -0.26630428683E+01 -0.20938972174E+01 -0.16138913639E+01  0.37524456305E+01  0.00000000000E+00 0. -1.
</event>
<event>
 7    1  0.2395003E-008  0.4614233E+02  0.7816164E-02  0.1320468E+00
        -11   -1    0    0    0    0  0.00000000000E+00  0.00000000000E+00  0.45593999997E+02  0.45594000000E+02  0.51100000000E-03 0. -1.
         11   -1    0    0    0    0 -0.00000000000E+00 -0.00000000000E+00 -0.45593999997E+02  0.45594000000E+02  0.51100000000E-03 0.  1.
    9900012    2    1    2    0    0  0.16220975067E+02  0.41048029874E+02 -0.90028739988E+01  0.46142328411E+02  0.10000097116E+02 0.  0.
         12    1    1    2    0    0 -0.16220975067E+02 -0.41048029874E+02  0.90028739988E+01  0.45045671589E+02  0.00000000000E+00 0. -1.
         11    1    3    3    0    0  0.33092459120E+01  0.10462314655E+02 -0.34297186661E+01  0.11496699824E+02  0.51100000000E-03 0. -1.
        -11    1    3    3    0    0  0.11521618216E+02  0.28042511275E+02 -0.24980122781E+01  0.30419897937E+02  0.51100000000E-03 0.  1.
         12    1    3    3    0    0  0.13901109392E+01  0.25432039442E+01 -0.30751430546E+01  0.42257306506E+01  0.00000000000E+00 0. -1.
</event>
<event>
 7    1  0.2395003E-008  0.4614232E+02  0.7816164E-02  0.1320468E+00
        -11   -1    0    0    0    0  0.00000000000E+00  0.00000000000E+00  0.45593999997E+02  0.45594000000E+02  0.51100000000E-03 0.  1.
         11   -1    0    0    0    0 -0.00000000000E+00 -0.00000000000E+00 -0.45593999997E+02  0.45594000000E+02  0.51100000000E-03 0. -1.
    9900012    2    1    2    0    0  0.27652631162E+01  0.44870409686E+02 -0.28483501753E+01  0.46142318252E+02  0.10000004474E+02 0.  0.
         12    1    1    2    0    0 -0.27652631162E+01 -0.44870409686E+02  0.28483501753E+01  0.45045681748E+02  0.00000000000E+00 0. -1.
         11    1    3    3    0    0  0.27242334915E+01  0.22085647530E+02 -0.53208052927E+01  0.22880302537E+02  0.51100000000E-03 0. -1.
        -11    1    3    3    0    0  0.17145414832E+01  0.58079684634E+01  0.27508462691E+00  0.60619981839E+01  0.51100000000E-03 0.  1.
         12    1    3    3    0    0 -0.16735118585E+01  0.16976793692E+02  0.21973704905E+01  0.17200017531E+02  0.00000000000E+00 0. -1.
</event>
